<event>
 5    1  0.6924865E-004  0.9118800E+02  0.7818608E-02  0.1130116E+00
         25   -1    0    0    0    0  0.00000000000E+00  0.00000000000E+00  0.99999998245E-14  0.12500000000E+03  0.12500000000E+03 0.  0.
        -13    1    3    3    0    0  0.14781863224E+02  0.48387814371E+02 -0.16282305203E+02  0.53150810782E+02  0.10566000000E+00 0. -1.
         23    2    1    0    0    0 -0.16074763637E+02  0.18499126345E+02 -0.15275657080E+02  0.96121610143E+02  0.91680982410E+02 0.  0.
         13    1    3    3    0    0 -0.30856626862E+02 -0.29888688026E+02  0.10066481230E+01  0.42970799361E+02  0.10566000000E+00 0.  1.
         22    1    1    0    0    0  0.16074763637E+02 -0.18499126345E+02  0.15275657080E+02  0.28878389857E+02  0.00000000000E+00 0. -1.
</event>
<event>
 5    1  0.6924865E-004  0.9118800E+02  0.7818608E-02  0.1130116E+00
         25   -1    0    0    0    0  0.00000000000E+00  0.00000000000E+00  0.99999998245E-14  0.12500000000E+03  0.12500000000E+03 0.  0.
        -13    1    3    3    0    0  0.69033985529E+01 -0.58055270433E+02 -0.18503500033E+02  0.61322606061E+02  0.10566000000E+00 0.  1.
         23    2    1    0    0    0 -0.28261052848E+01 -0.23939174706E+02 -0.14106007058E+02  0.97070617769E+02  0.92965877838E+02 0.  0.
         13    1    3    3    0    0 -0.97295038376E+01  0.34116095727E+02  0.43974929754E+01  0.35748011708E+02  0.10566000000E+00 0. -1.
         22    1    1    0    0    0  0.28261052848E+01  0.23939174706E+02  0.14106007058E+02  0.27929382231E+02  0.00000000000E+00 0.  1.
</event>
<event>
 5    1  0.6924865E-004  0.9118800E+02  0.7818608E-02  0.1130116E+00
         25   -1    0    0    0    0  0.00000000000E+00  0.00000000000E+00  0.99999998245E-14  0.12500000000E+03  0.12500000000E+03 0.  0.
        -13    1    3    3    0    0  0.41219837429E+02  0.30291554058E+02  0.23542916310E+02  0.56311040812E+02  0.10566000000E+00 0. -1.
         23    2    1    0    0    0  0.19522647420E+02 -0.30127141064E+01  0.21042612656E+02  0.96138230200E+02  0.91703639786E+02 0.  0.
         13    1    3    3    0    0 -0.21697190009E+02 -0.33304268164E+02 -0.25003036535E+01  0.39827189389E+02  0.10566000000E+00 0.  1.
         22    1    1    0    0    0 -0.19522647420E+02  0.30127141064E+01 -0.21042612656E+02  0.28861769800E+02  0.00000000000E+00 0. -1.
</event>
<event>
 5    1  0.6924865E-004  0.9118800E+02  0.7818608E-02  0.1130116E+00
         25   -1    0    0    0    0  0.00000000000E+00  0.00000000000E+00  0.99999998245E-14  0.12500000000E+03  0.12500000000E+03 0.  0.
        -13    1    3    3    0    0 -0.25112697420E+02 -0.32784601923E+02  0.85122693260E+01  0.42165715790E+02  0.10566000000E+00 0. -1.
         23    2    1    0    0    0 -0.21442053015E+02  0.16318981649E+02 -0.11993720632E+02  0.95505591476E+02  0.90837205313E+02 0.  0.
         13    1    3    3    0    0  0.36706444055E+01  0.49103583572E+02 -0.20505989958E+02  0.53339875686E+02  0.10566000000E+00 0.  1.
         22    1    1    0    0    0  0.21442053015E+02 -0.16318981649E+02  0.11993720632E+02  0.29494408524E+02  0.00000000000E+00 0.  1.
</event>
<event>
 5    1  0.6924865E-004  0.9118800E+02  0.7818608E-02  0.1130116E+00
         25   -1    0    0    0    0  0.00000000000E+00  0.00000000000E+00  0.99999998245E-14  0.12500000000E+03  0.12500000000E+03 0.  0.
        -13    1    3    3    0    0 -0.76201040289E+01  0.49716628722E+02 -0.28294427410E+02  0.57709574105E+02  0.10566000000E+00 0.  1.
         23    2    1    0    0    0 -0.13985810915E+01  0.30453026816E+02  0.23364725528E+01  0.94425468518E+02  0.89338497466E+02 0.  0.
         13    1    3    3    0    0  0.62215229374E+01 -0.19263601905E+02  0.30630899962E+02  0.36715894413E+02  0.10566000000E+00 0. -1.
         22    1    1    0    0    0  0.13985810915E+01 -0.30453026816E+02 -0.23364725528E+01  0.30574531482E+02  0.00000000000E+00 0.  1.
</event>
<event>
 5    1  0.6924865E-004  0.9118800E+02  0.7818608E-02  0.1130116E+00
         25   -1    0    0    0    0  0.00000000000E+00  0.00000000000E+00  0.99999998245E-14  0.12500000000E+03  0.12500000000E+03 0.  0.
        -13    1    3    3    0    0 -0.21111430313E+02 -0.38903832289E+01 -0.32274628976E+02  0.38761971197E+02  0.10566000000E+00 0.  1.
         23    2    1    0    0    0  0.18601223232E+02 -0.22571209907E+02  0.37122657427E+01  0.95517022888E+02  0.90852934582E+02 0.  0.
         13    1    3    3    0    0  0.39712653545E+02 -0.18680826679E+02  0.35986894719E+02  0.56755051691E+02  0.10566000000E+00 0. -1.
         22    1    1    0    0    0 -0.18601223232E+02  0.22571209907E+02 -0.37122657427E+01  0.29482977112E+02  0.00000000000E+00 0. -1.
</event>
<event>
 5    1  0.6924865E-004  0.9118800E+02  0.7818608E-02  0.1130116E+00
         25   -1    0    0    0    0  0.00000000000E+00  0.00000000000E+00  0.99999998245E-14  0.12500000000E+03  0.12500000000E+03 0.  0.
        -13    1    3    3    0    0  0.40936634535E+02 -0.14699411047E+02 -0.19694610229E+02  0.47746932554E+02  0.10566000000E+00 0. -1.
         23    2    1    0    0    0  0.18751758875E+02 -0.12861501239E+02  0.20945535029E+02  0.94084597485E+02  0.88860280053E+02 0.  0.
         13    1    3    3    0    0 -0.22184875661E+02  0.18379098082E+01  0.40640145259E+02  0.46337664931E+02  0.10566000000E+00 0.  1.
         22    1    1    0    0    0 -0.18751758875E+02  0.12861501239E+02 -0.20945535029E+02  0.30915402515E+02  0.00000000000E+00 0. -1.
</event>
<event>
 5    1  0.6924865E-004  0.9118800E+02  0.7818608E-02  0.1130116E+00
         25   -1    0    0    0    0  0.00000000000E+00  0.00000000000E+00  0.99999998245E-14  0.12500000000E+03  0.12500000000E+03 0.  0.
        -13    1    3    3    0    0  0.29031929004E+02 -0.25726209220E+02  0.45595562339E+02  0.59863655181E+02  0.10566000000E+00 0.  1.
         23    2    1    0    0    0  0.90846987304E+01 -0.19297132177E+01  0.27881662469E+02  0.95612202427E+02  0.90983793100E+02 0.  0.
         13    1    3    3    0    0 -0.19947230273E+02  0.23796496003E+02 -0.17713899870E+02  0.35748547246E+02  0.10566000000E+00 0. -1.
         22    1    1    0    0    0 -0.90846987304E+01  0.19297132177E+01 -0.27881662469E+02  0.29387797573E+02  0.00000000000E+00 0.  1.
</event>
<event>
 5    1  0.6924865E-004  0.9118800E+02  0.7818608E-02  0.1130116E+00
         25   -1    0    0    0    0  0.00000000000E+00  0.00000000000E+00  0.99999998245E-14  0.12500000000E+03  0.12500000000E+03 0.  0.
        -13    1    3    3    0    0  0.35983404492E+02  0.42749702690E+02  0.14551571614E+02  0.57741682339E+02  0.10566000000E+00 0.  1.
         23    2    1    0    0    0  0.26122519255E+02  0.12036652981E+02 -0.54906128852E+01  0.95718369973E+02  0.91129536887E+02 0.  0.
         13    1    3    3    0    0 -0.98608852371E+01 -0.30713049709E+02 -0.20042184499E+02  0.37976687634E+02  0.10566000000E+00 0. -1.
         22    1    1    0    0    0 -0.26122519255E+02 -0.12036652981E+02  0.54906128852E+01  0.29281630027E+02  0.00000000000E+00 0.  1.
</event>
<event>
 5    1  0.6924865E-004  0.9118800E+02  0.7818608E-02  0.1130116E+00
         25   -1    0    0    0    0  0.00000000000E+00  0.00000000000E+00  0.99999998245E-14  0.12500000000E+03  0.12500000000E+03 0.  0.
        -13    1    3    3    0    0  0.25908665991E+02  0.25712564931E+02  0.52574170312E+01  0.36878809182E+02  0.10566000000E+00 0. -1.
         23    2    1    0    0    0  0.64102617140E+01 -0.27411741046E+02 -0.93733701451E+01  0.95329221946E+02  0.90594180203E+02 0.  0.
         13    1    3    3    0    0 -0.19498404277E+02 -0.53124305978E+02 -0.14630787176E+02  0.58450412765E+02  0.10566000000E+00 0.  1.
         22    1    1    0    0    0 -0.64102617140E+01  0.27411741046E+02  0.93733701451E+01  0.29670778054E+02  0.00000000000E+00 0.  1.
</event>
<event>
 5    1  0.6924865E-004  0.9118800E+02  0.7818608E-02  0.1130116E+00
         25   -1    0    0    0    0  0.00000000000E+00  0.00000000000E+00  0.99999998245E-14  0.12500000000E+03  0.12500000000E+03 0.  0.
        -13    1    3    3    0    0 -0.16145248714E+02 -0.28717765754E+02 -0.87085736086E+01  0.34076818283E+02  0.10566000000E+00 0. -1.
         23    2    1    0    0    0  0.27620031351E+02 -0.15867306134E+02 -0.27021988967E+02  0.83228892479E+02  0.71987659496E+02 0.  0.
         13    1    3    3    0    0  0.43765280065E+02  0.12850459621E+02 -0.18313415359E+02  0.49152074196E+02  0.10566000000E+00 0.  1.
         22    1    1    0    0    0 -0.27620031351E+02  0.15867306134E+02  0.27021988967E+02  0.41771107521E+02  0.00000000000E+00 0.  1.
</event>
<event>
 5    1  0.6924865E-004  0.9118800E+02  0.7818608E-02  0.1130116E+00
         25   -1    0    0    0    0  0.00000000000E+00  0.00000000000E+00  0.99999998245E-14  0.12500000000E+03  0.12500000000E+03 0.  0.
        -13    1    3    3    0    0 -0.38995199561E+02  0.47123393097E+02  0.78522470293E+01  0.61667728296E+02  0.10566000000E+00 0. -1.
         23    2    1    0    0    0 -0.21607228189E+02  0.19334713341E+02 -0.21094627976E+01  0.95928479860E+02  0.91417284826E+02 0.  0.
         13    1    3    3    0    0  0.17387971372E+02 -0.27788679756E+02 -0.99617098269E+01  0.34260751564E+02  0.10566000000E+00 0.  1.
         22    1    1    0    0    0  0.21607228189E+02 -0.19334713341E+02  0.21094627976E+01  0.29071520140E+02  0.00000000000E+00 0. -1.
</event>
<event>
 5    1  0.6924865E-004  0.9118800E+02  0.7818608E-02  0.1130116E+00
         25   -1    0    0    0    0  0.00000000000E+00  0.00000000000E+00  0.99999998245E-14  0.12500000000E+03  0.12500000000E+03 0.  0.
        -13    1    3    3    0    0  0.11953444650E+02  0.57889702447E+02 -0.17666568256E+02  0.61694580689E+02  0.10566000000E+00 0.  1.
         23    2    1    0    0    0  0.13580514183E+02  0.36138887320E+02 -0.78976178485E+01  0.85594138635E+02  0.75983778919E+02 0.  0.
         13    1    3    3    0    0  0.16270695335E+01 -0.21750815127E+02  0.97689504074E+01  0.23899557946E+02  0.10566000000E+00 0. -1.
         22    1    1    0    0    0 -0.13580514183E+02 -0.36138887320E+02  0.78976178485E+01  0.39405861365E+02  0.00000000000E+00 0.  1.
</event>
<event>
 5    1  0.6924865E-004  0.9118800E+02  0.7818608E-02  0.1130116E+00
         25   -1    0    0    0    0  0.00000000000E+00  0.00000000000E+00  0.99999998245E-14  0.12500000000E+03  0.12500000000E+03 0.  0.
        -13    1    3    3    0    0 -0.12771100422E+01 -0.33517449256E+01 -0.37643735973E+02  0.37814378564E+02  0.10566000000E+00 0. -1.
         23    2    1    0    0    0  0.25727087521E+02  0.93470399304E+01  0.11500943751E+02  0.95309565599E+02  0.90567054714E+02 0.  0.
         13    1    3    3    0    0  0.27004197563E+02  0.12698784856E+02  0.49144679725E+02  0.57495187035E+02  0.10566000000E+00 0.  1.
         22    1    1    0    0    0 -0.25727087521E+02 -0.93470399304E+01 -0.11500943751E+02  0.29690434401E+02  0.00000000000E+00 0.  1.
</event>
<event>
 5    1  0.6924865E-004  0.9118800E+02  0.7818608E-02  0.1130116E+00
         25   -1    0    0    0    0  0.00000000000E+00  0.00000000000E+00  0.99999998245E-14  0.12500000000E+03  0.12500000000E+03 0.  0.
        -13    1    3    3    0    0 -0.21281963867E+02  0.44708504339E+02  0.21672653854E+02  0.54050785706E+02  0.10566000000E+00 0. -1.
         23    2    1    0    0    0 -0.94339531986E+01  0.27356550152E+02 -0.11944629374E+02  0.93694178177E+02  0.88309368383E+02 0.  0.
         13    1    3    3    0    0  0.11848010669E+02 -0.17351954188E+02 -0.33617283228E+02  0.39643392471E+02  0.10566000000E+00 0.  1.
         22    1    1    0    0    0  0.94339531986E+01 -0.27356550152E+02  0.11944629374E+02  0.31305821823E+02  0.00000000000E+00 0. -1.
</event>
<event>
 5    1  0.6924865E-004  0.9118800E+02  0.7818608E-02  0.1130116E+00
         25   -1    0    0    0    0  0.00000000000E+00  0.00000000000E+00  0.99999998245E-14  0.12500000000E+03  0.12500000000E+03 0.  0.
        -13    1    3    3    0    0 -0.27144442561E+02 -0.24333492071E+02 -0.21023483128E+02  0.42082509492E+02  0.10566000000E+00 0.  1.
         23    2    1    0    0    0  0.62498637481E+01  0.18895210715E+02 -0.20097776676E+02  0.96715544690E+02  0.92487221672E+02 0.  0.
         13    1    3    3    0    0  0.33394306309E+02  0.43228702787E+02  0.92570645176E+00  0.54633035198E+02  0.10566000000E+00 0. -1.
         22    1    1    0    0    0 -0.62498637481E+01 -0.18895210715E+02  0.20097776676E+02  0.28284455310E+02  0.00000000000E+00 0. -1.
</event>
<event>
 5    1  0.6924865E-004  0.9118800E+02  0.7818608E-02  0.1130116E+00
         25   -1    0    0    0    0  0.00000000000E+00  0.00000000000E+00  0.99999998245E-14  0.12500000000E+03  0.12500000000E+03 0.  0.
        -13    1    3    3    0    0 -0.46983573303E+02 -0.34695948674E+01  0.22800377201E+02  0.52338920636E+02  0.10566000000E+00 0. -1.
         23    2    1    0    0    0 -0.20369276505E+02  0.21661364901E+02  0.38139867427E+00  0.95263362335E+02  0.90503262834E+02 0.  0.
         13    1    3    3    0    0  0.26614296798E+02  0.25130959768E+02 -0.22418978526E+02  0.42924441698E+02  0.10566000000E+00 0.  1.
         22    1    1    0    0    0  0.20369276505E+02 -0.21661364901E+02 -0.38139867427E+00  0.29736637665E+02  0.00000000000E+00 0. -1.
</event>
<event>
 5    1  0.6924865E-004  0.9118800E+02  0.7818608E-02  0.1130116E+00
         25   -1    0    0    0    0  0.00000000000E+00  0.00000000000E+00  0.99999998245E-14  0.12500000000E+03  0.12500000000E+03 0.  0.
        -13    1    3    3    0    0  0.12740449566E+02  0.35442618187E+02  0.27240068152E+01  0.37761483237E+02  0.10566000000E+00 0. -1.
         23    2    1    0    0    0  0.17835327637E+01 -0.11500644359E+02 -0.27830311826E+02  0.94834256745E+02  0.89908643557E+02 0.  0.
         13    1    3    3    0    0 -0.10956916803E+02 -0.46943262546E+02 -0.30554318641E+02  0.57072773508E+02  0.10566000000E+00 0.  1.
         22    1    1    0    0    0 -0.17835327637E+01  0.11500644359E+02  0.27830311826E+02  0.30165743255E+02  0.00000000000E+00 0.  1.
</event>
<event>
 5    1  0.6924865E-004  0.9118800E+02  0.7818608E-02  0.1130116E+00
         25   -1    0    0    0    0  0.00000000000E+00  0.00000000000E+00  0.99999998245E-14  0.12500000000E+03  0.12500000000E+03 0.  0.
        -13    1    3    3    0    0  0.21009709583E+02  0.15334845659E+02  0.22312825296E+02  0.34270084985E+02  0.10566000000E+00 0.  1.
         23    2    1    0    0    0 -0.25120336911E+02 -0.34592619592E+01 -0.14113239748E+02  0.95979638940E+02  0.91487210773E+02 0.  0.
         13    1    3    3    0    0 -0.46130046494E+02 -0.18794107618E+02 -0.36426065044E+02  0.61709553955E+02  0.10566000000E+00 0. -1.
         22    1    1    0    0    0  0.25120336911E+02  0.34592619592E+01  0.14113239748E+02  0.29020361060E+02  0.00000000000E+00 0. -1.
</event>
<event>
 5    1  0.6924865E-004  0.9118800E+02  0.7818608E-02  0.1130116E+00
         25   -1    0    0    0    0  0.00000000000E+00  0.00000000000E+00  0.99999998245E-14  0.12500000000E+03  0.12500000000E+03 0.  0.
        -13    1    3    3    0    0 -0.40932769870E+02 -0.30012977400E+02  0.19151147194E+02  0.54249866954E+02  0.10566000000E+00 0. -1.
         23    2    1    0    0    0 -0.29701339144E+02 -0.54766009523E+01 -0.92368581857E+01  0.93417057546E+02  0.87916235056E+02 0.  0.
         13    1    3    3    0    0  0.11231430726E+02  0.24536376447E+02 -0.28388005380E+02  0.39167190591E+02  0.10566000000E+00 0.  1.
         22    1    1    0    0    0  0.29701339144E+02  0.54766009523E+01  0.92368581857E+01  0.31582942454E+02  0.00000000000E+00 0. -1.
</event>
<event>
 5    1  0.6924865E-004  0.9118800E+02  0.7818608E-02  0.1130116E+00
         25   -1    0    0    0    0  0.00000000000E+00  0.00000000000E+00  0.99999998245E-14  0.12500000000E+03  0.12500000000E+03 0.  0.
        -13    1    3    3    0    0 -0.82846295758E+00 -0.26772276160E+02 -0.13410243080E+02  0.29954747623E+02  0.10566000000E+00 0. -1.
         23    2    1    0    0    0 -0.35573892890E+01  0.22495175399E+01  0.36771382776E+02  0.87988516121E+02  0.79825616378E+02 0.  0.
         13    1    3    3    0    0 -0.27289263315E+01  0.29021793700E+02  0.50181625855E+02  0.58033768498E+02  0.10566000000E+00 0.  1.
         22    1    1    0    0    0  0.35573892890E+01 -0.22495175399E+01 -0.36771382776E+02  0.37011483879E+02  0.00000000000E+00 0.  1.
</event>
<event>
 5    1  0.6924865E-004  0.9118800E+02  0.7818608E-02  0.1130116E+00
         25   -1    0    0    0    0  0.00000000000E+00  0.00000000000E+00  0.99999998245E-14  0.12500000000E+03  0.12500000000E+03 0.  0.
        -13    1    3    3    0    0  0.90262367306E+01  0.51874808853E+02  0.20398609838E+02  0.56467541034E+02  0.10566000000E+00 0.  1.
         23    2    1    0    0    0  0.21683630534E+02  0.19130684790E+02  0.22255950387E+01  0.95997996501E+02  0.91512289477E+02 0.  0.
         13    1    3    3    0    0  0.12657393803E+02 -0.32744124063E+02 -0.18173014799E+02  0.39530455468E+02  0.10566000000E+00 0. -1.
         22    1    1    0    0    0 -0.21683630534E+02 -0.19130684790E+02 -0.22255950387E+01  0.29002003499E+02  0.00000000000E+00 0.  1.
</event>
<event>
 5    1  0.6924865E-004  0.9118800E+02  0.7818608E-02  0.1130116E+00
         25   -1    0    0    0    0  0.00000000000E+00  0.00000000000E+00  0.99999998245E-14  0.12500000000E+03  0.12500000000E+03 0.  0.
        -13    1    3    3    0    0  0.32941232514E+02 -0.13131580664E+02 -0.37310621911E+02  0.51474817937E+02  0.10566000000E+00 0.  1.
         23    2    1    0    0    0 -0.95373259332E+01 -0.15007536004E+02 -0.22102085436E+02  0.96632960968E+02  0.92375539197E+02 0.  0.
         13    1    3    3    0    0 -0.42478558447E+02 -0.18759553403E+01  0.15208536475E+02  0.45158143030E+02  0.10566000000E+00 0. -1.
         22    1    1    0    0    0  0.95373259332E+01  0.15007536004E+02  0.22102085436E+02  0.28367039032E+02  0.00000000000E+00 0. -1.
</event>
<event>
 5    1  0.6924865E-004  0.9118800E+02  0.7818608E-02  0.1130116E+00
         25   -1    0    0    0    0  0.00000000000E+00  0.00000000000E+00  0.99999998245E-14  0.12500000000E+03  0.12500000000E+03 0.  0.
        -13    1    3    3    0    0 -0.56556335784E+01 -0.87139758738E+01  0.21095435810E+02  0.23514849409E+02  0.10566000000E+00 0. -1.
         23    2    1    0    0    0 -0.35322960897E+02  0.31399264980E+02 -0.14074782483E+00  0.77738544058E+02  0.61722248943E+02 0.  0.
         13    1    3    3    0    0 -0.29667327319E+02  0.40113240853E+02 -0.21236183635E+02  0.54223694649E+02  0.10566000000E+00 0.  1.
         22    1    1    0    0    0  0.35322960897E+02 -0.31399264980E+02  0.14074782483E+00  0.47261455942E+02  0.00000000000E+00 0.  1.
</event>
<event>
 5    1  0.6924865E-004  0.9118800E+02  0.7818608E-02  0.1130116E+00
         25   -1    0    0    0    0  0.00000000000E+00  0.00000000000E+00  0.99999998245E-14  0.12500000000E+03  0.12500000000E+03 0.  0.
        -13    1    3    3    0    0 -0.28871712467E+02  0.51101342483E+02  0.16842546872E+02  0.61062308616E+02  0.10566000000E+00 0. -1.
         23    2    1    0    0    0 -0.90719575038E+01  0.25379125293E+02  0.16250640384E+02  0.93528048576E+02  0.88073901605E+02 0.  0.
         13    1    3    3    0    0  0.19799754963E+02 -0.25722217191E+02 -0.59190648779E+00  0.32465739959E+02  0.10566000000E+00 0.  1.
         22    1    1    0    0    0  0.90719575038E+01 -0.25379125293E+02 -0.16250640384E+02  0.31471951424E+02  0.00000000000E+00 0. -1.
</event>
<event>
 5    1  0.6924865E-004  0.9118800E+02  0.7818608E-02  0.1130116E+00
         25   -1    0    0    0    0  0.00000000000E+00  0.00000000000E+00  0.99999998245E-14  0.12500000000E+03  0.12500000000E+03 0.  0.
        -13    1    3    3    0    0  0.73561874864E+01 -0.24748613517E+02 -0.45396620306E+02  0.52225201432E+02  0.10566000000E+00 0.  1.
         23    2    1    0    0    0 -0.18590521315E+02 -0.18029210887E+02 -0.86739899453E+01  0.97688866198E+02  0.93793478182E+02 0.  0.
         13    1    3    3    0    0 -0.25946708801E+02  0.67194026298E+01  0.36722630361E+02  0.45463664766E+02  0.10566000000E+00 0. -1.
         22    1    1    0    0    0  0.18590521315E+02  0.18029210887E+02  0.86739899453E+01  0.27311133802E+02  0.00000000000E+00 0.  1.
</event>
<event>
 5    1  0.6924865E-004  0.9118800E+02  0.7818608E-02  0.1130116E+00
         25   -1    0    0    0    0  0.00000000000E+00  0.00000000000E+00  0.99999998245E-14  0.12500000000E+03  0.12500000000E+03 0.  0.
        -13    1    3    3    0    0  0.21477302754E+02  0.26284305932E+02  0.32730151826E+02  0.47153083404E+02  0.10566000000E+00 0. -1.
         23    2    1    0    0    0  0.19552560544E+02 -0.17806505076E+02  0.13735004122E+02  0.95200258641E+02  0.90416064171E+02 0.  0.
         13    1    3    3    0    0 -0.19247422099E+01 -0.44090811007E+02 -0.18995147704E+02  0.48047175237E+02  0.10566000000E+00 0.  1.
         22    1    1    0    0    0 -0.19552560544E+02  0.17806505076E+02 -0.13735004122E+02  0.29799741359E+02  0.00000000000E+00 0. -1.
</event>
<event>
 5    1  0.6924865E-004  0.9118800E+02  0.7818608E-02  0.1130116E+00
         25   -1    0    0    0    0  0.00000000000E+00  0.00000000000E+00  0.99999998245E-14  0.12500000000E+03  0.12500000000E+03 0.  0.
        -13    1    3    3    0    0  0.36085112317E+02 -0.53875911905E+01 -0.36127842808E+00  0.36487027227E+02  0.10566000000E+00 0. -1.
         23    2    1    0    0    0 -0.19485663216E+02 -0.11899278417E+02  0.18586648752E+02  0.95559425793E+02  0.90911255894E+02 0.  0.
         13    1    3    3    0    0 -0.55570775533E+02 -0.65116872265E+01  0.18947927180E+02  0.59072398566E+02  0.10566000000E+00 0.  1.
         22    1    1    0    0    0  0.19485663216E+02  0.11899278417E+02 -0.18586648752E+02  0.29440574207E+02  0.00000000000E+00 0.  1.
</event>
<event>
 5    1  0.6924865E-004  0.9118800E+02  0.7818608E-02  0.1130116E+00
         25   -1    0    0    0    0  0.00000000000E+00  0.00000000000E+00  0.99999998245E-14  0.12500000000E+03  0.12500000000E+03 0.  0.
        -13    1    3    3    0    0 -0.14128490071E+02 -0.13808439644E+00  0.58990052803E+02  0.60658641534E+02  0.10566000000E+00 0. -1.
         23    2    1    0    0    0 -0.14865942047E+02 -0.66365262034E+01  0.25756799403E+02  0.94529482635E+02  0.89483912850E+02 0.  0.
         13    1    3    3    0    0 -0.73745197586E+00 -0.64984418069E+01 -0.33233253400E+02  0.33870841102E+02  0.10566000000E+00 0.  1.
         22    1    1    0    0    0  0.14865942047E+02  0.66365262034E+01 -0.25756799403E+02  0.30470517365E+02  0.00000000000E+00 0. -1.
</event>
<event>
 5    1  0.6924865E-004  0.9118800E+02  0.7818608E-02  0.1130116E+00
         25   -1    0    0    0    0  0.00000000000E+00  0.00000000000E+00  0.99999998245E-14  0.12500000000E+03  0.12500000000E+03 0.  0.
        -13    1    3    3    0    0  0.77112099560E+01 -0.27644069497E+02  0.12451966909E+02  0.31284500656E+02  0.10566000000E+00 0.  1.
         23    2    1    0    0    0 -0.37581343540E+02  0.10697116507E+01  0.13858850720E+02  0.84930442870E+02  0.74883981716E+02 0.  0.
         13    1    3    3    0    0 -0.45292553496E+02  0.28713781148E+02  0.14068838117E+01  0.53645942214E+02  0.10566000000E+00 0. -1.
         22    1    1    0    0    0  0.37581343540E+02 -0.10697116507E+01 -0.13858850720E+02  0.40069557130E+02  0.00000000000E+00 0. -1.
</event>
<event>
 5    1  0.6924865E-004  0.9118800E+02  0.7818608E-02  0.1130116E+00
         25   -1    0    0    0    0  0.00000000000E+00  0.00000000000E+00  0.99999998245E-14  0.12500000000E+03  0.12500000000E+03 0.  0.
        -13    1    3    3    0    0 -0.55341107288E+02 -0.22869070232E+02 -0.15139006057E+02  0.61764335968E+02  0.10566000000E+00 0.  1.
         23    2    1    0    0    0 -0.28415496139E+02 -0.57721201414E+01 -0.31698205193E+01  0.95831428662E+02  0.91284484802E+02 0.  0.
         13    1    3    3    0    0  0.26925611149E+02  0.17096950091E+02  0.11969185538E+02  0.34067092694E+02  0.10566000000E+00 0. -1.
         22    1    1    0    0    0  0.28415496139E+02  0.57721201414E+01  0.31698205193E+01  0.29168571338E+02  0.00000000000E+00 0.  1.
</event>
<event>
 5    1  0.6924865E-004  0.9118800E+02  0.7818608E-02  0.1130116E+00
         25   -1    0    0    0    0  0.00000000000E+00  0.00000000000E+00  0.99999998245E-14  0.12500000000E+03  0.12500000000E+03 0.  0.
        -13    1    3    3    0    0  0.85934925396E+01  0.12564468377E+02  0.12823348240E+02  0.19903853992E+02  0.10566000000E+00 0.  1.
         23    2    1    0    0    0 -0.19100694631E+02 -0.39382254752E+02 -0.37765251556E+01  0.81067544264E+02  0.68131388258E+02 0.  0.
         13    1    3    3    0    0 -0.27694187171E+02 -0.51946723129E+02 -0.16599873396E+02  0.61163690272E+02  0.10566000000E+00 0. -1.
         22    1    1    0    0    0  0.19100694631E+02  0.39382254752E+02  0.37765251556E+01  0.43932455736E+02  0.00000000000E+00 0. -1.
</event>
<event>
 5    1  0.6924865E-004  0.9118800E+02  0.7818608E-02  0.1130116E+00
         25   -1    0    0    0    0  0.00000000000E+00  0.00000000000E+00  0.99999998245E-14  0.12500000000E+03  0.12500000000E+03 0.  0.
        -13    1    3    3    0    0 -0.65815560477E+01 -0.35705579346E+02  0.82532205236E+01  0.37233480760E+02  0.10566000000E+00 0.  1.
         23    2    1    0    0    0  0.36631833665E+01  0.95938106329E+01 -0.27370779532E+02  0.95766120903E+02  0.91195012066E+02 0.  0.
         13    1    3    3    0    0  0.10244739414E+02  0.45299389979E+02 -0.35624000056E+02  0.58532640143E+02  0.10566000000E+00 0. -1.
         22    1    1    0    0    0 -0.36631833665E+01 -0.95938106329E+01  0.27370779532E+02  0.29233879097E+02  0.00000000000E+00 0. -1.
</event>
<event>
 5    1  0.6924865E-004  0.9118800E+02  0.7818608E-02  0.1130116E+00
         25   -1    0    0    0    0  0.00000000000E+00  0.00000000000E+00  0.99999998245E-14  0.12500000000E+03  0.12500000000E+03 0.  0.
        -13    1    3    3    0    0 -0.19093871659E+01 -0.25284923152E+02 -0.31305318327E+02  0.40286563737E+02  0.10566000000E+00 0. -1.
         23    2    1    0    0    0 -0.22983404150E+02  0.52067593186E+01  0.13027542607E+02  0.98072986142E+02  0.94304011238E+02 0.  0.
         13    1    3    3    0    0 -0.21074016984E+02  0.30491682471E+02  0.44332860934E+02  0.57786422405E+02  0.10566000000E+00 0.  1.
         22    1    1    0    0    0  0.22983404150E+02 -0.52067593186E+01 -0.13027542607E+02  0.26927013858E+02  0.00000000000E+00 0.  1.
</event>
<event>
 5    1  0.6924865E-004  0.9118800E+02  0.7818608E-02  0.1130116E+00
         25   -1    0    0    0    0  0.00000000000E+00  0.00000000000E+00  0.99999998245E-14  0.12500000000E+03  0.12500000000E+03 0.  0.
        -13    1    3    3    0    0  0.41261317432E+02 -0.13245907403E+02  0.65715967107E+00  0.43340436108E+02  0.10566000000E+00 0. -1.
         23    2    1    0    0    0 -0.24450303902E+01 -0.53590407845E+01 -0.28125709426E+02  0.96264081319E+02  0.91875025604E+02 0.  0.
         13    1    3    3    0    0 -0.43706347822E+02  0.78868666187E+01 -0.28782869097E+02  0.52923645211E+02  0.10566000000E+00 0.  1.
         22    1    1    0    0    0  0.24450303902E+01  0.53590407845E+01  0.28125709426E+02  0.28735918681E+02  0.00000000000E+00 0.  1.
</event>
<event>
 5    1  0.6924865E-004  0.9118800E+02  0.7818608E-02  0.1130116E+00
         25   -1    0    0    0    0  0.00000000000E+00  0.00000000000E+00  0.99999998245E-14  0.12500000000E+03  0.12500000000E+03 0.  0.
        -13    1    3    3    0    0  0.20990449424E+02  0.28647404357E+02  0.18940990396E+02  0.40249782914E+02  0.10566000000E+00 0.  1.
         23    2    1    0    0    0  0.17261672630E+01 -0.19810880127E+02  0.25340671111E+02  0.92788197238E+02  0.87017523002E+02 0.  0.
         13    1    3    3    0    0 -0.19264282161E+02 -0.48458284484E+02  0.63996807151E+01  0.52538414324E+02  0.10566000000E+00 0. -1.
         22    1    1    0    0    0 -0.17261672630E+01  0.19810880127E+02 -0.25340671111E+02  0.32211802762E+02  0.00000000000E+00 0. -1.
</event>
<event>
 5    1  0.6924865E-004  0.9118800E+02  0.7818608E-02  0.1130116E+00
         25   -1    0    0    0    0  0.00000000000E+00  0.00000000000E+00  0.99999998245E-14  0.12500000000E+03  0.12500000000E+03 0.  0.
        -13    1    3    3    0    0 -0.62679380139E+00 -0.31191325417E+02 -0.52411029032E+02  0.60993596221E+02  0.10566000000E+00 0. -1.
         23    2    1    0    0    0  0.92444923411E+01 -0.12944561130E+02 -0.24960630261E+02  0.95401767544E+02  0.90694221900E+02 0.  0.
         13    1    3    3    0    0  0.98712861425E+01  0.18246764287E+02  0.27450398772E+02  0.34408171323E+02  0.10566000000E+00 0.  1.
         22    1    1    0    0    0 -0.92444923411E+01  0.12944561130E+02  0.24960630261E+02  0.29598232456E+02  0.00000000000E+00 0. -1.
</event>
<event>
 5    1  0.6924865E-004  0.9118800E+02  0.7818608E-02  0.1130116E+00
         25   -1    0    0    0    0  0.00000000000E+00  0.00000000000E+00  0.99999998245E-14  0.12500000000E+03  0.12500000000E+03 0.  0.
        -13    1    3    3    0    0 -0.35663319524E+02 -0.22771709904E+02  0.37017004663E+01  0.42475132511E+02  0.10566000000E+00 0. -1.
         23    2    1    0    0    0  0.12829319774E+02 -0.19908657054E+02 -0.17574577331E+02  0.95507427377E+02  0.90839731638E+02 0.  0.
         13    1    3    3    0    0  0.48492639299E+02  0.28630528499E+01 -0.21276277798E+02  0.53032294866E+02  0.10566000000E+00 0.  1.
         22    1    1    0    0    0 -0.12829319774E+02  0.19908657054E+02  0.17574577331E+02  0.29492572623E+02  0.00000000000E+00 0.  1.
</event>
<event>
 5    1  0.6924865E-004  0.9118800E+02  0.7818608E-02  0.1130116E+00
         25   -1    0    0    0    0  0.00000000000E+00  0.00000000000E+00  0.99999998245E-14  0.12500000000E+03  0.12500000000E+03 0.  0.
        -13    1    3    3    0    0 -0.36289308748E+02  0.78204767936E+00 -0.18158285573E+02  0.40586451273E+02  0.10566000000E+00 0.  1.
         23    2    1    0    0    0  0.15966420537E+02 -0.17330962267E+02 -0.17068561835E+02  0.95903185037E+02  0.91382691246E+02 0.  0.
         13    1    3    3    0    0  0.52255729285E+02 -0.18113009946E+02  0.10897237381E+01  0.55316733764E+02  0.10566000000E+00 0. -1.
         22    1    1    0    0    0 -0.15966420537E+02  0.17330962267E+02  0.17068561835E+02  0.29096814963E+02  0.00000000000E+00 0. -1.
</event>
<event>
 5    1  0.6924865E-004  0.9118800E+02  0.7818608E-02  0.1130116E+00
         25   -1    0    0    0    0  0.00000000000E+00  0.00000000000E+00  0.99999998245E-14  0.12500000000E+03  0.12500000000E+03 0.  0.
        -13    1    3    3    0    0 -0.95446289169E+01 -0.35015513331E+02 -0.50573228571E+02  0.62248282925E+02  0.10566000000E+00 0.  1.
         23    2    1    0    0    0 -0.70501952060E+01 -0.13234967594E+02 -0.24034575007E+02  0.96671032220E+02  0.92427041796E+02 0.  0.
         13    1    3    3    0    0  0.24944337109E+01  0.21780545736E+02  0.26538653563E+02  0.34422749296E+02  0.10566000000E+00 0. -1.
         22    1    1    0    0    0  0.70501952060E+01  0.13234967594E+02  0.24034575007E+02  0.28328967780E+02  0.00000000000E+00 0.  1.
</event>
<event>
 5    1  0.6924865E-004  0.9118800E+02  0.7818608E-02  0.1130116E+00
         25   -1    0    0    0    0  0.00000000000E+00  0.00000000000E+00  0.99999998245E-14  0.12500000000E+03  0.12500000000E+03 0.  0.
        -13    1    3    3    0    0  0.18360566942E+02 -0.35461408572E+02 -0.26031468040E+02  0.47668337591E+02  0.10566000000E+00 0.  1.
         23    2    1    0    0    0  0.13760825659E+02 -0.18155399873E+02  0.18492230947E+02  0.95658195816E+02  0.91046960158E+02 0.  0.
         13    1    3    3    0    0 -0.45997412826E+01  0.17306008699E+02  0.44523698987E+02  0.47989858225E+02  0.10566000000E+00 0. -1.
         22    1    1    0    0    0 -0.13760825659E+02  0.18155399873E+02 -0.18492230947E+02  0.29341804184E+02  0.00000000000E+00 0. -1.
</event>
<event>
 5    1  0.6924865E-004  0.9118800E+02  0.7818608E-02  0.1130116E+00
         25   -1    0    0    0    0  0.00000000000E+00  0.00000000000E+00  0.99999998245E-14  0.12500000000E+03  0.12500000000E+03 0.  0.
        -13    1    3    3    0    0 -0.32975977438E+02  0.69122467971E+00 -0.62563815840E+01  0.33571511049E+02  0.10566000000E+00 0. -1.
         23    2    1    0    0    0  0.23436952800E+02 -0.10647617418E+02  0.15341883362E+02  0.95032752907E+02  0.90184190559E+02 0.  0.
         13    1    3    3    0    0  0.56412930238E+02 -0.11338842097E+02  0.21598264946E+02  0.61461241859E+02  0.10566000000E+00 0.  1.
         22    1    1    0    0    0 -0.23436952800E+02  0.10647617418E+02 -0.15341883362E+02  0.29967247093E+02  0.00000000000E+00 0.  1.
</event>
<event>
 5    1  0.6924865E-004  0.9118800E+02  0.7818608E-02  0.1130116E+00
         25   -1    0    0    0    0  0.00000000000E+00  0.00000000000E+00  0.99999998245E-14  0.12500000000E+03  0.12500000000E+03 0.  0.
        -13    1    3    3    0    0 -0.49933928974E+02  0.18783216721E+02  0.57937773051E+01  0.53663633055E+02  0.10566000000E+00 0.  1.
         23    2    1    0    0    0 -0.15816810342E+02  0.16829011745E+02 -0.18347516818E+02  0.95503924005E+02  0.90834910697E+02 0.  0.
         13    1    3    3    0    0  0.34117118632E+02 -0.19542049760E+01 -0.24141294123E+02  0.41840290950E+02  0.10566000000E+00 0. -1.
         22    1    1    0    0    0  0.15816810342E+02 -0.16829011745E+02  0.18347516818E+02  0.29496075995E+02  0.00000000000E+00 0.  1.
</event>
<event>
 5    1  0.6924865E-004  0.9118800E+02  0.7818608E-02  0.1130116E+00
         25   -1    0    0    0    0  0.00000000000E+00  0.00000000000E+00  0.99999998245E-14  0.12500000000E+03  0.12500000000E+03 0.  0.
        -13    1    3    3    0    0 -0.73732683654E+01  0.35765066519E+02 -0.16882936588E+01  0.36556347862E+02  0.10566000000E+00 0.  1.
         23    2    1    0    0    0  0.21844520312E+02 -0.17255435498E+02 -0.19382474099E+01  0.97094983875E+02  0.92998634231E+02 0.  0.
         13    1    3    3    0    0  0.29217788677E+02 -0.53020502018E+02 -0.24995375113E+00  0.60538636013E+02  0.10566000000E+00 0. -1.
         22    1    1    0    0    0 -0.21844520312E+02  0.17255435498E+02  0.19382474099E+01  0.27905016125E+02  0.00000000000E+00 0. -1.
</event>
<event>
 5    1  0.6924865E-004  0.9118800E+02  0.7818608E-02  0.1130116E+00
         25   -1    0    0    0    0  0.00000000000E+00  0.00000000000E+00  0.99999998245E-14  0.12500000000E+03  0.12500000000E+03 0.  0.
        -13    1    3    3    0    0 -0.98769023071E+01  0.67156750565E+01  0.58321010281E+02  0.59531545377E+02  0.10566000000E+00 0. -1.
         23    2    1    0    0    0  0.40448276908E+01 -0.74612929104E+01  0.27653448722E+02  0.96073459433E+02  0.91615309083E+02 0.  0.
         13    1    3    3    0    0  0.13921729998E+02 -0.14176967967E+02 -0.30667561559E+02  0.36541914056E+02  0.10566000000E+00 0.  1.
         22    1    1    0    0    0 -0.40448276908E+01  0.74612929104E+01 -0.27653448722E+02  0.28926540567E+02  0.00000000000E+00 0. -1.
</event>
<event>
 5    1  0.6924865E-004  0.9118800E+02  0.7818608E-02  0.1130116E+00
         25   -1    0    0    0    0  0.00000000000E+00  0.00000000000E+00  0.99999998245E-14  0.12500000000E+03  0.12500000000E+03 0.  0.
        -13    1    3    3    0    0 -0.28643989625E+02  0.17832642716E+02 -0.73448272482E+01  0.34531709185E+02  0.10566000000E+00 0.  1.
         23    2    1    0    0    0 -0.61338874213E+01  0.88366951462E+01 -0.44678310660E+02  0.79044987222E+02  0.64313659556E+02 0.  0.
         13    1    3    3    0    0  0.22510102204E+02 -0.89959475697E+01 -0.37333483412E+02  0.44513278037E+02  0.10566000000E+00 0. -1.
         22    1    1    0    0    0  0.61338874213E+01 -0.88366951462E+01  0.44678310660E+02  0.45955012778E+02  0.00000000000E+00 0.  1.
</event>
<event>
 5    1  0.6924865E-004  0.9118800E+02  0.7818608E-02  0.1130116E+00
         25   -1    0    0    0    0  0.00000000000E+00  0.00000000000E+00  0.99999998245E-14  0.12500000000E+03  0.12500000000E+03 0.  0.
        -13    1    3    3    0    0 -0.34698907330E+01 -0.23072433451E+02 -0.26756286682E+02  0.35500526307E+02  0.10566000000E+00 0.  1.
         23    2    1    0    0    0  0.26442501770E+02 -0.95709185147E+01  0.18452292289E+02  0.91365263911E+02  0.84948902157E+02 0.  0.
         13    1    3    3    0    0  0.29912392503E+02  0.13501514936E+02  0.45208578972E+02  0.55864737603E+02  0.10566000000E+00 0. -1.
         22    1    1    0    0    0 -0.26442501770E+02  0.95709185147E+01 -0.18452292289E+02  0.33634736089E+02  0.00000000000E+00 0. -1.
</event>
<event>
 5    1  0.6924865E-004  0.9118800E+02  0.7818608E-02  0.1130116E+00
         25   -1    0    0    0    0  0.00000000000E+00  0.00000000000E+00  0.99999998245E-14  0.12500000000E+03  0.12500000000E+03 0.  0.
        -13    1    3    3    0    0  0.16740563552E+02 -0.41876971264E+01  0.32123024276E+02  0.36464820415E+02  0.10566000000E+00 0. -1.
         23    2    1    0    0    0  0.83791776471E+00 -0.19637290446E+02 -0.22325862600E+02  0.95254926070E+02  0.90491610205E+02 0.  0.
         13    1    3    3    0    0 -0.15902645788E+02 -0.15449593320E+02 -0.54448886876E+02  0.58790105655E+02  0.10566000000E+00 0.  1.
         22    1    1    0    0    0 -0.83791776471E+00  0.19637290446E+02  0.22325862600E+02  0.29745073930E+02  0.00000000000E+00 0.  1.
</event>
<event>
 5    1  0.6924865E-004  0.9118800E+02  0.7818608E-02  0.1130116E+00
         25   -1    0    0    0    0  0.00000000000E+00  0.00000000000E+00  0.99999998245E-14  0.12500000000E+03  0.12500000000E+03 0.  0.
        -13    1    3    3    0    0  0.14461590809E+02 -0.37442372619E+02  0.36615559364E+02  0.54330279105E+02  0.10566000000E+00 0.  1.
         23    2    1    0    0    0  0.75987574105E+01  0.14683626955E+01  0.29530805294E+02  0.94471887308E+02  0.89403421786E+02 0.  0.
         13    1    3    3    0    0 -0.68628333984E+01  0.38910735314E+02 -0.70847540695E+01  0.40141608204E+02  0.10566000000E+00 0. -1.
         22    1    1    0    0    0 -0.75987574105E+01 -0.14683626955E+01 -0.29530805294E+02  0.30528112692E+02  0.00000000000E+00 0.  1.
</event>
<event>
 5    1  0.6924865E-004  0.9118800E+02  0.7818608E-02  0.1130116E+00
         25   -1    0    0    0    0  0.00000000000E+00  0.00000000000E+00  0.99999998245E-14  0.12500000000E+03  0.12500000000E+03 0.  0.
        -13    1    3    3    0    0  0.32934221515E+01  0.27254559863E+02  0.46078800466E+02  0.53636971197E+02  0.10566000000E+00 0.  1.
         23    2    1    0    0    0  0.12145199802E+01  0.28156982384E+02  0.31323565391E+01  0.96643301087E+02  0.92389530099E+02 0.  0.
         13    1    3    3    0    0 -0.20789021714E+01  0.90242252059E+00 -0.42946443927E+02  0.43006329890E+02  0.10566000000E+00 0. -1.
         22    1    1    0    0    0 -0.12145199802E+01 -0.28156982384E+02 -0.31323565391E+01  0.28356698913E+02  0.00000000000E+00 0.  1.
</event>
<event>
 5    1  0.6924865E-004  0.9118800E+02  0.7818608E-02  0.1130116E+00
         25   -1    0    0    0    0  0.00000000000E+00  0.00000000000E+00  0.99999998245E-14  0.12500000000E+03  0.12500000000E+03 0.  0.
        -13    1    3    3    0    0  0.79315262799E+01  0.44940175505E+02  0.44501713374E+01  0.45851321382E+02  0.10566000000E+00 0.  1.
         23    2    1    0    0    0 -0.14125256549E+02  0.60567014587E+01  0.25471446670E+02  0.95251031941E+02  0.90486230915E+02 0.  0.
         13    1    3    3    0    0 -0.22056782828E+02 -0.38883474046E+02  0.21021275332E+02  0.49399710559E+02  0.10566000000E+00 0. -1.
         22    1    1    0    0    0  0.14125256549E+02 -0.60567014587E+01 -0.25471446670E+02  0.29748968059E+02  0.00000000000E+00 0.  1.
</event>
<event>
 5    1  0.6924865E-004  0.9118800E+02  0.7818608E-02  0.1130116E+00
         25   -1    0    0    0    0  0.00000000000E+00  0.00000000000E+00  0.99999998245E-14  0.12500000000E+03  0.12500000000E+03 0.  0.
        -13    1    3    3    0    0  0.21174504455E+02  0.13043245959E+02  0.44776518757E+02  0.51219466027E+02  0.10566000000E+00 0.  1.
         23    2    1    0    0    0  0.11833969747E+02  0.32333744930E+02  0.16180145415E+02  0.86956459066E+02  0.78192805081E+02 0.  0.
         13    1    3    3    0    0 -0.93405347079E+01  0.19290498971E+02 -0.28596373341E+02  0.35736993039E+02  0.10566000000E+00 0. -1.
         22    1    1    0    0    0 -0.11833969747E+02 -0.32333744930E+02 -0.16180145415E+02  0.38043540934E+02  0.00000000000E+00 0.  1.
</event>
<event>
 5    1  0.6924865E-004  0.9118800E+02  0.7818608E-02  0.1130116E+00
         25   -1    0    0    0    0  0.00000000000E+00  0.00000000000E+00  0.99999998245E-14  0.12500000000E+03  0.12500000000E+03 0.  0.
        -13    1    3    3    0    0 -0.30373503273E+02 -0.33983504974E+02 -0.41107564508E+02  0.61378101430E+02  0.10566000000E+00 0. -1.
         23    2    1    0    0    0 -0.22002140147E+02 -0.14365956609E+02 -0.16370864456E+02  0.94040670495E+02  0.88798466337E+02 0.  0.
         13    1    3    3    0    0  0.83713631264E+01  0.19617548365E+02  0.24736700052E+02  0.32662569065E+02  0.10566000000E+00 0.  1.
         22    1    1    0    0    0  0.22002140147E+02  0.14365956609E+02  0.16370864456E+02  0.30959329505E+02  0.00000000000E+00 0. -1.
</event>
<event>
 5    1  0.6924865E-004  0.9118800E+02  0.7818608E-02  0.1130116E+00
         25   -1    0    0    0    0  0.00000000000E+00  0.00000000000E+00  0.99999998245E-14  0.12500000000E+03  0.12500000000E+03 0.  0.
        -13    1    3    3    0    0  0.37541467402E+02 -0.33837619424E+02  0.33222382141E+02  0.60482097369E+02  0.10566000000E+00 0.  1.
         23    2    1    0    0    0  0.20502289951E+02 -0.22348713271E+02  0.68650473663E+01  0.93904377262E+02  0.88606401098E+02 0.  0.
         13    1    3    3    0    0 -0.17039177451E+02  0.11488906153E+02 -0.26357334775E+02  0.33422279893E+02  0.10566000000E+00 0. -1.
         22    1    1    0    0    0 -0.20502289951E+02  0.22348713271E+02 -0.68650473663E+01  0.31095622738E+02  0.00000000000E+00 0.  1.
</event>
<event>
 5    1  0.6924865E-004  0.9118800E+02  0.7818608E-02  0.1130116E+00
         25   -1    0    0    0    0  0.00000000000E+00  0.00000000000E+00  0.99999998245E-14  0.12500000000E+03  0.12500000000E+03 0.  0.
        -13    1    3    3    0    0 -0.48401708474E+02 -0.49491671685E+01  0.10158901838E+02  0.49703461544E+02  0.10566000000E+00 0. -1.
         23    2    1    0    0    0 -0.16948229003E+02  0.20363992820E+02 -0.12173923151E+02  0.95842855510E+02  0.91300130764E+02 0.  0.
         13    1    3    3    0    0  0.31453479471E+02  0.25313159989E+02 -0.22332824989E+02  0.46139393966E+02  0.10566000000E+00 0.  1.
         22    1    1    0    0    0  0.16948229003E+02 -0.20363992820E+02  0.12173923151E+02  0.29157144490E+02  0.00000000000E+00 0. -1.
</event>
<event>
 5    1  0.6924865E-004  0.9118800E+02  0.7818608E-02  0.1130116E+00
         25   -1    0    0    0    0  0.00000000000E+00  0.00000000000E+00  0.99999998245E-14  0.12500000000E+03  0.12500000000E+03 0.  0.
        -13    1    3    3    0    0  0.23941821362E+02  0.48205010056E+02 -0.14278572042E+02  0.55685030199E+02  0.10566000000E+00 0.  1.
         23    2    1    0    0    0  0.27231438764E+02  0.99303241159E+01 -0.23085109997E+01  0.95922658010E+02  0.91409323936E+02 0.  0.
         13    1    3    3    0    0  0.32896174015E+01 -0.38274685940E+02  0.11970061042E+02  0.40237627811E+02  0.10566000000E+00 0. -1.
         22    1    1    0    0    0 -0.27231438764E+02 -0.99303241159E+01  0.23085109997E+01  0.29077341990E+02  0.00000000000E+00 0.  1.
</event>
<event>
 5    1  0.6924865E-004  0.9118800E+02  0.7818608E-02  0.1130116E+00
         25   -1    0    0    0    0  0.00000000000E+00  0.00000000000E+00  0.99999998245E-14  0.12500000000E+03  0.12500000000E+03 0.  0.
        -13    1    3    3    0    0  0.42224459717E+02 -0.30700042293E+02  0.96912028203E+01  0.53097346179E+02  0.10566000000E+00 0. -1.
         23    2    1    0    0    0  0.17150649089E+02  0.59113414316E+01  0.19313135050E+02  0.98503096272E+02  0.94872409414E+02 0.  0.
         13    1    3    3    0    0 -0.25073810628E+02  0.36611383724E+02  0.96219322300E+01  0.45405750093E+02  0.10566000000E+00 0.  1.
         22    1    1    0    0    0 -0.17150649089E+02 -0.59113414316E+01 -0.19313135050E+02  0.26496903728E+02  0.00000000000E+00 0. -1.
</event>
<event>
 5    1  0.6924865E-004  0.9118800E+02  0.7818608E-02  0.1130116E+00
         25   -1    0    0    0    0  0.00000000000E+00  0.00000000000E+00  0.99999998245E-14  0.12500000000E+03  0.12500000000E+03 0.  0.
        -13    1    3    3    0    0 -0.22031169311E+02  0.27084685625E+02  0.16717071983E+02  0.38709485612E+02  0.10566000000E+00 0. -1.
         23    2    1    0    0    0 -0.14026737521E+02 -0.12750911380E+02 -0.22772858090E+02  0.95369978534E+02  0.90650397867E+02 0.  0.
         13    1    3    3    0    0  0.80044317905E+01 -0.39835597005E+02 -0.39489930073E+02  0.56660492922E+02  0.10566000000E+00 0.  1.
         22    1    1    0    0    0  0.14026737521E+02  0.12750911380E+02  0.22772858090E+02  0.29630021466E+02  0.00000000000E+00 0.  1.
</event>
<event>
 5    1  0.6924865E-004  0.9118800E+02  0.7818608E-02  0.1130116E+00
         25   -1    0    0    0    0  0.00000000000E+00  0.00000000000E+00  0.99999998245E-14  0.12500000000E+03  0.12500000000E+03 0.  0.
        -13    1    3    3    0    0  0.21249213519E+02  0.33578066804E+02  0.60266231534E+01  0.40191379625E+02  0.10566000000E+00 0.  1.
         23    2    1    0    0    0 -0.10613442674E+02 -0.85885838229E+01  0.25139275524E+02  0.96392446603E+02  0.92049506521E+02 0.  0.
         13    1    3    3    0    0 -0.31862656193E+02 -0.42166650627E+02  0.19112652371E+02  0.56201066978E+02  0.10566000000E+00 0. -1.
         22    1    1    0    0    0  0.10613442674E+02  0.85885838229E+01 -0.25139275524E+02  0.28607553397E+02  0.00000000000E+00 0. -1.
</event>
<event>
 5    1  0.6924865E-004  0.9118800E+02  0.7818608E-02  0.1130116E+00
         25   -1    0    0    0    0  0.00000000000E+00  0.00000000000E+00  0.99999998245E-14  0.12500000000E+03  0.12500000000E+03 0.  0.
        -13    1    3    3    0    0 -0.40001749387E+02 -0.37060166033E+02  0.24762622512E+02  0.59889853048E+02  0.10566000000E+00 0.  1.
         23    2    1    0    0    0 -0.70329577929E+01 -0.21735426922E+02  0.15453081284E+02  0.97419408999E+02  0.93433678349E+02 0.  0.
         13    1    3    3    0    0  0.32968791594E+02  0.15324739111E+02 -0.93095412283E+01  0.37529555952E+02  0.10566000000E+00 0. -1.
         22    1    1    0    0    0  0.70329577929E+01  0.21735426922E+02 -0.15453081284E+02  0.27580591001E+02  0.00000000000E+00 0.  1.
</event>
<event>
 5    1  0.6924865E-004  0.9118800E+02  0.7818608E-02  0.1130116E+00
         25   -1    0    0    0    0  0.00000000000E+00  0.00000000000E+00  0.99999998245E-14  0.12500000000E+03  0.12500000000E+03 0.  0.
        -13    1    3    3    0    0 -0.27136125498E+02 -0.49891999627E+01 -0.13665818814E+02  0.30790050198E+02  0.10566000000E+00 0.  1.
         23    2    1    0    0    0  0.29190046891E+02 -0.29071507455E+01 -0.22744119734E+02  0.87881199569E+02  0.79657390695E+02 0.  0.
         13    1    3    3    0    0  0.56326172389E+02  0.20820492173E+01 -0.90783009206E+01  0.57091149371E+02  0.10566000000E+00 0. -1.
         22    1    1    0    0    0 -0.29190046891E+02  0.29071507455E+01  0.22744119734E+02  0.37118800431E+02  0.00000000000E+00 0. -1.
</event>
<event>
 5    1  0.6924865E-004  0.9118800E+02  0.7818608E-02  0.1130116E+00
         25   -1    0    0    0    0  0.00000000000E+00  0.00000000000E+00  0.99999998245E-14  0.12500000000E+03  0.12500000000E+03 0.  0.
        -13    1    3    3    0    0  0.12966348541E+02  0.51492243540E+02 -0.30770422496E+02  0.61371063246E+02  0.10566000000E+00 0.  1.
         23    2    1    0    0    0  0.11755876429E+02  0.24485672350E+02 -0.80890166550E+01  0.96659552376E+02  0.92411514943E+02 0.  0.
         13    1    3    3    0    0 -0.12104721115E+01 -0.27006571190E+02  0.22681405841E+02  0.35288489131E+02  0.10566000000E+00 0. -1.
         22    1    1    0    0    0 -0.11755876429E+02 -0.24485672350E+02  0.80890166550E+01  0.28340447624E+02  0.00000000000E+00 0.  1.
</event>
<event>
 5    1  0.6924865E-004  0.9118800E+02  0.7818608E-02  0.1130116E+00
         25   -1    0    0    0    0  0.00000000000E+00  0.00000000000E+00  0.99999998245E-14  0.12500000000E+03  0.12500000000E+03 0.  0.
        -13    1    3    3    0    0  0.36609212998E+01  0.26496938842E+02 -0.55822911245E+02  0.61900716447E+02  0.10566000000E+00 0. -1.
         23    2    1    0    0    0  0.90045678337E-01  0.97846112358E+01 -0.34005523095E+02  0.89614659444E+02  0.82332647601E+02 0.  0.
         13    1    3    3    0    0 -0.35708756215E+01 -0.16712327607E+02  0.21817388150E+02  0.27713942997E+02  0.10566000000E+00 0.  1.
         22    1    1    0    0    0 -0.90045678337E-01 -0.97846112358E+01  0.34005523095E+02  0.35385340556E+02  0.00000000000E+00 0. -1.
</event>
<event>
 5    1  0.6924865E-004  0.9118800E+02  0.7818608E-02  0.1130116E+00
         25   -1    0    0    0    0  0.00000000000E+00  0.00000000000E+00  0.99999998245E-14  0.12500000000E+03  0.12500000000E+03 0.  0.
        -13    1    3    3    0    0  0.94963959014E+01 -0.51661730604E+02  0.25336083396E+02  0.58318472459E+02  0.10566000000E+00 0. -1.
         23    2    1    0    0    0 -0.12061799164E+01 -0.27748863066E+02  0.29083811070E+02  0.84784053688E+02  0.74639221740E+02 0.  0.
         13    1    3    3    0    0 -0.10702575818E+02  0.23912867538E+02  0.37477276740E+01  0.26465581229E+02  0.10566000000E+00 0.  1.
         22    1    1    0    0    0  0.12061799164E+01  0.27748863066E+02 -0.29083811070E+02  0.40215946312E+02  0.00000000000E+00 0. -1.
</event>
<event>
 5    1  0.6924865E-004  0.9118800E+02  0.7818608E-02  0.1130116E+00
         25   -1    0    0    0    0  0.00000000000E+00  0.00000000000E+00  0.99999998245E-14  0.12500000000E+03  0.12500000000E+03 0.  0.
        -13    1    3    3    0    0 -0.22300617485E+02  0.26145314284E+02 -0.50832482531E+02  0.61358352679E+02  0.10566000000E+00 0. -1.
         23    2    1    0    0    0 -0.18425548623E+02  0.12306770798E+02 -0.20999612713E+02  0.94472288267E+02  0.89403982388E+02 0.  0.
         13    1    3    3    0    0  0.38750688617E+01 -0.13838543486E+02  0.29832869818E+02  0.33113935588E+02  0.10566000000E+00 0.  1.
         22    1    1    0    0    0  0.18425548623E+02 -0.12306770798E+02  0.20999612713E+02  0.30527711733E+02  0.00000000000E+00 0. -1.
</event>
<event>
 5    1  0.6924865E-004  0.9118800E+02  0.7818608E-02  0.1130116E+00
         25   -1    0    0    0    0  0.00000000000E+00  0.00000000000E+00  0.99999998245E-14  0.12500000000E+03  0.12500000000E+03 0.  0.
        -13    1    3    3    0    0 -0.24052629358E+02  0.31426028370E+02 -0.52145984638E+01  0.39916505851E+02  0.10566000000E+00 0.  1.
         23    2    1    0    0    0  0.25272628255E+02  0.12236196186E+02  0.10333738916E+02  0.95079832955E+02  0.90249422373E+02 0.  0.
         13    1    3    3    0    0  0.49325257613E+02 -0.19189832184E+02  0.15548337380E+02  0.55163327104E+02  0.10566000000E+00 0. -1.
         22    1    1    0    0    0 -0.25272628255E+02 -0.12236196186E+02 -0.10333738916E+02  0.29920167045E+02  0.00000000000E+00 0. -1.
</event>
<event>
 5    1  0.6924865E-004  0.9118800E+02  0.7818608E-02  0.1130116E+00
         25   -1    0    0    0    0  0.00000000000E+00  0.00000000000E+00  0.99999998245E-14  0.12500000000E+03  0.12500000000E+03 0.  0.
        -13    1    3    3    0    0 -0.38665326224E+02 -0.35547997301E+02 -0.24440001801E+02  0.57930927976E+02  0.10566000000E+00 0. -1.
         23    2    1    0    0    0 -0.96174422442E+01 -0.11700073450E+02 -0.25287407318E+02  0.95523909979E+02  0.90862409691E+02 0.  0.
         13    1    3    3    0    0  0.29047883980E+02  0.23847923851E+02 -0.84740551750E+00  0.37592982003E+02  0.10566000000E+00 0.  1.
         22    1    1    0    0    0  0.96174422442E+01  0.11700073450E+02  0.25287407318E+02  0.29476090021E+02  0.00000000000E+00 0. -1.
</event>
<event>
 5    1  0.6924865E-004  0.9118800E+02  0.7818608E-02  0.1130116E+00
         25   -1    0    0    0    0  0.00000000000E+00  0.00000000000E+00  0.99999998245E-14  0.12500000000E+03  0.12500000000E+03 0.  0.
        -13    1    3    3    0    0 -0.35124333034E+02  0.16890497609E+02 -0.29991041238E+02  0.49178058106E+02  0.10566000000E+00 0. -1.
         23    2    1    0    0    0 -0.23031797137E+02  0.16459718737E+02  0.13006777382E+02  0.93846151472E+02  0.88524221929E+02 0.  0.
         13    1    3    3    0    0  0.12092535897E+02 -0.43077887188E+00  0.42997818620E+02  0.44668093366E+02  0.10566000000E+00 0.  1.
         22    1    1    0    0    0  0.23031797137E+02 -0.16459718737E+02 -0.13006777382E+02  0.31153848528E+02  0.00000000000E+00 0. -1.
</event>
<event>
 5    1  0.6924865E-004  0.9118800E+02  0.7818608E-02  0.1130116E+00
         25   -1    0    0    0    0  0.00000000000E+00  0.00000000000E+00  0.99999998245E-14  0.12500000000E+03  0.12500000000E+03 0.  0.
        -13    1    3    3    0    0  0.51906178910E+02  0.11449624018E+02  0.25500045972E+02  0.58954294227E+02  0.10566000000E+00 0.  1.
         23    2    1    0    0    0  0.26289963230E+02 -0.92714330942E+01  0.98095235605E+01  0.95447531563E+02  0.90757274588E+02 0.  0.
         13    1    3    3    0    0 -0.25616215681E+02 -0.20721057112E+02 -0.15690522411E+02  0.36493237335E+02  0.10566000000E+00 0. -1.
         22    1    1    0    0    0 -0.26289963230E+02  0.92714330942E+01 -0.98095235605E+01  0.29552468437E+02  0.00000000000E+00 0.  1.
</event>
<event>
 5    1  0.6924865E-004  0.9118800E+02  0.7818608E-02  0.1130116E+00
         25   -1    0    0    0    0  0.00000000000E+00  0.00000000000E+00  0.99999998245E-14  0.12500000000E+03  0.12500000000E+03 0.  0.
        -13    1    3    3    0    0  0.25119460231E+02  0.30110460845E+02 -0.47742926519E+02  0.61782079369E+02  0.10566000000E+00 0.  1.
         23    2    1    0    0    0  0.56942540229E+01  0.16197131939E+02 -0.24219213112E+02  0.95312597020E+02  0.90571238564E+02 0.  0.
         13    1    3    3    0    0 -0.19425206208E+02 -0.13913328906E+02  0.23523713407E+02  0.33530517651E+02  0.10566000000E+00 0. -1.
         22    1    1    0    0    0 -0.56942540229E+01 -0.16197131939E+02  0.24219213112E+02  0.29687402980E+02  0.00000000000E+00 0.  1.
</event>
<event>
 5    1  0.6924865E-004  0.9118800E+02  0.7818608E-02  0.1130116E+00
         25   -1    0    0    0    0  0.00000000000E+00  0.00000000000E+00  0.99999998245E-14  0.12500000000E+03  0.12500000000E+03 0.  0.
        -13    1    3    3    0    0  0.26813081549E+02 -0.22311152651E+02  0.20184214527E+02  0.40300652040E+02  0.10566000000E+00 0. -1.
         23    2    1    0    0    0  0.17626427094E+02  0.21687092344E+02 -0.10957290857E+02  0.94981953272E+02  0.90113752103E+02 0.  0.
         13    1    3    3    0    0 -0.91866544548E+01  0.43998244996E+02 -0.31141505384E+02  0.54681301232E+02  0.10566000000E+00 0.  1.
         22    1    1    0    0    0 -0.17626427094E+02 -0.21687092344E+02  0.10957290857E+02  0.30018046728E+02  0.00000000000E+00 0.  1.
</event>
<event>
 5    1  0.6924865E-004  0.9118800E+02  0.7818608E-02  0.1130116E+00
         25   -1    0    0    0    0  0.00000000000E+00  0.00000000000E+00  0.99999998245E-14  0.12500000000E+03  0.12500000000E+03 0.  0.
        -13    1    3    3    0    0 -0.17171909722E+02 -0.56481142600E+02 -0.19862381547E+02  0.62285787445E+02  0.10566000000E+00 0.  1.
         23    2    1    0    0    0 -0.82841456842E+01 -0.23122139193E+02 -0.11865421357E+02  0.97722745473E+02  0.93838618746E+02 0.  0.
         13    1    3    3    0    0  0.88877640381E+01  0.33359003407E+02  0.79969601901E+01  0.35436958027E+02  0.10566000000E+00 0. -1.
         22    1    1    0    0    0  0.82841456842E+01  0.23122139193E+02  0.11865421357E+02  0.27277254527E+02  0.00000000000E+00 0.  1.
</event>
<event>
 5    1  0.6924865E-004  0.9118800E+02  0.7818608E-02  0.1130116E+00
         25   -1    0    0    0    0  0.00000000000E+00  0.00000000000E+00  0.99999998245E-14  0.12500000000E+03  0.12500000000E+03 0.  0.
        -13    1    3    3    0    0 -0.58587295821E+02  0.12362178178E+02  0.69522266490E+01  0.60279675682E+02  0.10566000000E+00 0.  1.
         23    2    1    0    0    0 -0.26305136561E+02  0.17444622206E+02  0.15944182748E+01  0.93395930278E+02  0.87886191005E+02 0.  0.
         13    1    3    3    0    0  0.32282159260E+02  0.50824440281E+01 -0.53578083742E+01  0.33116254595E+02  0.10566000000E+00 0. -1.
         22    1    1    0    0    0  0.26305136561E+02 -0.17444622206E+02 -0.15944182748E+01  0.31604069722E+02  0.00000000000E+00 0.  1.
</event>
<event>
 5    1  0.6924865E-004  0.9118800E+02  0.7818608E-02  0.1130116E+00
         25   -1    0    0    0    0  0.00000000000E+00  0.00000000000E+00  0.99999998245E-14  0.12500000000E+03  0.12500000000E+03 0.  0.
        -13    1    3    3    0    0  0.30025015625E+01  0.25731642408E+02 -0.22482850361E+02  0.34301926491E+02  0.10566000000E+00 0.  1.
         23    2    1    0    0    0  0.85392998798E+01 -0.26523411804E+02  0.91931420844E+01  0.95658478609E+02  0.91047348408E+02 0.  0.
         13    1    3    3    0    0  0.55367983174E+01 -0.52255054212E+02  0.31675992446E+02  0.61356552117E+02  0.10566000000E+00 0. -1.
         22    1    1    0    0    0 -0.85392998798E+01  0.26523411804E+02 -0.91931420844E+01  0.29341521391E+02  0.00000000000E+00 0. -1.
</event>
<event>
 5    1  0.6924865E-004  0.9118800E+02  0.7818608E-02  0.1130116E+00
         25   -1    0    0    0    0  0.00000000000E+00  0.00000000000E+00  0.99999998245E-14  0.12500000000E+03  0.12500000000E+03 0.  0.
        -13    1    3    3    0    0  0.32775850822E+02 -0.11371063263E+01  0.12783000745E+02  0.35198944302E+02  0.10566000000E+00 0. -1.
         23    2    1    0    0    0  0.18472087484E+02  0.27900975280E+02 -0.23717553822E+02  0.83985309987E+02  0.73289340949E+02 0.  0.
         13    1    3    3    0    0 -0.14303763338E+02  0.29038081607E+02 -0.36500554566E+02  0.48786365685E+02  0.10566000000E+00 0.  1.
         22    1    1    0    0    0 -0.18472087484E+02 -0.27900975280E+02  0.23717553822E+02  0.41014690013E+02  0.00000000000E+00 0.  1.
</event>
<event>
 5    1  0.6924865E-004  0.9118800E+02  0.7818608E-02  0.1130116E+00
         25   -1    0    0    0    0  0.00000000000E+00  0.00000000000E+00  0.99999998245E-14  0.12500000000E+03  0.12500000000E+03 0.  0.
        -13    1    3    3    0    0 -0.95430039961E+01 -0.99394975007E+01  0.47421361689E+02  0.49382782873E+02  0.10566000000E+00 0.  1.
         23    2    1    0    0    0 -0.28598865029E+02 -0.69692959309E+01  0.61634983686E+01  0.94925843672E+02  0.90035886834E+02 0.  0.
         13    1    3    3    0    0 -0.19055861033E+02  0.29702015698E+01 -0.41257863320E+02  0.45543060798E+02  0.10566000000E+00 0. -1.
         22    1    1    0    0    0  0.28598865029E+02  0.69692959309E+01 -0.61634983686E+01  0.30074156328E+02  0.00000000000E+00 0.  1.
</event>
<event>
 5    1  0.6924865E-004  0.9118800E+02  0.7818608E-02  0.1130116E+00
         25   -1    0    0    0    0  0.00000000000E+00  0.00000000000E+00  0.99999998245E-14  0.12500000000E+03  0.12500000000E+03 0.  0.
        -13    1    3    3    0    0  0.14430333411E+02 -0.25506440661E+02 -0.16952534631E+02  0.33855762168E+02  0.10566000000E+00 0.  1.
         23    2    1    0    0    0 -0.40460151257E+01  0.20297531904E+02  0.20522005302E+02  0.95853598140E+02  0.91314837431E+02 0.  0.
         13    1    3    3    0    0 -0.18476348537E+02  0.45803972564E+02  0.37474539933E+02  0.61997835972E+02  0.10566000000E+00 0. -1.
         22    1    1    0    0    0  0.40460151257E+01 -0.20297531904E+02 -0.20522005302E+02  0.29146401860E+02  0.00000000000E+00 0. -1.
</event>
<event>
 5    1  0.6924865E-004  0.9118800E+02  0.7818608E-02  0.1130116E+00
         25   -1    0    0    0    0  0.00000000000E+00  0.00000000000E+00  0.99999998245E-14  0.12500000000E+03  0.12500000000E+03 0.  0.
        -13    1    3    3    0    0 -0.11056940158E+02  0.48305976445E+02 -0.25087657710E+02  0.55543901729E+02  0.10566000000E+00 0. -1.
         23    2    1    0    0    0 -0.21122286751E+02  0.10455683773E+02 -0.17995722058E+02  0.95346697770E+02  0.90618289780E+02 0.  0.
         13    1    3    3    0    0 -0.10065346593E+02 -0.37850292671E+02  0.70919356523E+01  0.39802796041E+02  0.10566000000E+00 0.  1.
         22    1    1    0    0    0  0.21122286751E+02 -0.10455683773E+02  0.17995722058E+02  0.29653302230E+02  0.00000000000E+00 0. -1.
</event>
<event>
 5    1  0.6924865E-004  0.9118800E+02  0.7818608E-02  0.1130116E+00
         25   -1    0    0    0    0  0.00000000000E+00  0.00000000000E+00  0.99999998245E-14  0.12500000000E+03  0.12500000000E+03 0.  0.
        -13    1    3    3    0    0 -0.21805786733E+02 -0.18595895300E+02  0.23747111502E+02  0.37218760401E+02  0.10566000000E+00 0. -1.
         23    2    1    0    0    0  0.14864894819E+02 -0.12376288299E+02 -0.21689982245E+02  0.95938118784E+02  0.91430463720E+02 0.  0.
         13    1    3    3    0    0  0.36670681553E+02  0.62196070016E+01 -0.45437093746E+02  0.58719358383E+02  0.10566000000E+00 0.  1.
         22    1    1    0    0    0 -0.14864894819E+02  0.12376288299E+02  0.21689982245E+02  0.29061881216E+02  0.00000000000E+00 0.  1.
</event>
<event>
 5    1  0.6924865E-004  0.9118800E+02  0.7818608E-02  0.1130116E+00
         25   -1    0    0    0    0  0.00000000000E+00  0.00000000000E+00  0.99999998245E-14  0.12500000000E+03  0.12500000000E+03 0.  0.
        -13    1    3    3    0    0  0.33927073045E+02  0.13858716008E+02  0.72775460846E+01  0.37364209289E+02  0.10566000000E+00 0.  1.
         23    2    1    0    0    0 -0.18915655946E+02  0.11467605262E+02 -0.18458739631E+02  0.96189705328E+02  0.91773778020E+02 0.  0.
         13    1    3    3    0    0 -0.52842728990E+02 -0.23911107463E+01 -0.25736285716E+02  0.58825496039E+02  0.10566000000E+00 0. -1.
         22    1    1    0    0    0  0.18915655946E+02 -0.11467605262E+02  0.18458739631E+02  0.28810294672E+02  0.00000000000E+00 0. -1.
</event>
<event>
 5    1  0.6924865E-004  0.9118800E+02  0.7818608E-02  0.1130116E+00
         25   -1    0    0    0    0  0.00000000000E+00  0.00000000000E+00  0.99999998245E-14  0.12500000000E+03  0.12500000000E+03 0.  0.
        -13    1    3    3    0    0 -0.14417148351E+02  0.41803062759E+02  0.42347211068E+01  0.44421776748E+02  0.10566000000E+00 0.  1.
         23    2    1    0    0    0  0.13083496081E+02  0.34860688391E+01  0.25476496460E+02  0.96148961587E+02  0.91718266429E+02 0.  0.
         13    1    3    3    0    0  0.27500644431E+02 -0.38316993919E+02  0.21241775353E+02  0.51727184839E+02  0.10566000000E+00 0. -1.
         22    1    1    0    0    0 -0.13083496081E+02 -0.34860688391E+01 -0.25476496460E+02  0.28851038413E+02  0.00000000000E+00 0. -1.
</event>
<event>
 5    1  0.6924865E-004  0.9118800E+02  0.7818608E-02  0.1130116E+00
         25   -1    0    0    0    0  0.00000000000E+00  0.00000000000E+00  0.99999998245E-14  0.12500000000E+03  0.12500000000E+03 0.  0.
        -13    1    3    3    0    0  0.19268524143E+02  0.37682531494E+02 -0.45695744435E+02  0.62284519955E+02  0.10566000000E+00 0. -1.
         23    2    1    0    0    0  0.75783476346E+01  0.14240347383E+02 -0.22767168730E+02  0.97097261453E+02  0.93001695486E+02 0.  0.
         13    1    3    3    0    0 -0.11690176509E+02 -0.23442184112E+02  0.22928575705E+02  0.34812741498E+02  0.10566000000E+00 0.  1.
         22    1    1    0    0    0 -0.75783476346E+01 -0.14240347383E+02  0.22767168730E+02  0.27902738547E+02  0.00000000000E+00 0. -1.
</event>
<event>
 5    1  0.6924865E-004  0.9118800E+02  0.7818608E-02  0.1130116E+00
         25   -1    0    0    0    0  0.00000000000E+00  0.00000000000E+00  0.99999998245E-14  0.12500000000E+03  0.12500000000E+03 0.  0.
        -13    1    3    3    0    0 -0.74889960538E+01  0.56445322573E+02 -0.33942317574E+01  0.57041138449E+02  0.10566000000E+00 0.  1.
         23    2    1    0    0    0 -0.20263456405E+02  0.19475133660E+02  0.32187366765E+01  0.96711331556E+02  0.92481527285E+02 0.  0.
         13    1    3    3    0    0 -0.12774460352E+02 -0.36970188914E+02  0.66129684339E+01  0.39670193107E+02  0.10566000000E+00 0. -1.
         22    1    1    0    0    0  0.20263456405E+02 -0.19475133660E+02 -0.32187366765E+01  0.28288668444E+02  0.00000000000E+00 0.  1.
</event>
<event>
 5    1  0.6924865E-004  0.9118800E+02  0.7818608E-02  0.1130116E+00
         25   -1    0    0    0    0  0.00000000000E+00  0.00000000000E+00  0.99999998245E-14  0.12500000000E+03  0.12500000000E+03 0.  0.
        -13    1    3    3    0    0 -0.59046773718E+01  0.21682054647E+02  0.23742487292E+01  0.22597011521E+02  0.10566000000E+00 0.  1.
         23    2    1    0    0    0  0.12787378600E+02 -0.36690999703E+02 -0.94309140423E+01  0.85016395231E+02  0.75027320408E+02 0.  0.
         13    1    3    3    0    0  0.18692055971E+02 -0.58373054351E+02 -0.11805162771E+02  0.62419383710E+02  0.10566000000E+00 0. -1.
         22    1    1    0    0    0 -0.12787378600E+02  0.36690999703E+02  0.94309140423E+01  0.39983604769E+02  0.00000000000E+00 0. -1.
</event>
<event>
 5    1  0.6924865E-004  0.9118800E+02  0.7818608E-02  0.1130116E+00
         25   -1    0    0    0    0  0.00000000000E+00  0.00000000000E+00  0.99999998245E-14  0.12500000000E+03  0.12500000000E+03 0.  0.
        -13    1    3    3    0    0  0.55921631340E+01 -0.21138313157E+02  0.25854844562E+02  0.33861256961E+02  0.10566000000E+00 0.  1.
         23    2    1    0    0    0  0.16602204989E+02  0.30247600697E+02  0.14184741384E+02  0.87693734487E+02  0.79362671462E+02 0.  0.
         13    1    3    3    0    0  0.11010041855E+02  0.51385913854E+02 -0.11670103178E+02  0.53832477525E+02  0.10566000000E+00 0. -1.
         22    1    1    0    0    0 -0.16602204989E+02 -0.30247600697E+02 -0.14184741384E+02  0.37306265513E+02  0.00000000000E+00 0. -1.
</event>
<event>
 5    1  0.6924865E-004  0.9118800E+02  0.7818608E-02  0.1130116E+00
         25   -1    0    0    0    0  0.00000000000E+00  0.00000000000E+00  0.99999998245E-14  0.12500000000E+03  0.12500000000E+03 0.  0.
        -13    1    3    3    0    0 -0.24621024036E+02  0.28307151613E+02 -0.32277793428E+02  0.49490976649E+02  0.10566000000E+00 0.  1.
         23    2    1    0    0    0  0.15950455903E+02  0.46762765869E+01 -0.21779782478E+02  0.97602125429E+02  0.93677806108E+02 0.  0.
         13    1    3    3    0    0  0.40571479939E+02 -0.23630875026E+02  0.10498010951E+02  0.48111148780E+02  0.10566000000E+00 0. -1.
         22    1    1    0    0    0 -0.15950455903E+02 -0.46762765869E+01  0.21779782478E+02  0.27397874571E+02  0.00000000000E+00 0. -1.
</event>
<event>
 5    1  0.6924865E-004  0.9118800E+02  0.7818608E-02  0.1130116E+00
         25   -1    0    0    0    0  0.00000000000E+00  0.00000000000E+00  0.99999998245E-14  0.12500000000E+03  0.12500000000E+03 0.  0.
        -13    1    3    3    0    0  0.29268034961E+02  0.18738721344E+02 -0.19884985496E+02  0.40039747256E+02  0.10566000000E+00 0. -1.
         23    2    1    0    0    0 -0.67390311420E+01 -0.24021132746E+02 -0.14361911933E+02  0.96212956500E+02  0.91805441695E+02 0.  0.
         13    1    3    3    0    0 -0.36007066103E+02 -0.42759854090E+02  0.55230735627E+01  0.56173209244E+02  0.10566000000E+00 0.  1.
         22    1    1    0    0    0  0.67390311420E+01  0.24021132746E+02  0.14361911933E+02  0.28787043500E+02  0.00000000000E+00 0.  1.
</event>
<event>
 5    1  0.6924865E-004  0.9118800E+02  0.7818608E-02  0.1130116E+00
         25   -1    0    0    0    0  0.00000000000E+00  0.00000000000E+00  0.99999998245E-14  0.12500000000E+03  0.12500000000E+03 0.  0.
        -13    1    3    3    0    0 -0.43600893746E+02  0.30151188277E+02 -0.39440488334E+01  0.53157302181E+02  0.10566000000E+00 0. -1.
         23    2    1    0    0    0 -0.23941838937E+02 -0.49024292528E+01 -0.16788925789E+02  0.95350151882E+02  0.90623054299E+02 0.  0.
         13    1    3    3    0    0  0.19659054808E+02 -0.35053617530E+02 -0.12844876955E+02  0.42192849701E+02  0.10566000000E+00 0.  1.
         22    1    1    0    0    0  0.23941838937E+02  0.49024292528E+01  0.16788925789E+02  0.29649848118E+02  0.00000000000E+00 0. -1.
</event>
<event>
 5    1  0.6924865E-004  0.9118800E+02  0.7818608E-02  0.1130116E+00
         25   -1    0    0    0    0  0.00000000000E+00  0.00000000000E+00  0.99999998245E-14  0.12500000000E+03  0.12500000000E+03 0.  0.
        -13    1    3    3    0    0  0.44306837528E+02 -0.11515312501E+02 -0.37770297420E+02  0.59349008458E+02  0.10566000000E+00 0. -1.
         23    2    1    0    0    0  0.99840067406E+01  0.11509427785E+01 -0.24926753678E+02  0.98123465461E+02  0.94370897873E+02 0.  0.
         13    1    3    3    0    0 -0.34322830787E+02  0.12666255279E+02  0.12843543742E+02  0.38774457003E+02  0.10566000000E+00 0.  1.
         22    1    1    0    0    0 -0.99840067406E+01 -0.11509427785E+01  0.24926753678E+02  0.26876534539E+02  0.00000000000E+00 0. -1.
</event>
<event>
 5    1  0.6924865E-004  0.9118800E+02  0.7818608E-02  0.1130116E+00
         25   -1    0    0    0    0  0.00000000000E+00  0.00000000000E+00  0.99999998245E-14  0.12500000000E+03  0.12500000000E+03 0.  0.
        -13    1    3    3    0    0  0.37720186473E+02  0.30485435326E+02  0.11401115158E+02  0.49821389237E+02  0.10566000000E+00 0.  1.
         23    2    1    0    0    0 -0.65033591649E+01  0.45028595030E+01 -0.15395764653E+02  0.10769107186E+03  0.10629095900E+03 0.  0.
         13    1    3    3    0    0 -0.44223545638E+02 -0.25982575823E+02 -0.26796879811E+02  0.57869682623E+02  0.10566000000E+00 0. -1.
         22    1    1    0    0    0  0.65033591649E+01 -0.45028595030E+01  0.15395764653E+02  0.17308928141E+02  0.00000000000E+00 0. -1.
</event>
<event>
 5    1  0.6924865E-004  0.9118800E+02  0.7818608E-02  0.1130116E+00
         25   -1    0    0    0    0  0.00000000000E+00  0.00000000000E+00  0.99999998245E-14  0.12500000000E+03  0.12500000000E+03 0.  0.
        -13    1    3    3    0    0 -0.18464588915E+02 -0.32678028748E+01  0.31881741772E+02  0.36987514135E+02  0.10566000000E+00 0. -1.
         23    2    1    0    0    0  0.11238258913E+02  0.30639542893E+02 -0.28175187176E+00  0.92363219580E+02  0.86404889300E+02 0.  0.
         13    1    3    3    0    0  0.29702847828E+02  0.33907345768E+02 -0.32163493644E+02  0.55375705445E+02  0.10566000000E+00 0.  1.
         22    1    1    0    0    0 -0.11238258913E+02 -0.30639542893E+02  0.28175187176E+00  0.32636780420E+02  0.00000000000E+00 0.  1.
</event>
<event>
 5    1  0.6924865E-004  0.9118800E+02  0.7818608E-02  0.1130116E+00
         25   -1    0    0    0    0  0.00000000000E+00  0.00000000000E+00  0.99999998245E-14  0.12500000000E+03  0.12500000000E+03 0.  0.
        -13    1    3    3    0    0 -0.36829828563E+01 -0.59124131125E+02 -0.11492509617E+02  0.60343319310E+02  0.10566000000E+00 0. -1.
         23    2    1    0    0    0 -0.10425269611E+02 -0.28521523049E+02  0.22261398784E+01  0.94551367481E+02  0.89514478551E+02 0.  0.
         13    1    3    3    0    0 -0.67422867546E+01  0.30602608075E+02  0.13718649495E+02  0.34208048172E+02  0.10566000000E+00 0.  1.
         22    1    1    0    0    0  0.10425269611E+02  0.28521523049E+02 -0.22261398784E+01  0.30448632519E+02  0.00000000000E+00 0. -1.
</event>
<event>
 5    1  0.6924865E-004  0.9118800E+02  0.7818608E-02  0.1130116E+00
         25   -1    0    0    0    0  0.00000000000E+00  0.00000000000E+00  0.99999998245E-14  0.12500000000E+03  0.12500000000E+03 0.  0.
        -13    1    3    3    0    0 -0.74580172750E+01 -0.51195420107E+02 -0.32388767691E+02  0.61037992253E+02  0.10566000000E+00 0.  1.
         23    2    1    0    0    0 -0.12287687585E+02 -0.21008306631E+02 -0.17370962025E+02  0.95098720172E+02  0.90275578331E+02 0.  0.
         13    1    3    3    0    0 -0.48296703097E+01  0.30187113476E+02  0.15017805667E+02  0.34060727919E+02  0.10566000000E+00 0. -1.
         22    1    1    0    0    0  0.12287687585E+02  0.21008306631E+02  0.17370962025E+02  0.29901279828E+02  0.00000000000E+00 0.  1.
</event>
<event>
 5    1  0.6924865E-004  0.9118800E+02  0.7818608E-02  0.1130116E+00
         25   -1    0    0    0    0  0.00000000000E+00  0.00000000000E+00  0.99999998245E-14  0.12500000000E+03  0.12500000000E+03 0.  0.
        -13    1    3    3    0    0 -0.39972260539E+02  0.16343245113E+02  0.42216665968E+02  0.60391566654E+02  0.10566000000E+00 0. -1.
         23    2    1    0    0    0 -0.81166583610E+01  0.10141254688E+02  0.24258622719E+02  0.97482624292E+02  0.93518212520E+02 0.  0.
         13    1    3    3    0    0  0.31855602178E+02 -0.62019904247E+01 -0.17958043248E+02  0.37091057638E+02  0.10566000000E+00 0.  1.
         22    1    1    0    0    0  0.81166583610E+01 -0.10141254688E+02 -0.24258622719E+02  0.27517375708E+02  0.00000000000E+00 0. -1.
</event>
<event>
 5    1  0.6924865E-004  0.9118800E+02  0.7818608E-02  0.1130116E+00
         25   -1    0    0    0    0  0.00000000000E+00  0.00000000000E+00  0.99999998245E-14  0.12500000000E+03  0.12500000000E+03 0.  0.
        -13    1    3    3    0    0 -0.26236087478E+02 -0.57535281000E+01 -0.42115244282E+02  0.49951379727E+02  0.10566000000E+00 0. -1.
         23    2    1    0    0    0  0.69257752175E+00 -0.26973753203E+02 -0.12472551189E+02  0.95274126444E+02  0.90518128632E+02 0.  0.
         13    1    3    3    0    0  0.26928665000E+02 -0.21220225104E+02  0.29642693093E+02  0.45322746717E+02  0.10566000000E+00 0.  1.
         22    1    1    0    0    0 -0.69257752175E+00  0.26973753203E+02  0.12472551189E+02  0.29725873556E+02  0.00000000000E+00 0. -1.
</event>
<event>
 5    1  0.6924865E-004  0.9118800E+02  0.7818608E-02  0.1130116E+00
         25   -1    0    0    0    0  0.00000000000E+00  0.00000000000E+00  0.99999998245E-14  0.12500000000E+03  0.12500000000E+03 0.  0.
        -13    1    3    3    0    0 -0.60073418504E+01 -0.38700262041E+02  0.37810012685E+02  0.54437180873E+02  0.10566000000E+00 0.  1.
         23    2    1    0    0    0  0.12738191802E+02 -0.25709201518E+02  0.28663235358E+01  0.96165292030E+02  0.91740519988E+02 0.  0.
         13    1    3    3    0    0  0.18745533652E+02  0.12991060523E+02 -0.34943689149E+02  0.41728111157E+02  0.10566000000E+00 0. -1.
         22    1    1    0    0    0 -0.12738191802E+02  0.25709201518E+02 -0.28663235358E+01  0.28834707970E+02  0.00000000000E+00 0.  1.
</event>
<event>
 5    1  0.6924865E-004  0.9118800E+02  0.7818608E-02  0.1130116E+00
         25   -1    0    0    0    0  0.00000000000E+00  0.00000000000E+00  0.99999998245E-14  0.12500000000E+03  0.12500000000E+03 0.  0.
        -13    1    3    3    0    0 -0.45798726272E+02  0.12752660399E+02 -0.24925716940E+02  0.53679197128E+02  0.10566000000E+00 0. -1.
         23    2    1    0    0    0 -0.24604515436E+02  0.84717608988E+01  0.11901858316E+02  0.96385193624E+02  0.92039656703E+02 0.  0.
         13    1    3    3    0    0  0.21194210835E+02 -0.42808995004E+01  0.36827575255E+02  0.42705996496E+02  0.10566000000E+00 0.  1.
         22    1    1    0    0    0  0.24604515436E+02 -0.84717608988E+01 -0.11901858316E+02  0.28614806376E+02  0.00000000000E+00 0. -1.
</event>
<event>
 5    1  0.6924865E-004  0.9118800E+02  0.7818608E-02  0.1130116E+00
         25   -1    0    0    0    0  0.00000000000E+00  0.00000000000E+00  0.99999998245E-14  0.12500000000E+03  0.12500000000E+03 0.  0.
        -13    1    3    3    0    0 -0.34251829862E+02  0.27051888953E+02 -0.19874594263E+01  0.43691574747E+02  0.10566000000E+00 0. -1.
         23    2    1    0    0    0  0.81588172344E+01  0.11042422412E+02  0.25021240516E+02  0.96459434688E+02  0.92140429085E+02 0.  0.
         13    1    3    3    0    0  0.42410647097E+02 -0.16009466541E+02  0.27008699943E+02  0.52767859941E+02  0.10566000000E+00 0.  1.
         22    1    1    0    0    0 -0.81588172344E+01 -0.11042422412E+02 -0.25021240516E+02  0.28540565312E+02  0.00000000000E+00 0.  1.
</event>
<event>
 5    1  0.6924865E-004  0.9118800E+02  0.7818608E-02  0.1130116E+00
         25   -1    0    0    0    0  0.00000000000E+00  0.00000000000E+00  0.99999998245E-14  0.12500000000E+03  0.12500000000E+03 0.  0.
        -13    1    3    3    0    0 -0.20452577230E+02 -0.21266590230E+02  0.28471611914E+02  0.41002678259E+02  0.10566000000E+00 0.  1.
         23    2    1    0    0    0 -0.19097469258E+02 -0.68111388000E+00 -0.22197059355E+02  0.95710297165E+02  0.91118462955E+02 0.  0.
         13    1    3    3    0    0  0.13551079720E+01  0.20585476350E+02 -0.50668671269E+02  0.54707618906E+02  0.10566000000E+00 0. -1.
         22    1    1    0    0    0  0.19097469258E+02  0.68111388000E+00  0.22197059355E+02  0.29289702835E+02  0.00000000000E+00 0. -1.
</event>
<event>
 5    1  0.6924865E-004  0.9118800E+02  0.7818608E-02  0.1130116E+00
         25   -1    0    0    0    0  0.00000000000E+00  0.00000000000E+00  0.99999998245E-14  0.12500000000E+03  0.12500000000E+03 0.  0.
        -13    1    3    3    0    0 -0.29933026671E+01  0.26154888807E+02 -0.23252417648E+02  0.35124409744E+02  0.10566000000E+00 0. -1.
         23    2    1    0    0    0  0.86234053066E+01 -0.28033179909E+02  0.10808354712E+01  0.95650545146E+02  0.91036455810E+02 0.  0.
         13    1    3    3    0    0  0.11616707974E+02 -0.54188068716E+02  0.24333253119E+02  0.60526135402E+02  0.10566000000E+00 0.  1.
         22    1    1    0    0    0 -0.86234053066E+01  0.28033179909E+02 -0.10808354712E+01  0.29349454854E+02  0.00000000000E+00 0.  1.
</event>
<event>
 5    1  0.6924865E-004  0.9118800E+02  0.7818608E-02  0.1130116E+00
         25   -1    0    0    0    0  0.00000000000E+00  0.00000000000E+00  0.99999998245E-14  0.12500000000E+03  0.12500000000E+03 0.  0.
        -13    1    3    3    0    0  0.18432577222E+02  0.31403736076E+02  0.12843189502E+02  0.38612345476E+02  0.10566000000E+00 0.  1.
         23    2    1    0    0    0  0.16113717800E+02 -0.21435578299E+02 -0.10206072159E+02  0.96306798240E+02  0.91933125477E+02 0.  0.
         13    1    3    3    0    0 -0.23188594218E+01 -0.52839314374E+02 -0.23049261661E+02  0.57694452764E+02  0.10566000000E+00 0. -1.
         22    1    1    0    0    0 -0.16113717800E+02  0.21435578299E+02  0.10206072159E+02  0.28693201760E+02  0.00000000000E+00 0. -1.
</event>
<event>
 5    1  0.6924865E-004  0.9118800E+02  0.7818608E-02  0.1130116E+00
         25   -1    0    0    0    0  0.00000000000E+00  0.00000000000E+00  0.99999998245E-14  0.12500000000E+03  0.12500000000E+03 0.  0.
        -13    1    3    3    0    0 -0.47687977878E+01 -0.26043100307E+02 -0.54797690586E+02  0.60858709841E+02  0.10566000000E+00 0. -1.
         23    2    1    0    0    0 -0.71202262903E+01 -0.19739105835E+02 -0.21025519530E+02  0.95294741322E+02  0.90546592043E+02 0.  0.
         13    1    3    3    0    0 -0.23514285025E+01  0.63039944715E+01  0.33772171056E+02  0.34436031481E+02  0.10566000000E+00 0.  1.
         22    1    1    0    0    0  0.71202262903E+01  0.19739105835E+02  0.21025519530E+02  0.29705258678E+02  0.00000000000E+00 0. -1.
</event>
<event>
 5    1  0.6924865E-004  0.9118800E+02  0.7818608E-02  0.1130116E+00
         25   -1    0    0    0    0  0.00000000000E+00  0.00000000000E+00  0.99999998245E-14  0.12500000000E+03  0.12500000000E+03 0.  0.
        -13    1    3    3    0    0  0.63255174442E+01 -0.32307101915E+02  0.26019159159E+02  0.41961515850E+02  0.10566000000E+00 0.  1.
         23    2    1    0    0    0  0.23948967332E+02 -0.14354018597E+02 -0.17370132756E+02  0.92116685111E+02  0.86047494314E+02 0.  0.
         13    1    3    3    0    0  0.17623449888E+02  0.17953083318E+02 -0.43389291916E+02  0.50155169260E+02  0.10566000000E+00 0. -1.
         22    1    1    0    0    0 -0.23948967332E+02  0.14354018597E+02  0.17370132756E+02  0.32883314889E+02  0.00000000000E+00 0. -1.
</event>
<event>
 5    1  0.6924865E-004  0.9118800E+02  0.7818608E-02  0.1130116E+00
         25   -1    0    0    0    0  0.00000000000E+00  0.00000000000E+00  0.99999998245E-14  0.12500000000E+03  0.12500000000E+03 0.  0.
        -13    1    3    3    0    0  0.17624846539E+02 -0.51382241134E+02 -0.13932851002E+01  0.54338957727E+02  0.10566000000E+00 0.  1.
         23    2    1    0    0    0  0.16128471625E+02 -0.39090570840E+02  0.19349073425E+02  0.78496376830E+02  0.63238391878E+02 0.  0.
         13    1    3    3    0    0 -0.14963749148E+01  0.12291670293E+02  0.20742358525E+02  0.24157419103E+02  0.10566000000E+00 0. -1.
         22    1    1    0    0    0 -0.16128471625E+02  0.39090570840E+02 -0.19349073425E+02  0.46503623170E+02  0.00000000000E+00 0.  1.
</event>
<event>
 5    1  0.6924865E-004  0.9118800E+02  0.7818608E-02  0.1130116E+00
         25   -1    0    0    0    0  0.00000000000E+00  0.00000000000E+00  0.99999998245E-14  0.12500000000E+03  0.12500000000E+03 0.  0.
        -13    1    3    3    0    0 -0.22105894774E+02 -0.38807180330E+02  0.39836617654E+02  0.59846763481E+02  0.10566000000E+00 0.  1.
         23    2    1    0    0    0 -0.15751411126E+02 -0.69809564390E+01  0.22560462483E+02  0.96613116185E+02  0.92348681887E+02 0.  0.
         13    1    3    3    0    0  0.63544836479E+01  0.31826223891E+02 -0.17276155172E+02  0.36766352704E+02  0.10566000000E+00 0. -1.
         22    1    1    0    0    0  0.15751411126E+02  0.69809564390E+01 -0.22560462483E+02  0.28386883815E+02  0.00000000000E+00 0.  1.
</event>
<event>
 5    1  0.6924865E-004  0.9118800E+02  0.7818608E-02  0.1130116E+00
         25   -1    0    0    0    0  0.00000000000E+00  0.00000000000E+00  0.99999998245E-14  0.12500000000E+03  0.12500000000E+03 0.  0.
        -13    1    3    3    0    0 -0.62129310908E+01  0.14854372893E+02 -0.31523353093E+02  0.35397540325E+02  0.10566000000E+00 0.  1.
         23    2    1    0    0    0  0.17376896238E+02 -0.20622675897E+02  0.11260286037E+02  0.95775946112E+02  0.91208478378E+02 0.  0.
         13    1    3    3    0    0  0.23589827329E+02 -0.35477048790E+02  0.42783639130E+02  0.60378405788E+02  0.10566000000E+00 0. -1.
         22    1    1    0    0    0 -0.17376896238E+02  0.20622675897E+02 -0.11260286037E+02  0.29224053888E+02  0.00000000000E+00 0. -1.
</event>
<event>
 5    1  0.6924865E-004  0.9118800E+02  0.7818608E-02  0.1130116E+00
         25   -1    0    0    0    0  0.00000000000E+00  0.00000000000E+00  0.99999998245E-14  0.12500000000E+03  0.12500000000E+03 0.  0.
        -13    1    3    3    0    0 -0.26816682868E+02  0.16091060684E+02 -0.38784929491E+02  0.49823073306E+02  0.10566000000E+00 0.  1.
         23    2    1    0    0    0  0.83131674567E+01  0.25745213462E+02 -0.10368676370E+02  0.96027008800E+02  0.91551909866E+02 0.  0.
         13    1    3    3    0    0  0.35129850325E+02  0.96541527787E+01  0.28416253121E+02  0.46203935495E+02  0.10566000000E+00 0. -1.
         22    1    1    0    0    0 -0.83131674567E+01 -0.25745213462E+02  0.10368676370E+02  0.28972991200E+02  0.00000000000E+00 0. -1.
</event>
<event>
 5    1  0.6924865E-004  0.9118800E+02  0.7818608E-02  0.1130116E+00
         25   -1    0    0    0    0  0.00000000000E+00  0.00000000000E+00  0.99999998245E-14  0.12500000000E+03  0.12500000000E+03 0.  0.
        -13    1    3    3    0    0  0.47936820953E+01  0.34549683660E+02  0.10626713384E+02  0.36463656295E+02  0.10566000000E+00 0.  1.
         23    2    1    0    0    0  0.11963839454E+02 -0.24444419029E+02 -0.35355596037E+01  0.97556179969E+02  0.93616478210E+02 0.  0.
         13    1    3    3    0    0  0.71701573582E+01 -0.58994102689E+02 -0.14162272988E+02  0.61092523674E+02  0.10566000000E+00 0. -1.
         22    1    1    0    0    0 -0.11963839454E+02  0.24444419029E+02  0.35355596037E+01  0.27443820031E+02  0.00000000000E+00 0. -1.
</event>
<event>
 5    1  0.6924865E-004  0.9118800E+02  0.7818608E-02  0.1130116E+00
         25   -1    0    0    0    0  0.00000000000E+00  0.00000000000E+00  0.99999998245E-14  0.12500000000E+03  0.12500000000E+03 0.  0.
        -13    1    3    3    0    0  0.36084312745E+02 -0.27824461266E+02  0.40365790764E+02  0.60874350091E+02  0.10566000000E+00 0.  1.
         23    2    1    0    0    0  0.90144141028E+01 -0.14477261917E+02  0.24985377545E+02  0.94749051828E+02  0.89790105006E+02 0.  0.
         13    1    3    3    0    0 -0.27069898642E+02  0.13347199349E+02 -0.15380413219E+02  0.33874701737E+02  0.10566000000E+00 0. -1.
         22    1    1    0    0    0 -0.90144141028E+01  0.14477261917E+02 -0.24985377545E+02  0.30250948172E+02  0.00000000000E+00 0.  1.
</event>
<event>
 5    1  0.6924865E-004  0.9118800E+02  0.7818608E-02  0.1130116E+00
         25   -1    0    0    0    0  0.00000000000E+00  0.00000000000E+00  0.99999998245E-14  0.12500000000E+03  0.12500000000E+03 0.  0.
        -13    1    3    3    0    0  0.32772243538E+02 -0.19783991582E+02  0.11193958910E+02  0.39884108985E+02  0.10566000000E+00 0. -1.
         23    2    1    0    0    0  0.64879191169E+01  0.18127736374E+02 -0.21282026692E+02  0.96301000355E+02  0.91925241848E+02 0.  0.
         13    1    3    3    0    0 -0.26284324421E+02  0.37911727956E+02 -0.32475985603E+02  0.56416891369E+02  0.10566000000E+00 0.  1.
         22    1    1    0    0    0 -0.64879191169E+01 -0.18127736374E+02  0.21282026692E+02  0.28698999645E+02  0.00000000000E+00 0.  1.
</event>
<event>
 5    1  0.6924865E-004  0.9118800E+02  0.7818608E-02  0.1130116E+00
         25   -1    0    0    0    0  0.00000000000E+00  0.00000000000E+00  0.99999998245E-14  0.12500000000E+03  0.12500000000E+03 0.  0.
        -13    1    3    3    0    0  0.36250306140E+01  0.97933406444E+01 -0.29650359677E+02  0.31435733823E+02  0.10566000000E+00 0.  1.
         23    2    1    0    0    0  0.15350031053E+02  0.35087989337E+02  0.14828992597E+02  0.83930674823E+02  0.73196097612E+02 0.  0.
         13    1    3    3    0    0  0.11725000439E+02  0.25294648693E+02  0.44479352275E+02  0.52494941000E+02  0.10566000000E+00 0. -1.
         22    1    1    0    0    0 -0.15350031053E+02 -0.35087989337E+02 -0.14828992597E+02  0.41069325177E+02  0.00000000000E+00 0. -1.
</event>
<event>
 5    1  0.6924865E-004  0.9118800E+02  0.7818608E-02  0.1130116E+00
         25   -1    0    0    0    0  0.00000000000E+00  0.00000000000E+00  0.99999998245E-14  0.12500000000E+03  0.12500000000E+03 0.  0.
        -13    1    3    3    0    0 -0.19290451541E+02  0.31795470052E+02 -0.15064290941E+01  0.37220342947E+02  0.10566000000E+00 0. -1.
         23    2    1    0    0    0  0.21994418257E+02 -0.16679672775E+01  0.20637840640E+02  0.94793096557E+02  0.89851400319E+02 0.  0.
         13    1    3    3    0    0  0.41284869798E+02 -0.33463437329E+02  0.22144269735E+02  0.57572753610E+02  0.10566000000E+00 0.  1.
         22    1    1    0    0    0 -0.21994418257E+02  0.16679672775E+01 -0.20637840640E+02  0.30206903443E+02  0.00000000000E+00 0.  1.
</event>
<event>
 5    1  0.6924865E-004  0.9118800E+02  0.7818608E-02  0.1130116E+00
         25   -1    0    0    0    0  0.00000000000E+00  0.00000000000E+00  0.99999998245E-14  0.12500000000E+03  0.12500000000E+03 0.  0.
        -13    1    3    3    0    0  0.45622166888E+01 -0.24705736405E+02  0.49503466148E+02  0.55513886165E+02  0.10566000000E+00 0. -1.
         23    2    1    0    0    0  0.16413685034E+02  0.10940882112E+01  0.32409884748E+02  0.88654343935E+02  0.80861523506E+02 0.  0.
         13    1    3    3    0    0  0.11851468345E+02  0.25799824616E+02 -0.17093581399E+02  0.33140457770E+02  0.10566000000E+00 0.  1.
         22    1    1    0    0    0 -0.16413685034E+02 -0.10940882112E+01 -0.32409884748E+02  0.36345656065E+02  0.00000000000E+00 0. -1.
</event>
<event>
 5    1  0.6924865E-004  0.9118800E+02  0.7818608E-02  0.1130116E+00
         25   -1    0    0    0    0  0.00000000000E+00  0.00000000000E+00  0.99999998245E-14  0.12500000000E+03  0.12500000000E+03 0.  0.
        -13    1    3    3    0    0  0.38171905365E+02 -0.89492249101E+00 -0.99490524342E+01  0.39457446114E+02  0.10566000000E+00 0. -1.
         23    2    1    0    0    0 -0.15363241917E+01 -0.72982316710E+01  0.28765281609E+02  0.95283575188E+02  0.90531175829E+02 0.  0.
         13    1    3    3    0    0 -0.39708229557E+02 -0.64033091800E+01  0.38714334043E+02  0.55826129074E+02  0.10566000000E+00 0.  1.
         22    1    1    0    0    0  0.15363241917E+01  0.72982316710E+01 -0.28765281609E+02  0.29716424812E+02  0.00000000000E+00 0.  1.
</event>
<event>
 5    1  0.6924865E-004  0.9118800E+02  0.7818608E-02  0.1130116E+00
         25   -1    0    0    0    0  0.00000000000E+00  0.00000000000E+00  0.99999998245E-14  0.12500000000E+03  0.12500000000E+03 0.  0.
        -13    1    3    3    0    0 -0.29100403434E+02 -0.17241847500E+02 -0.25896331591E+02  0.42599834965E+02  0.10566000000E+00 0.  1.
         23    2    1    0    0    0 -0.42356988130E-01  0.25968439659E+02 -0.11303245991E+02  0.96678188222E+02  0.92436719195E+02 0.  0.
         13    1    3    3    0    0  0.29058046445E+02  0.43210287159E+02  0.14593085600E+02  0.54078353257E+02  0.10566000000E+00 0. -1.
         22    1    1    0    0    0  0.42356988130E-01 -0.25968439659E+02  0.11303245991E+02  0.28321811778E+02  0.00000000000E+00 0.  1.
</event>
<event>
 5    1  0.6924865E-004  0.9118800E+02  0.7818608E-02  0.1130116E+00
         25   -1    0    0    0    0  0.00000000000E+00  0.00000000000E+00  0.99999998245E-14  0.12500000000E+03  0.12500000000E+03 0.  0.
        -13    1    3    3    0    0  0.87238786102E+01 -0.39301829750E+02 -0.41097965335E+02  0.57530807385E+02  0.10566000000E+00 0. -1.
         23    2    1    0    0    0  0.19674131173E+02 -0.10504702033E+02 -0.13264171484E+02  0.99050848812E+02  0.95591381426E+02 0.  0.
         13    1    3    3    0    0  0.10950252563E+02  0.28797127717E+02  0.27833793851E+02  0.41520041427E+02  0.10566000000E+00 0.  1.
         22    1    1    0    0    0 -0.19674131173E+02  0.10504702033E+02  0.13264171484E+02  0.25949151188E+02  0.00000000000E+00 0. -1.
</event>
<event>
 5    1  0.6924865E-004  0.9118800E+02  0.7818608E-02  0.1130116E+00
         25   -1    0    0    0    0  0.00000000000E+00  0.00000000000E+00  0.99999998245E-14  0.12500000000E+03  0.12500000000E+03 0.  0.
        -13    1    3    3    0    0  0.39183593836E+02  0.69832541853E+01  0.90835795202E+01  0.40824532402E+02  0.10566000000E+00 0. -1.
         23    2    1    0    0    0 -0.76555992732E+01 -0.16294163731E+02 -0.17842742855E+02  0.99652979573E+02  0.96375540950E+02 0.  0.
         13    1    3    3    0    0 -0.46839193109E+02 -0.23277417916E+02 -0.26926322375E+02  0.58828447172E+02  0.10566000000E+00 0.  1.
         22    1    1    0    0    0  0.76555992732E+01  0.16294163731E+02  0.17842742855E+02  0.25347020427E+02  0.00000000000E+00 0.  1.
</event>
<event>
 5    1  0.6924865E-004  0.9118800E+02  0.7818608E-02  0.1130116E+00
         25   -1    0    0    0    0  0.00000000000E+00  0.00000000000E+00  0.99999998245E-14  0.12500000000E+03  0.12500000000E+03 0.  0.
        -13    1    3    3    0    0  0.28743546431E+02 -0.45923423978E+02  0.18259484635E+01  0.54207910706E+02  0.10566000000E+00 0. -1.
         23    2    1    0    0    0 -0.94069020677E+01 -0.26101218281E+02  0.17400781539E+01  0.97200876376E+02  0.93140856202E+02 0.  0.
         13    1    3    3    0    0 -0.38150448499E+02  0.19822205697E+02 -0.85870309556E-01  0.42992965670E+02  0.10566000000E+00 0.  1.
         22    1    1    0    0    0  0.94069020677E+01  0.26101218281E+02 -0.17400781539E+01  0.27799123624E+02  0.00000000000E+00 0. -1.
</event>
<event>
 5    1  0.6924865E-004  0.9118800E+02  0.7818608E-02  0.1130116E+00
         25   -1    0    0    0    0  0.00000000000E+00  0.00000000000E+00  0.99999998245E-14  0.12500000000E+03  0.12500000000E+03 0.  0.
        -13    1    3    3    0    0  0.57887795969E+02  0.44983506772E+01 -0.21716908172E+02  0.61990865017E+02  0.10566000000E+00 0. -1.
         23    2    1    0    0    0  0.25225682446E+02 -0.10773340410E+01 -0.14434581002E+02  0.95916450832E+02  0.91400835379E+02 0.  0.
         13    1    3    3    0    0 -0.32662113523E+02 -0.55756847182E+01  0.72823271698E+01  0.33925585815E+02  0.10566000000E+00 0.  1.
         22    1    1    0    0    0 -0.25225682446E+02  0.10773340410E+01  0.14434581002E+02  0.29083549168E+02  0.00000000000E+00 0. -1.
</event>
<event>
 5    1  0.6924865E-004  0.9118800E+02  0.7818608E-02  0.1130116E+00
         25   -1    0    0    0    0  0.00000000000E+00  0.00000000000E+00  0.99999998245E-14  0.12500000000E+03  0.12500000000E+03 0.  0.
        -13    1    3    3    0    0 -0.25488328745E+02  0.34211458737E+01  0.25965470288E+02  0.36545532594E+02  0.10566000000E+00 0.  1.
         23    2    1    0    0    0  0.53088091769E+01  0.19264700957E+02 -0.21723254736E+02  0.95483700196E+02  0.90807075985E+02 0.  0.
         13    1    3    3    0    0  0.30797137921E+02  0.15843555083E+02 -0.47688725023E+02  0.58938167602E+02  0.10566000000E+00 0. -1.
         22    1    1    0    0    0 -0.53088091769E+01 -0.19264700957E+02  0.21723254736E+02  0.29516299804E+02  0.00000000000E+00 0. -1.
</event>
<event>
 5    1  0.6924865E-004  0.9118800E+02  0.7818608E-02  0.1130116E+00
         25   -1    0    0    0    0  0.00000000000E+00  0.00000000000E+00  0.99999998245E-14  0.12500000000E+03  0.12500000000E+03 0.  0.
        -13    1    3    3    0    0 -0.94148666091E+01 -0.50040564594E+02 -0.35841566337E+02  0.62268184972E+02  0.10566000000E+00 0.  1.
         23    2    1    0    0    0 -0.13184893601E+01 -0.27499592709E+02 -0.18874452159E+02  0.91620201354E+02  0.85323211018E+02 0.  0.
         13    1    3    3    0    0  0.80963772490E+01  0.22540971885E+02  0.16967114179E+02  0.29352016381E+02  0.10566000000E+00 0. -1.
         22    1    1    0    0    0  0.13184893601E+01  0.27499592709E+02  0.18874452159E+02  0.33379798646E+02  0.00000000000E+00 0.  1.
</event>
<event>
 5    1  0.6924865E-004  0.9118800E+02  0.7818608E-02  0.1130116E+00
         25   -1    0    0    0    0  0.00000000000E+00  0.00000000000E+00  0.99999998245E-14  0.12500000000E+03  0.12500000000E+03 0.  0.
        -13    1    3    3    0    0 -0.15086202364E+02  0.36814779652E+01 -0.53941282201E+02  0.56132164321E+02  0.10566000000E+00 0. -1.
         23    2    1    0    0    0 -0.47841239472E+01 -0.18052426433E+02 -0.21412073650E+02  0.96587769534E+02  0.92314367156E+02 0.  0.
         13    1    3    3    0    0  0.10302078417E+02 -0.21733904399E+02  0.32529208551E+02  0.40455605213E+02  0.10566000000E+00 0.  1.
         22    1    1    0    0    0  0.47841239472E+01  0.18052426433E+02  0.21412073650E+02  0.28412230466E+02  0.00000000000E+00 0. -1.
</event>
<event>
 5    1  0.6924865E-004  0.9118800E+02  0.7818608E-02  0.1130116E+00
         25   -1    0    0    0    0  0.00000000000E+00  0.00000000000E+00  0.99999998245E-14  0.12500000000E+03  0.12500000000E+03 0.  0.
        -13    1    3    3    0    0 -0.27519506164E+02  0.39857339129E+02  0.20155134277E+02  0.52461140892E+02  0.10566000000E+00 0. -1.
         23    2    1    0    0    0  0.13231851413E+02  0.20192879889E+02  0.10202597913E+02  0.98790702143E+02  0.95250593361E+02 0.  0.
         13    1    3    3    0    0  0.40751357576E+02 -0.19664459240E+02 -0.99525363640E+01  0.46329561250E+02  0.10566000000E+00 0.  1.
         22    1    1    0    0    0 -0.13231851413E+02 -0.20192879889E+02 -0.10202597913E+02  0.26209297857E+02  0.00000000000E+00 0. -1.
</event>
<event>
 5    1  0.6924865E-004  0.9118800E+02  0.7818608E-02  0.1130116E+00
         25   -1    0    0    0    0  0.00000000000E+00  0.00000000000E+00  0.99999998245E-14  0.12500000000E+03  0.12500000000E+03 0.  0.
        -13    1    3    3    0    0 -0.34403345320E+02  0.23326718967E+02 -0.11360882610E+01  0.41581580628E+02  0.10566000000E+00 0. -1.
         23    2    1    0    0    0  0.92952915045E+01  0.85750673665E+01 -0.27517822206E+02  0.94715271778E+02  0.89743066276E+02 0.  0.
         13    1    3    3    0    0  0.43698636825E+02 -0.14751651600E+02 -0.26381733945E+02  0.53133691150E+02  0.10566000000E+00 0.  1.
         22    1    1    0    0    0 -0.92952915045E+01 -0.85750673665E+01  0.27517822206E+02  0.30284728222E+02  0.00000000000E+00 0.  1.
</event>
<event>
 5    1  0.6924865E-004  0.9118800E+02  0.7818608E-02  0.1130116E+00
         25   -1    0    0    0    0  0.00000000000E+00  0.00000000000E+00  0.99999998245E-14  0.12500000000E+03  0.12500000000E+03 0.  0.
        -13    1    3    3    0    0 -0.21723041042E+02  0.34924299190E+02  0.11504405350E+02  0.42707841113E+02  0.10566000000E+00 0.  1.
         23    2    1    0    0    0  0.74351834274E+01  0.88555265290E+01 -0.25780919124E+02  0.96744768740E+02  0.92526710657E+02 0.  0.
         13    1    3    3    0    0  0.29158224470E+02 -0.26068772661E+02 -0.37285324473E+02  0.54036927627E+02  0.10566000000E+00 0. -1.
         22    1    1    0    0    0 -0.74351834274E+01 -0.88555265290E+01  0.25780919124E+02  0.28255231260E+02  0.00000000000E+00 0. -1.
</event>
<event>
 5    1  0.6924865E-004  0.9118800E+02  0.7818608E-02  0.1130116E+00
         25   -1    0    0    0    0  0.00000000000E+00  0.00000000000E+00  0.99999998245E-14  0.12500000000E+03  0.12500000000E+03 0.  0.
        -13    1    3    3    0    0 -0.43437740394E+02 -0.62907198551E+01 -0.20305557032E+02  0.48360492732E+02  0.10566000000E+00 0.  1.
         23    2    1    0    0    0  0.28029390718E+01 -0.15442324939E+02 -0.24735086784E+02  0.95705864321E+02  0.91112381597E+02 0.  0.
         13    1    3    3    0    0  0.46240679466E+02 -0.91516050836E+01 -0.44295297523E+01  0.47345371589E+02  0.10566000000E+00 0. -1.
         22    1    1    0    0    0 -0.28029390718E+01  0.15442324939E+02  0.24735086784E+02  0.29294135679E+02  0.00000000000E+00 0.  1.
</event>
<event>
 5    1  0.6924865E-004  0.9118800E+02  0.7818608E-02  0.1130116E+00
         25   -1    0    0    0    0  0.00000000000E+00  0.00000000000E+00  0.99999998245E-14  0.12500000000E+03  0.12500000000E+03 0.  0.
        -13    1    3    3    0    0 -0.11437836245E+02  0.60169978547E+02  0.55543384343E+01  0.61498880118E+02  0.10566000000E+00 0. -1.
         23    2    1    0    0    0 -0.21841060308E+01  0.27027514395E+02  0.97950522682E+01  0.96169462328E+02  0.91746202004E+02 0.  0.
         13    1    3    3    0    0  0.92537302142E+01 -0.33142464152E+02  0.42407138340E+01  0.34670582210E+02  0.10566000000E+00 0.  1.
         22    1    1    0    0    0  0.21841060308E+01 -0.27027514395E+02 -0.97950522682E+01  0.28830537672E+02  0.00000000000E+00 0. -1.
</event>
<event>
 5    1  0.6924865E-004  0.9118800E+02  0.7818608E-02  0.1130116E+00
         25   -1    0    0    0    0  0.00000000000E+00  0.00000000000E+00  0.99999998245E-14  0.12500000000E+03  0.12500000000E+03 0.  0.
        -13    1    3    3    0    0 -0.30602814553E+02 -0.17126866640E+02  0.29768000502E+02  0.46000074320E+02  0.10566000000E+00 0.  1.
         23    2    1    0    0    0  0.57255362374E+00  0.20925387219E+02  0.19787544208E+02  0.96194678379E+02  0.91780551288E+02 0.  0.
         13    1    3    3    0    0  0.31175368177E+02  0.38052253859E+02 -0.99804562941E+01  0.50194604059E+02  0.10566000000E+00 0. -1.
         22    1    1    0    0    0 -0.57255362374E+00 -0.20925387219E+02 -0.19787544208E+02  0.28805321621E+02  0.00000000000E+00 0. -1.
</event>
<event>
 5    1  0.6924865E-004  0.9118800E+02  0.7818608E-02  0.1130116E+00
         25   -1    0    0    0    0  0.00000000000E+00  0.00000000000E+00  0.99999998245E-14  0.12500000000E+03  0.12500000000E+03 0.  0.
        -13    1    3    3    0    0 -0.19562120404E+01  0.55057053149E+01 -0.47871440854E+02  0.48226813807E+02  0.10566000000E+00 0.  1.
         23    2    1    0    0    0 -0.20746163139E+01 -0.26326244974E+02 -0.12594931183E+02  0.95742394172E+02  0.91162484296E+02 0.  0.
         13    1    3    3    0    0 -0.11840427340E+00 -0.31831950289E+02  0.35276509671E+02  0.47515580364E+02  0.10566000000E+00 0. -1.
         22    1    1    0    0    0  0.20746163139E+01  0.26326244974E+02  0.12594931183E+02  0.29257605828E+02  0.00000000000E+00 0. -1.
</event>
<event>
 5    1  0.6924865E-004  0.9118800E+02  0.7818608E-02  0.1130116E+00
         25   -1    0    0    0    0  0.00000000000E+00  0.00000000000E+00  0.99999998245E-14  0.12500000000E+03  0.12500000000E+03 0.  0.
        -13    1    3    3    0    0  0.44057301084E+02  0.16137318393E+02  0.10512554092E+02  0.48083092468E+02  0.10566000000E+00 0.  1.
         23    2    1    0    0    0 -0.30977107653E+01  0.25049133677E+02  0.13887915435E+02  0.96191509844E+02  0.91776235818E+02 0.  0.
         13    1    3    3    0    0 -0.47155011849E+02  0.89118152840E+01  0.33753613430E+01  0.48108417376E+02  0.10566000000E+00 0. -1.
         22    1    1    0    0    0  0.30977107653E+01 -0.25049133677E+02 -0.13887915435E+02  0.28808490156E+02  0.00000000000E+00 0.  1.
</event>
<event>
 5    1  0.6924865E-004  0.9118800E+02  0.7818608E-02  0.1130116E+00
         25   -1    0    0    0    0  0.00000000000E+00  0.00000000000E+00  0.99999998245E-14  0.12500000000E+03  0.12500000000E+03 0.  0.
        -13    1    3    3    0    0 -0.25063606643E+02 -0.15191906209E+02 -0.19105158383E+02  0.34985663251E+02  0.10566000000E+00 0.  1.
         23    2    1    0    0    0  0.18388999445E+02  0.20131606386E+02  0.71175405018E+01  0.96820286391E+02  0.92628675893E+02 0.  0.
         13    1    3    3    0    0  0.43452606089E+02  0.35323512596E+02  0.26222698885E+02  0.61834623140E+02  0.10566000000E+00 0. -1.
         22    1    1    0    0    0 -0.18388999445E+02 -0.20131606386E+02 -0.71175405018E+01  0.28179713609E+02  0.00000000000E+00 0. -1.
</event>
<event>
 5    1  0.6924865E-004  0.9118800E+02  0.7818608E-02  0.1130116E+00
         25   -1    0    0    0    0  0.00000000000E+00  0.00000000000E+00  0.99999998245E-14  0.12500000000E+03  0.12500000000E+03 0.  0.
        -13    1    3    3    0    0 -0.47977227925E+02 -0.26825882672E+02  0.36856845198E+01  0.55091177287E+02  0.10566000000E+00 0. -1.
         23    2    1    0    0    0 -0.74807042858E+01 -0.26751213838E+02  0.86876364602E+01  0.95895646277E+02  0.91372378590E+02 0.  0.
         13    1    3    3    0    0  0.40496523639E+02  0.74668834306E-01  0.50019519405E+01  0.40804468989E+02  0.10566000000E+00 0.  1.
         22    1    1    0    0    0  0.74807042858E+01  0.26751213838E+02 -0.86876364602E+01  0.29104353723E+02  0.00000000000E+00 0. -1.
</event>
<event>
 5    1  0.6924865E-004  0.9118800E+02  0.7818608E-02  0.1130116E+00
         25   -1    0    0    0    0  0.00000000000E+00  0.00000000000E+00  0.99999998245E-14  0.12500000000E+03  0.12500000000E+03 0.  0.
        -13    1    3    3    0    0 -0.11876953180E+02 -0.36507060519E+02  0.31277728861E+02  0.49519036454E+02  0.10566000000E+00 0. -1.
         23    2    1    0    0    0 -0.27095026885E+02  0.18332947522E+01  0.90632595936E+01  0.96370572378E+02  0.92019797296E+02 0.  0.
         13    1    3    3    0    0 -0.15218073704E+02  0.38340355271E+02 -0.22214469267E+02  0.46851535924E+02  0.10566000000E+00 0.  1.
         22    1    1    0    0    0  0.27095026885E+02 -0.18332947522E+01 -0.90632595936E+01  0.28629427622E+02  0.00000000000E+00 0.  1.
</event>
<event>
 5    1  0.6924865E-004  0.9118800E+02  0.7818608E-02  0.1130116E+00
         25   -1    0    0    0    0  0.00000000000E+00  0.00000000000E+00  0.99999998245E-14  0.12500000000E+03  0.12500000000E+03 0.  0.
        -13    1    3    3    0    0 -0.28530851628E+02  0.19995636445E+02 -0.29538087171E+02  0.45676522735E+02  0.10566000000E+00 0. -1.
         23    2    1    0    0    0  0.16659810940E+02  0.19372870761E+02 -0.40863643762E+00  0.99445657789E+02  0.96106266431E+02 0.  0.
         13    1    3    3    0    0  0.45190662567E+02 -0.62276568333E+00  0.29129450734E+02  0.53769135054E+02  0.10566000000E+00 0.  1.
         22    1    1    0    0    0 -0.16659810940E+02 -0.19372870761E+02  0.40863643762E+00  0.25554342211E+02  0.00000000000E+00 0.  1.
</event>
<event>
 5    1  0.6924865E-004  0.9118800E+02  0.7818608E-02  0.1130116E+00
         25   -1    0    0    0    0  0.00000000000E+00  0.00000000000E+00  0.99999998245E-14  0.12500000000E+03  0.12500000000E+03 0.  0.
        -13    1    3    3    0    0 -0.29165651545E+02  0.19761648900E+02  0.89591606659E+01  0.36351557342E+02  0.10566000000E+00 0. -1.
         23    2    1    0    0    0  0.17181068066E+02  0.10802743510E+01 -0.23448561458E+02  0.95910635500E+02  0.91392881971E+02 0.  0.
         13    1    3    3    0    0  0.46346719611E+02 -0.18681374549E+02 -0.32407722124E+02  0.59559078158E+02  0.10566000000E+00 0.  1.
         22    1    1    0    0    0 -0.17181068066E+02 -0.10802743510E+01  0.23448561458E+02  0.29089364500E+02  0.00000000000E+00 0.  1.
</event>
<event>
 5    1  0.6924865E-004  0.9118800E+02  0.7818608E-02  0.1130116E+00
         25   -1    0    0    0    0  0.00000000000E+00  0.00000000000E+00  0.99999998245E-14  0.12500000000E+03  0.12500000000E+03 0.  0.
        -13    1    3    3    0    0 -0.33363111062E+02 -0.82604909103E+01 -0.12854540190E+02  0.36695820707E+02  0.10566000000E+00 0.  1.
         23    2    1    0    0    0  0.20799208166E+02 -0.20599721844E+02  0.55284913726E+01  0.95208729177E+02  0.90427773910E+02 0.  0.
         13    1    3    3    0    0  0.54162319228E+02 -0.12339230933E+02  0.18383031563E+02  0.58512908470E+02  0.10566000000E+00 0. -1.
         22    1    1    0    0    0 -0.20799208166E+02  0.20599721844E+02 -0.55284913726E+01  0.29791270823E+02  0.00000000000E+00 0. -1.
</event>
<event>
 5    1  0.6924865E-004  0.9118800E+02  0.7818608E-02  0.1130116E+00
         25   -1    0    0    0    0  0.00000000000E+00  0.00000000000E+00  0.99999998245E-14  0.12500000000E+03  0.12500000000E+03 0.  0.
        -13    1    3    3    0    0  0.20842764888E+02 -0.14001310385E+02  0.27465219654E+02  0.37212994980E+02  0.10566000000E+00 0.  1.
         23    2    1    0    0    0 -0.23900514959E+02 -0.16778773578E+02 -0.83888873259E+01  0.94616858479E+02  0.89605884962E+02 0.  0.
         13    1    3    3    0    0 -0.44743279847E+02 -0.27774631937E+01 -0.35854106980E+02  0.57403863500E+02  0.10566000000E+00 0. -1.
         22    1    1    0    0    0  0.23900514959E+02  0.16778773578E+02  0.83888873259E+01  0.30383141521E+02  0.00000000000E+00 0. -1.
</event>
<event>
 5    1  0.6924865E-004  0.9118800E+02  0.7818608E-02  0.1130116E+00
         25   -1    0    0    0    0  0.00000000000E+00  0.00000000000E+00  0.99999998245E-14  0.12500000000E+03  0.12500000000E+03 0.  0.
        -13    1    3    3    0    0 -0.18234191105E+02  0.22026595201E+02 -0.19101323138E+02  0.34387909664E+02  0.10566000000E+00 0.  1.
         23    2    1    0    0    0  0.21878041929E+02 -0.19687326641E+02  0.71985828019E+00  0.95559250267E+02  0.90911014551E+02 0.  0.
         13    1    3    3    0    0  0.40112233034E+02 -0.41713921842E+02  0.19821181418E+02  0.61171340603E+02  0.10566000000E+00 0. -1.
         22    1    1    0    0    0 -0.21878041929E+02  0.19687326641E+02 -0.71985828019E+00  0.29440749733E+02  0.00000000000E+00 0. -1.
</event>
<event>
 5    1  0.6924865E-004  0.9118800E+02  0.7818608E-02  0.1130116E+00
         25   -1    0    0    0    0  0.00000000000E+00  0.00000000000E+00  0.99999998245E-14  0.12500000000E+03  0.12500000000E+03 0.  0.
        -13    1    3    3    0    0  0.74116751808E+01  0.83120197448E+01 -0.33255813734E+02  0.35071112220E+02  0.10566000000E+00 0.  1.
         23    2    1    0    0    0 -0.14759054119E+02 -0.18543969829E+02  0.16728167289E+02  0.95990689833E+02  0.91502308486E+02 0.  0.
         13    1    3    3    0    0 -0.22170729299E+02 -0.26855989574E+02  0.49983981023E+02  0.60919577613E+02  0.10566000000E+00 0. -1.
         22    1    1    0    0    0  0.14759054119E+02  0.18543969829E+02 -0.16728167289E+02  0.29009310167E+02  0.00000000000E+00 0. -1.
</event>
<event>
 5    1  0.6924865E-004  0.9118800E+02  0.7818608E-02  0.1130116E+00
         25   -1    0    0    0    0  0.00000000000E+00  0.00000000000E+00  0.99999998245E-14  0.12500000000E+03  0.12500000000E+03 0.  0.
        -13    1    3    3    0    0  0.52474603312E+02 -0.14184284570E+02 -0.89609061028E+01  0.55091622991E+02  0.10566000000E+00 0.  1.
         23    2    1    0    0    0  0.26035637245E+02  0.11877432651E+02  0.70590493278E+01  0.95525299144E+02  0.90864320754E+02 0.  0.
         13    1    3    3    0    0 -0.26438966067E+02  0.26061717222E+02  0.16019955431E+02  0.40433676153E+02  0.10566000000E+00 0. -1.
         22    1    1    0    0    0 -0.26035637245E+02 -0.11877432651E+02 -0.70590493278E+01  0.29474700856E+02  0.00000000000E+00 0.  1.
</event>
<event>
 5    1  0.6924865E-004  0.9118800E+02  0.7818608E-02  0.1130116E+00
         25   -1    0    0    0    0  0.00000000000E+00  0.00000000000E+00  0.99999998245E-14  0.12500000000E+03  0.12500000000E+03 0.  0.
        -13    1    3    3    0    0 -0.24262502675E+01 -0.23847013159E+02  0.22556416516E+02  0.32914583653E+02  0.10566000000E+00 0. -1.
         23    2    1    0    0    0  0.62642777665E+01  0.24144694990E+02 -0.16239678046E+02  0.95235346212E+02  0.90464559651E+02 0.  0.
         13    1    3    3    0    0  0.86905280341E+01  0.47991708149E+02 -0.38796094562E+02  0.62320762559E+02  0.10566000000E+00 0.  1.
         22    1    1    0    0    0 -0.62642777665E+01 -0.24144694990E+02  0.16239678046E+02  0.29764653788E+02  0.00000000000E+00 0.  1.
</event>
<event>
 5    1  0.6924865E-004  0.9118800E+02  0.7818608E-02  0.1130116E+00
         25   -1    0    0    0    0  0.00000000000E+00  0.00000000000E+00  0.99999998245E-14  0.12500000000E+03  0.12500000000E+03 0.  0.
        -13    1    3    3    0    0  0.38418045678E+02  0.45018630168E+02  0.17315491069E+02  0.61664095638E+02  0.10566000000E+00 0.  1.
         23    2    1    0    0    0  0.15940409329E+02  0.24190566410E+02  0.18993240648E+01  0.95967473676E+02  0.91470587727E+02 0.  0.
         13    1    3    3    0    0 -0.22477636349E+02 -0.20828063757E+02 -0.15416167004E+02  0.34303378038E+02  0.10566000000E+00 0. -1.
         22    1    1    0    0    0 -0.15940409329E+02 -0.24190566410E+02 -0.18993240648E+01  0.29032526324E+02  0.00000000000E+00 0.  1.
</event>
<event>
 5    1  0.6924865E-004  0.9118800E+02  0.7818608E-02  0.1130116E+00
         25   -1    0    0    0    0  0.00000000000E+00  0.00000000000E+00  0.99999998245E-14  0.12500000000E+03  0.12500000000E+03 0.  0.
        -13    1    3    3    0    0  0.29833856757E+01 -0.16063006391E+02  0.44423268561E+02  0.47332427764E+02  0.10566000000E+00 0. -1.
         23    2    1    0    0    0  0.24728807713E+02  0.10630072499E+02  0.92851961047E+01  0.96526727639E+02  0.92231675198E+02 0.  0.
         13    1    3    3    0    0  0.21745422037E+02  0.26693078890E+02 -0.35138072456E+02  0.49194299875E+02  0.10566000000E+00 0.  1.
         22    1    1    0    0    0 -0.24728807713E+02 -0.10630072499E+02 -0.92851961047E+01  0.28473272361E+02  0.00000000000E+00 0. -1.
</event>
<event>
 5    1  0.6924865E-004  0.9118800E+02  0.7818608E-02  0.1130116E+00
         25   -1    0    0    0    0  0.00000000000E+00  0.00000000000E+00  0.99999998245E-14  0.12500000000E+03  0.12500000000E+03 0.  0.
        -13    1    3    3    0    0 -0.12317139466E+02  0.38795534619E+02  0.40806064576E+02  0.57636373075E+02  0.10566000000E+00 0.  1.
         23    2    1    0    0    0  0.95625392810E+01  0.24059002816E+02  0.12769553255E+02  0.96132383812E+02  0.91695670307E+02 0.  0.
         13    1    3    3    0    0  0.21879678747E+02 -0.14736531803E+02 -0.28036511321E+02  0.38496010738E+02  0.10566000000E+00 0. -1.
         22    1    1    0    0    0 -0.95625392810E+01 -0.24059002816E+02 -0.12769553255E+02  0.28867616188E+02  0.00000000000E+00 0.  1.
</event>
<event>
 5    1  0.6924865E-004  0.9118800E+02  0.7818608E-02  0.1130116E+00
         25   -1    0    0    0    0  0.00000000000E+00  0.00000000000E+00  0.99999998245E-14  0.12500000000E+03  0.12500000000E+03 0.  0.
        -13    1    3    3    0    0  0.22950127790E+02 -0.36184230104E+02  0.32857566774E+01  0.42974576610E+02  0.10566000000E+00 0.  1.
         23    2    1    0    0    0 -0.18098427574E+02 -0.12754015354E+02 -0.19546677787E+02  0.95465433797E+02  0.90781927989E+02 0.  0.
         13    1    3    3    0    0 -0.41048555364E+02  0.23430214750E+02 -0.22832434464E+02  0.52490857188E+02  0.10566000000E+00 0. -1.
         22    1    1    0    0    0  0.18098427574E+02  0.12754015354E+02  0.19546677787E+02  0.29534566203E+02  0.00000000000E+00 0. -1.
</event>
<event>
 5    1  0.6924865E-004  0.9118800E+02  0.7818608E-02  0.1130116E+00
         25   -1    0    0    0    0  0.00000000000E+00  0.00000000000E+00  0.99999998245E-14  0.12500000000E+03  0.12500000000E+03 0.  0.
        -13    1    3    3    0    0 -0.30251943451E+02 -0.31691750511E+02 -0.27641209600E+02  0.51803424261E+02  0.10566000000E+00 0. -1.
         23    2    1    0    0    0  0.11778079144E+02 -0.17510796359E+02 -0.18149457689E+02  0.97165597692E+02  0.93093498286E+02 0.  0.
         13    1    3    3    0    0  0.42030022595E+02  0.14180954152E+02  0.94917519113E+01  0.45362173431E+02  0.10566000000E+00 0.  1.
         22    1    1    0    0    0 -0.11778079144E+02  0.17510796359E+02  0.18149457689E+02  0.27834402308E+02  0.00000000000E+00 0.  1.
</event>
<event>
 5    1  0.6924865E-004  0.9118800E+02  0.7818608E-02  0.1130116E+00
         25   -1    0    0    0    0  0.00000000000E+00  0.00000000000E+00  0.99999998245E-14  0.12500000000E+03  0.12500000000E+03 0.  0.
        -13    1    3    3    0    0  0.31487307870E+02  0.32489235413E+02 -0.17930233023E+02  0.48667292866E+02  0.10566000000E+00 0. -1.
         23    2    1    0    0    0  0.16338155518E+02 -0.12522367717E+02 -0.20126558640E+02  0.96210707170E+02  0.91802379013E+02 0.  0.
         13    1    3    3    0    0 -0.15149152352E+02 -0.45011603130E+02 -0.21963256170E+01  0.47543414303E+02  0.10566000000E+00 0.  1.
         22    1    1    0    0    0 -0.16338155518E+02  0.12522367717E+02  0.20126558640E+02  0.28789292830E+02  0.00000000000E+00 0.  1.
</event>
<event>
 5    1  0.6924865E-004  0.9118800E+02  0.7818608E-02  0.1130116E+00
         25   -1    0    0    0    0  0.00000000000E+00  0.00000000000E+00  0.99999998245E-14  0.12500000000E+03  0.12500000000E+03 0.  0.
        -13    1    3    3    0    0 -0.77924155705E+01 -0.18818927629E+02  0.27457769964E+02  0.34187922911E+02  0.10566000000E+00 0.  1.
         23    2    1    0    0    0 -0.18373282041E+01  0.86672124280E+01 -0.27599992506E+02  0.96012831589E+02  0.91532551025E+02 0.  0.
         13    1    3    3    0    0  0.59550873664E+01  0.27486140057E+02 -0.55057762470E+02  0.61824908678E+02  0.10566000000E+00 0. -1.
         22    1    1    0    0    0  0.18373282041E+01 -0.86672124280E+01  0.27599992506E+02  0.28987168411E+02  0.00000000000E+00 0. -1.
</event>
<event>
 5    1  0.6924865E-004  0.9118800E+02  0.7818608E-02  0.1130116E+00
         25   -1    0    0    0    0  0.00000000000E+00  0.00000000000E+00  0.99999998245E-14  0.12500000000E+03  0.12500000000E+03 0.  0.
        -13    1    3    3    0    0  0.28202048696E+02  0.48414298344E+02 -0.55942747246E+01  0.56308142471E+02  0.10566000000E+00 0. -1.
         23    2    1    0    0    0 -0.51959322848E+01  0.27808800249E+02 -0.79263983391E+01  0.95620502486E+02  0.90995195595E+02 0.  0.
         13    1    3    3    0    0 -0.33397980981E+02 -0.20605498095E+02 -0.23321236145E+01  0.39312360015E+02  0.10566000000E+00 0.  1.
         22    1    1    0    0    0  0.51959322848E+01 -0.27808800249E+02  0.79263983391E+01  0.29379497514E+02  0.00000000000E+00 0. -1.
</event>
<event>
 5    1  0.6924865E-004  0.9118800E+02  0.7818608E-02  0.1130116E+00
         25   -1    0    0    0    0  0.00000000000E+00  0.00000000000E+00  0.99999998245E-14  0.12500000000E+03  0.12500000000E+03 0.  0.
        -13    1    3    3    0    0 -0.15221975861E+01  0.26828019935E+02 -0.48605870366E+02  0.55539189202E+02  0.10566000000E+00 0.  1.
         23    2    1    0    0    0 -0.12962706935E+02 -0.52243020814E+01 -0.22830930346E+02  0.98231053742E+02  0.94513297665E+02 0.  0.
         13    1    3    3    0    0 -0.11440509349E+02 -0.32052322017E+02  0.25774940020E+02  0.42691864540E+02  0.10566000000E+00 0. -1.
         22    1    1    0    0    0  0.12962706935E+02  0.52243020814E+01  0.22830930346E+02  0.26768946258E+02  0.00000000000E+00 0.  1.
</event>
<event>
 5    1  0.6924865E-004  0.9118800E+02  0.7818608E-02  0.1130116E+00
         25   -1    0    0    0    0  0.00000000000E+00  0.00000000000E+00  0.99999998245E-14  0.12500000000E+03  0.12500000000E+03 0.  0.
        -13    1    3    3    0    0 -0.29067386054E+01 -0.30020812824E+02 -0.21918622421E+02  0.37284520981E+02  0.10566000000E+00 0.  1.
         23    2    1    0    0    0 -0.21614221754E+02  0.95728311665E+01  0.17009958069E+02  0.95876944665E+02  0.91346790673E+02 0.  0.
         13    1    3    3    0    0 -0.18707483148E+02  0.39593643990E+02  0.38928580489E+02  0.58592423684E+02  0.10566000000E+00 0. -1.
         22    1    1    0    0    0  0.21614221754E+02 -0.95728311665E+01 -0.17009958069E+02  0.29123055335E+02  0.00000000000E+00 0. -1.
</event>
<event>
 5    1  0.6924865E-004  0.9118800E+02  0.7818608E-02  0.1130116E+00
         25   -1    0    0    0    0  0.00000000000E+00  0.00000000000E+00  0.99999998245E-14  0.12500000000E+03  0.12500000000E+03 0.  0.
        -13    1    3    3    0    0 -0.22263351917E+02  0.47505716178E+02  0.27359749370E+02  0.59169392069E+02  0.10566000000E+00 0. -1.
         23    2    1    0    0    0 -0.15347430558E+01  0.15909770426E+02  0.22689871023E+02  0.97245604343E+02  0.93200864190E+02 0.  0.
         13    1    3    3    0    0  0.20728608862E+02 -0.31595945752E+02 -0.46698783472E+01  0.38076212274E+02  0.10566000000E+00 0.  1.
         22    1    1    0    0    0  0.15347430558E+01 -0.15909770426E+02 -0.22689871023E+02  0.27754395657E+02  0.00000000000E+00 0. -1.
</event>
<event>
 5    1  0.6924865E-004  0.9118800E+02  0.7818608E-02  0.1130116E+00
         25   -1    0    0    0    0  0.00000000000E+00  0.00000000000E+00  0.99999998245E-14  0.12500000000E+03  0.12500000000E+03 0.  0.
        -13    1    3    3    0    0  0.22893733428E+02  0.19801081113E+01 -0.50283255362E+02  0.55285267407E+02  0.10566000000E+00 0.  1.
         23    2    1    0    0    0  0.14927400957E+02  0.19730487138E+02 -0.13703690115E+02  0.96717310156E+02  0.92489607735E+02 0.  0.
         13    1    3    3    0    0 -0.79663324705E+01  0.17750379027E+02  0.36579565248E+02  0.41432042749E+02  0.10566000000E+00 0. -1.
         22    1    1    0    0    0 -0.14927400957E+02 -0.19730487138E+02  0.13703690115E+02  0.28282689844E+02  0.00000000000E+00 0.  1.
</event>
<event>
 5    1  0.6924865E-004  0.9118800E+02  0.7818608E-02  0.1130116E+00
         25   -1    0    0    0    0  0.00000000000E+00  0.00000000000E+00  0.99999998245E-14  0.12500000000E+03  0.12500000000E+03 0.  0.
        -13    1    3    3    0    0 -0.26856435254E+00 -0.45828134448E+02 -0.28065213532E+02  0.53739719095E+02  0.10566000000E+00 0. -1.
         23    2    1    0    0    0 -0.22876048926E+02 -0.15343822078E+02 -0.12136070685E+02  0.94899656113E+02  0.89999522378E+02 0.  0.
         13    1    3    3    0    0 -0.22607484574E+02  0.30484312370E+02  0.15929142848E+02  0.41159937018E+02  0.10566000000E+00 0.  1.
         22    1    1    0    0    0  0.22876048926E+02  0.15343822078E+02  0.12136070685E+02  0.30100343887E+02  0.00000000000E+00 0.  1.
</event>
<event>
 5    1  0.6924865E-004  0.9118800E+02  0.7818608E-02  0.1130116E+00
         25   -1    0    0    0    0  0.00000000000E+00  0.00000000000E+00  0.99999998245E-14  0.12500000000E+03  0.12500000000E+03 0.  0.
        -13    1    3    3    0    0 -0.10212244719E+02 -0.41536916485E+02 -0.15239842016E+02  0.45407811244E+02  0.10566000000E+00 0. -1.
         23    2    1    0    0    0 -0.14559192457E+02 -0.78987423482E+01  0.23085751026E+02  0.96586761604E+02  0.92313002340E+02 0.  0.
         13    1    3    3    0    0 -0.43469477375E+01  0.33638174137E+02  0.38325593042E+02  0.51178950360E+02  0.10566000000E+00 0.  1.
         22    1    1    0    0    0  0.14559192457E+02  0.78987423482E+01 -0.23085751026E+02  0.28413238396E+02  0.00000000000E+00 0. -1.
</event>
<event>
 5    1  0.6924865E-004  0.9118800E+02  0.7818608E-02  0.1130116E+00
         25   -1    0    0    0    0  0.00000000000E+00  0.00000000000E+00  0.99999998245E-14  0.12500000000E+03  0.12500000000E+03 0.  0.
        -13    1    3    3    0    0 -0.43174972163E+02  0.51067128139E+01  0.40031689165E+02  0.59099103534E+02  0.10566000000E+00 0.  1.
         23    2    1    0    0    0 -0.70186634094E+01  0.12953924422E+02  0.16169563132E+02  0.10312488707E+03  0.10077808178E+03 0.  0.
         13    1    3    3    0    0  0.36156308754E+02  0.78472116085E+01 -0.23862126034E+02  0.44025783532E+02  0.10566000000E+00 0. -1.
         22    1    1    0    0    0  0.70186634094E+01 -0.12953924422E+02 -0.16169563132E+02  0.21875112934E+02  0.00000000000E+00 0.  1.
</event>
<event>
 5    1  0.6924865E-004  0.9118800E+02  0.7818608E-02  0.1130116E+00
         25   -1    0    0    0    0  0.00000000000E+00  0.00000000000E+00  0.99999998245E-14  0.12500000000E+03  0.12500000000E+03 0.  0.
        -13    1    3    3    0    0 -0.38918710830E+02 -0.18967195840E+01 -0.37771721170E+02  0.54267648576E+02  0.10566000000E+00 0.  1.
         23    2    1    0    0    0 -0.37609867157E+02  0.61593790003E+01 -0.68122375554E+01  0.86285059244E+02  0.77112027667E+02 0.  0.
         13    1    3    3    0    0  0.13088436731E+01  0.80560985842E+01  0.30959483614E+02  0.32017410668E+02  0.10566000000E+00 0. -1.
         22    1    1    0    0    0  0.37609867157E+02 -0.61593790003E+01  0.68122375554E+01  0.38714940756E+02  0.00000000000E+00 0.  1.
</event>
<event>
 5    1  0.6924865E-004  0.9118800E+02  0.7818608E-02  0.1130116E+00
         25   -1    0    0    0    0  0.00000000000E+00  0.00000000000E+00  0.99999998245E-14  0.12500000000E+03  0.12500000000E+03 0.  0.
        -13    1    3    3    0    0  0.27647209499E+02  0.30812335430E+02  0.11660160997E+02  0.43008588983E+02  0.10566000000E+00 0. -1.
         23    2    1    0    0    0 -0.20017618445E+02  0.19769453832E+02 -0.80189010703E+01  0.95745271708E+02  0.91166429825E+02 0.  0.
         13    1    3    3    0    0 -0.47664827945E+02 -0.11042881598E+02 -0.19679062068E+02  0.52736682726E+02  0.10566000000E+00 0.  1.
         22    1    1    0    0    0  0.20017618445E+02 -0.19769453832E+02  0.80189010703E+01  0.29254728292E+02  0.00000000000E+00 0.  1.
</event>
<event>
 5    1  0.6924865E-004  0.9118800E+02  0.7818608E-02  0.1130116E+00
         25   -1    0    0    0    0  0.00000000000E+00  0.00000000000E+00  0.99999998245E-14  0.12500000000E+03  0.12500000000E+03 0.  0.
        -13    1    3    3    0    0  0.70719559272E+01 -0.22012479331E+02  0.29986175692E+02  0.37864808248E+02  0.10566000000E+00 0.  1.
         23    2    1    0    0    0  0.17196509093E+02  0.19427819057E+02 -0.10811233594E+02  0.96892299096E+02  0.92725804251E+02 0.  0.
         13    1    3    3    0    0  0.10124553166E+02  0.41440298388E+02 -0.40797409286E+02  0.59027490848E+02  0.10566000000E+00 0. -1.
         22    1    1    0    0    0 -0.17196509093E+02 -0.19427819057E+02  0.10811233594E+02  0.28107700904E+02  0.00000000000E+00 0. -1.
</event>
<event>
 5    1  0.6924865E-004  0.9118800E+02  0.7818608E-02  0.1130116E+00
         25   -1    0    0    0    0  0.00000000000E+00  0.00000000000E+00  0.99999998245E-14  0.12500000000E+03  0.12500000000E+03 0.  0.
        -13    1    3    3    0    0  0.15253168788E+02 -0.35922413451E+02 -0.18800065562E+02  0.43318963230E+02  0.10566000000E+00 0. -1.
         23    2    1    0    0    0  0.28742212233E+02  0.22586404068E+01  0.11568045026E+02  0.93934973262E+02  0.88649553385E+02 0.  0.
         13    1    3    3    0    0  0.13489043445E+02  0.38181053858E+02  0.30368110588E+02  0.50616010031E+02  0.10566000000E+00 0.  1.
         22    1    1    0    0    0 -0.28742212233E+02 -0.22586404068E+01 -0.11568045026E+02  0.31065026738E+02  0.00000000000E+00 0.  1.
</event>
<event>
 5    1  0.6924865E-004  0.9118800E+02  0.7818608E-02  0.1130116E+00
         25   -1    0    0    0    0  0.00000000000E+00  0.00000000000E+00  0.99999998245E-14  0.12500000000E+03  0.12500000000E+03 0.  0.
        -13    1    3    3    0    0 -0.12596031904E+02  0.31586897413E+02 -0.11366875822E+02  0.35855392033E+02  0.10566000000E+00 0.  1.
         23    2    1    0    0    0 -0.92018108201E+01 -0.26514644903E+02  0.53916782727E+01  0.96420813320E+02  0.92088019470E+02 0.  0.
         13    1    3    3    0    0  0.33942210835E+01 -0.58101542316E+02  0.16758554094E+02  0.60565421287E+02  0.10566000000E+00 0. -1.
         22    1    1    0    0    0  0.92018108201E+01  0.26514644903E+02 -0.53916782727E+01  0.28579186680E+02  0.00000000000E+00 0. -1.
</event>
<event>
 5    1  0.6924865E-004  0.9118800E+02  0.7818608E-02  0.1130116E+00
         25   -1    0    0    0    0  0.00000000000E+00  0.00000000000E+00  0.99999998245E-14  0.12500000000E+03  0.12500000000E+03 0.  0.
        -13    1    3    3    0    0  0.47517645901E+02 -0.36822140498E+02  0.80498495095E+01  0.60651528786E+02  0.10566000000E+00 0. -1.
         23    2    1    0    0    0  0.18184633563E+02 -0.24466144650E+02 -0.30570658116E+01  0.94363114009E+02  0.89251210088E+02 0.  0.
         13    1    3    3    0    0 -0.29333012339E+02  0.12355995848E+02 -0.11106915321E+02  0.33711585223E+02  0.10566000000E+00 0.  1.
         22    1    1    0    0    0 -0.18184633563E+02  0.24466144650E+02  0.30570658116E+01  0.30636885991E+02  0.00000000000E+00 0. -1.
</event>
<event>
 5    1  0.6924865E-004  0.9118800E+02  0.7818608E-02  0.1130116E+00
         25   -1    0    0    0    0  0.00000000000E+00  0.00000000000E+00  0.99999998245E-14  0.12500000000E+03  0.12500000000E+03 0.  0.
        -13    1    3    3    0    0 -0.23699897925E+02 -0.36760627717E+02 -0.96973458362E+01  0.44800430713E+02  0.10566000000E+00 0. -1.
         23    2    1    0    0    0 -0.39577631254E+01  0.45890465838E+01 -0.29620959476E+02  0.94765508475E+02  0.89813011968E+02 0.  0.
         13    1    3    3    0    0  0.19742134800E+02  0.41349674301E+02 -0.19923613640E+02  0.49965077762E+02  0.10566000000E+00 0.  1.
         22    1    1    0    0    0  0.39577631254E+01 -0.45890465838E+01  0.29620959476E+02  0.30234491525E+02  0.00000000000E+00 0. -1.
</event>
<event>
 5    1  0.6924865E-004  0.9118800E+02  0.7818608E-02  0.1130116E+00
         25   -1    0    0    0    0  0.00000000000E+00  0.00000000000E+00  0.99999998245E-14  0.12500000000E+03  0.12500000000E+03 0.  0.
        -13    1    3    3    0    0 -0.11638285254E+02  0.48415697527E+02 -0.15540049467E+01  0.49819228679E+02  0.10566000000E+00 0.  1.
         23    2    1    0    0    0  0.15391819802E+02  0.17758037617E+02  0.18258763811E+02  0.95240321360E+02  0.90471433835E+02 0.  0.
         13    1    3    3    0    0  0.27030105056E+02 -0.30657659910E+02  0.19812768758E+02  0.45421092682E+02  0.10566000000E+00 0. -1.
         22    1    1    0    0    0 -0.15391819802E+02 -0.17758037617E+02 -0.18258763811E+02  0.29759678640E+02  0.00000000000E+00 0. -1.
</event>
<event>
 5    1  0.6924865E-004  0.9118800E+02  0.7818608E-02  0.1130116E+00
         25   -1    0    0    0    0  0.00000000000E+00  0.00000000000E+00  0.99999998245E-14  0.12500000000E+03  0.12500000000E+03 0.  0.
        -13    1    3    3    0    0 -0.40989919169E+01  0.29949224651E+02  0.53697317324E+02  0.61621188270E+02  0.10566000000E+00 0.  1.
         23    2    1    0    0    0  0.51701012574E+01  0.12902968980E+02  0.27086779386E+02  0.94554800493E+02  0.89519272357E+02 0.  0.
         13    1    3    3    0    0  0.92690931744E+01 -0.17046255671E+02 -0.26610537938E+02  0.32933612223E+02  0.10566000000E+00 0. -1.
         22    1    1    0    0    0 -0.51701012574E+01 -0.12902968980E+02 -0.27086779386E+02  0.30445199507E+02  0.00000000000E+00 0.  1.
</event>
<event>
 5    1  0.6924865E-004  0.9118800E+02  0.7818608E-02  0.1130116E+00
         25   -1    0    0    0    0  0.00000000000E+00  0.00000000000E+00  0.99999998245E-14  0.12500000000E+03  0.12500000000E+03 0.  0.
        -13    1    3    3    0    0 -0.15296463651E+02  0.15798181916E+02 -0.38625089979E+02  0.44446294469E+02  0.10566000000E+00 0.  1.
         23    2    1    0    0    0 -0.12093851229E+01  0.23058046694E+02  0.13036597108E+02  0.98484174652E+02  0.94847475786E+02 0.  0.
         13    1    3    3    0    0  0.14087078528E+02  0.72598647786E+01  0.51661687086E+02  0.54037880183E+02  0.10566000000E+00 0. -1.
         22    1    1    0    0    0  0.12093851229E+01 -0.23058046694E+02 -0.13036597108E+02  0.26515825348E+02  0.00000000000E+00 0. -1.
</event>
<event>
 5    1  0.6924865E-004  0.9118800E+02  0.7818608E-02  0.1130116E+00
         25   -1    0    0    0    0  0.00000000000E+00  0.00000000000E+00  0.99999998245E-14  0.12500000000E+03  0.12500000000E+03 0.  0.
        -13    1    3    3    0    0  0.21079892025E+02  0.31961167730E+02  0.24449405152E+02  0.45427554048E+02  0.10566000000E+00 0.  1.
         23    2    1    0    0    0  0.27579100828E+02 -0.59326406041E+01 -0.79339334798E+01  0.95695557888E+02  0.91098240774E+02 0.  0.
         13    1    3    3    0    0  0.64992088031E+01 -0.37893808334E+02 -0.32383338632E+02  0.50268003841E+02  0.10566000000E+00 0. -1.
         22    1    1    0    0    0 -0.27579100828E+02  0.59326406041E+01  0.79339334798E+01  0.29304442112E+02  0.00000000000E+00 0.  1.
</event>
<event>
 5    1  0.6924865E-004  0.9118800E+02  0.7818608E-02  0.1130116E+00
         25   -1    0    0    0    0  0.00000000000E+00  0.00000000000E+00  0.99999998245E-14  0.12500000000E+03  0.12500000000E+03 0.  0.
        -13    1    3    3    0    0  0.37114667123E+02 -0.18475489696E+02  0.42881601429E+01  0.41680231725E+02  0.10566000000E+00 0. -1.
         23    2    1    0    0    0  0.11579070393E+02  0.16683211461E+02 -0.24023505833E+02  0.93543152600E+02  0.88095335575E+02 0.  0.
         13    1    3    3    0    0 -0.25535596730E+02  0.35158701157E+02 -0.28311665976E+02  0.51862920876E+02  0.10566000000E+00 0.  1.
         22    1    1    0    0    0 -0.11579070393E+02 -0.16683211461E+02  0.24023505833E+02  0.31456847400E+02  0.00000000000E+00 0.  1.
</event>
<event>
 5    1  0.6924865E-004  0.9118800E+02  0.7818608E-02  0.1130116E+00
         25   -1    0    0    0    0  0.00000000000E+00  0.00000000000E+00  0.99999998245E-14  0.12500000000E+03  0.12500000000E+03 0.  0.
        -13    1    3    3    0    0 -0.13684085754E+02  0.30379024307E+02 -0.39963193544E+01  0.33557727175E+02  0.10566000000E+00 0. -1.
         23    2    1    0    0    0  0.16751020230E+02 -0.23039933409E+02  0.61173263267E+01  0.95864851268E+02  0.91330240430E+02 0.  0.
         13    1    3    3    0    0  0.30435105984E+02 -0.53418957716E+02  0.10113645681E+02  0.62307124093E+02  0.10566000000E+00 0.  1.
         22    1    1    0    0    0 -0.16751020230E+02  0.23039933409E+02 -0.61173263267E+01  0.29135148732E+02  0.00000000000E+00 0.  1.
</event>
<event>
 5    1  0.6924865E-004  0.9118800E+02  0.7818608E-02  0.1130116E+00
         25   -1    0    0    0    0  0.00000000000E+00  0.00000000000E+00  0.99999998245E-14  0.12500000000E+03  0.12500000000E+03 0.  0.
        -13    1    3    3    0    0 -0.59976844490E+02  0.30600639497E+01  0.14169568189E+02  0.61703919593E+02  0.10566000000E+00 0.  1.
         23    2    1    0    0    0 -0.42511376514E+02 -0.33627936992E+01  0.13285549820E+02  0.80334226206E+02  0.66772423586E+02 0.  0.
         13    1    3    3    0    0  0.17465467976E+02 -0.64228576489E+01 -0.88401836924E+00  0.18630306614E+02  0.10566000000E+00 0. -1.
         22    1    1    0    0    0  0.42511376514E+02  0.33627936992E+01 -0.13285549820E+02  0.44665773794E+02  0.00000000000E+00 0.  1.
</event>
<event>
 5    1  0.6924865E-004  0.9118800E+02  0.7818608E-02  0.1130116E+00
         25   -1    0    0    0    0  0.00000000000E+00  0.00000000000E+00  0.99999998245E-14  0.12500000000E+03  0.12500000000E+03 0.  0.
        -13    1    3    3    0    0  0.12788085872E+02 -0.19313962079E+02 -0.34753814691E+02  0.41766051658E+02  0.10566000000E+00 0.  1.
         23    2    1    0    0    0 -0.12030920609E+01 -0.24882834898E+02  0.16455653748E+02  0.95143820685E+02  0.90338005132E+02 0.  0.
         13    1    3    3    0    0 -0.13991177933E+02 -0.55688728186E+01  0.51209468439E+02  0.53377769027E+02  0.10566000000E+00 0. -1.
         22    1    1    0    0    0  0.12030920609E+01  0.24882834898E+02 -0.16455653748E+02  0.29856179315E+02  0.00000000000E+00 0. -1.
</event>
<event>
 5    1  0.6924865E-004  0.9118800E+02  0.7818608E-02  0.1130116E+00
         25   -1    0    0    0    0  0.00000000000E+00  0.00000000000E+00  0.99999998245E-14  0.12500000000E+03  0.12500000000E+03 0.  0.
        -13    1    3    3    0    0 -0.28714108223E+02 -0.33659225085E+02  0.13350213425E+02  0.46213448333E+02  0.10566000000E+00 0. -1.
         23    2    1    0    0    0 -0.19613411972E+02  0.16095220081E+02 -0.31876272279E+01  0.99428472748E+02  0.96083912217E+02 0.  0.
         13    1    3    3    0    0  0.91006962504E+01  0.49754445166E+02 -0.16537840653E+02  0.53215024415E+02  0.10566000000E+00 0.  1.
         22    1    1    0    0    0  0.19613411972E+02 -0.16095220081E+02  0.31876272279E+01  0.25571527252E+02  0.00000000000E+00 0.  1.
</event>
<event>
 5    1  0.6924865E-004  0.9118800E+02  0.7818608E-02  0.1130116E+00
         25   -1    0    0    0    0  0.00000000000E+00  0.00000000000E+00  0.99999998245E-14  0.12500000000E+03  0.12500000000E+03 0.  0.
        -13    1    3    3    0    0 -0.20007391240E+02 -0.35738065070E+02 -0.36684841470E-01  0.40957508579E+02  0.10566000000E+00 0. -1.
         23    2    1    0    0    0 -0.28200433608E+01  0.72029186203E+01 -0.28635595987E+02  0.95338037173E+02  0.90606342456E+02 0.  0.
         13    1    3    3    0    0  0.17187347879E+02  0.42940983690E+02 -0.28598911146E+02  0.54380528594E+02  0.10566000000E+00 0.  1.
         22    1    1    0    0    0  0.28200433608E+01 -0.72029186203E+01  0.28635595987E+02  0.29661962827E+02  0.00000000000E+00 0.  1.
</event>
<event>
 5    1  0.6924865E-004  0.9118800E+02  0.7818608E-02  0.1130116E+00
         25   -1    0    0    0    0  0.00000000000E+00  0.00000000000E+00  0.99999998245E-14  0.12500000000E+03  0.12500000000E+03 0.  0.
        -13    1    3    3    0    0  0.12437357777E+02  0.40672815297E+02  0.10355833085E+02  0.43774652661E+02  0.10566000000E+00 0.  1.
         23    2    1    0    0    0  0.31373648876E+01  0.60201217767E+01 -0.27937076971E+02  0.96249953142E+02  0.91855801588E+02 0.  0.
         13    1    3    3    0    0 -0.92999928898E+01 -0.34652693520E+02 -0.38292910057E+02  0.52475300481E+02  0.10566000000E+00 0. -1.
         22    1    1    0    0    0 -0.31373648876E+01 -0.60201217767E+01  0.27937076971E+02  0.28750046858E+02  0.00000000000E+00 0. -1.
</event>
<event>
 5    1  0.6924865E-004  0.9118800E+02  0.7818608E-02  0.1130116E+00
         25   -1    0    0    0    0  0.00000000000E+00  0.00000000000E+00  0.99999998245E-14  0.12500000000E+03  0.12500000000E+03 0.  0.
        -13    1    3    3    0    0 -0.54550163777E+01  0.96210217901E+01  0.37547261920E+02  0.39142423349E+02  0.10566000000E+00 0.  1.
         23    2    1    0    0    0  0.21726129598E+02  0.19611554804E+02 -0.93621606899E+01  0.94270733137E+02  0.89121732951E+02 0.  0.
         13    1    3    3    0    0  0.27181145976E+02  0.99905330139E+01 -0.46909422609E+02  0.55128309788E+02  0.10566000000E+00 0. -1.
         22    1    1    0    0    0 -0.21726129598E+02 -0.19611554804E+02  0.93621606899E+01  0.30729266863E+02  0.00000000000E+00 0. -1.
</event>
<event>
 5    1  0.6924865E-004  0.9118800E+02  0.7818608E-02  0.1130116E+00
         25   -1    0    0    0    0  0.00000000000E+00  0.00000000000E+00  0.99999998245E-14  0.12500000000E+03  0.12500000000E+03 0.  0.
        -13    1    3    3    0    0  0.26510326491E+02 -0.40840540670E+02 -0.69992171240E+01  0.49190927795E+02  0.10566000000E+00 0.  1.
         23    2    1    0    0    0 -0.91213870367E+01 -0.20620922577E+02  0.17080808133E+02  0.96712614899E+02  0.92483261862E+02 0.  0.
         13    1    3    3    0    0 -0.35631713528E+02  0.20219618093E+02  0.24080025257E+02  0.47521687104E+02  0.10566000000E+00 0. -1.
         22    1    1    0    0    0  0.91213870367E+01  0.20620922577E+02 -0.17080808133E+02  0.28287385101E+02  0.00000000000E+00 0. -1.
</event>
<event>
 5    1  0.6924865E-004  0.9118800E+02  0.7818608E-02  0.1130116E+00
         25   -1    0    0    0    0  0.00000000000E+00  0.00000000000E+00  0.99999998245E-14  0.12500000000E+03  0.12500000000E+03 0.  0.
        -13    1    3    3    0    0  0.10891436349E+01 -0.22782893503E+01  0.61793441440E+02  0.61845108176E+02  0.10566000000E+00 0.  1.
         23    2    1    0    0    0  0.62964853831E+01  0.16425655043E+01  0.29294972637E+02  0.94991015156E+02  0.90126321288E+02 0.  0.
         13    1    3    3    0    0  0.52073417482E+01  0.39208548547E+01 -0.32498468804E+02  0.33145906980E+02  0.10566000000E+00 0. -1.
         22    1    1    0    0    0 -0.62964853831E+01 -0.16425655043E+01 -0.29294972637E+02  0.30008984844E+02  0.00000000000E+00 0.  1.
</event>
<event>
 5    1  0.6924865E-004  0.9118800E+02  0.7818608E-02  0.1130116E+00
         25   -1    0    0    0    0  0.00000000000E+00  0.00000000000E+00  0.99999998245E-14  0.12500000000E+03  0.12500000000E+03 0.  0.
        -13    1    3    3    0    0 -0.12130160720E+02 -0.27794312117E+02 -0.52067186060E+02  0.60255021478E+02  0.10566000000E+00 0. -1.
         23    2    1    0    0    0 -0.13640002904E+01 -0.21735114558E+02 -0.17191560958E+02  0.97254271143E+02  0.93212487284E+02 0.  0.
         13    1    3    3    0    0  0.10766160429E+02  0.60591975584E+01  0.34875625102E+02  0.36999249664E+02  0.10566000000E+00 0.  1.
         22    1    1    0    0    0  0.13640002904E+01  0.21735114558E+02  0.17191560958E+02  0.27745728857E+02  0.00000000000E+00 0. -1.
</event>
<event>
 5    1  0.6924865E-004  0.9118800E+02  0.7818608E-02  0.1130116E+00
         25   -1    0    0    0    0  0.00000000000E+00  0.00000000000E+00  0.99999998245E-14  0.12500000000E+03  0.12500000000E+03 0.  0.
        -13    1    3    3    0    0 -0.10442239562E+01  0.32123723660E+02 -0.40648071573E+01  0.32396880201E+02  0.10566000000E+00 0. -1.
         23    2    1    0    0    0 -0.78571361669E+01 -0.29488330369E+02 -0.19498024884E+01  0.94420628744E+02  0.89331725528E+02 0.  0.
         13    1    3    3    0    0 -0.68129122107E+01 -0.61612054029E+02  0.21150046689E+01  0.62023748543E+02  0.10566000000E+00 0.  1.
         22    1    1    0    0    0  0.78571361669E+01  0.29488330369E+02  0.19498024884E+01  0.30579371256E+02  0.00000000000E+00 0.  1.
</event>
<event>
 5    1  0.6924865E-004  0.9118800E+02  0.7818608E-02  0.1130116E+00
         25   -1    0    0    0    0  0.00000000000E+00  0.00000000000E+00  0.99999998245E-14  0.12500000000E+03  0.12500000000E+03 0.  0.
        -13    1    3    3    0    0 -0.47140758490E+02  0.32350236890E+02  0.17393200104E+01  0.57199871818E+02  0.10566000000E+00 0. -1.
         23    2    1    0    0    0 -0.25216590667E+02  0.62535841386E+01 -0.14816107277E+02  0.95091793864E+02  0.90265987315E+02 0.  0.
         13    1    3    3    0    0  0.21924167823E+02 -0.26096652752E+02 -0.16555427287E+02  0.37891922045E+02  0.10566000000E+00 0.  1.
         22    1    1    0    0    0  0.25216590667E+02 -0.62535841386E+01  0.14816107277E+02  0.29908206136E+02  0.00000000000E+00 0. -1.
</event>
<event>
 5    1  0.6924865E-004  0.9118800E+02  0.7818608E-02  0.1130116E+00
         25   -1    0    0    0    0  0.00000000000E+00  0.00000000000E+00  0.99999998245E-14  0.12500000000E+03  0.12500000000E+03 0.  0.
        -13    1    3    3    0    0  0.36924603645E+02 -0.44900970738E+01  0.30700492635E+02  0.48229853184E+02  0.10566000000E+00 0. -1.
         23    2    1    0    0    0 -0.11058655753E+02 -0.35586873289E+01  0.26086651813E+02  0.96443537940E+02  0.92118860637E+02 0.  0.
         13    1    3    3    0    0 -0.47983259398E+02  0.93140974492E+00 -0.46138408224E+01  0.48213684756E+02  0.10566000000E+00 0.  1.
         22    1    1    0    0    0  0.11058655753E+02  0.35586873289E+01 -0.26086651813E+02  0.28556462060E+02  0.00000000000E+00 0.  1.
</event>
<event>
 5    1  0.6924865E-004  0.9118800E+02  0.7818608E-02  0.1130116E+00
         25   -1    0    0    0    0  0.00000000000E+00  0.00000000000E+00  0.99999998245E-14  0.12500000000E+03  0.12500000000E+03 0.  0.
        -13    1    3    3    0    0  0.48344524954E+01  0.33037117830E+02  0.47323566251E+02  0.57916786618E+02  0.10566000000E+00 0. -1.
         23    2    1    0    0    0 -0.71676114703E+01 -0.42233135915E+01  0.98363786008E+01  0.11211724502E+03  0.11137464368E+03 0.  0.
         13    1    3    3    0    0 -0.12002063966E+02 -0.37260431421E+02 -0.37487187650E+02  0.54200458403E+02  0.10566000000E+00 0.  1.
         22    1    1    0    0    0  0.71676114703E+01  0.42233135915E+01 -0.98363786008E+01  0.12882754979E+02  0.00000000000E+00 0. -1.
</event>
<event>
 5    1  0.6924865E-004  0.9118800E+02  0.7818608E-02  0.1130116E+00
         25   -1    0    0    0    0  0.00000000000E+00  0.00000000000E+00  0.99999998245E-14  0.12500000000E+03  0.12500000000E+03 0.  0.
        -13    1    3    3    0    0  0.18973496694E+02 -0.51456882731E+02  0.93290988845E+01  0.55631354533E+02  0.10566000000E+00 0. -1.
         23    2    1    0    0    0  0.17608791474E+02 -0.11212736916E+02  0.18698564433E+02  0.96974452402E+02  0.92836485826E+02 0.  0.
         13    1    3    3    0    0 -0.13647052194E+01  0.40244145815E+02  0.93694655481E+01  0.41343097869E+02  0.10566000000E+00 0.  1.
         22    1    1    0    0    0 -0.17608791474E+02  0.11212736916E+02 -0.18698564433E+02  0.28025547598E+02  0.00000000000E+00 0. -1.
</event>
<event>
 5    1  0.6924865E-004  0.9118800E+02  0.7818608E-02  0.1130116E+00
         25   -1    0    0    0    0  0.00000000000E+00  0.00000000000E+00  0.99999998245E-14  0.12500000000E+03  0.12500000000E+03 0.  0.
        -13    1    3    3    0    0 -0.37394990526E+02 -0.38391372364E+02  0.15500394280E+02  0.55790287464E+02  0.10566000000E+00 0. -1.
         23    2    1    0    0    0 -0.23138959644E+02  0.63039020095E+00  0.15148396956E+02  0.97336255215E+02  0.93322364970E+02 0.  0.
         13    1    3    3    0    0  0.14256030882E+02  0.39021762565E+02 -0.35199732346E+00  0.41545967751E+02  0.10566000000E+00 0.  1.
         22    1    1    0    0    0  0.23138959644E+02 -0.63039020095E+00 -0.15148396956E+02  0.27663744785E+02  0.00000000000E+00 0. -1.
</event>
<event>
 5    1  0.6924865E-004  0.9118800E+02  0.7818608E-02  0.1130116E+00
         25   -1    0    0    0    0  0.00000000000E+00  0.00000000000E+00  0.99999998245E-14  0.12500000000E+03  0.12500000000E+03 0.  0.
        -13    1    3    3    0    0 -0.23891216569E+02 -0.17458162446E+02 -0.44070474252E+02  0.53082911845E+02  0.10566000000E+00 0.  1.
         23    2    1    0    0    0  0.89701786614E+01 -0.14398321366E+02 -0.33002160041E+02  0.87893149813E+02  0.79676141055E+02 0.  0.
         13    1    3    3    0    0  0.32861395230E+02  0.30598410802E+01  0.11068314211E+02  0.34810237968E+02  0.10566000000E+00 0. -1.
         22    1    1    0    0    0 -0.89701786614E+01  0.14398321366E+02  0.33002160041E+02  0.37106850187E+02  0.00000000000E+00 0.  1.
</event>
<event>
 5    1  0.6924865E-004  0.9118800E+02  0.7818608E-02  0.1130116E+00
         25   -1    0    0    0    0  0.00000000000E+00  0.00000000000E+00  0.99999998245E-14  0.12500000000E+03  0.12500000000E+03 0.  0.
        -13    1    3    3    0    0 -0.10769960357E+02 -0.30734041882E+02  0.87055559118E+01  0.33710105966E+02  0.10566000000E+00 0.  1.
         23    2    1    0    0    0  0.17642620356E+02  0.22138111992E+02 -0.71716252695E+01  0.95797427090E+02  0.91237913021E+02 0.  0.
         13    1    3    3    0    0  0.28412580713E+02  0.52872153874E+02 -0.15877181181E+02  0.62087321123E+02  0.10566000000E+00 0. -1.
         22    1    1    0    0    0 -0.17642620356E+02 -0.22138111992E+02  0.71716252695E+01  0.29202572910E+02  0.00000000000E+00 0. -1.
</event>
<event>
 5    1  0.6924865E-004  0.9118800E+02  0.7818608E-02  0.1130116E+00
         25   -1    0    0    0    0  0.00000000000E+00  0.00000000000E+00  0.99999998245E-14  0.12500000000E+03  0.12500000000E+03 0.  0.
        -13    1    3    3    0    0  0.30125375737E+02 -0.63504464274E+01  0.16311844077E+02  0.34841840570E+02  0.10566000000E+00 0.  1.
         23    2    1    0    0    0 -0.28175055150E+02  0.59505540246E+01  0.19195040243E+01  0.96139519727E+02  0.91705397505E+02 0.  0.
         13    1    3    3    0    0 -0.58300430887E+02  0.12301000452E+02 -0.14392340053E+02  0.61297679156E+02  0.10566000000E+00 0. -1.
         22    1    1    0    0    0  0.28175055150E+02 -0.59505540246E+01 -0.19195040243E+01  0.28860480273E+02  0.00000000000E+00 0. -1.
</event>
<event>
 5    1  0.6924865E-004  0.9118800E+02  0.7818608E-02  0.1130116E+00
         25   -1    0    0    0    0  0.00000000000E+00  0.00000000000E+00  0.99999998245E-14  0.12500000000E+03  0.12500000000E+03 0.  0.
        -13    1    3    3    0    0 -0.58703291914E+01 -0.45379434418E+02 -0.26355123849E+02  0.52804900815E+02  0.10566000000E+00 0. -1.
         23    2    1    0    0    0 -0.16144020778E+02 -0.21850157309E+02  0.88946351819E+01  0.96413756520E+02  0.92078440093E+02 0.  0.
         13    1    3    3    0    0 -0.10273691587E+02  0.23529277110E+02  0.35249759031E+02  0.43608855705E+02  0.10566000000E+00 0.  1.
         22    1    1    0    0    0  0.16144020778E+02  0.21850157309E+02 -0.88946351819E+01  0.28586243480E+02  0.00000000000E+00 0. -1.
</event>
<event>
 5    1  0.6924865E-004  0.9118800E+02  0.7818608E-02  0.1130116E+00
         25   -1    0    0    0    0  0.00000000000E+00  0.00000000000E+00  0.99999998245E-14  0.12500000000E+03  0.12500000000E+03 0.  0.
        -13    1    3    3    0    0  0.21281394363E+02 -0.43649264422E+02 -0.28230270146E+02  0.56170413451E+02  0.10566000000E+00 0.  1.
         23    2    1    0    0    0 -0.80567672845E+01 -0.28302145081E+02 -0.10305417796E+02  0.93821088037E+02  0.88488824205E+02 0.  0.
         13    1    3    3    0    0 -0.29338161648E+02  0.15347119341E+02  0.17924852350E+02  0.37650674586E+02  0.10566000000E+00 0. -1.
         22    1    1    0    0    0  0.80567672845E+01  0.28302145081E+02  0.10305417796E+02  0.31178911963E+02  0.00000000000E+00 0.  1.
</event>
<event>
 5    1  0.6924865E-004  0.9118800E+02  0.7818608E-02  0.1130116E+00
         25   -1    0    0    0    0  0.00000000000E+00  0.00000000000E+00  0.99999998245E-14  0.12500000000E+03  0.12500000000E+03 0.  0.
        -13    1    3    3    0    0  0.27590616564E+02  0.96308548954E+01 -0.47342164453E+02  0.55635305225E+02  0.10566000000E+00 0. -1.
         23    2    1    0    0    0 -0.69414640672E+01  0.97898425373E+01 -0.26344730060E+02  0.96050565770E+02  0.91584067623E+02 0.  0.
         13    1    3    3    0    0 -0.34532080631E+02  0.15898764185E+00  0.20997434393E+02  0.40415260544E+02  0.10566000000E+00 0.  1.
         22    1    1    0    0    0  0.69414640672E+01 -0.97898425373E+01  0.26344730060E+02  0.28949434230E+02  0.00000000000E+00 0.  1.
</event>
<event>
 5    1  0.6924865E-004  0.9118800E+02  0.7818608E-02  0.1130116E+00
         25   -1    0    0    0    0  0.00000000000E+00  0.00000000000E+00  0.99999998245E-14  0.12500000000E+03  0.12500000000E+03 0.  0.
        -13    1    3    3    0    0 -0.29713997384E+02 -0.62110045739E+01  0.12923806201E+02  0.32992940898E+02  0.10566000000E+00 0. -1.
         23    2    1    0    0    0  0.23060642986E+02 -0.43483613994E+01 -0.19091903900E+02  0.94747689405E+02  0.89788208309E+02 0.  0.
         13    1    3    3    0    0  0.52774640370E+02  0.18626431745E+01 -0.32015710102E+02  0.61754748507E+02  0.10566000000E+00 0.  1.
         22    1    1    0    0    0 -0.23060642986E+02  0.43483613994E+01  0.19091903900E+02  0.30252310595E+02  0.00000000000E+00 0.  1.
</event>
<event>
 5    1  0.6924865E-004  0.9118800E+02  0.7818608E-02  0.1130116E+00
         25   -1    0    0    0    0  0.00000000000E+00  0.00000000000E+00  0.99999998245E-14  0.12500000000E+03  0.12500000000E+03 0.  0.
        -13    1    3    3    0    0  0.28045317933E+02  0.29145881979E+02  0.60149229456E+01  0.40892698081E+02  0.10566000000E+00 0.  1.
         23    2    1    0    0    0  0.21935011277E+02 -0.15616848966E+02 -0.18535784073E+02  0.92310460656E+02  0.86328530417E+02 0.  0.
         13    1    3    3    0    0 -0.61103066553E+01 -0.44762730945E+02 -0.24550707018E+02  0.51417762575E+02  0.10566000000E+00 0. -1.
         22    1    1    0    0    0 -0.21935011277E+02  0.15616848966E+02  0.18535784073E+02  0.32689539344E+02  0.00000000000E+00 0.  1.
</event>
<event>
 5    1  0.6924865E-004  0.9118800E+02  0.7818608E-02  0.1130116E+00
         25   -1    0    0    0    0  0.00000000000E+00  0.00000000000E+00  0.99999998245E-14  0.12500000000E+03  0.12500000000E+03 0.  0.
        -13    1    3    3    0    0 -0.15869158749E+02  0.19742580667E+01  0.58443820246E+02  0.60592236989E+02  0.10566000000E+00 0.  1.
         23    2    1    0    0    0 -0.13840898243E+02 -0.74525886932E+01  0.24406715584E+02  0.95968994024E+02  0.91472665348E+02 0.  0.
         13    1    3    3    0    0  0.20282605061E+01 -0.94268467600E+01 -0.34037104662E+02  0.35376757035E+02  0.10566000000E+00 0. -1.
         22    1    1    0    0    0  0.13840898243E+02  0.74525886932E+01 -0.24406715584E+02  0.29031005976E+02  0.00000000000E+00 0.  1.
</event>
<event>
 5    1  0.6924865E-004  0.9118800E+02  0.7818608E-02  0.1130116E+00
         25   -1    0    0    0    0  0.00000000000E+00  0.00000000000E+00  0.99999998245E-14  0.12500000000E+03  0.12500000000E+03 0.  0.
        -13    1    3    3    0    0  0.22128321549E+02 -0.55373189178E+02 -0.92877312887E+01  0.60350027430E+02  0.10566000000E+00 0.  1.
         23    2    1    0    0    0  0.12721448885E+02 -0.21665329942E+02 -0.14895030435E+02  0.95792403131E+02  0.91231029714E+02 0.  0.
         13    1    3    3    0    0 -0.94068726641E+01  0.33707859235E+02 -0.56072991459E+01  0.35442375701E+02  0.10566000000E+00 0. -1.
         22    1    1    0    0    0 -0.12721448885E+02  0.21665329942E+02  0.14895030435E+02  0.29207596869E+02  0.00000000000E+00 0.  1.
</event>
<event>
 5    1  0.6924865E-004  0.9118800E+02  0.7818608E-02  0.1130116E+00
         25   -1    0    0    0    0  0.00000000000E+00  0.00000000000E+00  0.99999998245E-14  0.12500000000E+03  0.12500000000E+03 0.  0.
        -13    1    3    3    0    0  0.14004210856E+02 -0.12230436629E+02 -0.43202481954E+02  0.47033680622E+02  0.10566000000E+00 0. -1.
         23    2    1    0    0    0  0.12429620570E+02 -0.26391389071E+02  0.32736859877E+01  0.95644967986E+02  0.91028797622E+02 0.  0.
         13    1    3    3    0    0 -0.15745902861E+01 -0.14160952442E+02  0.46476167941E+02  0.48611287364E+02  0.10566000000E+00 0.  1.
         22    1    1    0    0    0 -0.12429620570E+02  0.26391389071E+02 -0.32736859877E+01  0.29355032014E+02  0.00000000000E+00 0. -1.
</event>
<event>
 5    1  0.6924865E-004  0.9118800E+02  0.7818608E-02  0.1130116E+00
         25   -1    0    0    0    0  0.00000000000E+00  0.00000000000E+00  0.99999998245E-14  0.12500000000E+03  0.12500000000E+03 0.  0.
        -13    1    3    3    0    0  0.24630602048E+02  0.19477173585E+02  0.24923317102E+02  0.40090020548E+02  0.10566000000E+00 0.  1.
         23    2    1    0    0    0 -0.60388207247E+01 -0.25622259597E+02  0.11598105432E+02  0.96233985465E+02  0.91834069747E+02 0.  0.
         13    1    3    3    0    0 -0.30669422773E+02 -0.45099433182E+02 -0.13325211670E+02  0.56143964917E+02  0.10566000000E+00 0. -1.
         22    1    1    0    0    0  0.60388207247E+01  0.25622259597E+02 -0.11598105432E+02  0.28766014535E+02  0.00000000000E+00 0. -1.
</event>
<event>
 5    1  0.6924865E-004  0.9118800E+02  0.7818608E-02  0.1130116E+00
         25   -1    0    0    0    0  0.00000000000E+00  0.00000000000E+00  0.99999998245E-14  0.12500000000E+03  0.12500000000E+03 0.  0.
        -13    1    3    3    0    0 -0.49741558095E+02 -0.11848987034E+02  0.94420037087E+01  0.51997920088E+02  0.10566000000E+00 0. -1.
         23    2    1    0    0    0 -0.21816730387E+02  0.40820768301E+00 -0.20733292424E+02  0.94900070216E+02  0.90000097522E+02 0.  0.
         13    1    3    3    0    0  0.27924827708E+02  0.12257194717E+02 -0.30175296133E+02  0.42902150127E+02  0.10566000000E+00 0.  1.
         22    1    1    0    0    0  0.21816730387E+02 -0.40820768301E+00  0.20733292424E+02  0.30099929784E+02  0.00000000000E+00 0. -1.
</event>
<event>
 5    1  0.6924865E-004  0.9118800E+02  0.7818608E-02  0.1130116E+00
         25   -1    0    0    0    0  0.00000000000E+00  0.00000000000E+00  0.99999998245E-14  0.12500000000E+03  0.12500000000E+03 0.  0.
        -13    1    3    3    0    0 -0.49211127218E+01  0.40720167421E+02  0.54966545972E+01  0.41383254597E+02  0.10566000000E+00 0.  1.
         23    2    1    0    0    0 -0.12572083073E+02 -0.27329504865E+01  0.30358768813E+02  0.92027570077E+02  0.85917940614E+02 0.  0.
         13    1    3    3    0    0 -0.76509703516E+01 -0.43453117908E+02  0.24862114216E+02  0.50644315481E+02  0.10566000000E+00 0. -1.
         22    1    1    0    0    0  0.12572083073E+02  0.27329504865E+01 -0.30358768813E+02  0.32972429923E+02  0.00000000000E+00 0.  1.
</event>
<event>
 5    1  0.6924865E-004  0.9118800E+02  0.7818608E-02  0.1130116E+00
         25   -1    0    0    0    0  0.00000000000E+00  0.00000000000E+00  0.99999998245E-14  0.12500000000E+03  0.12500000000E+03 0.  0.
        -13    1    3    3    0    0 -0.39601671563E+02 -0.29433153144E+02  0.38009528333E+02  0.62284334328E+02  0.10566000000E+00 0.  1.
         23    2    1    0    0    0 -0.16008765869E+02 -0.16057805233E+02  0.15439840731E+02  0.97567858717E+02  0.93632070784E+02 0.  0.
         13    1    3    3    0    0  0.23592905694E+02  0.13375347911E+02 -0.22569687602E+02  0.35283524389E+02  0.10566000000E+00 0. -1.
         22    1    1    0    0    0  0.16008765869E+02  0.16057805233E+02 -0.15439840731E+02  0.27432141283E+02  0.00000000000E+00 0.  1.
</event>
<event>
 5    1  0.6924865E-004  0.9118800E+02  0.7818608E-02  0.1130116E+00
         25   -1    0    0    0    0  0.00000000000E+00  0.00000000000E+00  0.99999998245E-14  0.12500000000E+03  0.12500000000E+03 0.  0.
        -13    1    3    3    0    0 -0.16720085464E+02 -0.33153597547E+02  0.33961279564E+02  0.50319995647E+02  0.10566000000E+00 0. -1.
         23    2    1    0    0    0 -0.12797161504E+02 -0.23173755351E+02 -0.10845406801E+02  0.96392079273E+02  0.92049007699E+02 0.  0.
         13    1    3    3    0    0  0.39229239600E+01  0.99798421956E+01 -0.44806686365E+02  0.46072083627E+02  0.10566000000E+00 0.  1.
         22    1    1    0    0    0  0.12797161504E+02  0.23173755351E+02  0.10845406801E+02  0.28607920727E+02  0.00000000000E+00 0.  1.
</event>
<event>
 5    1  0.6924865E-004  0.9118800E+02  0.7818608E-02  0.1130116E+00
         25   -1    0    0    0    0  0.00000000000E+00  0.00000000000E+00  0.99999998245E-14  0.12500000000E+03  0.12500000000E+03 0.  0.
        -13    1    3    3    0    0  0.18190369205E+02  0.13222922871E+01  0.27673923544E+02  0.33143554382E+02  0.10566000000E+00 0.  1.
         23    2    1    0    0    0 -0.47594439252E+01  0.20094054194E+00 -0.29685842437E+02  0.94934373035E+02  0.90047727672E+02 0.  0.
         13    1    3    3    0    0 -0.22949813130E+02 -0.11213517452E+01 -0.57359765981E+02  0.61790818654E+02  0.10566000000E+00 0. -1.
         22    1    1    0    0    0  0.47594439252E+01 -0.20094054194E+00  0.29685842437E+02  0.30065626965E+02  0.00000000000E+00 0. -1.
</event>
<event>
 5    1  0.6924865E-004  0.9118800E+02  0.7818608E-02  0.1130116E+00
         25   -1    0    0    0    0  0.00000000000E+00  0.00000000000E+00  0.99999998245E-14  0.12500000000E+03  0.12500000000E+03 0.  0.
        -13    1    3    3    0    0  0.11867023946E+02  0.38670848773E+02 -0.32235619833E+02  0.51724338103E+02  0.10566000000E+00 0.  1.
         23    2    1    0    0    0 -0.35694236875E+01 -0.10420558683E+02 -0.15786385416E+02  0.10575061577E+03  0.10398391194E+03 0.  0.
         13    1    3    3    0    0 -0.15436447634E+02 -0.49091407456E+02  0.16449234417E+02  0.54026277667E+02  0.10566000000E+00 0. -1.
         22    1    1    0    0    0  0.35694236875E+01  0.10420558683E+02  0.15786385416E+02  0.19249384230E+02  0.00000000000E+00 0.  1.
</event>
<event>
 5    1  0.6924865E-004  0.9118800E+02  0.7818608E-02  0.1130116E+00
         25   -1    0    0    0    0  0.00000000000E+00  0.00000000000E+00  0.99999998245E-14  0.12500000000E+03  0.12500000000E+03 0.  0.
        -13    1    3    3    0    0  0.44176766206E+01 -0.10164023459E+02 -0.18177427325E+02  0.21289745601E+02  0.10566000000E+00 0. -1.
         23    2    1    0    0    0 -0.34273373441E+01  0.14506250807E+01  0.41876907618E+02  0.82958040650E+02  0.71515803585E+02 0.  0.
         13    1    3    3    0    0 -0.78450139647E+01  0.11614648539E+02  0.60054334942E+02  0.61668295048E+02  0.10566000000E+00 0.  1.
         22    1    1    0    0    0  0.34273373441E+01 -0.14506250807E+01 -0.41876907618E+02  0.42041959350E+02  0.00000000000E+00 0.  1.
</event>
<event>
 5    1  0.6924865E-004  0.9118800E+02  0.7818608E-02  0.1130116E+00
         25   -1    0    0    0    0  0.00000000000E+00  0.00000000000E+00  0.99999998245E-14  0.12500000000E+03  0.12500000000E+03 0.  0.
        -13    1    3    3    0    0  0.51840611946E+02  0.12328279083E+02 -0.26982364379E+02  0.59728507964E+02  0.10566000000E+00 0.  1.
         23    2    1    0    0    0  0.12603199462E+02  0.11286121626E+02 -0.18584721333E+02  0.99868166700E+02  0.96654237750E+02 0.  0.
         13    1    3    3    0    0 -0.39237412485E+02 -0.10421574579E+01  0.83976430463E+01  0.40139658736E+02  0.10566000000E+00 0. -1.
         22    1    1    0    0    0 -0.12603199462E+02 -0.11286121626E+02  0.18584721333E+02  0.25131833300E+02  0.00000000000E+00 0.  1.
</event>
<event>
 5    1  0.6924865E-004  0.9118800E+02  0.7818608E-02  0.1130116E+00
         25   -1    0    0    0    0  0.00000000000E+00  0.00000000000E+00  0.99999998245E-14  0.12500000000E+03  0.12500000000E+03 0.  0.
        -13    1    3    3    0    0 -0.33317995081E+02  0.25126971095E+02 -0.14059332982E+02  0.44035547919E+02  0.10566000000E+00 0.  1.
         23    2    1    0    0    0  0.15676625669E+02  0.16253575369E+02 -0.20821045946E+02  0.94284348307E+02  0.89140827216E+02 0.  0.
         13    1    3    3    0    0  0.48994620750E+02 -0.88733957264E+01 -0.67617129639E+01  0.50248800388E+02  0.10566000000E+00 0. -1.
         22    1    1    0    0    0 -0.15676625669E+02 -0.16253575369E+02  0.20821045946E+02  0.30715651693E+02  0.00000000000E+00 0. -1.
</event>
<event>
 5    1  0.6924865E-004  0.9118800E+02  0.7818608E-02  0.1130116E+00
         25   -1    0    0    0    0  0.00000000000E+00  0.00000000000E+00  0.99999998245E-14  0.12500000000E+03  0.12500000000E+03 0.  0.
        -13    1    3    3    0    0 -0.37407355014E+01  0.81203466111E+01  0.39271171819E+02  0.40276162072E+02  0.10566000000E+00 0. -1.
         23    2    1    0    0    0 -0.19519544569E+02  0.14258367661E+02 -0.14610298947E+02  0.96755097737E+02  0.92540663680E+02 0.  0.
         13    1    3    3    0    0 -0.15778809067E+02  0.61380210497E+01 -0.53881470766E+02  0.56478935666E+02  0.10566000000E+00 0.  1.
         22    1    1    0    0    0  0.19519544569E+02 -0.14258367661E+02  0.14610298947E+02  0.28244902263E+02  0.00000000000E+00 0.  1.
</event>
<event>
 5    1  0.6924865E-004  0.9118800E+02  0.7818608E-02  0.1130116E+00
         25   -1    0    0    0    0  0.00000000000E+00  0.00000000000E+00  0.99999998245E-14  0.12500000000E+03  0.12500000000E+03 0.  0.
        -13    1    3    3    0    0  0.11294417893E+02  0.67913627692E+01  0.35504266593E+02  0.37871501081E+02  0.10566000000E+00 0. -1.
         23    2    1    0    0    0 -0.44113427675E+01  0.18290140170E+02 -0.20507547197E+02  0.97169285591E+02  0.93098450029E+02 0.  0.
         13    1    3    3    0    0 -0.15705760660E+02  0.11498777401E+02 -0.56011813790E+02  0.59297784510E+02  0.10566000000E+00 0.  1.
         22    1    1    0    0    0  0.44113427675E+01 -0.18290140170E+02  0.20507547197E+02  0.27830714409E+02  0.00000000000E+00 0.  1.
</event>
<event>
 5    1  0.6924865E-004  0.9118800E+02  0.7818608E-02  0.1130116E+00
         25   -1    0    0    0    0  0.00000000000E+00  0.00000000000E+00  0.99999998245E-14  0.12500000000E+03  0.12500000000E+03 0.  0.
        -13    1    3    3    0    0 -0.13857725214E+02  0.46007953179E+02 -0.20191370237E+02  0.52119774557E+02  0.10566000000E+00 0.  1.
         23    2    1    0    0    0  0.12918790894E+02  0.84114517670E+01 -0.21794144801E+02  0.98304823908E+02  0.94610813214E+02 0.  0.
         13    1    3    3    0    0  0.26776516108E+02 -0.37596501412E+02 -0.16027745637E+01  0.46185049351E+02  0.10566000000E+00 0. -1.
         22    1    1    0    0    0 -0.12918790894E+02 -0.84114517670E+01  0.21794144801E+02  0.26695176092E+02  0.00000000000E+00 0.  1.
</event>
<event>
 5    1  0.6924865E-004  0.9118800E+02  0.7818608E-02  0.1130116E+00
         25   -1    0    0    0    0  0.00000000000E+00  0.00000000000E+00  0.99999998245E-14  0.12500000000E+03  0.12500000000E+03 0.  0.
        -13    1    3    3    0    0  0.31651697763E+02  0.49582913372E+02  0.10117555976E+02  0.59688117517E+02  0.10566000000E+00 0. -1.
         23    2    1    0    0    0  0.56952614791E+01  0.23663165310E+02  0.14560298138E+02  0.96638341416E+02  0.92382819582E+02 0.  0.
         13    1    3    3    0    0 -0.25956436284E+02 -0.25919748063E+02  0.44427421626E+01  0.36950223899E+02  0.10566000000E+00 0.  1.
         22    1    1    0    0    0 -0.56952614791E+01 -0.23663165310E+02 -0.14560298138E+02  0.28361658584E+02  0.00000000000E+00 0. -1.
</event>
<event>
 5    1  0.6924865E-004  0.9118800E+02  0.7818608E-02  0.1130116E+00
         25   -1    0    0    0    0  0.00000000000E+00  0.00000000000E+00  0.99999998245E-14  0.12500000000E+03  0.12500000000E+03 0.  0.
        -13    1    3    3    0    0 -0.12181014424E+02 -0.30313995673E+02 -0.65693150726E+01  0.33323902992E+02  0.10566000000E+00 0.  1.
         23    2    1    0    0    0 -0.52347954719E+01  0.29863367220E+02 -0.69185120150E+01  0.93901935851E+02  0.88602956851E+02 0.  0.
         13    1    3    3    0    0  0.69462189522E+01  0.60177362893E+02 -0.34919694241E+00  0.60578032859E+02  0.10566000000E+00 0. -1.
         22    1    1    0    0    0  0.52347954719E+01 -0.29863367220E+02  0.69185120150E+01  0.31098064149E+02  0.00000000000E+00 0. -1.
</event>
<event>
 5    1  0.6924865E-004  0.9118800E+02  0.7818608E-02  0.1130116E+00
         25   -1    0    0    0    0  0.00000000000E+00  0.00000000000E+00  0.99999998245E-14  0.12500000000E+03  0.12500000000E+03 0.  0.
        -13    1    3    3    0    0  0.61502102989E+01  0.35695251097E+02  0.30009769018E+02  0.47037999938E+02  0.10566000000E+00 0.  1.
         23    2    1    0    0    0 -0.22582534856E+02  0.17963434165E+02 -0.50425714226E+01  0.95706939830E+02  0.91113857111E+02 0.  0.
         13    1    3    3    0    0 -0.28732745155E+02 -0.17731816932E+02 -0.35052340441E+02  0.48668939893E+02  0.10566000000E+00 0. -1.
         22    1    1    0    0    0  0.22582534856E+02 -0.17963434165E+02  0.50425714226E+01  0.29293060170E+02  0.00000000000E+00 0. -1.
</event>
<event>
 5    1  0.6924865E-004  0.9118800E+02  0.7818608E-02  0.1130116E+00
         25   -1    0    0    0    0  0.00000000000E+00  0.00000000000E+00  0.99999998245E-14  0.12500000000E+03  0.12500000000E+03 0.  0.
        -13    1    3    3    0    0  0.12239427111E+02  0.20638265400E+02  0.46547994085E+02  0.52368583064E+02  0.10566000000E+00 0. -1.
         23    2    1    0    0    0  0.19482102777E+02 -0.10991602819E+02  0.25658811595E+02  0.90959696335E+02  0.84350009388E+02 0.  0.
         13    1    3    3    0    0  0.72426756659E+01 -0.31629868219E+02 -0.20889182490E+02  0.38591113271E+02  0.10566000000E+00 0.  1.
         22    1    1    0    0    0 -0.19482102777E+02  0.10991602819E+02 -0.25658811595E+02  0.34040303665E+02  0.00000000000E+00 0. -1.
</event>
<event>
 5    1  0.6924865E-004  0.9118800E+02  0.7818608E-02  0.1130116E+00
         25   -1    0    0    0    0  0.00000000000E+00  0.00000000000E+00  0.99999998245E-14  0.12500000000E+03  0.12500000000E+03 0.  0.
        -13    1    3    3    0    0  0.29422997232E+02  0.21583908725E+02  0.19053742156E+02  0.41165934171E+02  0.10566000000E+00 0. -1.
         23    2    1    0    0    0  0.87793590266E+01 -0.27036766722E+02  0.10608293345E+02  0.94658612633E+02  0.89664112989E+02 0.  0.
         13    1    3    3    0    0 -0.20643638206E+02 -0.48620675447E+02 -0.84454488111E+01  0.53492678462E+02  0.10566000000E+00 0.  1.
         22    1    1    0    0    0 -0.87793590266E+01  0.27036766722E+02 -0.10608293345E+02  0.30341387367E+02  0.00000000000E+00 0.  1.
</event>
<event>
 5    1  0.6924865E-004  0.9118800E+02  0.7818608E-02  0.1130116E+00
         25   -1    0    0    0    0  0.00000000000E+00  0.00000000000E+00  0.99999998245E-14  0.12500000000E+03  0.12500000000E+03 0.  0.
        -13    1    3    3    0    0  0.18947889168E+02  0.31337201690E+02  0.65162976376E+01  0.37195645076E+02  0.10566000000E+00 0. -1.
         23    2    1    0    0    0 -0.19221250345E+02 -0.15446367994E+02  0.11523449047E+02  0.97781685817E+02  0.93917098839E+02 0.  0.
         13    1    3    3    0    0 -0.38169139513E+02 -0.46783569683E+02  0.50071514093E+01  0.60586040741E+02  0.10566000000E+00 0.  1.
         22    1    1    0    0    0  0.19221250345E+02  0.15446367994E+02 -0.11523449047E+02  0.27218314183E+02  0.00000000000E+00 0.  1.
</event>
<event>
 5    1  0.6924865E-004  0.9118800E+02  0.7818608E-02  0.1130116E+00
         25   -1    0    0    0    0  0.00000000000E+00  0.00000000000E+00  0.99999998245E-14  0.12500000000E+03  0.12500000000E+03 0.  0.
        -13    1    3    3    0    0  0.23718125015E+02 -0.16498827903E+02  0.52012055775E+02  0.59498116662E+02  0.10566000000E+00 0.  1.
         23    2    1    0    0    0  0.14288391251E+02 -0.19267452926E+02  0.17702246955E+02  0.95187881423E+02  0.90398951076E+02 0.  0.
         13    1    3    3    0    0 -0.94297337639E+01 -0.27686250233E+01 -0.34309808820E+02  0.35689764760E+02  0.10566000000E+00 0. -1.
         22    1    1    0    0    0 -0.14288391251E+02  0.19267452926E+02 -0.17702246955E+02  0.29812118577E+02  0.00000000000E+00 0.  1.
</event>
<event>
 5    1  0.6924865E-004  0.9118800E+02  0.7818608E-02  0.1130116E+00
         25   -1    0    0    0    0  0.00000000000E+00  0.00000000000E+00  0.99999998245E-14  0.12500000000E+03  0.12500000000E+03 0.  0.
        -13    1    3    3    0    0  0.36511072690E+02 -0.26389634391E+01 -0.23712485332E+02  0.43615544037E+02  0.10566000000E+00 0. -1.
         23    2    1    0    0    0 -0.48243530445E+01 -0.28565845313E+02 -0.69571850067E+01  0.95205968317E+02  0.90423957440E+02 0.  0.
         13    1    3    3    0    0 -0.41335425735E+02 -0.25926881874E+02  0.16755300325E+02  0.51590424280E+02  0.10566000000E+00 0.  1.
         22    1    1    0    0    0  0.48243530445E+01  0.28565845313E+02  0.69571850067E+01  0.29794031683E+02  0.00000000000E+00 0.  1.
</event>
<event>
 5    1  0.6924865E-004  0.9118800E+02  0.7818608E-02  0.1130116E+00
         25   -1    0    0    0    0  0.00000000000E+00  0.00000000000E+00  0.99999998245E-14  0.12500000000E+03  0.12500000000E+03 0.  0.
        -13    1    3    3    0    0  0.43724134706E+02  0.10325129859E+02 -0.24891412154E+02  0.51361481924E+02  0.10566000000E+00 0. -1.
         23    2    1    0    0    0  0.12387376743E+02  0.91827851014E+01  0.15925181714E+02  0.10283286087E+03  0.10041521407E+03 0.  0.
         13    1    3    3    0    0 -0.31336757963E+02 -0.11423447573E+01  0.40816593868E+02  0.51471378942E+02  0.10566000000E+00 0.  1.
         22    1    1    0    0    0 -0.12387376743E+02 -0.91827851014E+01 -0.15925181714E+02  0.22167139134E+02  0.00000000000E+00 0. -1.
</event>
<event>
 5    1  0.6924865E-004  0.9118800E+02  0.7818608E-02  0.1130116E+00
         25   -1    0    0    0    0  0.00000000000E+00  0.00000000000E+00  0.99999998245E-14  0.12500000000E+03  0.12500000000E+03 0.  0.
        -13    1    3    3    0    0 -0.17920062891E+02 -0.91356325706E+01  0.58217350918E+02  0.61594314254E+02  0.10566000000E+00 0. -1.
         23    2    1    0    0    0 -0.13046507271E+02 -0.95317193086E+01  0.24582228906E+02  0.95583151036E+02  0.90943871476E+02 0.  0.
         13    1    3    3    0    0  0.48735556198E+01 -0.39608673801E+00 -0.33635122011E+02  0.33988836783E+02  0.10566000000E+00 0.  1.
         22    1    1    0    0    0  0.13046507271E+02  0.95317193086E+01 -0.24582228906E+02  0.29416848964E+02  0.00000000000E+00 0. -1.
</event>
<event>
 5    1  0.6924865E-004  0.9118800E+02  0.7818608E-02  0.1130116E+00
         25   -1    0    0    0    0  0.00000000000E+00  0.00000000000E+00  0.99999998245E-14  0.12500000000E+03  0.12500000000E+03 0.  0.
        -13    1    3    3    0    0 -0.41962133382E+02 -0.83320085075E+01 -0.76049695092E+01  0.43452154480E+02  0.10566000000E+00 0. -1.
         23    2    1    0    0    0 -0.54048784830E+01 -0.16645807242E+00  0.28806015577E+02  0.95690838409E+02  0.91091764734E+02 0.  0.
         13    1    3    3    0    0  0.36557254899E+02  0.81655504350E+01  0.36410985086E+02  0.52238683929E+02  0.10566000000E+00 0.  1.
         22    1    1    0    0    0  0.54048784830E+01  0.16645807242E+00 -0.28806015577E+02  0.29309161591E+02  0.00000000000E+00 0.  1.
</event>
<event>
 5    1  0.6924865E-004  0.9118800E+02  0.7818608E-02  0.1130116E+00
         25   -1    0    0    0    0  0.00000000000E+00  0.00000000000E+00  0.99999998245E-14  0.12500000000E+03  0.12500000000E+03 0.  0.
        -13    1    3    3    0    0  0.30251534820E+02  0.18338355675E+02 -0.39073034730E+02  0.52708290192E+02  0.10566000000E+00 0. -1.
         23    2    1    0    0    0 -0.12548443512E+02  0.11834170449E+02 -0.14355411404E+02  0.10255921433E+03  0.10007399054E+03 0.  0.
         13    1    3    3    0    0 -0.42799978333E+02 -0.65041852257E+01  0.24717623327E+02  0.49850924141E+02  0.10566000000E+00 0.  1.
         22    1    1    0    0    0  0.12548443512E+02 -0.11834170449E+02  0.14355411404E+02  0.22440785667E+02  0.00000000000E+00 0. -1.
</event>
<event>
 5    1  0.6924865E-004  0.9118800E+02  0.7818608E-02  0.1130116E+00
         25   -1    0    0    0    0  0.00000000000E+00  0.00000000000E+00  0.99999998245E-14  0.12500000000E+03  0.12500000000E+03 0.  0.
        -13    1    3    3    0    0 -0.16019529300E+02 -0.38143801578E+02  0.23778280173E+02  0.47717844564E+02  0.10566000000E+00 0. -1.
         23    2    1    0    0    0 -0.17024081514E+02 -0.17553625444E+02 -0.18221779282E+02  0.94504387892E+02  0.89448851156E+02 0.  0.
         13    1    3    3    0    0 -0.10045522142E+01  0.20590176134E+02 -0.42000059455E+02  0.46786543328E+02  0.10566000000E+00 0.  1.
         22    1    1    0    0    0  0.17024081514E+02  0.17553625444E+02  0.18221779282E+02  0.30495612108E+02  0.00000000000E+00 0.  1.
</event>
<event>
 5    1  0.6924865E-004  0.9118800E+02  0.7818608E-02  0.1130116E+00
         25   -1    0    0    0    0  0.00000000000E+00  0.00000000000E+00  0.99999998245E-14  0.12500000000E+03  0.12500000000E+03 0.  0.
        -13    1    3    3    0    0 -0.25370464232E+02 -0.50210130491E+02  0.17774491689E+01  0.56283995495E+02  0.10566000000E+00 0.  1.
         23    2    1    0    0    0 -0.10809481806E+02 -0.24493606144E+02 -0.18791789827E+02  0.92290475336E+02  0.86299587682E+02 0.  0.
         13    1    3    3    0    0  0.14560982425E+02  0.25716524347E+02 -0.20569238996E+02  0.36006479842E+02  0.10566000000E+00 0. -1.
         22    1    1    0    0    0  0.10809481806E+02  0.24493606144E+02  0.18791789827E+02  0.32709524664E+02  0.00000000000E+00 0.  1.
</event>
<event>
 5    1  0.6924865E-004  0.9118800E+02  0.7818608E-02  0.1130116E+00
         25   -1    0    0    0    0  0.00000000000E+00  0.00000000000E+00  0.99999998245E-14  0.12500000000E+03  0.12500000000E+03 0.  0.
        -13    1    3    3    0    0  0.90398557250E+01 -0.13806300251E+00 -0.29976412569E+02  0.31310294273E+02  0.10566000000E+00 0.  1.
         23    2    1    0    0    0 -0.95002798193E+01  0.36731190339E+02  0.66424376325E+01  0.86483021431E+02  0.77432263029E+02 0.  0.
         13    1    3    3    0    0 -0.18540135544E+02  0.36869253342E+02  0.36618850201E+02  0.55172727158E+02  0.10566000000E+00 0. -1.
         22    1    1    0    0    0  0.95002798193E+01 -0.36731190339E+02 -0.66424376325E+01  0.38516978569E+02  0.00000000000E+00 0. -1.
</event>
<event>
 5    1  0.6924865E-004  0.9118800E+02  0.7818608E-02  0.1130116E+00
         25   -1    0    0    0    0  0.00000000000E+00  0.00000000000E+00  0.99999998245E-14  0.12500000000E+03  0.12500000000E+03 0.  0.
        -13    1    3    3    0    0  0.22935033737E+02  0.28243298875E+02 -0.37155436659E+02  0.52002282077E+02  0.10566000000E+00 0.  1.
         23    2    1    0    0    0  0.21616320209E+02  0.20200899553E+02  0.50486357652E+01  0.94986163771E+02  0.90119592446E+02 0.  0.
         13    1    3    3    0    0 -0.13187135284E+01 -0.80423993224E+01  0.42204072424E+02  0.42983881694E+02  0.10566000000E+00 0. -1.
         22    1    1    0    0    0 -0.21616320209E+02 -0.20200899553E+02 -0.50486357652E+01  0.30013836229E+02  0.00000000000E+00 0.  1.
</event>
<event>
 5    1  0.6924865E-004  0.9118800E+02  0.7818608E-02  0.1130116E+00
         25   -1    0    0    0    0  0.00000000000E+00  0.00000000000E+00  0.99999998245E-14  0.12500000000E+03  0.12500000000E+03 0.  0.
        -13    1    3    3    0    0 -0.18486669792E+02  0.30416919848E+02  0.68719075456E+01  0.36251624107E+02  0.10566000000E+00 0.  1.
         23    2    1    0    0    0  0.85084324375E+00 -0.18373911011E+02 -0.22137139022E+02  0.96218452714E+02  0.91812924899E+02 0.  0.
         13    1    3    3    0    0  0.19337513036E+02 -0.48790830859E+02 -0.29009046568E+02  0.59966828607E+02  0.10566000000E+00 0. -1.
         22    1    1    0    0    0 -0.85084324375E+00  0.18373911011E+02  0.22137139022E+02  0.28781547286E+02  0.00000000000E+00 0. -1.
</event>
<event>
 5    1  0.6924865E-004  0.9118800E+02  0.7818608E-02  0.1130116E+00
         25   -1    0    0    0    0  0.00000000000E+00  0.00000000000E+00  0.99999998245E-14  0.12500000000E+03  0.12500000000E+03 0.  0.
        -13    1    3    3    0    0  0.38322998111E+02 -0.62867835182E+01 -0.23553493064E+02  0.45419753751E+02  0.10566000000E+00 0. -1.
         23    2    1    0    0    0 -0.11347947705E+02 -0.14724316814E+02 -0.22500647895E+02  0.95813349311E+02  0.91259724565E+02 0.  0.
         13    1    3    3    0    0 -0.49670945817E+02 -0.84375332954E+01  0.10528451690E+01  0.50393595559E+02  0.10566000000E+00 0.  1.
         22    1    1    0    0    0  0.11347947705E+02  0.14724316814E+02  0.22500647895E+02  0.29186650689E+02  0.00000000000E+00 0.  1.
</event>
<event>
 5    1  0.6924865E-004  0.9118800E+02  0.7818608E-02  0.1130116E+00
         25   -1    0    0    0    0  0.00000000000E+00  0.00000000000E+00  0.99999998245E-14  0.12500000000E+03  0.12500000000E+03 0.  0.
        -13    1    3    3    0    0 -0.95870545423E+01  0.22272302949E+02 -0.38029867961E+02  0.45102650860E+02  0.10566000000E+00 0. -1.
         23    2    1    0    0    0 -0.61820038317E+01 -0.23182473501E+02 -0.18549060160E+02  0.94673248083E+02  0.89684513829E+02 0.  0.
         13    1    3    3    0    0  0.34050507106E+01 -0.45454776450E+02  0.19480807801E+02  0.49570597223E+02  0.10566000000E+00 0.  1.
         22    1    1    0    0    0  0.61820038317E+01  0.23182473501E+02  0.18549060160E+02  0.30326751917E+02  0.00000000000E+00 0.  1.
</event>
<event>
 5    1  0.6924865E-004  0.9118800E+02  0.7818608E-02  0.1130116E+00
         25   -1    0    0    0    0  0.00000000000E+00  0.00000000000E+00  0.99999998245E-14  0.12500000000E+03  0.12500000000E+03 0.  0.
        -13    1    3    3    0    0 -0.41237569173E+02 -0.37271181615E+02  0.10737972716E+02  0.56612660354E+02  0.10566000000E+00 0.  1.
         23    2    1    0    0    0 -0.12289196053E+02 -0.22508615624E+02 -0.12410371172E+02  0.96510011766E+02  0.92209017680E+02 0.  0.
         13    1    3    3    0    0  0.28948373120E+02  0.14762565991E+02 -0.23148343888E+02  0.39897351412E+02  0.10566000000E+00 0. -1.
         22    1    1    0    0    0  0.12289196053E+02  0.22508615624E+02  0.12410371172E+02  0.28489988234E+02  0.00000000000E+00 0.  1.
</event>
<event>
 5    1  0.6924865E-004  0.9118800E+02  0.7818608E-02  0.1130116E+00
         25   -1    0    0    0    0  0.00000000000E+00  0.00000000000E+00  0.99999998245E-14  0.12500000000E+03  0.12500000000E+03 0.  0.
        -13    1    3    3    0    0 -0.21694624525E+02  0.44298058422E+02 -0.18203515336E+02  0.52577122857E+02  0.10566000000E+00 0.  1.
         23    2    1    0    0    0  0.19083190055E+01  0.11708497821E+02 -0.28514411274E+02  0.94116310892E+02  0.88904880197E+02 0.  0.
         13    1    3    3    0    0  0.23602943531E+02 -0.32589560601E+02 -0.10310895938E+02  0.41539188035E+02  0.10566000000E+00 0. -1.
         22    1    1    0    0    0 -0.19083190055E+01 -0.11708497821E+02  0.28514411274E+02  0.30883689108E+02  0.00000000000E+00 0.  1.
</event>
<event>
 5    1  0.6924865E-004  0.9118800E+02  0.7818608E-02  0.1130116E+00
         25   -1    0    0    0    0  0.00000000000E+00  0.00000000000E+00  0.99999998245E-14  0.12500000000E+03  0.12500000000E+03 0.  0.
        -13    1    3    3    0    0 -0.36894116870E+02 -0.73028209079E+01  0.23235961237E+02  0.44208914389E+02  0.10566000000E+00 0. -1.
         23    2    1    0    0    0  0.11575325735E+02 -0.21775493307E+01  0.29391910708E+02  0.93335914635E+02  0.87800789624E+02 0.  0.
         13    1    3    3    0    0  0.48469442605E+02  0.51252715773E+01  0.61559494709E+01  0.49127000245E+02  0.10566000000E+00 0.  1.
         22    1    1    0    0    0 -0.11575325735E+02  0.21775493307E+01 -0.29391910708E+02  0.31664085365E+02  0.00000000000E+00 0. -1.
</event>
<event>
 5    1  0.6924865E-004  0.9118800E+02  0.7818608E-02  0.1130116E+00
         25   -1    0    0    0    0  0.00000000000E+00  0.00000000000E+00  0.99999998245E-14  0.12500000000E+03  0.12500000000E+03 0.  0.
        -13    1    3    3    0    0  0.16773591037E+02 -0.16636267729E+01  0.34941973161E+02  0.38795278872E+02  0.10566000000E+00 0.  1.
         23    2    1    0    0    0 -0.13142896377E+01  0.31403552326E+02 -0.43814773243E+01  0.93265038215E+02  0.87699826418E+02 0.  0.
         13    1    3    3    0    0 -0.18087880674E+02  0.33067179099E+02 -0.39323450485E+02  0.54469759344E+02  0.10566000000E+00 0. -1.
         22    1    1    0    0    0  0.13142896377E+01 -0.31403552326E+02  0.43814773243E+01  0.31734961785E+02  0.00000000000E+00 0. -1.
</event>
<event>
 5    1  0.6924865E-004  0.9118800E+02  0.7818608E-02  0.1130116E+00
         25   -1    0    0    0    0  0.00000000000E+00  0.00000000000E+00  0.99999998245E-14  0.12500000000E+03  0.12500000000E+03 0.  0.
        -13    1    3    3    0    0  0.23495349186E+02  0.54370546436E+02  0.16492488288E+02  0.61483339915E+02  0.10566000000E+00 0. -1.
         23    2    1    0    0    0  0.45083790507E+01  0.26383274949E+02  0.12235095489E+02  0.95570418958E+02  0.90926369879E+02 0.  0.
         13    1    3    3    0    0 -0.18986970135E+02 -0.27987271487E+02 -0.42573927986E+01  0.34087079043E+02  0.10566000000E+00 0.  1.
         22    1    1    0    0    0 -0.45083790507E+01 -0.26383274949E+02 -0.12235095489E+02  0.29429581042E+02  0.00000000000E+00 0. -1.
</event>
<event>
 5    1  0.6924865E-004  0.9118800E+02  0.7818608E-02  0.1130116E+00
         25   -1    0    0    0    0  0.00000000000E+00  0.00000000000E+00  0.99999998245E-14  0.12500000000E+03  0.12500000000E+03 0.  0.
        -13    1    3    3    0    0  0.22627434620E+02  0.25885294401E+02  0.35236655353E+01  0.34561201463E+02  0.10566000000E+00 0.  1.
         23    2    1    0    0    0  0.93713547397E+01 -0.27553916357E+02 -0.14485325211E+02  0.92490536104E+02  0.86588879344E+02 0.  0.
         13    1    3    3    0    0 -0.13256079880E+02 -0.53439210758E+02 -0.18008990747E+02  0.57929334642E+02  0.10566000000E+00 0. -1.
         22    1    1    0    0    0 -0.93713547397E+01  0.27553916357E+02  0.14485325211E+02  0.32509463896E+02  0.00000000000E+00 0. -1.
</event>
<event>
 5    1  0.6924865E-004  0.9118800E+02  0.7818608E-02  0.1130116E+00
         25   -1    0    0    0    0  0.00000000000E+00  0.00000000000E+00  0.99999998245E-14  0.12500000000E+03  0.12500000000E+03 0.  0.
        -13    1    3    3    0    0  0.34419205463E+02 -0.72686411514E+01  0.46415691965E+02  0.58240385245E+02  0.10566000000E+00 0.  1.
         23    2    1    0    0    0  0.26842429087E+02 -0.76561717877E+01  0.10138056224E+02  0.95302977427E+02  0.90557961310E+02 0.  0.
         13    1    3    3    0    0 -0.75767763764E+01 -0.38753063637E+00 -0.36277635741E+02  0.37062592182E+02  0.10566000000E+00 0. -1.
         22    1    1    0    0    0 -0.26842429087E+02  0.76561717877E+01 -0.10138056224E+02  0.29697022573E+02  0.00000000000E+00 0.  1.
</event>
<event>
 5    1  0.6924865E-004  0.9118800E+02  0.7818608E-02  0.1130116E+00
         25   -1    0    0    0    0  0.00000000000E+00  0.00000000000E+00  0.99999998245E-14  0.12500000000E+03  0.12500000000E+03 0.  0.
        -13    1    3    3    0    0 -0.28461054221E+02 -0.27778706700E+02 -0.13867915479E+02  0.42119097771E+02  0.10566000000E+00 0.  1.
         23    2    1    0    0    0 -0.21567677955E+02  0.11496793684E+02  0.19197905043E+02  0.93921059293E+02  0.88629931870E+02 0.  0.
         13    1    3    3    0    0  0.68933762658E+01  0.39275500383E+02  0.33065820522E+02  0.51801961522E+02  0.10566000000E+00 0. -1.
         22    1    1    0    0    0  0.21567677955E+02 -0.11496793684E+02 -0.19197905043E+02  0.31078940707E+02  0.00000000000E+00 0. -1.
</event>
<event>
 5    1  0.6924865E-004  0.9118800E+02  0.7818608E-02  0.1130116E+00
         25   -1    0    0    0    0  0.00000000000E+00  0.00000000000E+00  0.99999998245E-14  0.12500000000E+03  0.12500000000E+03 0.  0.
        -13    1    3    3    0    0  0.40588332135E+02  0.65004732637E+01  0.34416841497E+02  0.53611556598E+02  0.10566000000E+00 0. -1.
         23    2    1    0    0    0  0.22468916252E+02  0.27020238771E+02  0.20396913309E+02  0.84367752052E+02  0.73938745006E+02 0.  0.
         13    1    3    3    0    0 -0.18119415883E+02  0.20519765507E+02 -0.14019928188E+02  0.30756195454E+02  0.10566000000E+00 0.  1.
         22    1    1    0    0    0 -0.22468916252E+02 -0.27020238771E+02 -0.20396913309E+02  0.40632247948E+02  0.00000000000E+00 0. -1.
</event>
<event>
 5    1  0.6924865E-004  0.9118800E+02  0.7818608E-02  0.1130116E+00
         25   -1    0    0    0    0  0.00000000000E+00  0.00000000000E+00  0.99999998245E-14  0.12500000000E+03  0.12500000000E+03 0.  0.
        -13    1    3    3    0    0  0.16053791982E+02  0.46230730806E+02 -0.11727670906E+02  0.50324488441E+02  0.10566000000E+00 0.  1.
         23    2    1    0    0    0 -0.85744117419E+01  0.15956537313E+02 -0.27211476306E+02  0.92310612387E+02  0.86328750117E+02 0.  0.
         13    1    3    3    0    0 -0.24628203724E+02 -0.30274193493E+02 -0.15483805400E+02  0.41986123947E+02  0.10566000000E+00 0. -1.
         22    1    1    0    0    0  0.85744117419E+01 -0.15956537313E+02  0.27211476306E+02  0.32689387613E+02  0.00000000000E+00 0.  1.
</event>
<event>
 5    1  0.6924865E-004  0.9118800E+02  0.7818608E-02  0.1130116E+00
         25   -1    0    0    0    0  0.00000000000E+00  0.00000000000E+00  0.99999998245E-14  0.12500000000E+03  0.12500000000E+03 0.  0.
        -13    1    3    3    0    0  0.37006294636E+02  0.25445616169E+02 -0.34146464882E+02  0.56417527887E+02  0.10566000000E+00 0.  1.
         23    2    1    0    0    0  0.19456821300E+02 -0.75633588753E+01 -0.19064205042E+02  0.96729587791E+02  0.92506199510E+02 0.  0.
         13    1    3    3    0    0 -0.17549473336E+02 -0.33008975044E+02  0.15082259840E+02  0.40312059904E+02  0.10566000000E+00 0. -1.
         22    1    1    0    0    0 -0.19456821300E+02  0.75633588753E+01  0.19064205042E+02  0.28270412209E+02  0.00000000000E+00 0.  1.
</event>
<event>
 5    1  0.6924865E-004  0.9118800E+02  0.7818608E-02  0.1130116E+00
         25   -1    0    0    0    0  0.00000000000E+00  0.00000000000E+00  0.99999998245E-14  0.12500000000E+03  0.12500000000E+03 0.  0.
        -13    1    3    3    0    0  0.20137131094E+02 -0.54856581186E+02  0.10611133614E+02  0.59391547115E+02  0.10566000000E+00 0. -1.
         23    2    1    0    0    0 -0.29845434786E+01 -0.25206714808E+02 -0.31331511944E+01  0.99424570236E+02  0.96078835125E+02 0.  0.
         13    1    3    3    0    0 -0.23121674573E+02  0.29649866378E+02 -0.13744284809E+02  0.40033023121E+02  0.10566000000E+00 0.  1.
         22    1    1    0    0    0  0.29845434786E+01  0.25206714808E+02  0.31331511944E+01  0.25575429764E+02  0.00000000000E+00 0. -1.
</event>
<event>
 5    1  0.6924865E-004  0.9118800E+02  0.7818608E-02  0.1130116E+00
         25   -1    0    0    0    0  0.00000000000E+00  0.00000000000E+00  0.99999998245E-14  0.12500000000E+03  0.12500000000E+03 0.  0.
        -13    1    3    3    0    0 -0.17150711799E+02  0.15438280898E+02 -0.20448294571E+02  0.30832310118E+02  0.10566000000E+00 0.  1.
         23    2    1    0    0    0  0.35101232945E+02 -0.56884569762E+01 -0.78500772019E+01  0.88584634986E+02  0.80753691844E+02 0.  0.
         13    1    3    3    0    0  0.52251944744E+02 -0.21126737874E+02  0.12598217369E+02  0.57752324868E+02  0.10566000000E+00 0. -1.
         22    1    1    0    0    0 -0.35101232945E+02  0.56884569762E+01  0.78500772019E+01  0.36415365014E+02  0.00000000000E+00 0. -1.
</event>
<event>
 5    1  0.6924865E-004  0.9118800E+02  0.7818608E-02  0.1130116E+00
         25   -1    0    0    0    0  0.00000000000E+00  0.00000000000E+00  0.99999998245E-14  0.12500000000E+03  0.12500000000E+03 0.  0.
        -13    1    3    3    0    0 -0.57973585003E+00  0.34056442727E+02  0.75978290552E+01  0.34898646898E+02  0.10566000000E+00 0.  1.
         23    2    1    0    0    0 -0.21195564847E+01 -0.10717731413E+02 -0.29802102003E+02  0.93258425210E+02  0.87690400288E+02 0.  0.
         13    1    3    3    0    0 -0.15398206346E+01 -0.44774174140E+02 -0.37399931058E+02  0.58359778313E+02  0.10566000000E+00 0. -1.
         22    1    1    0    0    0  0.21195564847E+01  0.10717731413E+02  0.29802102003E+02  0.31741574790E+02  0.00000000000E+00 0. -1.
</event>
<event>
 5    1  0.6924865E-004  0.9118800E+02  0.7818608E-02  0.1130116E+00
         25   -1    0    0    0    0  0.00000000000E+00  0.00000000000E+00  0.99999998245E-14  0.12500000000E+03  0.12500000000E+03 0.  0.
        -13    1    3    3    0    0  0.38316371686E+01  0.26807334905E+02  0.32015830615E+02  0.41932555635E+02  0.10566000000E+00 0. -1.
         23    2    1    0    0    0 -0.71915126273E+00 -0.18929700068E+01 -0.21807134792E+02  0.10309904929E+03  0.10074602882E+03 0.  0.
         13    1    3    3    0    0 -0.45507884313E+01 -0.28700304911E+02 -0.53822965407E+02  0.61166493659E+02  0.10566000000E+00 0.  1.
         22    1    1    0    0    0  0.71915126273E+00  0.18929700068E+01  0.21807134792E+02  0.21900950706E+02  0.00000000000E+00 0.  1.
</event>
<event>
 5    1  0.6924865E-004  0.9118800E+02  0.7818608E-02  0.1130116E+00
         25   -1    0    0    0    0  0.00000000000E+00  0.00000000000E+00  0.99999998245E-14  0.12500000000E+03  0.12500000000E+03 0.  0.
        -13    1    3    3    0    0 -0.12697996069E+02  0.10850938838E+02 -0.31994303859E+02  0.36091946765E+02  0.10566000000E+00 0.  1.
         23    2    1    0    0    0  0.23302825632E+02 -0.41365160219E+01  0.14862589921E+02  0.97053103456E+02  0.92942325472E+02 0.  0.
         13    1    3    3    0    0  0.36000821702E+02 -0.14987454860E+02  0.46856893780E+02  0.60961156691E+02  0.10566000000E+00 0. -1.
         22    1    1    0    0    0 -0.23302825632E+02  0.41365160219E+01 -0.14862589921E+02  0.27946896544E+02  0.00000000000E+00 0. -1.
</event>
<event>
 5    1  0.6924865E-004  0.9118800E+02  0.7818608E-02  0.1130116E+00
         25   -1    0    0    0    0  0.00000000000E+00  0.00000000000E+00  0.99999998245E-14  0.12500000000E+03  0.12500000000E+03 0.  0.
        -13    1    3    3    0    0  0.45752736358E+02 -0.27164367117E+02 -0.96956835681E+01  0.54085424737E+02  0.10566000000E+00 0.  1.
         23    2    1    0    0    0  0.52432252893E+01 -0.29214024120E+02 -0.36259096791E+01  0.95098531178E+02  0.90275316640E+02 0.  0.
         13    1    3    3    0    0 -0.40509511069E+02 -0.20496570028E+01  0.60697738890E+01  0.41013106441E+02  0.10566000000E+00 0. -1.
         22    1    1    0    0    0 -0.52432252893E+01  0.29214024120E+02  0.36259096791E+01  0.29901468822E+02  0.00000000000E+00 0.  1.
</event>
<event>
 5    1  0.6924865E-004  0.9118800E+02  0.7818608E-02  0.1130116E+00
         25   -1    0    0    0    0  0.00000000000E+00  0.00000000000E+00  0.99999998245E-14  0.12500000000E+03  0.12500000000E+03 0.  0.
        -13    1    3    3    0    0  0.26358392240E+02 -0.30203831037E+02  0.31733425676E+02  0.51127856595E+02  0.10566000000E+00 0.  1.
         23    2    1    0    0    0  0.16742174972E+01  0.79233734763E+01  0.27020507174E+02  0.96792010716E+02  0.92590510740E+02 0.  0.
         13    1    3    3    0    0 -0.24684174743E+02  0.38127204514E+02 -0.47129185019E+01  0.45664154121E+02  0.10566000000E+00 0. -1.
         22    1    1    0    0    0 -0.16742174972E+01 -0.79233734763E+01 -0.27020507174E+02  0.28207989284E+02  0.00000000000E+00 0.  1.
</event>
<event>
 5    1  0.6924865E-004  0.9118800E+02  0.7818608E-02  0.1130116E+00
         25   -1    0    0    0    0  0.00000000000E+00  0.00000000000E+00  0.99999998245E-14  0.12500000000E+03  0.12500000000E+03 0.  0.
        -13    1    3    3    0    0  0.40216068602E+01  0.33455268146E+02  0.37544975188E+02  0.50448633423E+02  0.10566000000E+00 0. -1.
         23    2    1    0    0    0  0.20717489104E+02  0.21632692091E+02 -0.20084591107E+01  0.94979646406E+02  0.90110552110E+02 0.  0.
         13    1    3    3    0    0  0.16695882244E+02 -0.11822576054E+02 -0.39553434298E+02  0.44531012983E+02  0.10566000000E+00 0.  1.
         22    1    1    0    0    0 -0.20717489104E+02 -0.21632692091E+02  0.20084591107E+01  0.30020353594E+02  0.00000000000E+00 0. -1.
</event>
<event>
 5    1  0.6924865E-004  0.9118800E+02  0.7818608E-02  0.1130116E+00
         25   -1    0    0    0    0  0.00000000000E+00  0.00000000000E+00  0.99999998245E-14  0.12500000000E+03  0.12500000000E+03 0.  0.
        -13    1    3    3    0    0 -0.23131041359E+02  0.62240827594E+00  0.29484138989E+02  0.37480102486E+02  0.10566000000E+00 0. -1.
         23    2    1    0    0    0 -0.48273335661E+01  0.22999959332E+02 -0.19568671345E+02  0.94418401336E+02  0.89328608710E+02 0.  0.
         13    1    3    3    0    0  0.18303707793E+02  0.22377551056E+02 -0.49052810334E+02  0.56938298850E+02  0.10566000000E+00 0.  1.
         22    1    1    0    0    0  0.48273335661E+01 -0.22999959332E+02  0.19568671345E+02  0.30581598664E+02  0.00000000000E+00 0.  1.
</event>
<event>
 4    1  0.6924865E-004  0.9118800E+02  0.7818608E-02  0.1130116E+00
         25   -1    0    0    0    0  0.00000000000E+00  0.00000000000E+00  0.99999998245E-14  0.12500000000E+03  0.12500000000E+03 0.  0.
        -13    1    1    0    0    0 -0.27566762078E+02  0.46287894095E+02 -0.92800793943E+01  0.54668332230E+02  0.10566000000E+00 0.  1.
         13    1    1    0    0    0 -0.10803416260E+02 -0.13340895004E+02 -0.48156734971E+01  0.17829614625E+02  0.10566000000E+00 0. -1.
         22    1    1    0    0    0  0.38370178339E+02 -0.32946999091E+02  0.14095752891E+02  0.52502053145E+02  0.00000000000E+00 0.  1.
</event>
<event>
 5    1  0.6924865E-004  0.9118800E+02  0.7818608E-02  0.1130116E+00
         25   -1    0    0    0    0  0.00000000000E+00  0.00000000000E+00  0.99999998245E-14  0.12500000000E+03  0.12500000000E+03 0.  0.
        -13    1    3    3    0    0  0.54127712255E+02 -0.16544142002E+02  0.10714191748E+02  0.57604886402E+02  0.10566000000E+00 0.  1.
         23    2    1    0    0    0  0.17789940414E+02  0.38382183992E-02  0.19621122467E+02  0.98514712735E+02  0.94887713555E+02 0.  0.
         13    1    3    3    0    0 -0.36337771841E+02  0.16547980220E+02  0.89069307185E+01  0.40909826333E+02  0.10566000000E+00 0. -1.
         22    1    1    0    0    0 -0.17789940414E+02 -0.38382183992E-02 -0.19621122467E+02  0.26485287265E+02  0.00000000000E+00 0.  1.
</event>
<event>
 5    1  0.6924865E-004  0.9118800E+02  0.7818608E-02  0.1130116E+00
         25   -1    0    0    0    0  0.00000000000E+00  0.00000000000E+00  0.99999998245E-14  0.12500000000E+03  0.12500000000E+03 0.  0.
        -13    1    3    3    0    0  0.21186111481E+02 -0.28616563058E+02  0.13777375871E+02  0.38178347933E+02  0.10566000000E+00 0.  1.
         23    2    1    0    0    0  0.11925552162E+02  0.26668758108E+02  0.51400472184E+00  0.95781758193E+02  0.91216443410E+02 0.  0.
         13    1    3    3    0    0 -0.92605593187E+01  0.55285321167E+02 -0.13263371149E+02  0.57603410261E+02  0.10566000000E+00 0. -1.
         22    1    1    0    0    0 -0.11925552162E+02 -0.26668758108E+02 -0.51400472184E+00  0.29218241807E+02  0.00000000000E+00 0. -1.
</event>
<event>
 5    1  0.6924865E-004  0.9118800E+02  0.7818608E-02  0.1130116E+00
         25   -1    0    0    0    0  0.00000000000E+00  0.00000000000E+00  0.99999998245E-14  0.12500000000E+03  0.12500000000E+03 0.  0.
        -13    1    3    3    0    0 -0.15771998774E+02 -0.11768446628E+02 -0.43871331512E+02  0.48082815788E+02  0.10566000000E+00 0.  1.
         23    2    1    0    0    0 -0.17908074348E+02  0.20933042510E+02 -0.88042002294E+01  0.96079326819E+02  0.91623314198E+02 0.  0.
         13    1    3    3    0    0 -0.21360755739E+01  0.32701489138E+02  0.35067131283E+02  0.47996511031E+02  0.10566000000E+00 0. -1.
         22    1    1    0    0    0  0.17908074348E+02 -0.20933042510E+02  0.88042002294E+01  0.28920673181E+02  0.00000000000E+00 0.  1.
</event>
<event>
 5    1  0.6924865E-004  0.9118800E+02  0.7818608E-02  0.1130116E+00
         25   -1    0    0    0    0  0.00000000000E+00  0.00000000000E+00  0.99999998245E-14  0.12500000000E+03  0.12500000000E+03 0.  0.
        -13    1    3    3    0    0 -0.38621952279E+02  0.10870431093E+02 -0.46653047876E+02  0.61533239067E+02  0.10566000000E+00 0. -1.
         23    2    1    0    0    0 -0.24952451845E+02  0.13941862930E+02 -0.26909680869E+02  0.85742754561E+02  0.76227873119E+02 0.  0.
         13    1    3    3    0    0  0.13669500434E+02  0.30714318369E+01  0.19743367007E+02  0.24209515494E+02  0.10566000000E+00 0.  1.
         22    1    1    0    0    0  0.24952451845E+02 -0.13941862930E+02  0.26909680869E+02  0.39257245439E+02  0.00000000000E+00 0. -1.
</event>
<event>
 5    1  0.6924865E-004  0.9118800E+02  0.7818608E-02  0.1130116E+00
         25   -1    0    0    0    0  0.00000000000E+00  0.00000000000E+00  0.99999998245E-14  0.12500000000E+03  0.12500000000E+03 0.  0.
        -13    1    3    3    0    0  0.26163850144E+02 -0.87921179096E+01 -0.55402201177E+02  0.61897200672E+02  0.10566000000E+00 0.  1.
         23    2    1    0    0    0  0.96032452660E+01 -0.95890903173E+01 -0.23011674213E+02  0.98284646309E+02  0.94584150771E+02 0.  0.
         13    1    3    3    0    0 -0.16560604878E+02 -0.79697240770E+00  0.32390526964E+02  0.36387445637E+02  0.10566000000E+00 0. -1.
         22    1    1    0    0    0 -0.96032452660E+01  0.95890903173E+01  0.23011674213E+02  0.26715353691E+02  0.00000000000E+00 0.  1.
</event>
<event>
 5    1  0.6924865E-004  0.9118800E+02  0.7818608E-02  0.1130116E+00
         25   -1    0    0    0    0  0.00000000000E+00  0.00000000000E+00  0.99999998245E-14  0.12500000000E+03  0.12500000000E+03 0.  0.
        -13    1    3    3    0    0  0.36749610738E+02  0.22209912901E+02  0.88122060250E+00  0.42948828089E+02  0.10566000000E+00 0.  1.
         23    2    1    0    0    0  0.13969009974E+02 -0.25389232844E+02  0.36584452858E+01  0.95791600421E+02  0.91229929877E+02 0.  0.
         13    1    3    3    0    0 -0.22780600764E+02 -0.47599145745E+02  0.27772246833E+01  0.52842772332E+02  0.10566000000E+00 0. -1.
         22    1    1    0    0    0 -0.13969009974E+02  0.25389232844E+02 -0.36584452858E+01  0.29208399579E+02  0.00000000000E+00 0. -1.
</event>
<event>
 5    1  0.6924865E-004  0.9118800E+02  0.7818608E-02  0.1130116E+00
         25   -1    0    0    0    0  0.00000000000E+00  0.00000000000E+00  0.99999998245E-14  0.12500000000E+03  0.12500000000E+03 0.  0.
        -13    1    3    3    0    0 -0.32280170159E+02 -0.33094121480E+02 -0.67430564934E+01  0.46719484553E+02  0.10566000000E+00 0. -1.
         23    2    1    0    0    0 -0.32834554523E+01  0.83050958584E+01 -0.23412916528E+02  0.99941660924E+02  0.96749238916E+02 0.  0.
         13    1    3    3    0    0  0.28996714707E+02  0.41399217338E+02 -0.16669860034E+02  0.53222176370E+02  0.10566000000E+00 0.  1.
         22    1    1    0    0    0  0.32834554523E+01 -0.83050958584E+01  0.23412916528E+02  0.25058339076E+02  0.00000000000E+00 0.  1.
</event>
<event>
 5    1  0.6924865E-004  0.9118800E+02  0.7818608E-02  0.1130116E+00
         25   -1    0    0    0    0  0.00000000000E+00  0.00000000000E+00  0.99999998245E-14  0.12500000000E+03  0.12500000000E+03 0.  0.
        -13    1    3    3    0    0  0.11157825739E+02 -0.47603427792E+02 -0.24019500838E+02  0.54475049310E+02  0.10566000000E+00 0.  1.
         23    2    1    0    0    0 -0.14139365639E+02 -0.24687037070E+02  0.57203223664E+00  0.96544795189E+02  0.92256158587E+02 0.  0.
         13    1    3    3    0    0 -0.25297191378E+02  0.22916390722E+02  0.24591533074E+02  0.42069745879E+02  0.10566000000E+00 0. -1.
         22    1    1    0    0    0  0.14139365639E+02  0.24687037070E+02 -0.57203223664E+00  0.28455204811E+02  0.00000000000E+00 0.  1.
</event>
<event>
 5    1  0.6924865E-004  0.9118800E+02  0.7818608E-02  0.1130116E+00
         25   -1    0    0    0    0  0.00000000000E+00  0.00000000000E+00  0.99999998245E-14  0.12500000000E+03  0.12500000000E+03 0.  0.
        -13    1    3    3    0    0  0.52255915238E+02 -0.32448324026E+02 -0.13640778073E+01  0.61525980543E+02  0.10566000000E+00 0.  1.
         23    2    1    0    0    0  0.27218450592E+02 -0.11921171431E+02 -0.72026643226E+01  0.94424899767E+02  0.89337701681E+02 0.  0.
         13    1    3    3    0    0 -0.25037464646E+02  0.20527152595E+02 -0.58385865153E+01  0.32898919224E+02  0.10566000000E+00 0. -1.
         22    1    1    0    0    0 -0.27218450592E+02  0.11921171431E+02  0.72026643226E+01  0.30575100233E+02  0.00000000000E+00 0.  1.
</event>
<event>
 5    1  0.6924865E-004  0.9118800E+02  0.7818608E-02  0.1130116E+00
         25   -1    0    0    0    0  0.00000000000E+00  0.00000000000E+00  0.99999998245E-14  0.12500000000E+03  0.12500000000E+03 0.  0.
        -13    1    3    3    0    0 -0.10312530289E+02  0.32269907750E+02  0.10186156815E+02  0.35376039658E+02  0.10566000000E+00 0. -1.
         23    2    1    0    0    0  0.17770141701E+02 -0.77840670700E+01 -0.23317402774E+02  0.94667329357E+02  0.89676264079E+02 0.  0.
         13    1    3    3    0    0  0.28082671990E+02 -0.40053974820E+02 -0.33503559590E+02  0.59291289699E+02  0.10566000000E+00 0.  1.
         22    1    1    0    0    0 -0.17770141701E+02  0.77840670700E+01  0.23317402774E+02  0.30332670643E+02  0.00000000000E+00 0.  1.
</event>
<event>
 5    1  0.6924865E-004  0.9118800E+02  0.7818608E-02  0.1130116E+00
         25   -1    0    0    0    0  0.00000000000E+00  0.00000000000E+00  0.99999998245E-14  0.12500000000E+03  0.12500000000E+03 0.  0.
        -13    1    3    3    0    0 -0.31345348326E+02  0.46553758429E+02 -0.14562571371E+01  0.56141919583E+02  0.10566000000E+00 0.  1.
         23    2    1    0    0    0 -0.28762819380E+02  0.75327404232E+01 -0.29454581051E+00  0.95265698021E+02  0.90506488746E+02 0.  0.
         13    1    3    3    0    0  0.25825289462E+01 -0.39021018006E+02  0.11617113266E+01  0.39123778438E+02  0.10566000000E+00 0. -1.
         22    1    1    0    0    0  0.28762819380E+02 -0.75327404232E+01  0.29454581051E+00  0.29734301979E+02  0.00000000000E+00 0.  1.
</event>
<event>
 5    1  0.6924865E-004  0.9118800E+02  0.7818608E-02  0.1130116E+00
         25   -1    0    0    0    0  0.00000000000E+00  0.00000000000E+00  0.99999998245E-14  0.12500000000E+03  0.12500000000E+03 0.  0.
        -13    1    3    3    0    0 -0.18186908646E+02  0.10115323635E+02  0.32662653131E+02  0.38729103940E+02  0.10566000000E+00 0. -1.
         23    2    1    0    0    0  0.20148039180E+02 -0.15868430992E+02 -0.55375349022E+01  0.98762338562E+02  0.95213363770E+02 0.  0.
         13    1    3    3    0    0  0.38334947826E+02 -0.25983754627E+02 -0.38200188034E+02  0.60033234622E+02  0.10566000000E+00 0.  1.
         22    1    1    0    0    0 -0.20148039180E+02  0.15868430992E+02  0.55375349022E+01  0.26237661438E+02  0.00000000000E+00 0.  1.
</event>
<event>
 5    1  0.6924865E-004  0.9118800E+02  0.7818608E-02  0.1130116E+00
         25   -1    0    0    0    0  0.00000000000E+00  0.00000000000E+00  0.99999998245E-14  0.12500000000E+03  0.12500000000E+03 0.  0.
        -13    1    3    3    0    0  0.23341839748E+01 -0.67379161207E+01 -0.40152477082E+02  0.40780884104E+02  0.10566000000E+00 0. -1.
         23    2    1    0    0    0 -0.10464653993E+01 -0.33556764734E+02  0.25612071548E+01  0.91329369900E+02  0.84896068667E+02 0.  0.
         13    1    3    3    0    0 -0.33806493741E+01 -0.26818848613E+02  0.42713684237E+02  0.50548485796E+02  0.10566000000E+00 0.  1.
         22    1    1    0    0    0  0.10464653993E+01  0.33556764734E+02 -0.25612071548E+01  0.33670630100E+02  0.00000000000E+00 0. -1.
</event>
<event>
 5    1  0.6924865E-004  0.9118800E+02  0.7818608E-02  0.1130116E+00
         25   -1    0    0    0    0  0.00000000000E+00  0.00000000000E+00  0.99999998245E-14  0.12500000000E+03  0.12500000000E+03 0.  0.
        -13    1    3    3    0    0  0.33450786908E+02 -0.21038728245E+02 -0.37767499193E+02  0.54662403810E+02  0.10566000000E+00 0. -1.
         23    2    1    0    0    0 -0.93470513977E+00  0.16819128255E+01 -0.27890133904E+02  0.97043568295E+02  0.92929500557E+02 0.  0.
         13    1    3    3    0    0 -0.34385492048E+02  0.22720641071E+02  0.98773652889E+01  0.42381164485E+02  0.10566000000E+00 0.  1.
         22    1    1    0    0    0  0.93470513977E+00 -0.16819128255E+01  0.27890133904E+02  0.27956431705E+02  0.00000000000E+00 0. -1.
</event>
<event>
 5    1  0.6924865E-004  0.9118800E+02  0.7818608E-02  0.1130116E+00
         25   -1    0    0    0    0  0.00000000000E+00  0.00000000000E+00  0.99999998245E-14  0.12500000000E+03  0.12500000000E+03 0.  0.
        -13    1    3    3    0    0 -0.32591836758E+02  0.28174987081E+01  0.10402863193E+02  0.34327785377E+02  0.10566000000E+00 0. -1.
         23    2    1    0    0    0  0.20154210726E+02 -0.18242230731E+02 -0.11874576090E+02  0.95335597944E+02  0.90602977247E+02 0.  0.
         13    1    3    3    0    0  0.52746047484E+02 -0.21059729439E+02 -0.22277439283E+02  0.61007812567E+02  0.10566000000E+00 0.  1.
         22    1    1    0    0    0 -0.20154210726E+02  0.18242230731E+02  0.11874576090E+02  0.29664402056E+02  0.00000000000E+00 0.  1.
</event>
<event>
 5    1  0.6924865E-004  0.9118800E+02  0.7818608E-02  0.1130116E+00
         25   -1    0    0    0    0  0.00000000000E+00  0.00000000000E+00  0.99999998245E-14  0.12500000000E+03  0.12500000000E+03 0.  0.
        -13    1    3    3    0    0 -0.12505710858E+02 -0.56561225657E+02 -0.34558834763E+01  0.58030331263E+02  0.10566000000E+00 0. -1.
         23    2    1    0    0    0  0.10685437698E+02 -0.27686276771E+02  0.82301090084E+00  0.95311856791E+02  0.90570216947E+02 0.  0.
         13    1    3    3    0    0  0.23191148557E+02  0.28874948886E+02  0.42788943771E+01  0.37281525528E+02  0.10566000000E+00 0.  1.
         22    1    1    0    0    0 -0.10685437698E+02  0.27686276771E+02 -0.82301090084E+00  0.29688143209E+02  0.00000000000E+00 0. -1.
</event>
<event>
 5    1  0.6924865E-004  0.9118800E+02  0.7818608E-02  0.1130116E+00
         25   -1    0    0    0    0  0.00000000000E+00  0.00000000000E+00  0.99999998245E-14  0.12500000000E+03  0.12500000000E+03 0.  0.
        -13    1    3    3    0    0  0.43130861051E+02  0.18412903722E+02  0.15832689389E+02  0.49497387970E+02  0.10566000000E+00 0. -1.
         23    2    1    0    0    0  0.19059598628E+02 -0.20448132811E+02  0.36188583213E+01  0.96813290883E+02  0.92619235155E+02 0.  0.
         13    1    3    3    0    0 -0.24071262423E+02 -0.38861036533E+02 -0.12213831068E+02  0.47315902913E+02  0.10566000000E+00 0.  1.
         22    1    1    0    0    0 -0.19059598628E+02  0.20448132811E+02 -0.36188583213E+01  0.28186709117E+02  0.00000000000E+00 0. -1.
</event>
<event>
 5    1  0.6924865E-004  0.9118800E+02  0.7818608E-02  0.1130116E+00
         25   -1    0    0    0    0  0.00000000000E+00  0.00000000000E+00  0.99999998245E-14  0.12500000000E+03  0.12500000000E+03 0.  0.
        -13    1    3    3    0    0 -0.23306686331E+02 -0.27131983152E+02 -0.23897991919E+02  0.43017104962E+02  0.10566000000E+00 0.  1.
         23    2    1    0    0    0 -0.18413402870E+02 -0.47651920406E+01  0.22969251330E+02  0.95178079084E+02  0.90385395784E+02 0.  0.
         13    1    3    3    0    0  0.48932834613E+01  0.22366791112E+02  0.46867243249E+02  0.52160974123E+02  0.10566000000E+00 0. -1.
         22    1    1    0    0    0  0.18413402870E+02  0.47651920406E+01 -0.22969251330E+02  0.29821920916E+02  0.00000000000E+00 0. -1.
</event>
<event>
 5    1  0.6924865E-004  0.9118800E+02  0.7818608E-02  0.1130116E+00
         25   -1    0    0    0    0  0.00000000000E+00  0.00000000000E+00  0.99999998245E-14  0.12500000000E+03  0.12500000000E+03 0.  0.
        -13    1    3    3    0    0  0.11097127160E+02 -0.54631452451E+02 -0.18351902345E+02  0.58690248865E+02  0.10566000000E+00 0.  1.
         23    2    1    0    0    0  0.16347917520E+02 -0.18327068628E+02 -0.16487821496E+02  0.95419869685E+02  0.90719167883E+02 0.  0.
         13    1    3    3    0    0  0.52507903603E+01  0.36304383823E+02  0.18640808488E+01  0.36729620820E+02  0.10566000000E+00 0. -1.
         22    1    1    0    0    0 -0.16347917520E+02  0.18327068628E+02  0.16487821496E+02  0.29580130315E+02  0.00000000000E+00 0.  1.
</event>
<event>
 5    1  0.6924865E-004  0.9118800E+02  0.7818608E-02  0.1130116E+00
         25   -1    0    0    0    0  0.00000000000E+00  0.00000000000E+00  0.99999998245E-14  0.12500000000E+03  0.12500000000E+03 0.  0.
        -13    1    3    3    0    0  0.34207661109E+02 -0.53935620690E+01 -0.24710974877E+02  0.42542896396E+02  0.10566000000E+00 0.  1.
         23    2    1    0    0    0  0.34060577582E+01 -0.27769169986E+02  0.11186449025E+02  0.94869207230E+02  0.89957222097E+02 0.  0.
         13    1    3    3    0    0 -0.30801603351E+02 -0.22375607917E+02  0.35897423902E+02  0.52326310834E+02  0.10566000000E+00 0. -1.
         22    1    1    0    0    0 -0.34060577582E+01  0.27769169986E+02 -0.11186449025E+02  0.30130792770E+02  0.00000000000E+00 0. -1.
</event>
<event>
 5    1  0.6924865E-004  0.9118800E+02  0.7818608E-02  0.1130116E+00
         25   -1    0    0    0    0  0.00000000000E+00  0.00000000000E+00  0.99999998245E-14  0.12500000000E+03  0.12500000000E+03 0.  0.
        -13    1    3    3    0    0  0.22951592180E+02  0.32844136444E+02 -0.25056201609E+02  0.47258198077E+02  0.10566000000E+00 0. -1.
         23    2    1    0    0    0  0.27184111043E+01 -0.17096856848E+02 -0.15044882904E+02  0.10206442121E+03  0.99454036125E+02 0.  0.
         13    1    3    3    0    0 -0.20233181076E+02 -0.49940993292E+02  0.10011318705E+02  0.54806223129E+02  0.10566000000E+00 0.  1.
         22    1    1    0    0    0 -0.27184111043E+01  0.17096856848E+02  0.15044882904E+02  0.22935578794E+02  0.00000000000E+00 0. -1.
</event>
<event>
 5    1  0.6924865E-004  0.9118800E+02  0.7818608E-02  0.1130116E+00
         25   -1    0    0    0    0  0.00000000000E+00  0.00000000000E+00  0.99999998245E-14  0.12500000000E+03  0.12500000000E+03 0.  0.
        -13    1    3    3    0    0  0.79414216311E+01 -0.32813042123E+02 -0.49105569935E+02  0.59591359051E+02  0.10566000000E+00 0. -1.
         23    2    1    0    0    0 -0.66073909083E+01 -0.94162037728E+01 -0.29299688710E+02  0.93523115361E+02  0.88066899799E+02 0.  0.
         13    1    3    3    0    0 -0.14548812539E+02  0.23396838350E+02  0.19805881226E+02  0.33931756309E+02  0.10566000000E+00 0.  1.
         22    1    1    0    0    0  0.66073909083E+01  0.94162037728E+01  0.29299688710E+02  0.31476884639E+02  0.00000000000E+00 0. -1.
</event>
<event>
 5    1  0.6924865E-004  0.9118800E+02  0.7818608E-02  0.1130116E+00
         25   -1    0    0    0    0  0.00000000000E+00  0.00000000000E+00  0.99999998245E-14  0.12500000000E+03  0.12500000000E+03 0.  0.
        -13    1    3    3    0    0  0.13476896575E+02  0.50511821640E+02 -0.30829228578E+02  0.60692037084E+02  0.10566000000E+00 0.  1.
         23    2    1    0    0    0  0.87818932243E+01  0.28269220229E+02 -0.52098488466E+01  0.94943170727E+02  0.90059939384E+02 0.  0.
         13    1    3    3    0    0 -0.46950033508E+01 -0.22242601411E+02  0.25619379731E+02  0.34251133643E+02  0.10566000000E+00 0. -1.
         22    1    1    0    0    0 -0.87818932243E+01 -0.28269220229E+02  0.52098488466E+01  0.30056829273E+02  0.00000000000E+00 0.  1.
</event>
<event>
 5    1  0.6924865E-004  0.9118800E+02  0.7818608E-02  0.1130116E+00
         25   -1    0    0    0    0  0.00000000000E+00  0.00000000000E+00  0.99999998245E-14  0.12500000000E+03  0.12500000000E+03 0.  0.
        -13    1    3    3    0    0 -0.18583756167E+01  0.37666403495E+02 -0.32480030794E+01  0.37851977494E+02  0.10566000000E+00 0.  1.
         23    2    1    0    0    0  0.96466414671E+01 -0.12743943736E+02 -0.26109158569E+02  0.94387029633E+02  0.89284698623E+02 0.  0.
         13    1    3    3    0    0  0.11505017084E+02 -0.50410347231E+02 -0.22861155489E+02  0.56535052139E+02  0.10566000000E+00 0. -1.
         22    1    1    0    0    0 -0.96466414671E+01  0.12743943736E+02  0.26109158569E+02  0.30612970367E+02  0.00000000000E+00 0. -1.
</event>
<event>
 5    1  0.6924865E-004  0.9118800E+02  0.7818608E-02  0.1130116E+00
         25   -1    0    0    0    0  0.00000000000E+00  0.00000000000E+00  0.99999998245E-14  0.12500000000E+03  0.12500000000E+03 0.  0.
        -13    1    3    3    0    0  0.41493988705E+02  0.11089586011E+02 -0.26076702095E+02  0.50246746887E+02  0.10566000000E+00 0.  1.
         23    2    1    0    0    0  0.49103664926E+02 -0.33546528237E+01 -0.71125364044E+01  0.75270614534E+02  0.56503571866E+02 0.  0.
         13    1    3    3    0    0  0.76096762207E+01 -0.14444238834E+02  0.18964165690E+02  0.25023867648E+02  0.10566000000E+00 0. -1.
         22    1    1    0    0    0 -0.49103664926E+02  0.33546528237E+01  0.71125364044E+01  0.49729385466E+02  0.00000000000E+00 0.  1.
</event>
<event>
 5    1  0.6924865E-004  0.9118800E+02  0.7818608E-02  0.1130116E+00
         25   -1    0    0    0    0  0.00000000000E+00  0.00000000000E+00  0.99999998245E-14  0.12500000000E+03  0.12500000000E+03 0.  0.
        -13    1    3    3    0    0 -0.18570404688E+02 -0.31040543899E+01 -0.29181039679E+02  0.34728076894E+02  0.10566000000E+00 0. -1.
         23    2    1    0    0    0  0.93146806475E+01 -0.11946754028E+02  0.24692016876E+02  0.96031328909E+02  0.91557808117E+02 0.  0.
         13    1    3    3    0    0  0.27885085335E+02 -0.88426996383E+01  0.53873056555E+02  0.61303252016E+02  0.10566000000E+00 0.  1.
         22    1    1    0    0    0 -0.93146806475E+01  0.11946754028E+02 -0.24692016876E+02  0.28968671091E+02  0.00000000000E+00 0.  1.
</event>
<event>
 5    1  0.6924865E-004  0.9118800E+02  0.7818608E-02  0.1130116E+00
         25   -1    0    0    0    0  0.00000000000E+00  0.00000000000E+00  0.99999998245E-14  0.12500000000E+03  0.12500000000E+03 0.  0.
        -13    1    3    3    0    0 -0.40833766286E+02  0.44745684488E+01 -0.43509954083E+02  0.59837659549E+02  0.10566000000E+00 0.  1.
         23    2    1    0    0    0 -0.21301784227E+02  0.14358520809E+02 -0.17102772813E+02  0.94138406247E+02  0.88935940776E+02 0.  0.
         13    1    3    3    0    0  0.19531982059E+02  0.98839523604E+01  0.26407181269E+02  0.34300746698E+02  0.10566000000E+00 0. -1.
         22    1    1    0    0    0  0.21301784227E+02 -0.14358520809E+02  0.17102772813E+02  0.30861593753E+02  0.00000000000E+00 0.  1.
</event>
<event>
 5    1  0.6924865E-004  0.9118800E+02  0.7818608E-02  0.1130116E+00
         25   -1    0    0    0    0  0.00000000000E+00  0.00000000000E+00  0.99999998245E-14  0.12500000000E+03  0.12500000000E+03 0.  0.
        -13    1    3    3    0    0 -0.11187957795E+02  0.37552116376E+02 -0.19021765711E+02  0.43556521656E+02  0.10566000000E+00 0. -1.
         23    2    1    0    0    0 -0.29215208028E+02 -0.51060538200E+01  0.36479997292E+01  0.95118432643E+02  0.90302869061E+02 0.  0.
         13    1    3    3    0    0 -0.18027250232E+02 -0.42658170196E+02  0.22669765441E+02  0.51561910987E+02  0.10566000000E+00 0.  1.
         22    1    1    0    0    0  0.29215208028E+02  0.51060538200E+01 -0.36479997292E+01  0.29881567357E+02  0.00000000000E+00 0.  1.
</event>
<event>
 5    1  0.6924865E-004  0.9118800E+02  0.7818608E-02  0.1130116E+00
         25   -1    0    0    0    0  0.00000000000E+00  0.00000000000E+00  0.99999998245E-14  0.12500000000E+03  0.12500000000E+03 0.  0.
        -13    1    3    3    0    0  0.45475710541E+01 -0.47923491425E+01  0.57558387827E+02  0.57936397766E+02  0.10566000000E+00 0.  1.
         23    2    1    0    0    0 -0.64680599913E+01 -0.16380352799E+02  0.22846174100E+02  0.96153866310E+02  0.91724950681E+02 0.  0.
         13    1    3    3    0    0 -0.11015631045E+02 -0.11588003656E+02 -0.34712213727E+02  0.38217468544E+02  0.10566000000E+00 0. -1.
         22    1    1    0    0    0  0.64680599913E+01  0.16380352799E+02 -0.22846174100E+02  0.28846133690E+02  0.00000000000E+00 0. -1.
</event>
<event>
 5    1  0.6924865E-004  0.9118800E+02  0.7818608E-02  0.1130116E+00
         25   -1    0    0    0    0  0.00000000000E+00  0.00000000000E+00  0.99999998245E-14  0.12500000000E+03  0.12500000000E+03 0.  0.
        -13    1    3    3    0    0 -0.39179620072E+02  0.28033088101E+02 -0.23442623516E+02  0.53576715267E+02  0.10566000000E+00 0.  1.
         23    2    1    0    0    0 -0.29440024958E+02 -0.96963551746E+00  0.47299705305E+01  0.95166664890E+02  0.90369608954E+02 0.  0.
         13    1    3    3    0    0  0.97395951143E+01 -0.29002723618E+02  0.28172594047E+02  0.41589949623E+02  0.10566000000E+00 0. -1.
         22    1    1    0    0    0  0.29440024958E+02  0.96963551746E+00 -0.47299705305E+01  0.29833335110E+02  0.00000000000E+00 0.  1.
</event>
<event>
 5    1  0.6924865E-004  0.9118800E+02  0.7818608E-02  0.1130116E+00
         25   -1    0    0    0    0  0.00000000000E+00  0.00000000000E+00  0.99999998245E-14  0.12500000000E+03  0.12500000000E+03 0.  0.
        -13    1    3    3    0    0 -0.15728992566E+02  0.18324615467E+02 -0.25419792558E+02  0.35062369527E+02  0.10566000000E+00 0.  1.
         23    2    1    0    0    0  0.17524391858E+02  0.20935870100E+01  0.23003879180E+02  0.96005761367E+02  0.91522895178E+02 0.  0.
         13    1    3    3    0    0  0.33253384424E+02 -0.16231028457E+02  0.48423671738E+02  0.60943391840E+02  0.10566000000E+00 0. -1.
         22    1    1    0    0    0 -0.17524391858E+02 -0.20935870100E+01 -0.23003879180E+02  0.28994238633E+02  0.00000000000E+00 0. -1.
</event>
<event>
 5    1  0.6924865E-004  0.9118800E+02  0.7818608E-02  0.1130116E+00
         25   -1    0    0    0    0  0.00000000000E+00  0.00000000000E+00  0.99999998245E-14  0.12500000000E+03  0.12500000000E+03 0.  0.
        -13    1    3    3    0    0 -0.12691955277E+02 -0.18582973772E+01  0.48686884885E+02  0.50348415286E+02  0.10566000000E+00 0.  1.
         23    2    1    0    0    0  0.19805415674E+02 -0.10400045923E+02  0.24960230117E+02  0.91482414575E+02  0.85121111622E+02 0.  0.
         13    1    3    3    0    0  0.32497370951E+02 -0.85417485462E+01 -0.23726654769E+02  0.41133999289E+02  0.10566000000E+00 0. -1.
         22    1    1    0    0    0 -0.19805415674E+02  0.10400045923E+02 -0.24960230117E+02  0.33517585425E+02  0.00000000000E+00 0.  1.
</event>
<event>
 5    1  0.6924865E-004  0.9118800E+02  0.7818608E-02  0.1130116E+00
         25   -1    0    0    0    0  0.00000000000E+00  0.00000000000E+00  0.99999998245E-14  0.12500000000E+03  0.12500000000E+03 0.  0.
        -13    1    3    3    0    0 -0.46600388609E+02  0.62524137839E+01  0.16068876591E+02  0.49688115838E+02  0.10566000000E+00 0.  1.
         23    2    1    0    0    0 -0.15772527734E+02 -0.22437545856E+02  0.18574898007E+02  0.91875342550E+02  0.85696182165E+02 0.  0.
         13    1    3    3    0    0  0.30827860875E+02 -0.28689959640E+02  0.25060214163E+01  0.42187226712E+02  0.10566000000E+00 0. -1.
         22    1    1    0    0    0  0.15772527734E+02  0.22437545856E+02 -0.18574898007E+02  0.33124657450E+02  0.00000000000E+00 0.  1.
</event>
<event>
 5    1  0.6924865E-004  0.9118800E+02  0.7818608E-02  0.1130116E+00
         25   -1    0    0    0    0  0.00000000000E+00  0.00000000000E+00  0.99999998245E-14  0.12500000000E+03  0.12500000000E+03 0.  0.
        -13    1    3    3    0    0 -0.24057841998E+02  0.83365747654E+01 -0.20588364745E+02  0.32744009641E+02  0.10566000000E+00 0. -1.
         23    2    1    0    0    0  0.29210353759E+02 -0.80785176554E+01  0.53512039318E+01  0.94224318078E+02  0.89056608511E+02 0.  0.
         13    1    3    3    0    0  0.53268195757E+02 -0.16415092421E+02  0.25939568677E+02  0.61480308438E+02  0.10566000000E+00 0.  1.
         22    1    1    0    0    0 -0.29210353759E+02  0.80785176554E+01 -0.53512039318E+01  0.30775681922E+02  0.00000000000E+00 0.  1.
</event>
<event>
 5    1  0.6924865E-004  0.9118800E+02  0.7818608E-02  0.1130116E+00
         25   -1    0    0    0    0  0.00000000000E+00  0.00000000000E+00  0.99999998245E-14  0.12500000000E+03  0.12500000000E+03 0.  0.
        -13    1    3    3    0    0  0.14162642310E+02 -0.15521419065E+02 -0.42245259563E+02  0.47182284880E+02  0.10566000000E+00 0.  1.
         23    2    1    0    0    0  0.10585680213E+02  0.22907138222E+02 -0.87310326917E+01  0.98297480662E+02  0.94601110805E+02 0.  0.
         13    1    3    3    0    0 -0.35769620964E+01  0.38428557287E+02  0.33514226871E+02  0.51115195782E+02  0.10566000000E+00 0. -1.
         22    1    1    0    0    0 -0.10585680213E+02 -0.22907138222E+02  0.87310326917E+01  0.26702519338E+02  0.00000000000E+00 0.  1.
</event>
<event>
 5    1  0.6924865E-004  0.9118800E+02  0.7818608E-02  0.1130116E+00
         25   -1    0    0    0    0  0.00000000000E+00  0.00000000000E+00  0.99999998245E-14  0.12500000000E+03  0.12500000000E+03 0.  0.
        -13    1    3    3    0    0  0.47815653569E+02  0.24208313866E+01 -0.11854291422E+02  0.49322738569E+02  0.10566000000E+00 0. -1.
         23    2    1    0    0    0  0.69149121479E+01  0.24298919657E+02 -0.14657881633E+02  0.95792004511E+02  0.91230483545E+02 0.  0.
         13    1    3    3    0    0 -0.40900741421E+02  0.21878088270E+02 -0.28035902105E+01  0.46469265942E+02  0.10566000000E+00 0.  1.
         22    1    1    0    0    0 -0.69149121479E+01 -0.24298919657E+02  0.14657881633E+02  0.29207995489E+02  0.00000000000E+00 0. -1.
</event>
<event>
 5    1  0.6924865E-004  0.9118800E+02  0.7818608E-02  0.1130116E+00
         25   -1    0    0    0    0  0.00000000000E+00  0.00000000000E+00  0.99999998245E-14  0.12500000000E+03  0.12500000000E+03 0.  0.
        -13    1    3    3    0    0 -0.38693264191E+01  0.50846678336E+02 -0.13324804700E+02  0.52705957624E+02  0.10566000000E+00 0. -1.
         23    2    1    0    0    0 -0.74466962739E+01  0.21748011257E+02  0.18143289526E+02  0.95715051070E+02  0.91124984321E+02 0.  0.
         13    1    3    3    0    0 -0.35773698548E+01 -0.29098667079E+02  0.31468094226E+02  0.43009093446E+02  0.10566000000E+00 0.  1.
         22    1    1    0    0    0  0.74466962739E+01 -0.21748011257E+02 -0.18143289526E+02  0.29284948930E+02  0.00000000000E+00 0. -1.
</event>
<event>
 5    1  0.6924865E-004  0.9118800E+02  0.7818608E-02  0.1130116E+00
         25   -1    0    0    0    0  0.00000000000E+00  0.00000000000E+00  0.99999998245E-14  0.12500000000E+03  0.12500000000E+03 0.  0.
        -13    1    3    3    0    0  0.28097531869E+02  0.21867914665E+02 -0.12599432795E+02  0.37768159337E+02  0.10566000000E+00 0.  1.
         23    2    1    0    0    0 -0.12371480808E+02  0.83471057882E+01  0.25815343568E+02  0.95181219409E+02  0.90389738644E+02 0.  0.
         13    1    3    3    0    0 -0.40469012677E+02 -0.13520808876E+02  0.38414776363E+02  0.57413060072E+02  0.10566000000E+00 0. -1.
         22    1    1    0    0    0  0.12371480808E+02 -0.83471057882E+01 -0.25815343568E+02  0.29818780591E+02  0.00000000000E+00 0. -1.
</event>
<event>
 5    1  0.6924865E-004  0.9118800E+02  0.7818608E-02  0.1130116E+00
         25   -1    0    0    0    0  0.00000000000E+00  0.00000000000E+00  0.99999998245E-14  0.12500000000E+03  0.12500000000E+03 0.  0.
        -13    1    3    3    0    0 -0.63203664707E+01  0.40666631324E+02 -0.22139076692E+02  0.46731914324E+02  0.10566000000E+00 0. -1.
         23    2    1    0    0    0  0.12001858117E+02  0.15585260717E+02  0.18577300093E+02  0.97943373665E+02  0.94132053076E+02 0.  0.
         13    1    3    3    0    0  0.18322224587E+02 -0.25081370606E+02  0.40716376785E+02  0.51211459341E+02  0.10566000000E+00 0.  1.
         22    1    1    0    0    0 -0.12001858117E+02 -0.15585260717E+02 -0.18577300093E+02  0.27056626335E+02  0.00000000000E+00 0.  1.
</event>
<event>
 5    1  0.6924865E-004  0.9118800E+02  0.7818608E-02  0.1130116E+00
         25   -1    0    0    0    0  0.00000000000E+00  0.00000000000E+00  0.99999998245E-14  0.12500000000E+03  0.12500000000E+03 0.  0.
        -13    1    3    3    0    0  0.72427935985E+01  0.45887071303E+02 -0.39600104655E+02  0.61043106283E+02  0.10566000000E+00 0. -1.
         23    2    1    0    0    0  0.10216344869E+02  0.16118636186E+02 -0.22480144391E+02  0.95512018943E+02  0.90846049643E+02 0.  0.
         13    1    3    3    0    0  0.29735512701E+01 -0.29768435117E+02  0.17119960264E+02  0.34468912660E+02  0.10566000000E+00 0.  1.
         22    1    1    0    0    0 -0.10216344869E+02 -0.16118636186E+02  0.22480144391E+02  0.29487981057E+02  0.00000000000E+00 0. -1.
</event>
<event>
 5    1  0.6924865E-004  0.9118800E+02  0.7818608E-02  0.1130116E+00
         25   -1    0    0    0    0  0.00000000000E+00  0.00000000000E+00  0.99999998245E-14  0.12500000000E+03  0.12500000000E+03 0.  0.
        -13    1    3    3    0    0 -0.29415355878E+02  0.61692687447E+01  0.16782455712E+02  0.34423611403E+02  0.10566000000E+00 0. -1.
         23    2    1    0    0    0  0.22267678164E+02 -0.19906659360E+02 -0.13945254110E+01  0.95099008732E+02  0.90275977884E+02 0.  0.
         13    1    3    3    0    0  0.51683034041E+02 -0.26075928105E+02 -0.18176981123E+02  0.60675397329E+02  0.10566000000E+00 0.  1.
         22    1    1    0    0    0 -0.22267678164E+02  0.19906659360E+02  0.13945254110E+01  0.29900991268E+02  0.00000000000E+00 0.  1.
</event>
<event>
 5    1  0.6924865E-004  0.9118800E+02  0.7818608E-02  0.1130116E+00
         25   -1    0    0    0    0  0.00000000000E+00  0.00000000000E+00  0.99999998245E-14  0.12500000000E+03  0.12500000000E+03 0.  0.
        -13    1    3    3    0    0 -0.74012534695E+01  0.39576462667E+02 -0.31942795120E+02  0.51394827310E+02  0.10566000000E+00 0.  1.
         23    2    1    0    0    0 -0.15504201276E+01  0.27499344846E+02  0.10204724924E+02  0.95627322554E+02  0.91004563834E+02 0.  0.
         13    1    3    3    0    0  0.58508333419E+01 -0.12077117820E+02  0.42147520044E+02  0.44232495244E+02  0.10566000000E+00 0. -1.
         22    1    1    0    0    0  0.15504201276E+01 -0.27499344846E+02 -0.10204724924E+02  0.29372677446E+02  0.00000000000E+00 0.  1.
</event>
<event>
 5    1  0.6924865E-004  0.9118800E+02  0.7818608E-02  0.1130116E+00
         25   -1    0    0    0    0  0.00000000000E+00  0.00000000000E+00  0.99999998245E-14  0.12500000000E+03  0.12500000000E+03 0.  0.
        -13    1    3    3    0    0 -0.21156997403E+02 -0.27857764997E+02 -0.21582275389E+02  0.41103277056E+02  0.10566000000E+00 0.  1.
         23    2    1    0    0    0 -0.17871256044E+02  0.12299463869E+02  0.17417863566E+02  0.97178415299E+02  0.93110707359E+02 0.  0.
         13    1    3    3    0    0  0.32857413595E+01  0.40157228866E+02  0.39000138955E+02  0.56075138244E+02  0.10566000000E+00 0. -1.
         22    1    1    0    0    0  0.17871256044E+02 -0.12299463869E+02 -0.17417863566E+02  0.27821584701E+02  0.00000000000E+00 0. -1.
</event>
<event>
 5    1  0.6924865E-004  0.9118800E+02  0.7818608E-02  0.1130116E+00
         25   -1    0    0    0    0  0.00000000000E+00  0.00000000000E+00  0.99999998245E-14  0.12500000000E+03  0.12500000000E+03 0.  0.
        -13    1    3    3    0    0 -0.56316592470E+02  0.18970139681E+02 -0.29668660075E+01  0.59499901217E+02  0.10566000000E+00 0.  1.
         23    2    1    0    0    0 -0.20573896124E+02  0.20861545135E+02  0.19809469615E+01  0.95633123795E+02  0.91012531823E+02 0.  0.
         13    1    3    3    0    0  0.35742696346E+02  0.18914054542E+01  0.49478129690E+01  0.36133222578E+02  0.10566000000E+00 0. -1.
         22    1    1    0    0    0  0.20573896124E+02 -0.20861545135E+02 -0.19809469615E+01  0.29366876205E+02  0.00000000000E+00 0.  1.
</event>
<event>
 5    1  0.6924865E-004  0.9118800E+02  0.7818608E-02  0.1130116E+00
         25   -1    0    0    0    0  0.00000000000E+00  0.00000000000E+00  0.99999998245E-14  0.12500000000E+03  0.12500000000E+03 0.  0.
        -13    1    3    3    0    0  0.14150906901E+02 -0.48212987806E+01 -0.42349077746E+02  0.44910451323E+02  0.10566000000E+00 0. -1.
         23    2    1    0    0    0 -0.23634904549E+02 -0.53914938158E+01 -0.12747606886E+01  0.10072445812E+03  0.97755381084E+02 0.  0.
         13    1    3    3    0    0 -0.37785811450E+02 -0.57019503520E+00  0.41074317058E+02  0.55814006800E+02  0.10566000000E+00 0.  1.
         22    1    1    0    0    0  0.23634904549E+02  0.53914938158E+01  0.12747606886E+01  0.24275541877E+02  0.00000000000E+00 0.  1.
</event>
<event>
 5    1  0.6924865E-004  0.9118800E+02  0.7818608E-02  0.1130116E+00
         25   -1    0    0    0    0  0.00000000000E+00  0.00000000000E+00  0.99999998245E-14  0.12500000000E+03  0.12500000000E+03 0.  0.
        -13    1    3    3    0    0 -0.66251925704E+01 -0.37410811450E+02  0.42191195242E+02  0.56776492582E+02  0.10566000000E+00 0. -1.
         23    2    1    0    0    0 -0.21344243996E+02 -0.13038147892E+02  0.17377186467E+02  0.94544513438E+02  0.89504906901E+02 0.  0.
         13    1    3    3    0    0 -0.14719051426E+02  0.24372663559E+02 -0.24814008775E+02  0.37768020855E+02  0.10566000000E+00 0.  1.
         22    1    1    0    0    0  0.21344243996E+02  0.13038147892E+02 -0.17377186467E+02  0.30455486562E+02  0.00000000000E+00 0. -1.
</event>
<event>
 5    1  0.6924865E-004  0.9118800E+02  0.7818608E-02  0.1130116E+00
         25   -1    0    0    0    0  0.00000000000E+00  0.00000000000E+00  0.99999998245E-14  0.12500000000E+03  0.12500000000E+03 0.  0.
        -13    1    3    3    0    0  0.49009580829E+01  0.36655322719E+02  0.36976653106E+01  0.37166059335E+02  0.10566000000E+00 0. -1.
         23    2    1    0    0    0  0.15315800746E+02 -0.20814313390E+02 -0.10225430206E+02  0.97208475801E+02  0.93151054477E+02 0.  0.
         13    1    3    3    0    0  0.10414842663E+02 -0.57469636109E+02 -0.13923095517E+02  0.60042416465E+02  0.10566000000E+00 0.  1.
         22    1    1    0    0    0 -0.15315800746E+02  0.20814313390E+02  0.10225430206E+02  0.27791524199E+02  0.00000000000E+00 0.  1.
</event>
<event>
 5    1  0.6924865E-004  0.9118800E+02  0.7818608E-02  0.1130116E+00
         25   -1    0    0    0    0  0.00000000000E+00  0.00000000000E+00  0.99999998245E-14  0.12500000000E+03  0.12500000000E+03 0.  0.
        -13    1    3    3    0    0 -0.38960615111E+02 -0.12912766994E+02 -0.13116296719E+02  0.43089644753E+02  0.10566000000E+00 0. -1.
         23    2    1    0    0    0 -0.71356030594E+01  0.27310815249E+02  0.23845093422E+01  0.96671863009E+02  0.92428165362E+02 0.  0.
         13    1    3    3    0    0  0.31825012052E+02  0.40223582243E+02  0.15500806061E+02  0.53582218255E+02  0.10566000000E+00 0.  1.
         22    1    1    0    0    0  0.71356030594E+01 -0.27310815249E+02 -0.23845093422E+01  0.28328136991E+02  0.00000000000E+00 0.  1.
</event>
<event>
 5    1  0.6924865E-004  0.9118800E+02  0.7818608E-02  0.1130116E+00
         25   -1    0    0    0    0  0.00000000000E+00  0.00000000000E+00  0.99999998245E-14  0.12500000000E+03  0.12500000000E+03 0.  0.
        -13    1    3    3    0    0 -0.41491957612E+01 -0.27004254822E+02 -0.22970554438E+02  0.35694581370E+02  0.10566000000E+00 0.  1.
         23    2    1    0    0    0 -0.18639057016E+02  0.14047249386E+02  0.18038508958E+02  0.95502076900E+02  0.90832368818E+02 0.  0.
         13    1    3    3    0    0 -0.14489861255E+02  0.41051504208E+02  0.41009063397E+02  0.59807495530E+02  0.10566000000E+00 0. -1.
         22    1    1    0    0    0  0.18639057016E+02 -0.14047249386E+02 -0.18038508958E+02  0.29497923100E+02  0.00000000000E+00 0. -1.
</event>
<event>
 5    1  0.6924865E-004  0.9118800E+02  0.7818608E-02  0.1130116E+00
         25   -1    0    0    0    0  0.00000000000E+00  0.00000000000E+00  0.99999998245E-14  0.12500000000E+03  0.12500000000E+03 0.  0.
        -13    1    3    3    0    0 -0.38199887676E+02 -0.27974568172E+02  0.18818922117E+01  0.47385235730E+02  0.10566000000E+00 0.  1.
         23    2    1    0    0    0  0.86644485819E+00 -0.22445963701E+02 -0.22043266099E+02  0.93528146012E+02  0.88074039892E+02 0.  0.
         13    1    3    3    0    0  0.39066332534E+02  0.55286044710E+01 -0.23925158311E+02  0.46142910282E+02  0.10566000000E+00 0. -1.
         22    1    1    0    0    0 -0.86644485819E+00  0.22445963701E+02  0.22043266099E+02  0.31471853988E+02  0.00000000000E+00 0. -1.
</event>
<event>
 5    1  0.6924865E-004  0.9118800E+02  0.7818608E-02  0.1130116E+00
         25   -1    0    0    0    0  0.00000000000E+00  0.00000000000E+00  0.99999998245E-14  0.12500000000E+03  0.12500000000E+03 0.  0.
        -13    1    3    3    0    0 -0.97360631463E+01 -0.39884576208E+02 -0.30258768840E+02  0.51001711742E+02  0.10566000000E+00 0. -1.
         23    2    1    0    0    0  0.48989023962E+01  0.16499125719E+00 -0.30966968507E+02  0.93647494433E+02  0.88243263813E+02 0.  0.
         13    1    3    3    0    0  0.14634965542E+02  0.40049567465E+02 -0.70819966703E+00  0.42645782691E+02  0.10566000000E+00 0.  1.
         22    1    1    0    0    0 -0.48989023962E+01 -0.16499125719E+00  0.30966968507E+02  0.31352505567E+02  0.00000000000E+00 0. -1.
</event>
<event>
 5    1  0.6924865E-004  0.9118800E+02  0.7818608E-02  0.1130116E+00
         25   -1    0    0    0    0  0.00000000000E+00  0.00000000000E+00  0.99999998245E-14  0.12500000000E+03  0.12500000000E+03 0.  0.
        -13    1    3    3    0    0  0.29013405986E+02 -0.50210494094E+01 -0.21055955895E+02  0.36198799798E+02  0.10566000000E+00 0.  1.
         23    2    1    0    0    0 -0.21062312415E+02 -0.19413554830E+02  0.71916670756E+01  0.95466507305E+02  0.90783406118E+02 0.  0.
         13    1    3    3    0    0 -0.50075718401E+02 -0.14392505421E+02  0.28247622971E+02  0.59267707508E+02  0.10566000000E+00 0. -1.
         22    1    1    0    0    0  0.21062312415E+02  0.19413554830E+02 -0.71916670756E+01  0.29533492695E+02  0.00000000000E+00 0. -1.
</event>
<event>
 5    1  0.6924865E-004  0.9118800E+02  0.7818608E-02  0.1130116E+00
         25   -1    0    0    0    0  0.00000000000E+00  0.00000000000E+00  0.99999998245E-14  0.12500000000E+03  0.12500000000E+03 0.  0.
        -13    1    3    3    0    0 -0.30832067253E+02  0.26115179392E+02 -0.35761903778E+02  0.53958723963E+02  0.10566000000E+00 0.  1.
         23    2    1    0    0    0 -0.33769173853E+02  0.17888369372E+01 -0.31412139622E+02  0.78845048413E+02  0.63923877412E+02 0.  0.
         13    1    3    3    0    0 -0.29371065997E+01 -0.24326342455E+02  0.43497641559E+01  0.24886324451E+02  0.10566000000E+00 0. -1.
         22    1    1    0    0    0  0.33769173853E+02 -0.17888369372E+01  0.31412139622E+02  0.46154951587E+02  0.00000000000E+00 0.  1.
</event>
<event>
 5    1  0.6924865E-004  0.9118800E+02  0.7818608E-02  0.1130116E+00
         25   -1    0    0    0    0  0.00000000000E+00  0.00000000000E+00  0.99999998245E-14  0.12500000000E+03  0.12500000000E+03 0.  0.
        -13    1    3    3    0    0 -0.64801581261E+01  0.66001798939E+01 -0.37231974911E+02  0.38363862472E+02  0.10566000000E+00 0.  1.
         23    2    1    0    0    0 -0.51975800611E+01  0.21858266080E+02  0.18334066376E+02  0.96001092704E+02  0.91516518596E+02 0.  0.
         13    1    3    3    0    0  0.12825780650E+01  0.15258086186E+02  0.55566041286E+02  0.57637230232E+02  0.10566000000E+00 0. -1.
         22    1    1    0    0    0  0.51975800611E+01 -0.21858266080E+02 -0.18334066376E+02  0.28998907296E+02  0.00000000000E+00 0. -1.
</event>
<event>
 5    1  0.6924865E-004  0.9118800E+02  0.7818608E-02  0.1130116E+00
         25   -1    0    0    0    0  0.00000000000E+00  0.00000000000E+00  0.99999998245E-14  0.12500000000E+03  0.12500000000E+03 0.  0.
        -13    1    3    3    0    0  0.22268539640E+02  0.20169115666E+02 -0.53544615804E+02  0.61398030344E+02  0.10566000000E+00 0. -1.
         23    2    1    0    0    0  0.17775117159E+02  0.63533198898E+01 -0.22819257226E+02  0.95385173240E+02  0.90671347790E+02 0.  0.
         13    1    3    3    0    0 -0.44934224806E+01 -0.13815795776E+02  0.30725358578E+02  0.33987142897E+02  0.10566000000E+00 0.  1.
         22    1    1    0    0    0 -0.17775117159E+02 -0.63533198898E+01  0.22819257226E+02  0.29614826760E+02  0.00000000000E+00 0. -1.
</event>
<event>
 5    1  0.6924865E-004  0.9118800E+02  0.7818608E-02  0.1130116E+00
         25   -1    0    0    0    0  0.00000000000E+00  0.00000000000E+00  0.99999998245E-14  0.12500000000E+03  0.12500000000E+03 0.  0.
        -13    1    3    3    0    0  0.46623953941E+02 -0.32448350971E+02  0.11971995347E+01  0.56816661399E+02  0.10566000000E+00 0.  1.
         23    2    1    0    0    0  0.26839550734E+02  0.35697324882E+01  0.77193056242E+00  0.97913096330E+02  0.94091838554E+02 0.  0.
         13    1    3    3    0    0 -0.19784403207E+02  0.36018083459E+02 -0.42526897225E+00  0.41096434931E+02  0.10566000000E+00 0. -1.
         22    1    1    0    0    0 -0.26839550734E+02 -0.35697324882E+01 -0.77193056242E+00  0.27086903670E+02  0.00000000000E+00 0.  1.
</event>
<event>
 5    1  0.6924865E-004  0.9118800E+02  0.7818608E-02  0.1130116E+00
         25   -1    0    0    0    0  0.00000000000E+00  0.00000000000E+00  0.99999998245E-14  0.12500000000E+03  0.12500000000E+03 0.  0.
        -13    1    3    3    0    0  0.60501229973E+02 -0.55112610563E+01  0.75810120134E+01  0.61223000039E+02  0.10566000000E+00 0.  1.
         23    2    1    0    0    0  0.24622054453E+02 -0.56811128630E+01 -0.49934667063E+01  0.99242373584E+02  0.95841501428E+02 0.  0.
         13    1    3    3    0    0 -0.35879175519E+02 -0.16985180666E+00 -0.12574478720E+02  0.38019373544E+02  0.10566000000E+00 0. -1.
         22    1    1    0    0    0 -0.24622054453E+02  0.56811128630E+01  0.49934667063E+01  0.25757626416E+02  0.00000000000E+00 0.  1.
</event>
<event>
 5    1  0.6924865E-004  0.9118800E+02  0.7818608E-02  0.1130116E+00
         25   -1    0    0    0    0  0.00000000000E+00  0.00000000000E+00  0.99999998245E-14  0.12500000000E+03  0.12500000000E+03 0.  0.
        -13    1    3    3    0    0  0.17094809782E+02 -0.27853701382E+02 -0.30101749640E+02  0.44431832030E+02  0.10566000000E+00 0. -1.
         23    2    1    0    0    0 -0.81096939249E+00 -0.17873413434E+02  0.19760162184E+02  0.98343282485E+02  0.94661611128E+02 0.  0.
         13    1    3    3    0    0 -0.17905779174E+02  0.99802879478E+01  0.49861911824E+02  0.53911450455E+02  0.10566000000E+00 0.  1.
         22    1    1    0    0    0  0.81096939249E+00  0.17873413434E+02 -0.19760162184E+02  0.26656717515E+02  0.00000000000E+00 0.  1.
</event>
<event>
 5    1  0.6924865E-004  0.9118800E+02  0.7818608E-02  0.1130116E+00
         25   -1    0    0    0    0  0.00000000000E+00  0.00000000000E+00  0.99999998245E-14  0.12500000000E+03  0.12500000000E+03 0.  0.
        -13    1    3    3    0    0  0.35970521327E+01  0.23364377431E+02  0.50990466139E+02  0.56203840775E+02  0.10566000000E+00 0.  1.
         23    2    1    0    0    0 -0.16753488792E+02  0.30876389225E+01  0.23573921550E+02  0.95914906257E+02  0.91398722990E+02 0.  0.
         13    1    3    3    0    0 -0.20350540925E+02 -0.20276738508E+02 -0.27416544589E+02  0.39711065482E+02  0.10566000000E+00 0. -1.
         22    1    1    0    0    0  0.16753488792E+02 -0.30876389225E+01 -0.23573921550E+02  0.29085093743E+02  0.00000000000E+00 0. -1.
</event>
<event>
 5    1  0.6924865E-004  0.9118800E+02  0.7818608E-02  0.1130116E+00
         25   -1    0    0    0    0  0.00000000000E+00  0.00000000000E+00  0.99999998245E-14  0.12500000000E+03  0.12500000000E+03 0.  0.
        -13    1    3    3    0    0  0.24261844188E+02  0.78064389277E+01 -0.56410492524E+02  0.61900988708E+02  0.10566000000E+00 0.  1.
         23    2    1    0    0    0  0.72031149130E+01  0.75372682459E+01 -0.28949549395E+02  0.94230344700E+02  0.89065067086E+02 0.  0.
         13    1    3    3    0    0 -0.17058729275E+02 -0.26917068173E+00  0.27460943129E+02  0.32329355993E+02  0.10566000000E+00 0. -1.
         22    1    1    0    0    0 -0.72031149130E+01 -0.75372682459E+01  0.28949549395E+02  0.30769655300E+02  0.00000000000E+00 0.  1.
</event>
<event>
 5    1  0.6924865E-004  0.9118800E+02  0.7818608E-02  0.1130116E+00
         25   -1    0    0    0    0  0.00000000000E+00  0.00000000000E+00  0.99999998245E-14  0.12500000000E+03  0.12500000000E+03 0.  0.
        -13    1    3    3    0    0  0.38716008977E+02 -0.31297331200E+02 -0.79076230199E+01  0.50408272706E+02  0.10566000000E+00 0. -1.
         23    2    1    0    0    0  0.29914535813E+01 -0.22198135035E+02 -0.25333334240E+02  0.91184562441E+02  0.84682587409E+02 0.  0.
         13    1    3    3    0    0 -0.35724555395E+02  0.90991961647E+01 -0.17425711220E+02  0.40776289736E+02  0.10566000000E+00 0.  1.
         22    1    1    0    0    0 -0.29914535813E+01  0.22198135035E+02  0.25333334240E+02  0.33815437559E+02  0.00000000000E+00 0. -1.
</event>
<event>
 5    1  0.6924865E-004  0.9118800E+02  0.7818608E-02  0.1130116E+00
         25   -1    0    0    0    0  0.00000000000E+00  0.00000000000E+00  0.99999998245E-14  0.12500000000E+03  0.12500000000E+03 0.  0.
        -13    1    3    3    0    0  0.19201498650E+02  0.38910881820E+02 -0.16646059373E+02  0.46474258801E+02  0.10566000000E+00 0.  1.
         23    2    1    0    0    0 -0.17145988192E+02  0.20491669730E+02  0.11409823748E+02  0.95946987809E+02  0.91442588285E+02 0.  0.
         13    1    3    3    0    0 -0.36347486842E+02 -0.18419212090E+02  0.28055883122E+02  0.49472729008E+02  0.10566000000E+00 0. -1.
         22    1    1    0    0    0  0.17145988192E+02 -0.20491669730E+02 -0.11409823748E+02  0.29053012191E+02  0.00000000000E+00 0.  1.
</event>
<event>
 5    1  0.6924865E-004  0.9118800E+02  0.7818608E-02  0.1130116E+00
         25   -1    0    0    0    0  0.00000000000E+00  0.00000000000E+00  0.99999998245E-14  0.12500000000E+03  0.12500000000E+03 0.  0.
        -13    1    3    3    0    0  0.26850198385E+02  0.30192401302E+02 -0.42526618709E+02  0.58660367477E+02  0.10566000000E+00 0. -1.
         23    2    1    0    0    0  0.23955332843E+02  0.45157011549E+01 -0.15185376955E+02  0.96279881584E+02  0.91896520043E+02 0.  0.
         13    1    3    3    0    0 -0.28948655416E+01 -0.25676700147E+02  0.27341241754E+02  0.37619514107E+02  0.10566000000E+00 0.  1.
         22    1    1    0    0    0 -0.23955332843E+02 -0.45157011549E+01  0.15185376955E+02  0.28720118416E+02  0.00000000000E+00 0. -1.
</event>
<event>
 5    1  0.6924865E-004  0.9118800E+02  0.7818608E-02  0.1130116E+00
         25   -1    0    0    0    0  0.00000000000E+00  0.00000000000E+00  0.99999998245E-14  0.12500000000E+03  0.12500000000E+03 0.  0.
        -13    1    3    3    0    0 -0.30039022102E+02 -0.28550910221E+01  0.48704051891E+02  0.57293893464E+02  0.10566000000E+00 0.  1.
         23    2    1    0    0    0 -0.70838661033E+01  0.14909003714E+02  0.26251300959E+02  0.93990479643E+02  0.88727785449E+02 0.  0.
         13    1    3    3    0    0  0.22955155999E+02  0.17764094736E+02 -0.22452750932E+02  0.36696586179E+02  0.10566000000E+00 0. -1.
         22    1    1    0    0    0  0.70838661033E+01 -0.14909003714E+02 -0.26251300959E+02  0.31009520357E+02  0.00000000000E+00 0.  1.
</event>
<event>
 5    1  0.6924865E-004  0.9118800E+02  0.7818608E-02  0.1130116E+00
         25   -1    0    0    0    0  0.00000000000E+00  0.00000000000E+00  0.99999998245E-14  0.12500000000E+03  0.12500000000E+03 0.  0.
        -13    1    3    3    0    0 -0.32829711195E+02  0.13603212490E+02  0.30014333232E+02  0.46515682200E+02  0.10566000000E+00 0.  1.
         23    2    1    0    0    0  0.65837625373E+01 -0.15645548691E+02  0.23476156097E+02  0.96030032308E+02  0.91556037905E+02 0.  0.
         13    1    3    3    0    0  0.39413473732E+02 -0.29248761182E+02 -0.65381771345E+01  0.49514350107E+02  0.10566000000E+00 0. -1.
         22    1    1    0    0    0 -0.65837625373E+01  0.15645548691E+02 -0.23476156097E+02  0.28969967692E+02  0.00000000000E+00 0. -1.
</event>
<event>
 5    1  0.6924865E-004  0.9118800E+02  0.7818608E-02  0.1130116E+00
         25   -1    0    0    0    0  0.00000000000E+00  0.00000000000E+00  0.99999998245E-14  0.12500000000E+03  0.12500000000E+03 0.  0.
        -13    1    3    3    0    0 -0.36397727170E+02 -0.10720280957E+02 -0.24152290997E+02  0.44978475867E+02  0.10566000000E+00 0. -1.
         23    2    1    0    0    0 -0.41658192066E+01 -0.19610999749E+02  0.17498165860E+02  0.98389265901E+02  0.94722312447E+02 0.  0.
         13    1    3    3    0    0  0.32231907963E+02 -0.88907187919E+01  0.41650456857E+02  0.53410790034E+02  0.10566000000E+00 0.  1.
         22    1    1    0    0    0  0.41658192066E+01  0.19610999749E+02 -0.17498165860E+02  0.26610734099E+02  0.00000000000E+00 0. -1.
</event>
<event>
 5    1  0.6924865E-004  0.9118800E+02  0.7818608E-02  0.1130116E+00
         25   -1    0    0    0    0  0.00000000000E+00  0.00000000000E+00  0.99999998245E-14  0.12500000000E+03  0.12500000000E+03 0.  0.
        -13    1    3    3    0    0 -0.40436863968E+02 -0.10886172603E+02 -0.43732367983E+02  0.60548987564E+02  0.10566000000E+00 0.  1.
         23    2    1    0    0    0 -0.17875114915E+02 -0.14451616119E+02 -0.13842918388E+02  0.98167271269E+02  0.94428903505E+02 0.  0.
         13    1    3    3    0    0  0.22561749054E+02 -0.35654435156E+01  0.29889449595E+02  0.37618283705E+02  0.10566000000E+00 0. -1.
         22    1    1    0    0    0  0.17875114915E+02  0.14451616119E+02  0.13842918388E+02  0.26832728731E+02  0.00000000000E+00 0.  1.
</event>
<event>
 5    1  0.6924865E-004  0.9118800E+02  0.7818608E-02  0.1130116E+00
         25   -1    0    0    0    0  0.00000000000E+00  0.00000000000E+00  0.99999998245E-14  0.12500000000E+03  0.12500000000E+03 0.  0.
        -13    1    3    3    0    0 -0.19437378051E+00 -0.39838362771E+02  0.72596524592E+01  0.40495020031E+02  0.10566000000E+00 0.  1.
         23    2    1    0    0    0 -0.49431535341E+01  0.22762438461E+01 -0.28523214405E+02  0.95962269150E+02  0.91463475155E+02 0.  0.
         13    1    3    3    0    0 -0.47487797536E+01  0.42114606617E+02 -0.35782866865E+02  0.55467249119E+02  0.10566000000E+00 0. -1.
         22    1    1    0    0    0  0.49431535341E+01 -0.22762438461E+01  0.28523214405E+02  0.29037730850E+02  0.00000000000E+00 0. -1.
</event>
<event>
 5    1  0.6924865E-004  0.9118800E+02  0.7818608E-02  0.1130116E+00
         25   -1    0    0    0    0  0.00000000000E+00  0.00000000000E+00  0.99999998245E-14  0.12500000000E+03  0.12500000000E+03 0.  0.
        -13    1    3    3    0    0  0.16977009135E+02 -0.16228868443E+02  0.22571029363E+02  0.32573878195E+02  0.10566000000E+00 0.  1.
         23    2    1    0    0    0 -0.24569046519E+02  0.18355552376E+02  0.23053282472E+02  0.86633110856E+02  0.77674176622E+02 0.  0.
         13    1    3    3    0    0 -0.41546055654E+02  0.34584420819E+02  0.48225310979E+00  0.54059232661E+02  0.10566000000E+00 0. -1.
         22    1    1    0    0    0  0.24569046519E+02 -0.18355552376E+02 -0.23053282472E+02  0.38366889144E+02  0.00000000000E+00 0. -1.
</event>
<event>
 5    1  0.6924865E-004  0.9118800E+02  0.7818608E-02  0.1130116E+00
         25   -1    0    0    0    0  0.00000000000E+00  0.00000000000E+00  0.99999998245E-14  0.12500000000E+03  0.12500000000E+03 0.  0.
        -13    1    3    3    0    0  0.12279821562E+02 -0.54648507203E+01  0.43182569311E+02  0.45226143627E+02  0.10566000000E+00 0.  1.
         23    2    1    0    0    0  0.71400862820E+01  0.24921087380E+02 -0.95587626387E+00  0.99058621322E+02  0.95601544603E+02 0.  0.
         13    1    3    3    0    0 -0.51397352800E+01  0.30385938100E+02 -0.44138445575E+02  0.53832477695E+02  0.10566000000E+00 0. -1.
         22    1    1    0    0    0 -0.71400862820E+01 -0.24921087380E+02  0.95587626387E+00  0.25941378678E+02  0.00000000000E+00 0.  1.
</event>
<event>
 5    1  0.6924865E-004  0.9118800E+02  0.7818608E-02  0.1130116E+00
         25   -1    0    0    0    0  0.00000000000E+00  0.00000000000E+00  0.99999998245E-14  0.12500000000E+03  0.12500000000E+03 0.  0.
        -13    1    3    3    0    0 -0.31271270591E+02  0.20480034607E+02 -0.13874430787E+02  0.39872737248E+02  0.10566000000E+00 0.  1.
         23    2    1    0    0    0  0.21035789586E+02  0.23653309485E+01 -0.20388421452E+02  0.95609747137E+02  0.90980419786E+02 0.  0.
         13    1    3    3    0    0  0.52307060177E+02 -0.18114703659E+02 -0.65139906649E+01  0.55737009890E+02  0.10566000000E+00 0. -1.
         22    1    1    0    0    0 -0.21035789586E+02 -0.23653309485E+01  0.20388421452E+02  0.29390252863E+02  0.00000000000E+00 0.  1.
</event>
<event>
 5    1  0.6924865E-004  0.9118800E+02  0.7818608E-02  0.1130116E+00
         25   -1    0    0    0    0  0.00000000000E+00  0.00000000000E+00  0.99999998245E-14  0.12500000000E+03  0.12500000000E+03 0.  0.
        -13    1    3    3    0    0  0.15819864164E+02 -0.17008349276E+01 -0.38213713138E+02  0.41393960640E+02  0.10566000000E+00 0. -1.
         23    2    1    0    0    0  0.19838179035E+02  0.17435262412E+02  0.12524614565E+02  0.95769746960E+02  0.91199982127E+02 0.  0.
         13    1    3    3    0    0  0.40183148706E+01  0.19136097340E+02  0.50738327703E+02  0.54375786320E+02  0.10566000000E+00 0.  1.
         22    1    1    0    0    0 -0.19838179035E+02 -0.17435262412E+02 -0.12524614565E+02  0.29230253040E+02  0.00000000000E+00 0.  1.
</event>
<event>
 5    1  0.6924865E-004  0.9118800E+02  0.7818608E-02  0.1130116E+00
         25   -1    0    0    0    0  0.00000000000E+00  0.00000000000E+00  0.99999998245E-14  0.12500000000E+03  0.12500000000E+03 0.  0.
        -13    1    3    3    0    0  0.31823090286E+02 -0.24158737772E+02  0.27789185253E+02  0.48668302489E+02  0.10566000000E+00 0.  1.
         23    2    1    0    0    0 -0.14100286921E+02 -0.13968016672E+02  0.20842766235E+02  0.96219025636E+02  0.91813704908E+02 0.  0.
         13    1    3    3    0    0 -0.45923377207E+02  0.10190721100E+02 -0.69464190176E+01  0.47550723147E+02  0.10566000000E+00 0. -1.
         22    1    1    0    0    0  0.14100286921E+02  0.13968016672E+02 -0.20842766235E+02  0.28780974364E+02  0.00000000000E+00 0. -1.
</event>
<event>
 5    1  0.6924865E-004  0.9118800E+02  0.7818608E-02  0.1130116E+00
         25   -1    0    0    0    0  0.00000000000E+00  0.00000000000E+00  0.99999998245E-14  0.12500000000E+03  0.12500000000E+03 0.  0.
        -13    1    3    3    0    0 -0.14015983171E+02  0.32761721686E+02 -0.71859017808E+01  0.36351431065E+02  0.10566000000E+00 0.  1.
         23    2    1    0    0    0  0.29556405431E+02 -0.20664414006E+01 -0.13408111476E+02  0.92478795603E+02  0.86571929058E+02 0.  0.
         13    1    3    3    0    0  0.43572388602E+02 -0.34828163086E+02 -0.62222096948E+01  0.56127364538E+02  0.10566000000E+00 0. -1.
         22    1    1    0    0    0 -0.29556405431E+02  0.20664414006E+01  0.13408111476E+02  0.32521204397E+02  0.00000000000E+00 0. -1.
</event>
<event>
 5    1  0.6924865E-004  0.9118800E+02  0.7818608E-02  0.1130116E+00
         25   -1    0    0    0    0  0.00000000000E+00  0.00000000000E+00  0.99999998245E-14  0.12500000000E+03  0.12500000000E+03 0.  0.
        -13    1    3    3    0    0  0.51869155943E+02  0.67388501032E+00  0.30032136689E+02  0.59940002147E+02  0.10566000000E+00 0. -1.
         23    2    1    0    0    0  0.29517741754E+02 -0.57916092510E+01  0.43307790220E+01  0.94609286568E+02  0.89595321541E+02 0.  0.
         13    1    3    3    0    0 -0.22351414189E+02 -0.64654942613E+01 -0.25701357667E+02  0.34669284421E+02  0.10566000000E+00 0.  1.
         22    1    1    0    0    0 -0.29517741754E+02  0.57916092510E+01 -0.43307790220E+01  0.30390713432E+02  0.00000000000E+00 0. -1.
</event>
<event>
 5    1  0.6924865E-004  0.9118800E+02  0.7818608E-02  0.1130116E+00
         25   -1    0    0    0    0  0.00000000000E+00  0.00000000000E+00  0.99999998245E-14  0.12500000000E+03  0.12500000000E+03 0.  0.
        -13    1    3    3    0    0  0.22484594552E+02  0.35962696870E+02 -0.42306281774E+02  0.59905802723E+02  0.10566000000E+00 0.  1.
         23    2    1    0    0    0  0.68689792061E+01  0.24669729939E+02 -0.10030032913E+02  0.97497636268E+02  0.93538275946E+02 0.  0.
         13    1    3    3    0    0 -0.15615615346E+02 -0.11292966931E+02  0.32276248861E+02  0.37591833545E+02  0.10566000000E+00 0. -1.
         22    1    1    0    0    0 -0.68689792061E+01 -0.24669729939E+02  0.10030032913E+02  0.27502363732E+02  0.00000000000E+00 0.  1.
</event>
<event>
 5    1  0.6924865E-004  0.9118800E+02  0.7818608E-02  0.1130116E+00
         25   -1    0    0    0    0  0.00000000000E+00  0.00000000000E+00  0.99999998245E-14  0.12500000000E+03  0.12500000000E+03 0.  0.
        -13    1    3    3    0    0  0.24927788491E+02  0.17700351815E+02 -0.16424552428E+02  0.34705535292E+02  0.10566000000E+00 0.  1.
         23    2    1    0    0    0 -0.16239251735E+02 -0.24731184708E+02 -0.36550049291E+01  0.95188863574E+02  0.90400309145E+02 0.  0.
         13    1    3    3    0    0 -0.41167040226E+02 -0.42431536523E+02  0.12769547499E+02  0.60483328282E+02  0.10566000000E+00 0. -1.
         22    1    1    0    0    0  0.16239251735E+02  0.24731184708E+02  0.36550049291E+01  0.29811136426E+02  0.00000000000E+00 0. -1.
</event>
<event>
 5    1  0.6924865E-004  0.9118800E+02  0.7818608E-02  0.1130116E+00
         25   -1    0    0    0    0  0.00000000000E+00  0.00000000000E+00  0.99999998245E-14  0.12500000000E+03  0.12500000000E+03 0.  0.
        -13    1    3    3    0    0 -0.36344391528E+02 -0.11428869695E+02  0.96116337144E+01  0.39292855900E+02  0.10566000000E+00 0.  1.
         23    2    1    0    0    0  0.18819688933E+02 -0.15750623093E+02  0.17041017115E+02  0.95122599114E+02  0.90308636235E+02 0.  0.
         13    1    3    3    0    0  0.55164080462E+02 -0.43217533984E+01  0.74293834008E+01  0.55829743214E+02  0.10566000000E+00 0. -1.
         22    1    1    0    0    0 -0.18819688933E+02  0.15750623093E+02 -0.17041017115E+02  0.29877400886E+02  0.00000000000E+00 0. -1.
</event>
<event>
 5    1  0.6924865E-004  0.9118800E+02  0.7818608E-02  0.1130116E+00
         25   -1    0    0    0    0  0.00000000000E+00  0.00000000000E+00  0.99999998245E-14  0.12500000000E+03  0.12500000000E+03 0.  0.
        -13    1    3    3    0    0  0.13025175248E+02  0.38689971068E+02  0.18625668412E+02  0.44871992816E+02  0.10566000000E+00 0. -1.
         23    2    1    0    0    0  0.20093949557E+00 -0.98830760178E+01  0.27401208383E+02  0.95870259372E+02  0.91337641982E+02 0.  0.
         13    1    3    3    0    0 -0.12824235753E+02 -0.48573047086E+02  0.87755399703E+01  0.50998266555E+02  0.10566000000E+00 0.  1.
         22    1    1    0    0    0 -0.20093949557E+00  0.98830760178E+01 -0.27401208383E+02  0.29129740628E+02  0.00000000000E+00 0. -1.
</event>
<event>
 5    1  0.6924865E-004  0.9118800E+02  0.7818608E-02  0.1130116E+00
         25   -1    0    0    0    0  0.00000000000E+00  0.00000000000E+00  0.99999998245E-14  0.12500000000E+03  0.12500000000E+03 0.  0.
        -13    1    3    3    0    0  0.23603069538E+02 -0.38057439522E+02  0.19386345400E+02  0.48798720747E+02  0.10566000000E+00 0.  1.
         23    2    1    0    0    0 -0.90797678261E+01 -0.25607223900E+02 -0.11536473757E+02  0.95482846913E+02  0.90805901395E+02 0.  0.
         13    1    3    3    0    0 -0.32682837364E+02  0.12450215622E+02 -0.30922819157E+02  0.46684126166E+02  0.10566000000E+00 0. -1.
         22    1    1    0    0    0  0.90797678261E+01  0.25607223900E+02  0.11536473757E+02  0.29517153087E+02  0.00000000000E+00 0. -1.
</event>
<event>
 5    1  0.6924865E-004  0.9118800E+02  0.7818608E-02  0.1130116E+00
         25   -1    0    0    0    0  0.00000000000E+00  0.00000000000E+00  0.99999998245E-14  0.12500000000E+03  0.12500000000E+03 0.  0.
        -13    1    3    3    0    0  0.59925528592E+01  0.21742323674E+02 -0.55593895846E+02  0.59994430973E+02  0.10566000000E+00 0.  1.
         23    2    1    0    0    0 -0.92334995347E+01  0.13558617720E+02 -0.27059612578E+02  0.93356418328E+02  0.87829975419E+02 0.  0.
         13    1    3    3    0    0 -0.15226052394E+02 -0.81837059535E+01  0.28534283267E+02  0.33361987355E+02  0.10566000000E+00 0. -1.
         22    1    1    0    0    0  0.92334995347E+01 -0.13558617720E+02  0.27059612578E+02  0.31643581672E+02  0.00000000000E+00 0.  1.
</event>
<event>
 5    1  0.6924865E-004  0.9118800E+02  0.7818608E-02  0.1130116E+00
         25   -1    0    0    0    0  0.00000000000E+00  0.00000000000E+00  0.99999998245E-14  0.12500000000E+03  0.12500000000E+03 0.  0.
        -13    1    3    3    0    0 -0.15610984439E+02  0.12280119094E+02  0.53299065108E+02  0.56879747411E+02  0.10566000000E+00 0.  1.
         23    2    1    0    0    0 -0.18187428484E+02  0.18010807302E+02  0.15760565535E+02  0.94940606119E+02  0.90056379728E+02 0.  0.
         13    1    3    3    0    0 -0.25764440452E+01  0.57306882081E+01 -0.37538499574E+02  0.38060858707E+02  0.10566000000E+00 0. -1.
         22    1    1    0    0    0  0.18187428484E+02 -0.18010807302E+02 -0.15760565535E+02  0.30059393881E+02  0.00000000000E+00 0.  1.
</event>
<event>
 5    1  0.6924865E-004  0.9118800E+02  0.7818608E-02  0.1130116E+00
         25   -1    0    0    0    0  0.00000000000E+00  0.00000000000E+00  0.99999998245E-14  0.12500000000E+03  0.12500000000E+03 0.  0.
        -13    1    3    3    0    0  0.85596552652E+01  0.21655385876E+02 -0.29051053161E+02  0.37231683947E+02  0.10566000000E+00 0.  1.
         23    2    1    0    0    0  0.21031052634E+02 -0.34552056697E+01  0.21303484906E+02  0.94865599553E+02  0.89952208913E+02 0.  0.
         13    1    3    3    0    0  0.12471397369E+02 -0.25110591546E+02  0.50354538067E+02  0.57633915607E+02  0.10566000000E+00 0. -1.
         22    1    1    0    0    0 -0.21031052634E+02  0.34552056697E+01 -0.21303484906E+02  0.30134400447E+02  0.00000000000E+00 0. -1.
</event>
<event>
 5    1  0.6924865E-004  0.9118800E+02  0.7818608E-02  0.1130116E+00
         25   -1    0    0    0    0  0.00000000000E+00  0.00000000000E+00  0.99999998245E-14  0.12500000000E+03  0.12500000000E+03 0.  0.
        -13    1    3    3    0    0  0.27969454103E+02 -0.59827973167E+01 -0.25711122170E+02  0.38459812711E+02  0.10566000000E+00 0.  1.
         23    2    1    0    0    0 -0.12322102305E+02  0.27042557740E+02 -0.35619146269E+01  0.95069724857E+02  0.90235421062E+02 0.  0.
         13    1    3    3    0    0 -0.40291556407E+02  0.33025355057E+02  0.22149207543E+02  0.56609912146E+02  0.10566000000E+00 0. -1.
         22    1    1    0    0    0  0.12322102305E+02 -0.27042557740E+02  0.35619146269E+01  0.29930275143E+02  0.00000000000E+00 0. -1.
</event>
<event>
 5    1  0.6924865E-004  0.9118800E+02  0.7818608E-02  0.1130116E+00
         25   -1    0    0    0    0  0.00000000000E+00  0.00000000000E+00  0.99999998245E-14  0.12500000000E+03  0.12500000000E+03 0.  0.
        -13    1    3    3    0    0  0.23294417063E+02 -0.28695116461E+02  0.19753841057E+01  0.37012874536E+02  0.10566000000E+00 0.  1.
         23    2    1    0    0    0  0.17360848775E+01  0.22309111203E+02 -0.18414180503E+02  0.96020826841E+02  0.91543468965E+02 0.  0.
         13    1    3    3    0    0 -0.21558332186E+02  0.51004227664E+02 -0.20389564609E+02  0.59007952305E+02  0.10566000000E+00 0. -1.
         22    1    1    0    0    0 -0.17360848775E+01 -0.22309111203E+02  0.18414180503E+02  0.28979173159E+02  0.00000000000E+00 0. -1.
</event>
<event>
 5    1  0.6924865E-004  0.9118800E+02  0.7818608E-02  0.1130116E+00
         25   -1    0    0    0    0  0.00000000000E+00  0.00000000000E+00  0.99999998245E-14  0.12500000000E+03  0.12500000000E+03 0.  0.
        -13    1    3    3    0    0  0.27478532239E+02 -0.38843520374E+02  0.18879404156E+02  0.51189177317E+02  0.10566000000E+00 0.  1.
         23    2    1    0    0    0  0.27916952300E+02  0.42302808950E+01  0.87405696458E+01  0.95442444961E+02  0.90750268541E+02 0.  0.
         13    1    3    3    0    0  0.43842006054E+00  0.43073801269E+02 -0.10138834510E+02  0.44253267644E+02  0.10566000000E+00 0. -1.
         22    1    1    0    0    0 -0.27916952300E+02 -0.42302808950E+01 -0.87405696458E+01  0.29557555039E+02  0.00000000000E+00 0.  1.
</event>
<event>
 5    1  0.6924865E-004  0.9118800E+02  0.7818608E-02  0.1130116E+00
         25   -1    0    0    0    0  0.00000000000E+00  0.00000000000E+00  0.99999998245E-14  0.12500000000E+03  0.12500000000E+03 0.  0.
        -13    1    3    3    0    0  0.25393046822E+02  0.58415458505E+00 -0.26279310762E+02  0.36548069738E+02  0.10566000000E+00 0.  1.
         23    2    1    0    0    0 -0.25692276126E+02 -0.13930921769E+02 -0.63196263752E-01  0.95773853698E+02  0.91205610708E+02 0.  0.
         13    1    3    3    0    0 -0.51085322948E+02 -0.14515076354E+02  0.26216114498E+02  0.59225783960E+02  0.10566000000E+00 0. -1.
         22    1    1    0    0    0  0.25692276126E+02  0.13930921769E+02  0.63196263752E-01  0.29226146302E+02  0.00000000000E+00 0. -1.
</event>
<event>
 5    1  0.6924865E-004  0.9118800E+02  0.7818608E-02  0.1130116E+00
         25   -1    0    0    0    0  0.00000000000E+00  0.00000000000E+00  0.99999998245E-14  0.12500000000E+03  0.12500000000E+03 0.  0.
        -13    1    3    3    0    0 -0.35570393698E+02 -0.32541677454E+02 -0.87460998781E+01  0.48997133655E+02  0.10566000000E+00 0. -1.
         23    2    1    0    0    0 -0.17640977675E+02 -0.48267648445E+01  0.23553097448E+02  0.95179702356E+02  0.90387640687E+02 0.  0.
         13    1    3    3    0    0  0.17929416022E+02  0.27714912610E+02  0.32299197326E+02  0.46182568701E+02  0.10566000000E+00 0.  1.
         22    1    1    0    0    0  0.17640977675E+02  0.48267648445E+01 -0.23553097448E+02  0.29820297644E+02  0.00000000000E+00 0. -1.
</event>
<event>
 5    1  0.6924865E-004  0.9118800E+02  0.7818608E-02  0.1130116E+00
         25   -1    0    0    0    0  0.00000000000E+00  0.00000000000E+00  0.99999998245E-14  0.12500000000E+03  0.12500000000E+03 0.  0.
        -13    1    3    3    0    0  0.48707388585E+02  0.25170791271E+02 -0.26613873225E+02  0.60944957527E+02  0.10566000000E+00 0. -1.
         23    2    1    0    0    0  0.15285752754E+02  0.12750449396E+02 -0.19161439110E+02  0.97370505871E+02  0.93368230506E+02 0.  0.
         13    1    3    3    0    0 -0.33421635831E+02 -0.12420341875E+02  0.74524341150E+01  0.36425548344E+02  0.10566000000E+00 0.  1.
         22    1    1    0    0    0 -0.15285752754E+02 -0.12750449396E+02  0.19161439110E+02  0.27629494129E+02  0.00000000000E+00 0. -1.
</event>
<event>
 5    1  0.6924865E-004  0.9118800E+02  0.7818608E-02  0.1130116E+00
         25   -1    0    0    0    0  0.00000000000E+00  0.00000000000E+00  0.99999998245E-14  0.12500000000E+03  0.12500000000E+03 0.  0.
        -13    1    3    3    0    0  0.47703984342E+02  0.10362330273E+02  0.32586213195E+02  0.58693444823E+02  0.10566000000E+00 0.  1.
         23    2    1    0    0    0  0.22388679231E+02 -0.10696067181E+02  0.13563769497E+02  0.96722187959E+02  0.92496199867E+02 0.  0.
         13    1    3    3    0    0 -0.25315305112E+02 -0.21058397454E+02 -0.19022443698E+02  0.38028743136E+02  0.10566000000E+00 0. -1.
         22    1    1    0    0    0 -0.22388679231E+02  0.10696067181E+02 -0.13563769497E+02  0.28277812041E+02  0.00000000000E+00 0.  1.
</event>
<event>
 5    1  0.6924865E-004  0.9118800E+02  0.7818608E-02  0.1130116E+00
         25   -1    0    0    0    0  0.00000000000E+00  0.00000000000E+00  0.99999998245E-14  0.12500000000E+03  0.12500000000E+03 0.  0.
        -13    1    3    3    0    0 -0.39641381844E+02  0.38388100836E+02 -0.25138133086E+02  0.60638455945E+02  0.10566000000E+00 0.  1.
         23    2    1    0    0    0 -0.16184818579E+02  0.24117640181E+02 -0.32074624422E+01  0.95778488477E+02  0.91211962589E+02 0.  0.
         13    1    3    3    0    0  0.23456563265E+02 -0.14270460655E+02  0.21930670643E+02  0.35140032533E+02  0.10566000000E+00 0. -1.
         22    1    1    0    0    0  0.16184818579E+02 -0.24117640181E+02  0.32074624422E+01  0.29221511523E+02  0.00000000000E+00 0.  1.
</event>
<event>
 5    1  0.6924865E-004  0.9118800E+02  0.7818608E-02  0.1130116E+00
         25   -1    0    0    0    0  0.00000000000E+00  0.00000000000E+00  0.99999998245E-14  0.12500000000E+03  0.12500000000E+03 0.  0.
        -13    1    3    3    0    0 -0.21524095422E+01  0.35908242302E+02 -0.45456241187E+02  0.57968230600E+02  0.10566000000E+00 0.  1.
         23    2    1    0    0    0  0.11044864215E+02  0.59177094727E+01 -0.26159841805E+02  0.95994041402E+02  0.91506886902E+02 0.  0.
         13    1    3    3    0    0  0.13197273757E+02 -0.29990532829E+02  0.19296399382E+02  0.38025810802E+02  0.10566000000E+00 0. -1.
         22    1    1    0    0    0 -0.11044864215E+02 -0.59177094727E+01  0.26159841805E+02  0.29005958598E+02  0.00000000000E+00 0.  1.
</event>
<event>
 5    1  0.6924865E-004  0.9118800E+02  0.7818608E-02  0.1130116E+00
         25   -1    0    0    0    0  0.00000000000E+00  0.00000000000E+00  0.99999998245E-14  0.12500000000E+03  0.12500000000E+03 0.  0.
        -13    1    3    3    0    0  0.11122247333E+02 -0.11603308666E+02  0.58376141634E+02  0.60548544440E+02  0.10566000000E+00 0.  1.
         23    2    1    0    0    0 -0.18640015570E+01  0.31480156394E+01  0.28221191720E+02  0.96542660589E+02  0.92253266323E+02 0.  0.
         13    1    3    3    0    0 -0.12986248890E+02  0.14751324306E+02 -0.30154949914E+02  0.35994116149E+02  0.10566000000E+00 0. -1.
         22    1    1    0    0    0  0.18640015570E+01 -0.31480156394E+01 -0.28221191720E+02  0.28457339411E+02  0.00000000000E+00 0.  1.
</event>
<event>
 5    1  0.6924865E-004  0.9118800E+02  0.7818608E-02  0.1130116E+00
         25   -1    0    0    0    0  0.00000000000E+00  0.00000000000E+00  0.99999998245E-14  0.12500000000E+03  0.12500000000E+03 0.  0.
        -13    1    3    3    0    0  0.11137453676E+02  0.94473069121E+00  0.38487049931E+02  0.40077419663E+02  0.10566000000E+00 0. -1.
         23    2    1    0    0    0 -0.69980902860E+01 -0.29054246192E+02 -0.36535304709E+01  0.94892346914E+02  0.89989370086E+02 0.  0.
         13    1    3    3    0    0 -0.18135543962E+02 -0.29998976884E+02 -0.42140580401E+02  0.54814927250E+02  0.10566000000E+00 0.  1.
         22    1    1    0    0    0  0.69980902860E+01  0.29054246192E+02  0.36535304709E+01  0.30107653086E+02  0.00000000000E+00 0.  1.
</event>
<event>
 5    1  0.6924865E-004  0.9118800E+02  0.7818608E-02  0.1130116E+00
         25   -1    0    0    0    0  0.00000000000E+00  0.00000000000E+00  0.99999998245E-14  0.12500000000E+03  0.12500000000E+03 0.  0.
        -13    1    3    3    0    0 -0.48149032866E+02 -0.30719847732E+02 -0.11711346913E+02  0.58302703378E+02  0.10566000000E+00 0.  1.
         23    2    1    0    0    0 -0.19491226724E+02 -0.96626276368E+01 -0.20686162145E+02  0.94980146630E+02  0.90111246010E+02 0.  0.
         13    1    3    3    0    0  0.28657806142E+02  0.21057220095E+02 -0.89748152324E+01  0.36677443252E+02  0.10566000000E+00 0. -1.
         22    1    1    0    0    0  0.19491226724E+02  0.96626276368E+01  0.20686162145E+02  0.30019853370E+02  0.00000000000E+00 0.  1.
</event>
<event>
 5    1  0.6924865E-004  0.9118800E+02  0.7818608E-02  0.1130116E+00
         25   -1    0    0    0    0  0.00000000000E+00  0.00000000000E+00  0.99999998245E-14  0.12500000000E+03  0.12500000000E+03 0.  0.
        -13    1    3    3    0    0  0.32088285156E+02  0.42557679860E+02  0.10216755404E+02  0.54269765195E+02  0.10566000000E+00 0. -1.
         23    2    1    0    0    0  0.56212734972E+01  0.11123171279E+02  0.24284563097E+02  0.97704145739E+02  0.93813839249E+02 0.  0.
         13    1    3    3    0    0 -0.26467011659E+02 -0.31434508581E+02  0.14067807693E+02  0.43434380544E+02  0.10566000000E+00 0.  1.
         22    1    1    0    0    0 -0.56212734972E+01 -0.11123171279E+02 -0.24284563097E+02  0.27295854261E+02  0.00000000000E+00 0. -1.
</event>
<event>
 5    1  0.6924865E-004  0.9118800E+02  0.7818608E-02  0.1130116E+00
         25   -1    0    0    0    0  0.00000000000E+00  0.00000000000E+00  0.99999998245E-14  0.12500000000E+03  0.12500000000E+03 0.  0.
        -13    1    3    3    0    0 -0.52447457249E+02  0.21742238694E+02 -0.13907202670E+02  0.58454103067E+02  0.10566000000E+00 0.  1.
         23    2    1    0    0    0 -0.27512415574E+02 -0.55529307430E+01 -0.71450220930E+01  0.96037621105E+02  0.91566398184E+02 0.  0.
         13    1    3    3    0    0  0.24935041675E+02 -0.27295169437E+02  0.67621805771E+01  0.37583518038E+02  0.10566000000E+00 0. -1.
         22    1    1    0    0    0  0.27512415574E+02  0.55529307430E+01  0.71450220930E+01  0.28962378895E+02  0.00000000000E+00 0.  1.
</event>
<event>
 5    1  0.6924865E-004  0.9118800E+02  0.7818608E-02  0.1130116E+00
         25   -1    0    0    0    0  0.00000000000E+00  0.00000000000E+00  0.99999998245E-14  0.12500000000E+03  0.12500000000E+03 0.  0.
        -13    1    3    3    0    0 -0.50728364586E+02 -0.75499441312E+00 -0.90694742623E+00  0.50742198492E+02  0.10566000000E+00 0.  1.
         23    2    1    0    0    0 -0.94370675470E+01 -0.36150889006E+01  0.23937644348E+02  0.99016583585E+02  0.95546564022E+02 0.  0.
         13    1    3    3    0    0  0.41291297039E+02 -0.28600944875E+01  0.24844591774E+02  0.48274385093E+02  0.10566000000E+00 0. -1.
         22    1    1    0    0    0  0.94370675470E+01  0.36150889006E+01 -0.23937644348E+02  0.25983416415E+02  0.00000000000E+00 0.  1.
</event>
<event>
 5    1  0.6924865E-004  0.9118800E+02  0.7818608E-02  0.1130116E+00
         25   -1    0    0    0    0  0.00000000000E+00  0.00000000000E+00  0.99999998245E-14  0.12500000000E+03  0.12500000000E+03 0.  0.
        -13    1    3    3    0    0  0.26661915776E+02  0.23759700044E+02 -0.79784247862E+00  0.35721545539E+02  0.10566000000E+00 0. -1.
         23    2    1    0    0    0 -0.10197651005E+02  0.44971712662E+02  0.48913212908E+01  0.78627895781E+02  0.63497826303E+02 0.  0.
         13    1    3    3    0    0 -0.36859566781E+02  0.21212012618E+02  0.56891637694E+01  0.42906350242E+02  0.10566000000E+00 0.  1.
         22    1    1    0    0    0  0.10197651005E+02 -0.44971712662E+02 -0.48913212908E+01  0.46372104219E+02  0.00000000000E+00 0.  1.
</event>
<event>
 5    1  0.6924865E-004  0.9118800E+02  0.7818608E-02  0.1130116E+00
         25   -1    0    0    0    0  0.00000000000E+00  0.00000000000E+00  0.99999998245E-14  0.12500000000E+03  0.12500000000E+03 0.  0.
        -13    1    3    3    0    0  0.51110269000E+01 -0.31981674915E+02 -0.21392211121E+02  0.38814790828E+02  0.10566000000E+00 0. -1.
         23    2    1    0    0    0 -0.24827473514E+02  0.14053637191E+02 -0.59787280342E+01  0.95851186160E+02  0.91311535635E+02 0.  0.
         13    1    3    3    0    0 -0.29938500414E+02  0.46035312105E+02  0.15413483086E+02  0.57036395333E+02  0.10566000000E+00 0.  1.
         22    1    1    0    0    0  0.24827473514E+02 -0.14053637191E+02  0.59787280342E+01  0.29148813840E+02  0.00000000000E+00 0.  1.
</event>
<event>
 5    1  0.6924865E-004  0.9118800E+02  0.7818608E-02  0.1130116E+00
         25   -1    0    0    0    0  0.00000000000E+00  0.00000000000E+00  0.99999998245E-14  0.12500000000E+03  0.12500000000E+03 0.  0.
        -13    1    3    3    0    0  0.31134861886E+02 -0.45722068078E+02 -0.14745230213E+02  0.57247883036E+02  0.10566000000E+00 0. -1.
         23    2    1    0    0    0  0.22705509285E+02 -0.70869907714E+01 -0.15159333227E+02  0.96794132277E+02  0.92593374867E+02 0.  0.
         13    1    3    3    0    0 -0.84293526005E+01  0.38635077307E+02 -0.41410301415E+00  0.39546249242E+02  0.10566000000E+00 0.  1.
         22    1    1    0    0    0 -0.22705509285E+02  0.70869907714E+01  0.15159333227E+02  0.28205867723E+02  0.00000000000E+00 0. -1.
</event>
<event>
 5    1  0.6924865E-004  0.9118800E+02  0.7818608E-02  0.1130116E+00
         25   -1    0    0    0    0  0.00000000000E+00  0.00000000000E+00  0.99999998245E-14  0.12500000000E+03  0.12500000000E+03 0.  0.
        -13    1    3    3    0    0  0.80822237900E+00 -0.14431946123E+02 -0.32078663241E+02  0.35185026527E+02  0.10566000000E+00 0. -1.
         23    2    1    0    0    0  0.84621415754E+01  0.20361323305E+02  0.17926364127E+02  0.96582648653E+02  0.92307432871E+02 0.  0.
         13    1    3    3    0    0  0.76539191964E+01  0.34793269428E+02  0.50005027368E+02  0.61397622126E+02  0.10566000000E+00 0.  1.
         22    1    1    0    0    0 -0.84621415754E+01 -0.20361323305E+02 -0.17926364127E+02  0.28417351347E+02  0.00000000000E+00 0.  1.
</event>
<event>
 5    1  0.6924865E-004  0.9118800E+02  0.7818608E-02  0.1130116E+00
         25   -1    0    0    0    0  0.00000000000E+00  0.00000000000E+00  0.99999998245E-14  0.12500000000E+03  0.12500000000E+03 0.  0.
        -13    1    3    3    0    0 -0.22166879640E+02 -0.40805391235E+02 -0.14378756171E+02  0.48612861466E+02  0.10566000000E+00 0.  1.
         23    2    1    0    0    0 -0.28521226031E+02  0.45199792785E+01 -0.18590493824E+01  0.96063058013E+02  0.91601116277E+02 0.  0.
         13    1    3    3    0    0 -0.63543463906E+01  0.45325370513E+02  0.12519706789E+02  0.47450196547E+02  0.10566000000E+00 0. -1.
         22    1    1    0    0    0  0.28521226031E+02 -0.45199792785E+01  0.18590493824E+01  0.28936941987E+02  0.00000000000E+00 0. -1.
</event>
<event>
 5    1  0.6924865E-004  0.9118800E+02  0.7818608E-02  0.1130116E+00
         25   -1    0    0    0    0  0.00000000000E+00  0.00000000000E+00  0.99999998245E-14  0.12500000000E+03  0.12500000000E+03 0.  0.
        -13    1    3    3    0    0 -0.29698356448E+02 -0.63142876738E+01  0.26423816848E+02  0.40250364786E+02  0.10566000000E+00 0.  1.
         23    2    1    0    0    0  0.16766375846E+02 -0.17109042154E+02  0.28216664957E+02  0.87986342201E+02  0.79822212135E+02 0.  0.
         13    1    3    3    0    0  0.46464732294E+02 -0.10794754480E+02  0.17928481082E+01  0.47735977415E+02  0.10566000000E+00 0. -1.
         22    1    1    0    0    0 -0.16766375846E+02  0.17109042154E+02 -0.28216664957E+02  0.37013657799E+02  0.00000000000E+00 0. -1.
</event>
<event>
 5    1  0.6924865E-004  0.9118800E+02  0.7818608E-02  0.1130116E+00
         25   -1    0    0    0    0  0.00000000000E+00  0.00000000000E+00  0.99999998245E-14  0.12500000000E+03  0.12500000000E+03 0.  0.
        -13    1    3    3    0    0 -0.58969140301E+01 -0.29928811433E+02 -0.18203367042E+02  0.35522965594E+02  0.10566000000E+00 0.  1.
         23    2    1    0    0    0 -0.19730779274E+02  0.11113756671E+02  0.21128654011E+02  0.94028412078E+02  0.88781208707E+02 0.  0.
         13    1    3    3    0    0 -0.13833865244E+02  0.41042568105E+02  0.39332021052E+02  0.58505446484E+02  0.10566000000E+00 0. -1.
         22    1    1    0    0    0  0.19730779274E+02 -0.11113756671E+02 -0.21128654011E+02  0.30971587922E+02  0.00000000000E+00 0. -1.
</event>
<event>
 5    1  0.6924865E-004  0.9118800E+02  0.7818608E-02  0.1130116E+00
         25   -1    0    0    0    0  0.00000000000E+00  0.00000000000E+00  0.99999998245E-14  0.12500000000E+03  0.12500000000E+03 0.  0.
        -13    1    3    3    0    0  0.13771842186E+01  0.95310327776E+01 -0.37480520784E+02  0.38698033858E+02  0.10566000000E+00 0. -1.
         23    2    1    0    0    0 -0.19149420217E+02  0.14243983367E+02  0.16060998519E+02  0.96232882830E+02  0.91832568883E+02 0.  0.
         13    1    3    3    0    0 -0.20526604436E+02  0.47129505895E+01  0.53541519303E+02  0.57534848972E+02  0.10566000000E+00 0.  1.
         22    1    1    0    0    0  0.19149420217E+02 -0.14243983367E+02 -0.16060998519E+02  0.28767117170E+02  0.00000000000E+00 0.  1.
</event>
<event>
 5    1  0.6924865E-004  0.9118800E+02  0.7818608E-02  0.1130116E+00
         25   -1    0    0    0    0  0.00000000000E+00  0.00000000000E+00  0.99999998245E-14  0.12500000000E+03  0.12500000000E+03 0.  0.
        -13    1    3    3    0    0 -0.16886108242E+02 -0.11338137453E+02 -0.57175790482E+02  0.60685881338E+02  0.10566000000E+00 0.  1.
         23    2    1    0    0    0 -0.21508653346E+01  0.25014302426E+01 -0.31321055053E+02  0.93505685202E+02  0.88042156383E+02 0.  0.
         13    1    3    3    0    0  0.14735242907E+02  0.13839567696E+02  0.25854735429E+02  0.32819803864E+02  0.10566000000E+00 0. -1.
         22    1    1    0    0    0  0.21508653346E+01 -0.25014302426E+01  0.31321055053E+02  0.31494314798E+02  0.00000000000E+00 0.  1.
</event>
<event>
 5    1  0.6924865E-004  0.9118800E+02  0.7818608E-02  0.1130116E+00
         25   -1    0    0    0    0  0.00000000000E+00  0.00000000000E+00  0.99999998245E-14  0.12500000000E+03  0.12500000000E+03 0.  0.
        -13    1    3    3    0    0  0.33925543494E+02  0.12641811989E+02  0.34910311800E+02  0.50294124366E+02  0.10566000000E+00 0. -1.
         23    2    1    0    0    0 -0.75458176348E+01 -0.48513111476E+01  0.27707157126E+02  0.95876793795E+02  0.91346584221E+02 0.  0.
         13    1    3    3    0    0 -0.41471361129E+02 -0.17493123136E+02 -0.72031546741E+01  0.45582669429E+02  0.10566000000E+00 0.  1.
         22    1    1    0    0    0  0.75458176348E+01  0.48513111476E+01 -0.27707157126E+02  0.29123206205E+02  0.00000000000E+00 0. -1.
</event>
<event>
 5    1  0.6924865E-004  0.9118800E+02  0.7818608E-02  0.1130116E+00
         25   -1    0    0    0    0  0.00000000000E+00  0.00000000000E+00  0.99999998245E-14  0.12500000000E+03  0.12500000000E+03 0.  0.
        -13    1    3    3    0    0  0.56614726735E+01 -0.54049843136E+02  0.21145946016E+02  0.58314663789E+02  0.10566000000E+00 0.  1.
         23    2    1    0    0    0 -0.70408637801E+01 -0.40511320064E+02  0.24435535370E+02  0.77168669213E+02  0.60557140810E+02 0.  0.
         13    1    3    3    0    0 -0.12702336454E+02  0.13538523072E+02  0.32895893547E+01  0.18854005424E+02  0.10566000000E+00 0. -1.
         22    1    1    0    0    0  0.70408637801E+01  0.40511320064E+02 -0.24435535370E+02  0.47831330787E+02  0.00000000000E+00 0.  1.
</event>
<event>
 5    1  0.6924865E-004  0.9118800E+02  0.7818608E-02  0.1130116E+00
         25   -1    0    0    0    0  0.00000000000E+00  0.00000000000E+00  0.99999998245E-14  0.12500000000E+03  0.12500000000E+03 0.  0.
        -13    1    3    3    0    0 -0.31050649030E+02  0.28812390044E+02  0.23649553338E+02  0.48514009960E+02  0.10566000000E+00 0. -1.
         23    2    1    0    0    0 -0.28544732573E+02 -0.12590864360E+02  0.86109756057E+01  0.92635196218E+02  0.86797459954E+02 0.  0.
         13    1    3    3    0    0  0.25059164573E+01 -0.41403254404E+02 -0.15038577732E+02  0.44121186258E+02  0.10566000000E+00 0.  1.
         22    1    1    0    0    0  0.28544732573E+02  0.12590864360E+02 -0.86109756057E+01  0.32364803782E+02  0.00000000000E+00 0. -1.
</event>
<event>
 5    1  0.6924865E-004  0.9118800E+02  0.7818608E-02  0.1130116E+00
         25   -1    0    0    0    0  0.00000000000E+00  0.00000000000E+00  0.99999998245E-14  0.12500000000E+03  0.12500000000E+03 0.  0.
        -13    1    3    3    0    0  0.82060383507E+01  0.65681374540E+01 -0.40154790477E+02  0.41507804776E+02  0.10566000000E+00 0. -1.
         23    2    1    0    0    0  0.26175398775E+02  0.45447478013E+01  0.11361370792E+02  0.96105589124E+02  0.91659136375E+02 0.  0.
         13    1    3    3    0    0  0.17969360424E+02 -0.20233896527E+01  0.51516161269E+02  0.54597784348E+02  0.10566000000E+00 0.  1.
         22    1    1    0    0    0 -0.26175398775E+02 -0.45447478013E+01 -0.11361370792E+02  0.28894410876E+02  0.00000000000E+00 0.  1.
</event>
<event>
 5    1  0.6924865E-004  0.9118800E+02  0.7818608E-02  0.1130116E+00
         25   -1    0    0    0    0  0.00000000000E+00  0.00000000000E+00  0.99999998245E-14  0.12500000000E+03  0.12500000000E+03 0.  0.
        -13    1    3    3    0    0  0.15736153604E+02 -0.29268545577E+02 -0.24138932530E-01  0.33230799527E+02  0.10566000000E+00 0.  1.
         23    2    1    0    0    0 -0.23815481514E+02  0.18156020367E+02  0.16642037961E+01  0.95006870627E+02  0.90148309229E+02 0.  0.
         13    1    3    3    0    0 -0.39551635118E+02  0.47424565944E+02  0.16883427286E+01  0.61776071101E+02  0.10566000000E+00 0. -1.
         22    1    1    0    0    0  0.23815481514E+02 -0.18156020367E+02 -0.16642037961E+01  0.29993129373E+02  0.00000000000E+00 0. -1.
</event>
<event>
 5    1  0.6924865E-004  0.9118800E+02  0.7818608E-02  0.1130116E+00
         25   -1    0    0    0    0  0.00000000000E+00  0.00000000000E+00  0.99999998245E-14  0.12500000000E+03  0.12500000000E+03 0.  0.
        -13    1    3    3    0    0 -0.97600337646E+00 -0.29486643819E+02 -0.19828729039E+02  0.35547213753E+02  0.10566000000E+00 0. -1.
         23    2    1    0    0    0 -0.10797126789E+02  0.61535475680E+01  0.27039832909E+02  0.95241023904E+02  0.90472404500E+02 0.  0.
         13    1    3    3    0    0 -0.98211234128E+01  0.35640191387E+02  0.46868561948E+02  0.59693810150E+02  0.10566000000E+00 0.  1.
         22    1    1    0    0    0  0.10797126789E+02 -0.61535475680E+01 -0.27039832909E+02  0.29758976096E+02  0.00000000000E+00 0.  1.
</event>
<event>
 5    1  0.6924865E-004  0.9118800E+02  0.7818608E-02  0.1130116E+00
         25   -1    0    0    0    0  0.00000000000E+00  0.00000000000E+00  0.99999998245E-14  0.12500000000E+03  0.12500000000E+03 0.  0.
        -13    1    3    3    0    0 -0.26486247953E+02 -0.28551256484E+02  0.18206476538E+02  0.42990493477E+02  0.10566000000E+00 0. -1.
         23    2    1    0    0    0  0.85635831832E+01  0.78526375913E+01  0.28196808410E+02  0.94503133299E+02  0.89447097911E+02 0.  0.
         13    1    3    3    0    0  0.35049831136E+02  0.36403894075E+02  0.99903318714E+01  0.51512639822E+02  0.10566000000E+00 0.  1.
         22    1    1    0    0    0 -0.85635831832E+01 -0.78526375913E+01 -0.28196808410E+02  0.30496866701E+02  0.00000000000E+00 0.  1.
</event>
<event>
 5    1  0.6924865E-004  0.9118800E+02  0.7818608E-02  0.1130116E+00
         25   -1    0    0    0    0  0.00000000000E+00  0.00000000000E+00  0.99999998245E-14  0.12500000000E+03  0.12500000000E+03 0.  0.
        -13    1    3    3    0    0 -0.15532599471E+02  0.26781614221E+02  0.48121478277E+02  0.57220663594E+02  0.10566000000E+00 0. -1.
         23    2    1    0    0    0  0.64675054781E+00 -0.24143531838E+01  0.29404201538E+02  0.95489756767E+02  0.90815412743E+02 0.  0.
         13    1    3    3    0    0  0.16179350019E+02 -0.29195967404E+02 -0.18717276738E+02  0.38269093172E+02  0.10566000000E+00 0.  1.
         22    1    1    0    0    0 -0.64675054781E+00  0.24143531838E+01 -0.29404201538E+02  0.29510243233E+02  0.00000000000E+00 0. -1.
</event>
<event>
 5    1  0.6924865E-004  0.9118800E+02  0.7818608E-02  0.1130116E+00
         25   -1    0    0    0    0  0.00000000000E+00  0.00000000000E+00  0.99999998245E-14  0.12500000000E+03  0.12500000000E+03 0.  0.
        -13    1    3    3    0    0 -0.24862678287E+02  0.16840467957E+02 -0.18547734594E+02  0.35295661989E+02  0.10566000000E+00 0.  1.
         23    2    1    0    0    0 -0.66731070148E+00 -0.49739265405E+01  0.30452295611E+02  0.94136954836E+02  0.88933900786E+02 0.  0.
         13    1    3    3    0    0  0.24195367586E+02 -0.21814394498E+02  0.49000030204E+02  0.58841292848E+02  0.10566000000E+00 0. -1.
         22    1    1    0    0    0  0.66731070148E+00  0.49739265405E+01 -0.30452295611E+02  0.30863045164E+02  0.00000000000E+00 0. -1.
</event>
<event>
 5    1  0.6924865E-004  0.9118800E+02  0.7818608E-02  0.1130116E+00
         25   -1    0    0    0    0  0.00000000000E+00  0.00000000000E+00  0.99999998245E-14  0.12500000000E+03  0.12500000000E+03 0.  0.
        -13    1    3    3    0    0  0.35116235841E+02  0.16942265202E+02  0.23415835283E+02  0.45480796781E+02  0.10566000000E+00 0. -1.
         23    2    1    0    0    0  0.28496836753E+02 -0.13231088705E+02 -0.10985499675E+02  0.91716180863E+02  0.85463707009E+02 0.  0.
         13    1    3    3    0    0 -0.66193990884E+01 -0.30173353907E+02 -0.34401334958E+02  0.46235384082E+02  0.10566000000E+00 0.  1.
         22    1    1    0    0    0 -0.28496836753E+02  0.13231088705E+02  0.10985499675E+02  0.33283819137E+02  0.00000000000E+00 0.  1.
</event>
<event>
 5    1  0.6924865E-004  0.9118800E+02  0.7818608E-02  0.1130116E+00
         25   -1    0    0    0    0  0.00000000000E+00  0.00000000000E+00  0.99999998245E-14  0.12500000000E+03  0.12500000000E+03 0.  0.
        -13    1    3    3    0    0  0.29651495909E+02 -0.25153697057E+02 -0.56291339351E+01  0.39288904263E+02  0.10566000000E+00 0.  1.
         23    2    1    0    0    0  0.10997194192E+02  0.25099242743E+02  0.11088213613E+02  0.95438898067E+02  0.90745382895E+02 0.  0.
         13    1    3    3    0    0 -0.18654301716E+02  0.50252939800E+02  0.16717347548E+02  0.56149993804E+02  0.10566000000E+00 0. -1.
         22    1    1    0    0    0 -0.10997194192E+02 -0.25099242743E+02 -0.11088213613E+02  0.29561101933E+02  0.00000000000E+00 0. -1.
</event>
<event>
 5    1  0.6924865E-004  0.9118800E+02  0.7818608E-02  0.1130116E+00
         25   -1    0    0    0    0  0.00000000000E+00  0.00000000000E+00  0.99999998245E-14  0.12500000000E+03  0.12500000000E+03 0.  0.
        -13    1    3    3    0    0  0.34015123746E+01 -0.45229158248E+02 -0.37844988158E+02  0.59072001278E+02  0.10566000000E+00 0. -1.
         23    2    1    0    0    0  0.11061706257E+02 -0.10797630177E+02 -0.22877451976E+02  0.97389712575E+02  0.93393940616E+02 0.  0.
         13    1    3    3    0    0  0.76601938825E+01  0.34431528071E+02  0.14967536182E+02  0.38317711297E+02  0.10566000000E+00 0.  1.
         22    1    1    0    0    0 -0.11061706257E+02  0.10797630177E+02  0.22877451976E+02  0.27610287425E+02  0.00000000000E+00 0. -1.
</event>
<event>
 5    1  0.6924865E-004  0.9118800E+02  0.7818608E-02  0.1130116E+00
         25   -1    0    0    0    0  0.00000000000E+00  0.00000000000E+00  0.99999998245E-14  0.12500000000E+03  0.12500000000E+03 0.  0.
        -13    1    3    3    0    0 -0.52343681135E+02 -0.81748979318E+01 -0.82923238928E+01  0.53623350423E+02  0.10566000000E+00 0.  1.
         23    2    1    0    0    0 -0.18329898375E+02 -0.14256954667E+02  0.16810100199E+02  0.96332502734E+02  0.91968068825E+02 0.  0.
         13    1    3    3    0    0  0.34013782761E+02 -0.60820567351E+01  0.25102424092E+02  0.42709152311E+02  0.10566000000E+00 0. -1.
         22    1    1    0    0    0  0.18329898375E+02  0.14256954667E+02 -0.16810100199E+02  0.28667497266E+02  0.00000000000E+00 0.  1.
</event>
<event>
 5    1  0.6924865E-004  0.9118800E+02  0.7818608E-02  0.1130116E+00
         25   -1    0    0    0    0  0.00000000000E+00  0.00000000000E+00  0.99999998245E-14  0.12500000000E+03  0.12500000000E+03 0.  0.
        -13    1    3    3    0    0 -0.62299179027E+01 -0.47825983545E+02  0.39299986657E+02  0.62214441204E+02  0.10566000000E+00 0.  1.
         23    2    1    0    0    0 -0.56854401401E+01 -0.17159951031E+02  0.17466807574E+02  0.99862826018E+02  0.96647330560E+02 0.  0.
         13    1    3    3    0    0  0.54447776259E+00  0.30666032513E+02 -0.21833179083E+02  0.37648384813E+02  0.10566000000E+00 0. -1.
         22    1    1    0    0    0  0.56854401401E+01  0.17159951031E+02 -0.17466807574E+02  0.25137173982E+02  0.00000000000E+00 0.  1.
</event>
<event>
 5    1  0.6924865E-004  0.9118800E+02  0.7818608E-02  0.1130116E+00
         25   -1    0    0    0    0  0.00000000000E+00  0.00000000000E+00  0.99999998245E-14  0.12500000000E+03  0.12500000000E+03 0.  0.
        -13    1    3    3    0    0 -0.21604321961E+02 -0.38547058325E+00  0.24558215879E+02  0.32711044712E+02  0.10566000000E+00 0. -1.
         23    2    1    0    0    0  0.19274423226E+02 -0.29808043316E+01 -0.22582224045E+02  0.95161343395E+02  0.90362247918E+02 0.  0.
         13    1    3    3    0    0  0.40878745187E+02 -0.25953337484E+01 -0.47140439924E+02  0.62450298683E+02  0.10566000000E+00 0.  1.
         22    1    1    0    0    0 -0.19274423226E+02  0.29808043316E+01  0.22582224045E+02  0.29838656605E+02  0.00000000000E+00 0.  1.
</event>
<event>
 5    1  0.6924865E-004  0.9118800E+02  0.7818608E-02  0.1130116E+00
         25   -1    0    0    0    0  0.00000000000E+00  0.00000000000E+00  0.99999998245E-14  0.12500000000E+03  0.12500000000E+03 0.  0.
        -13    1    3    3    0    0  0.10500308247E+02 -0.27820569620E+02 -0.33798599903E+02  0.45017741910E+02  0.10566000000E+00 0.  1.
         23    2    1    0    0    0 -0.27726631973E+02 -0.86873294506E+01 -0.83460953236E+01  0.94769334763E+02  0.89818337163E+02 0.  0.
         13    1    3    3    0    0 -0.38226940220E+02  0.19133240169E+02  0.25452504579E+02  0.49751592853E+02  0.10566000000E+00 0. -1.
         22    1    1    0    0    0  0.27726631973E+02  0.86873294506E+01  0.83460953236E+01  0.30230665237E+02  0.00000000000E+00 0. -1.
</event>
<event>
 5    1  0.6924865E-004  0.9118800E+02  0.7818608E-02  0.1130116E+00
         25   -1    0    0    0    0  0.00000000000E+00  0.00000000000E+00  0.99999998245E-14  0.12500000000E+03  0.12500000000E+03 0.  0.
        -13    1    3    3    0    0 -0.16330360711E+02  0.19064333669E+02 -0.28983218227E+02  0.38342764663E+02  0.10566000000E+00 0. -1.
         23    2    1    0    0    0 -0.31556637139E+02  0.28677070229E+02  0.99284940089E+01  0.81219060109E+02  0.68408808112E+02 0.  0.
         13    1    3    3    0    0 -0.15226276428E+02  0.96127365604E+01  0.38911712236E+02  0.42876295446E+02  0.10566000000E+00 0.  1.
         22    1    1    0    0    0  0.31556637139E+02 -0.28677070229E+02 -0.99284940089E+01  0.43780939891E+02  0.00000000000E+00 0. -1.
</event>
<event>
 5    1  0.6924865E-004  0.9118800E+02  0.7818608E-02  0.1130116E+00
         25   -1    0    0    0    0  0.00000000000E+00  0.00000000000E+00  0.99999998245E-14  0.12500000000E+03  0.12500000000E+03 0.  0.
        -13    1    3    3    0    0  0.47259175331E+02 -0.10882716810E+02 -0.28646510430E+01  0.48580660429E+02  0.10566000000E+00 0. -1.
         23    2    1    0    0    0  0.34142308942E+01 -0.20227539498E+02 -0.19787369619E+02  0.96498239999E+02  0.92193058305E+02 0.  0.
         13    1    3    3    0    0 -0.43844944437E+02 -0.93448226876E+01 -0.16922718576E+02  0.47917579569E+02  0.10566000000E+00 0.  1.
         22    1    1    0    0    0 -0.34142308942E+01  0.20227539498E+02  0.19787369619E+02  0.28501760001E+02  0.00000000000E+00 0.  1.
</event>
<event>
 5    1  0.6924865E-004  0.9118800E+02  0.7818608E-02  0.1130116E+00
         25   -1    0    0    0    0  0.00000000000E+00  0.00000000000E+00  0.99999998245E-14  0.12500000000E+03  0.12500000000E+03 0.  0.
        -13    1    3    3    0    0 -0.33987797636E+02 -0.31547853664E+02 -0.33437663344E+01  0.46493326363E+02  0.10566000000E+00 0. -1.
         23    2    1    0    0    0 -0.38456832463E+02  0.58876317788E+01  0.67296797931E+01  0.85517335941E+02  0.75857326511E+02 0.  0.
         13    1    3    3    0    0 -0.44690348267E+01  0.37435485443E+02  0.10073446127E+02  0.39024009578E+02  0.10566000000E+00 0.  1.
         22    1    1    0    0    0  0.38456832463E+02 -0.58876317788E+01 -0.67296797931E+01  0.39482664059E+02  0.00000000000E+00 0.  1.
</event>
<event>
 5    1  0.6924865E-004  0.9118800E+02  0.7818608E-02  0.1130116E+00
         25   -1    0    0    0    0  0.00000000000E+00  0.00000000000E+00  0.99999998245E-14  0.12500000000E+03  0.12500000000E+03 0.  0.
        -13    1    3    3    0    0  0.39330146732E+02 -0.36647813351E+01  0.16864725792E+01  0.39536646519E+02  0.10566000000E+00 0.  1.
         23    2    1    0    0    0 -0.64653578620E+01  0.82541139833E+01  0.28991683964E+02  0.94170647282E+02  0.88981244207E+02 0.  0.
         13    1    3    3    0    0 -0.45795504594E+02  0.11918895318E+02  0.27305211385E+02  0.54634000763E+02  0.10566000000E+00 0. -1.
         22    1    1    0    0    0  0.64653578620E+01 -0.82541139833E+01 -0.28991683964E+02  0.30829352718E+02  0.00000000000E+00 0. -1.
</event>
<event>
 5    1  0.6924865E-004  0.9118800E+02  0.7818608E-02  0.1130116E+00
         25   -1    0    0    0    0  0.00000000000E+00  0.00000000000E+00  0.99999998245E-14  0.12500000000E+03  0.12500000000E+03 0.  0.
        -13    1    3    3    0    0 -0.41430522730E+02  0.91837241219E+01  0.18201250283E+02  0.46174946436E+02  0.10566000000E+00 0.  1.
         23    2    1    0    0    0 -0.23620297293E+02 -0.55963972364E+01 -0.21789795580E+02  0.92380476741E+02  0.86429851239E+02 0.  0.
         13    1    3    3    0    0  0.17810225437E+02 -0.14780121358E+02 -0.39991045864E+02  0.46205530305E+02  0.10566000000E+00 0. -1.
         22    1    1    0    0    0  0.23620297293E+02  0.55963972364E+01  0.21789795580E+02  0.32619523259E+02  0.00000000000E+00 0.  1.
</event>
<event>
 5    1  0.6924865E-004  0.9118800E+02  0.7818608E-02  0.1130116E+00
         25   -1    0    0    0    0  0.00000000000E+00  0.00000000000E+00  0.99999998245E-14  0.12500000000E+03  0.12500000000E+03 0.  0.
        -13    1    3    3    0    0  0.22911645558E+02 -0.25877249485E+02  0.12886808324E+02  0.36887078170E+02  0.10566000000E+00 0. -1.
         23    2    1    0    0    0  0.62151493875E+01  0.28602075442E+02 -0.16212218969E+01  0.95685580989E+02  0.91084549992E+02 0.  0.
         13    1    3    3    0    0 -0.16696496170E+02  0.54479324927E+02 -0.14508030221E+02  0.58798502820E+02  0.10566000000E+00 0.  1.
         22    1    1    0    0    0 -0.62151493875E+01 -0.28602075442E+02  0.16212218969E+01  0.29314419011E+02  0.00000000000E+00 0.  1.
</event>
<event>
 5    1  0.6924865E-004  0.9118800E+02  0.7818608E-02  0.1130116E+00
         25   -1    0    0    0    0  0.00000000000E+00  0.00000000000E+00  0.99999998245E-14  0.12500000000E+03  0.12500000000E+03 0.  0.
        -13    1    3    3    0    0 -0.35275193490E+01 -0.23401619244E+02 -0.30880091061E+02  0.38905916824E+02  0.10566000000E+00 0.  1.
         23    2    1    0    0    0 -0.22529822715E+02  0.78365117608E+01  0.14423986445E+02  0.97124289908E+02  0.93038016300E+02 0.  0.
         13    1    3    3    0    0 -0.19002303366E+02  0.31238131005E+02  0.45304077506E+02  0.58218373084E+02  0.10566000000E+00 0. -1.
         22    1    1    0    0    0  0.22529822715E+02 -0.78365117608E+01 -0.14423986445E+02  0.27875710092E+02  0.00000000000E+00 0. -1.
</event>
<event>
 5    1  0.6924865E-004  0.9118800E+02  0.7818608E-02  0.1130116E+00
         25   -1    0    0    0    0  0.00000000000E+00  0.00000000000E+00  0.99999998245E-14  0.12500000000E+03  0.12500000000E+03 0.  0.
        -13    1    3    3    0    0  0.28696147482E+02  0.22758561668E+02  0.33179555596E+02  0.49419784328E+02  0.10566000000E+00 0.  1.
         23    2    1    0    0    0 -0.14653302004E+02  0.16818200728E+02  0.19797937960E+02  0.95175019148E+02  0.90381163895E+02 0.  0.
         13    1    3    3    0    0 -0.43349449486E+02 -0.59403609391E+01 -0.13381617636E+02  0.45755234820E+02  0.10566000000E+00 0. -1.
         22    1    1    0    0    0  0.14653302004E+02 -0.16818200728E+02 -0.19797937960E+02  0.29824980852E+02  0.00000000000E+00 0.  1.
</event>
<event>
 5    1  0.6924865E-004  0.9118800E+02  0.7818608E-02  0.1130116E+00
         25   -1    0    0    0    0  0.00000000000E+00  0.00000000000E+00  0.99999998245E-14  0.12500000000E+03  0.12500000000E+03 0.  0.
        -13    1    3    3    0    0  0.40215530135E+02 -0.30271582145E+01  0.40030999810E+02  0.56823803645E+02  0.10566000000E+00 0. -1.
         23    2    1    0    0    0  0.15105981574E+02  0.16748987587E+02  0.11430807392E+02  0.99713983664E+02  0.96454631387E+02 0.  0.
         13    1    3    3    0    0 -0.25109548561E+02  0.19776145802E+02 -0.28600192418E+02  0.42890180019E+02  0.10566000000E+00 0.  1.
         22    1    1    0    0    0 -0.15105981574E+02 -0.16748987587E+02 -0.11430807392E+02  0.25286016336E+02  0.00000000000E+00 0. -1.
</event>
<event>
 5    1  0.6924865E-004  0.9118800E+02  0.7818608E-02  0.1130116E+00
         25   -1    0    0    0    0  0.00000000000E+00  0.00000000000E+00  0.99999998245E-14  0.12500000000E+03  0.12500000000E+03 0.  0.
        -13    1    3    3    0    0  0.55454674322E+02  0.25611925864E+02 -0.10114947879E+02  0.61915385691E+02  0.10566000000E+00 0. -1.
         23    2    1    0    0    0  0.15006369706E+02  0.11899068899E+02 -0.64904214194E+01  0.10477861175E+03  0.10280881742E+03 0.  0.
         13    1    3    3    0    0 -0.40448304616E+02 -0.13712856965E+02  0.36245264601E+01  0.42863226063E+02  0.10566000000E+00 0.  1.
         22    1    1    0    0    0 -0.15006369706E+02 -0.11899068899E+02  0.64904214194E+01  0.20221388246E+02  0.00000000000E+00 0. -1.
</event>
<event>
 5    1  0.6924865E-004  0.9118800E+02  0.7818608E-02  0.1130116E+00
         25   -1    0    0    0    0  0.00000000000E+00  0.00000000000E+00  0.99999998245E-14  0.12500000000E+03  0.12500000000E+03 0.  0.
        -13    1    3    3    0    0  0.13933256953E+02 -0.52130415966E+02  0.21068049863E+02  0.57927452966E+02  0.10566000000E+00 0.  1.
         23    2    1    0    0    0  0.68441687747E+01 -0.13989556455E+02  0.23511123981E+02  0.96798523322E+02  0.92599302537E+02 0.  0.
         13    1    3    3    0    0 -0.70890881778E+01  0.38140859511E+02  0.24430741175E+01  0.38871070356E+02  0.10566000000E+00 0. -1.
         22    1    1    0    0    0 -0.68441687747E+01  0.13989556455E+02 -0.23511123981E+02  0.28201476678E+02  0.00000000000E+00 0.  1.
</event>
<event>
 5    1  0.6924865E-004  0.9118800E+02  0.7818608E-02  0.1130116E+00
         25   -1    0    0    0    0  0.00000000000E+00  0.00000000000E+00  0.99999998245E-14  0.12500000000E+03  0.12500000000E+03 0.  0.
        -13    1    3    3    0    0 -0.35535351777E+02 -0.26418175351E+02  0.17518956537E+02  0.47619389087E+02  0.10566000000E+00 0. -1.
         23    2    1    0    0    0 -0.11709711912E+02  0.18298391868E+02  0.15472945909E+02  0.98328656706E+02  0.94642295917E+02 0.  0.
         13    1    3    3    0    0  0.23825639866E+02  0.44716567219E+02 -0.20460106281E+01  0.50709267619E+02  0.10566000000E+00 0.  1.
         22    1    1    0    0    0  0.11709711912E+02 -0.18298391868E+02 -0.15472945909E+02  0.26671343294E+02  0.00000000000E+00 0.  1.
</event>
<event>
 5    1  0.6924865E-004  0.9118800E+02  0.7818608E-02  0.1130116E+00
         25   -1    0    0    0    0  0.00000000000E+00  0.00000000000E+00  0.99999998245E-14  0.12500000000E+03  0.12500000000E+03 0.  0.
        -13    1    3    3    0    0  0.56764704690E+02  0.86623746688E+01 -0.29644582489E+01  0.57498413980E+02  0.10566000000E+00 0. -1.
         23    2    1    0    0    0  0.22669319689E+02  0.72408871846E+01 -0.18367232951E+02  0.94938666885E+02  0.90053687994E+02 0.  0.
         13    1    3    3    0    0 -0.34095385002E+02 -0.14214874841E+01 -0.15402774702E+02  0.37440252905E+02  0.10566000000E+00 0.  1.
         22    1    1    0    0    0 -0.22669319689E+02 -0.72408871846E+01  0.18367232951E+02  0.30061333115E+02  0.00000000000E+00 0. -1.
</event>
<event>
 5    1  0.6924865E-004  0.9118800E+02  0.7818608E-02  0.1130116E+00
         25   -1    0    0    0    0  0.00000000000E+00  0.00000000000E+00  0.99999998245E-14  0.12500000000E+03  0.12500000000E+03 0.  0.
        -13    1    3    3    0    0 -0.28663332186E+02 -0.59361031171E+01 -0.24659342551E+02  0.38274250761E+02  0.10566000000E+00 0.  1.
         23    2    1    0    0    0  0.17943921969E+02 -0.22730997136E+02 -0.23294228240E+02  0.87834106553E+02  0.79583457064E+02 0.  0.
         13    1    3    3    0    0  0.46607254155E+02 -0.16794894019E+02  0.13651143110E+01  0.49559855792E+02  0.10566000000E+00 0. -1.
         22    1    1    0    0    0 -0.17943921969E+02  0.22730997136E+02  0.23294228240E+02  0.37165893447E+02  0.00000000000E+00 0. -1.
</event>
<event>
 5    1  0.6924865E-004  0.9118800E+02  0.7818608E-02  0.1130116E+00
         25   -1    0    0    0    0  0.00000000000E+00  0.00000000000E+00  0.99999998245E-14  0.12500000000E+03  0.12500000000E+03 0.  0.
        -13    1    3    3    0    0 -0.46415924598E+02 -0.98161459376E+01  0.23415157635E+02  0.52906290254E+02  0.10566000000E+00 0. -1.
         23    2    1    0    0    0 -0.73819286704E+01 -0.24948660275E+02  0.56988408628E+01  0.98365336353E+02  0.94690728628E+02 0.  0.
         13    1    3    3    0    0  0.39033995927E+02 -0.15132514338E+02 -0.17716316772E+02  0.45459046099E+02  0.10566000000E+00 0.  1.
         22    1    1    0    0    0  0.73819286704E+01  0.24948660275E+02 -0.56988408628E+01  0.26634663647E+02  0.00000000000E+00 0. -1.
</event>
<event>
 5    1  0.6924865E-004  0.9118800E+02  0.7818608E-02  0.1130116E+00
         25   -1    0    0    0    0  0.00000000000E+00  0.00000000000E+00  0.99999998245E-14  0.12500000000E+03  0.12500000000E+03 0.  0.
        -13    1    3    3    0    0  0.34732075626E+02 -0.21609536821E+02  0.17506682441E+02  0.44494766581E+02  0.10566000000E+00 0.  1.
         23    2    1    0    0    0  0.15550541128E+02  0.52580981280E+01 -0.22995531381E+02  0.96746480064E+02  0.92529022561E+02 0.  0.
         13    1    3    3    0    0 -0.19181534499E+02  0.26867634949E+02 -0.40502213821E+02  0.52251713484E+02  0.10566000000E+00 0. -1.
         22    1    1    0    0    0 -0.15550541128E+02 -0.52580981280E+01  0.22995531381E+02  0.28253519936E+02  0.00000000000E+00 0. -1.
</event>
<event>
 5    1  0.6924865E-004  0.9118800E+02  0.7818608E-02  0.1130116E+00
         25   -1    0    0    0    0  0.00000000000E+00  0.00000000000E+00  0.99999998245E-14  0.12500000000E+03  0.12500000000E+03 0.  0.
        -13    1    3    3    0    0  0.29768011896E+02  0.46642632754E+02  0.41904143677E+01  0.55490904291E+02  0.10566000000E+00 0.  1.
         23    2    1    0    0    0  0.16255291044E+02  0.11613823780E+01  0.13495234801E+02  0.10384096745E+03  0.10166239159E+03 0.  0.
         13    1    3    3    0    0 -0.13512720852E+02 -0.45481250376E+02  0.93048204330E+01  0.48350063163E+02  0.10566000000E+00 0. -1.
         22    1    1    0    0    0 -0.16255291044E+02 -0.11613823780E+01 -0.13495234801E+02  0.21159032546E+02  0.00000000000E+00 0.  1.
</event>
<event>
 5    1  0.6924865E-004  0.9118800E+02  0.7818608E-02  0.1130116E+00
         25   -1    0    0    0    0  0.00000000000E+00  0.00000000000E+00  0.99999998245E-14  0.12500000000E+03  0.12500000000E+03 0.  0.
        -13    1    3    3    0    0  0.25767027522E+02  0.28660328321E+02 -0.19968858709E+02  0.43406458148E+02  0.10566000000E+00 0. -1.
         23    2    1    0    0    0  0.21343798356E+02 -0.19526757358E+02  0.78955770365E+00  0.96060833071E+02  0.91598080044E+02 0.  0.
         13    1    3    3    0    0 -0.44232291660E+01 -0.48187085679E+02  0.20758416413E+02  0.52654374922E+02  0.10566000000E+00 0.  1.
         22    1    1    0    0    0 -0.21343798356E+02  0.19526757358E+02 -0.78955770365E+00  0.28939166929E+02  0.00000000000E+00 0. -1.
</event>
<event>
 5    1  0.6924865E-004  0.9118800E+02  0.7818608E-02  0.1130116E+00
         25   -1    0    0    0    0  0.00000000000E+00  0.00000000000E+00  0.99999998245E-14  0.12500000000E+03  0.12500000000E+03 0.  0.
        -13    1    3    3    0    0  0.44716923801E+02 -0.20864989603E+02  0.23943276866E+02  0.54847449680E+02  0.10566000000E+00 0. -1.
         23    2    1    0    0    0  0.14393909789E+02 -0.24489746703E+02 -0.40878905147E+01  0.96300815666E+02  0.91924990707E+02 0.  0.
         13    1    3    3    0    0 -0.30323014012E+02 -0.36247570997E+01 -0.28031167380E+02  0.41453365986E+02  0.10566000000E+00 0.  1.
         22    1    1    0    0    0 -0.14393909789E+02  0.24489746703E+02  0.40878905147E+01  0.28699184334E+02  0.00000000000E+00 0. -1.
</event>
<event>
 5    1  0.6924865E-004  0.9118800E+02  0.7818608E-02  0.1130116E+00
         25   -1    0    0    0    0  0.00000000000E+00  0.00000000000E+00  0.99999998245E-14  0.12500000000E+03  0.12500000000E+03 0.  0.
        -13    1    3    3    0    0  0.23318578930E+02  0.29900349305E+02  0.25570908883E+02  0.45734774046E+02  0.10566000000E+00 0.  1.
         23    2    1    0    0    0  0.53160847449E+01  0.20375791911E+02 -0.20192127096E+02  0.95825428029E+02  0.91276267492E+02 0.  0.
         13    1    3    3    0    0 -0.18002494185E+02 -0.95245573942E+01 -0.45763035979E+02  0.50090653983E+02  0.10566000000E+00 0. -1.
         22    1    1    0    0    0 -0.53160847449E+01 -0.20375791911E+02  0.20192127096E+02  0.29174571971E+02  0.00000000000E+00 0. -1.
</event>
<event>
 5    1  0.6924865E-004  0.9118800E+02  0.7818608E-02  0.1130116E+00
         25   -1    0    0    0    0  0.00000000000E+00  0.00000000000E+00  0.99999998245E-14  0.12500000000E+03  0.12500000000E+03 0.  0.
        -13    1    3    3    0    0 -0.96307780977E+01 -0.50500722906E+02 -0.10281744450E+02  0.52429002792E+02  0.10566000000E+00 0.  1.
         23    2    1    0    0    0 -0.26472933947E+02 -0.12446005919E+02 -0.10125186252E+02  0.94044569269E+02  0.88803954401E+02 0.  0.
         13    1    3    3    0    0 -0.16842155849E+02  0.38054716988E+02  0.15655819791E+00  0.41615566477E+02  0.10566000000E+00 0. -1.
         22    1    1    0    0    0  0.26472933947E+02  0.12446005919E+02  0.10125186252E+02  0.30955430731E+02  0.00000000000E+00 0.  1.
</event>
<event>
 5    1  0.6924865E-004  0.9118800E+02  0.7818608E-02  0.1130116E+00
         25   -1    0    0    0    0  0.00000000000E+00  0.00000000000E+00  0.99999998245E-14  0.12500000000E+03  0.12500000000E+03 0.  0.
        -13    1    3    3    0    0  0.57095337531E+02 -0.86986801556E+01  0.23476559557E+02  0.62343440848E+02  0.10566000000E+00 0.  1.
         23    2    1    0    0    0  0.25478193957E+02 -0.19862005854E+01  0.13048241858E+02  0.96306098632E+02  0.91932174227E+02 0.  0.
         13    1    3    3    0    0 -0.31617143573E+02  0.67124795702E+01 -0.10428317698E+02  0.33962657784E+02  0.10566000000E+00 0. -1.
         22    1    1    0    0    0 -0.25478193957E+02  0.19862005854E+01 -0.13048241858E+02  0.28693901368E+02  0.00000000000E+00 0.  1.
</event>
<event>
 5    1  0.6924865E-004  0.9118800E+02  0.7818608E-02  0.1130116E+00
         25   -1    0    0    0    0  0.00000000000E+00  0.00000000000E+00  0.99999998245E-14  0.12500000000E+03  0.12500000000E+03 0.  0.
        -13    1    3    3    0    0  0.82776924518E+01 -0.35265913688E+02  0.13780483119E+02  0.38757163720E+02  0.10566000000E+00 0.  1.
         23    2    1    0    0    0 -0.30778643736E+02  0.20451867887E+01  0.16942913144E+01  0.94106985866E+02  0.88891768272E+02 0.  0.
         13    1    3    3    0    0 -0.39056336188E+02  0.37311100477E+02 -0.12086191805E+02  0.55349822146E+02  0.10566000000E+00 0. -1.
         22    1    1    0    0    0  0.30778643736E+02 -0.20451867887E+01 -0.16942913144E+01  0.30893014134E+02  0.00000000000E+00 0. -1.
</event>
<event>
 5    1  0.6924865E-004  0.9118800E+02  0.7818608E-02  0.1130116E+00
         25   -1    0    0    0    0  0.00000000000E+00  0.00000000000E+00  0.99999998245E-14  0.12500000000E+03  0.12500000000E+03 0.  0.
        -13    1    3    3    0    0  0.71439019201E+01  0.29428875631E+02 -0.39632517762E+02  0.49878268652E+02  0.10566000000E+00 0. -1.
         23    2    1    0    0    0 -0.14087969588E+02 -0.83070220271E+01 -0.24091212300E+02  0.95881895457E+02  0.91353565143E+02 0.  0.
         13    1    3    3    0    0 -0.21231871508E+02 -0.37735897658E+02  0.15541305462E+02  0.46003626805E+02  0.10566000000E+00 0.  1.
         22    1    1    0    0    0  0.14087969588E+02  0.83070220271E+01  0.24091212300E+02  0.29118104543E+02  0.00000000000E+00 0.  1.
</event>
<event>
 5    1  0.6924865E-004  0.9118800E+02  0.7818608E-02  0.1130116E+00
         25   -1    0    0    0    0  0.00000000000E+00  0.00000000000E+00  0.99999998245E-14  0.12500000000E+03  0.12500000000E+03 0.  0.
        -13    1    3    3    0    0 -0.21734924963E+01  0.18669661671E+02 -0.22248765018E+02  0.29125573736E+02  0.10566000000E+00 0.  1.
         23    2    1    0    0    0 -0.40668797114E+02 -0.17831149242E+01  0.96770517148E+01  0.83157726073E+02  0.71863979282E+02 0.  0.
         13    1    3    3    0    0 -0.38495304618E+02 -0.20452776596E+02  0.31925816733E+02  0.54032152337E+02  0.10566000000E+00 0. -1.
         22    1    1    0    0    0  0.40668797114E+02  0.17831149242E+01 -0.96770517148E+01  0.41842273927E+02  0.00000000000E+00 0. -1.
</event>
<event>
 5    1  0.6924865E-004  0.9118800E+02  0.7818608E-02  0.1130116E+00
         25   -1    0    0    0    0  0.00000000000E+00  0.00000000000E+00  0.99999998245E-14  0.12500000000E+03  0.12500000000E+03 0.  0.
        -13    1    3    3    0    0 -0.85090592567E+00  0.23621715429E+02 -0.51100268798E+02  0.56302381086E+02  0.10566000000E+00 0. -1.
         23    2    1    0    0    0  0.10731710074E+02 -0.52712374996E+01 -0.26326380942E+02  0.96085749545E+02  0.91632076187E+02 0.  0.
         13    1    3    3    0    0  0.11582616000E+02 -0.28892952929E+02  0.24773887857E+02  0.39783368459E+02  0.10566000000E+00 0.  1.
         22    1    1    0    0    0 -0.10731710074E+02  0.52712374996E+01  0.26326380942E+02  0.28914250455E+02  0.00000000000E+00 0. -1.
</event>
<event>
 5    1  0.6924865E-004  0.9118800E+02  0.7818608E-02  0.1130116E+00
         25   -1    0    0    0    0  0.00000000000E+00  0.00000000000E+00  0.99999998245E-14  0.12500000000E+03  0.12500000000E+03 0.  0.
        -13    1    3    3    0    0 -0.30024737125E+02 -0.15519137066E+02 -0.23958323492E+02  0.41428744650E+02  0.10566000000E+00 0.  1.
         23    2    1    0    0    0  0.11101216461E+02  0.17601752979E+02 -0.22638474915E+02  0.94250052662E+02  0.89092722292E+02 0.  0.
         13    1    3    3    0    0  0.41125953586E+02  0.33120890045E+02  0.13198485767E+01  0.52821308011E+02  0.10566000000E+00 0. -1.
         22    1    1    0    0    0 -0.11101216461E+02 -0.17601752979E+02  0.22638474915E+02  0.30749947338E+02  0.00000000000E+00 0.  1.
</event>
<event>
 5    1  0.6924865E-004  0.9118800E+02  0.7818608E-02  0.1130116E+00
         25   -1    0    0    0    0  0.00000000000E+00  0.00000000000E+00  0.99999998245E-14  0.12500000000E+03  0.12500000000E+03 0.  0.
        -13    1    3    3    0    0 -0.54583720730E+02  0.79249482190E+01 -0.20228205860E+02  0.58748436995E+02  0.10566000000E+00 0.  1.
         23    2    1    0    0    0 -0.29213396888E+02 -0.54275201007E+01  0.22819089055E+01  0.95199200675E+02  0.90414601524E+02 0.  0.
         13    1    3    3    0    0  0.25370323842E+02 -0.13352468320E+02  0.22510114766E+02  0.36450763680E+02  0.10566000000E+00 0. -1.
         22    1    1    0    0    0  0.29213396888E+02  0.54275201007E+01 -0.22819089055E+01  0.29800799325E+02  0.00000000000E+00 0.  1.
</event>
<event>
 5    1  0.6924865E-004  0.9118800E+02  0.7818608E-02  0.1130116E+00
         25   -1    0    0    0    0  0.00000000000E+00  0.00000000000E+00  0.99999998245E-14  0.12500000000E+03  0.12500000000E+03 0.  0.
        -13    1    3    3    0    0 -0.39580232919E+02 -0.13407441575E+02  0.19293274923E+02  0.46028208185E+02  0.10566000000E+00 0. -1.
         23    2    1    0    0    0 -0.44692275751E+01  0.21382167528E+02  0.19886281591E+02  0.95459599210E+02  0.90773893839E+02 0.  0.
         13    1    3    3    0    0  0.35111005344E+02  0.34789609103E+02  0.59300666827E+00  0.49431391025E+02  0.10566000000E+00 0.  1.
         22    1    1    0    0    0  0.44692275751E+01 -0.21382167528E+02 -0.19886281591E+02  0.29540400790E+02  0.00000000000E+00 0.  1.
</event>
<event>
 5    1  0.6924865E-004  0.9118800E+02  0.7818608E-02  0.1130116E+00
         25   -1    0    0    0    0  0.00000000000E+00  0.00000000000E+00  0.99999998245E-14  0.12500000000E+03  0.12500000000E+03 0.  0.
        -13    1    3    3    0    0  0.31023169931E+02 -0.12260830145E+02 -0.10931026314E+02  0.35103611335E+02  0.10566000000E+00 0. -1.
         23    2    1    0    0    0 -0.20346881924E+02  0.20026828741E+02 -0.39626311982E+01  0.96176885674E+02  0.91756315414E+02 0.  0.
         13    1    3    3    0    0 -0.51370051855E+02  0.32287658886E+02  0.69683951161E+01  0.61073274339E+02  0.10566000000E+00 0.  1.
         22    1    1    0    0    0  0.20346881924E+02 -0.20026828741E+02  0.39626311982E+01  0.28823114326E+02  0.00000000000E+00 0.  1.
</event>
<event>
 5    1  0.6924865E-004  0.9118800E+02  0.7818608E-02  0.1130116E+00
         25   -1    0    0    0    0  0.00000000000E+00  0.00000000000E+00  0.99999998245E-14  0.12500000000E+03  0.12500000000E+03 0.  0.
        -13    1    3    3    0    0  0.14617178473E+02 -0.30934723036E+02 -0.37811214001E+02  0.50993313915E+02  0.10566000000E+00 0. -1.
         23    2    1    0    0    0  0.19661023121E+02  0.93849228214E+01 -0.20237237897E+02  0.95264862465E+02  0.90505334739E+02 0.  0.
         13    1    3    3    0    0  0.50438446475E+01  0.40319645857E+02  0.17573976103E+02  0.44271548550E+02  0.10566000000E+00 0.  1.
         22    1    1    0    0    0 -0.19661023121E+02 -0.93849228214E+01  0.20237237897E+02  0.29735137535E+02  0.00000000000E+00 0. -1.
</event>
<event>
 5    1  0.6924865E-004  0.9118800E+02  0.7818608E-02  0.1130116E+00
         25   -1    0    0    0    0  0.00000000000E+00  0.00000000000E+00  0.99999998245E-14  0.12500000000E+03  0.12500000000E+03 0.  0.
        -13    1    3    3    0    0 -0.26020734420E+02 -0.30194313679E+02  0.33149072744E+02  0.51842524882E+02  0.10566000000E+00 0. -1.
         23    2    1    0    0    0 -0.51198169907E+01  0.88922457026E+01  0.26398271362E+02  0.96677689174E+02  0.92436044341E+02 0.  0.
         13    1    3    3    0    0  0.20900917430E+02  0.39086559382E+02 -0.67508013824E+01  0.44835164291E+02  0.10566000000E+00 0.  1.
         22    1    1    0    0    0  0.51198169907E+01 -0.88922457026E+01 -0.26398271362E+02  0.28322310826E+02  0.00000000000E+00 0. -1.
</event>
<event>
 5    1  0.6924865E-004  0.9118800E+02  0.7818608E-02  0.1130116E+00
         25   -1    0    0    0    0  0.00000000000E+00  0.00000000000E+00  0.99999998245E-14  0.12500000000E+03  0.12500000000E+03 0.  0.
        -13    1    3    3    0    0 -0.31407586637E+02  0.40536739627E+01 -0.21721653681E+02  0.38401955336E+02  0.10566000000E+00 0.  1.
         23    2    1    0    0    0  0.75115467840E+01  0.29343820019E+02  0.81931507054E+01  0.93621491003E+02  0.88206421256E+02 0.  0.
         13    1    3    3    0    0  0.38919133421E+02  0.25290146056E+02  0.29914804386E+02  0.55219535667E+02  0.10566000000E+00 0. -1.
         22    1    1    0    0    0 -0.75115467840E+01 -0.29343820019E+02 -0.81931507054E+01  0.31378508997E+02  0.00000000000E+00 0. -1.
</event>
<event>
 5    1  0.6924865E-004  0.9118800E+02  0.7818608E-02  0.1130116E+00
         25   -1    0    0    0    0  0.00000000000E+00  0.00000000000E+00  0.99999998245E-14  0.12500000000E+03  0.12500000000E+03 0.  0.
        -13    1    3    3    0    0 -0.26725489993E+02 -0.18599238215E+02  0.15791757809E+02  0.36188040238E+02  0.10566000000E+00 0. -1.
         23    2    1    0    0    0  0.12762714990E+02  0.25227177711E+02  0.28352946769E+01  0.96586336296E+02  0.92312426433E+02 0.  0.
         13    1    3    3    0    0  0.39488204983E+02  0.43826415926E+02 -0.12956463132E+02  0.60398296058E+02  0.10566000000E+00 0.  1.
         22    1    1    0    0    0 -0.12762714990E+02 -0.25227177711E+02 -0.28352946769E+01  0.28413663704E+02  0.00000000000E+00 0.  1.
</event>
<event>
 5    1  0.6924865E-004  0.9118800E+02  0.7818608E-02  0.1130116E+00
         25   -1    0    0    0    0  0.00000000000E+00  0.00000000000E+00  0.99999998245E-14  0.12500000000E+03  0.12500000000E+03 0.  0.
        -13    1    3    3    0    0 -0.32367228507E+02 -0.94433529504E+01 -0.47896017615E+02  0.58573492841E+02  0.10566000000E+00 0.  1.
         23    2    1    0    0    0 -0.95380666139E+01 -0.18820352323E+02 -0.18667649991E+02  0.96828000914E+02  0.92639085858E+02 0.  0.
         13    1    3    3    0    0  0.22829161893E+02 -0.93769993721E+01  0.29228367624E+02  0.38254508074E+02  0.10566000000E+00 0. -1.
         22    1    1    0    0    0  0.95380666139E+01  0.18820352323E+02  0.18667649991E+02  0.28171999086E+02  0.00000000000E+00 0.  1.
</event>
<event>
 5    1  0.6924865E-004  0.9118800E+02  0.7818608E-02  0.1130116E+00
         25   -1    0    0    0    0  0.00000000000E+00  0.00000000000E+00  0.99999998245E-14  0.12500000000E+03  0.12500000000E+03 0.  0.
        -13    1    3    3    0    0 -0.75896199212E+01 -0.32510714901E+02  0.34607618578E+02  0.48085833065E+02  0.10566000000E+00 0. -1.
         23    2    1    0    0    0 -0.19588988295E+02  0.94068351501E+01  0.23320129477E+02  0.93124532180E+02  0.87499331683E+02 0.  0.
         13    1    3    3    0    0 -0.11999368373E+02  0.41917550051E+02 -0.11287489101E+02  0.45038699114E+02  0.10566000000E+00 0.  1.
         22    1    1    0    0    0  0.19588988295E+02 -0.94068351501E+01 -0.23320129477E+02  0.31875467820E+02  0.00000000000E+00 0.  1.
</event>
<event>
 5    1  0.6924865E-004  0.9118800E+02  0.7818608E-02  0.1130116E+00
         25   -1    0    0    0    0  0.00000000000E+00  0.00000000000E+00  0.99999998245E-14  0.12500000000E+03  0.12500000000E+03 0.  0.
        -13    1    3    3    0    0 -0.46197131242E+02 -0.15386196814E+02  0.12929736162E+02  0.50379551691E+02  0.10566000000E+00 0. -1.
         23    2    1    0    0    0 -0.91265192737E+01 -0.16929363036E+02 -0.17980792057E+02  0.98671202651E+02  0.95093641548E+02 0.  0.
         13    1    3    3    0    0  0.37070611968E+02 -0.15431662222E+01 -0.30910528218E+02  0.48291650960E+02  0.10566000000E+00 0.  1.
         22    1    1    0    0    0  0.91265192737E+01  0.16929363036E+02  0.17980792057E+02  0.26328797349E+02  0.00000000000E+00 0. -1.
</event>
<event>
 5    1  0.6924865E-004  0.9118800E+02  0.7818608E-02  0.1130116E+00
         25   -1    0    0    0    0  0.00000000000E+00  0.00000000000E+00  0.99999998245E-14  0.12500000000E+03  0.12500000000E+03 0.  0.
        -13    1    3    3    0    0  0.33754859695E+02 -0.46918893299E+01 -0.33433641860E+01  0.34243154449E+02  0.10566000000E+00 0.  1.
         23    2    1    0    0    0 -0.18209704027E+02 -0.20974416489E+02  0.17068112258E+02  0.92398774197E+02  0.86456310060E+02 0.  0.
         13    1    3    3    0    0 -0.51964563722E+02 -0.16282527159E+02  0.20411476444E+02  0.58155619747E+02  0.10566000000E+00 0. -1.
         22    1    1    0    0    0  0.18209704027E+02  0.20974416489E+02 -0.17068112258E+02  0.32601225803E+02  0.00000000000E+00 0. -1.
</event>
<event>
 5    1  0.6924865E-004  0.9118800E+02  0.7818608E-02  0.1130116E+00
         25   -1    0    0    0    0  0.00000000000E+00  0.00000000000E+00  0.99999998245E-14  0.12500000000E+03  0.12500000000E+03 0.  0.
        -13    1    3    3    0    0  0.73210639259E+00 -0.46456656214E+02  0.30151538356E+02  0.55388476379E+02  0.10566000000E+00 0.  1.
         23    2    1    0    0    0  0.86324036552E+01 -0.80291211488E+01  0.27931300437E+02  0.94682633304E+02  0.89697593759E+02 0.  0.
         13    1    3    3    0    0  0.79002972626E+01  0.38427535065E+02 -0.22202379196E+01  0.39294156925E+02  0.10566000000E+00 0. -1.
         22    1    1    0    0    0 -0.86324036552E+01  0.80291211488E+01 -0.27931300437E+02  0.30317366696E+02  0.00000000000E+00 0.  1.
</event>
<event>
 5    1  0.6924865E-004  0.9118800E+02  0.7818608E-02  0.1130116E+00
         25   -1    0    0    0    0  0.00000000000E+00  0.00000000000E+00  0.99999998245E-14  0.12500000000E+03  0.12500000000E+03 0.  0.
        -13    1    3    3    0    0 -0.11427374178E+01 -0.31556497532E+02  0.31941105069E+01  0.31738492265E+02  0.10566000000E+00 0. -1.
         23    2    1    0    0    0  0.71502726595E+01  0.30126121499E+02  0.15622549707E+01  0.93997576929E+02  0.88737783566E+02 0.  0.
         13    1    3    3    0    0  0.82930100774E+01  0.61682619031E+02 -0.16318555362E+01  0.62259084664E+02  0.10566000000E+00 0.  1.
         22    1    1    0    0    0 -0.71502726595E+01 -0.30126121499E+02 -0.15622549707E+01  0.31002423071E+02  0.00000000000E+00 0.  1.
</event>
<event>
 5    1  0.6924865E-004  0.9118800E+02  0.7818608E-02  0.1130116E+00
         25   -1    0    0    0    0  0.00000000000E+00  0.00000000000E+00  0.99999998245E-14  0.12500000000E+03  0.12500000000E+03 0.  0.
        -13    1    3    3    0    0 -0.26171523456E+02  0.12382057044E+02  0.43449855069E+02  0.52212690471E+02  0.10566000000E+00 0.  1.
         23    2    1    0    0    0  0.20164853679E+01  0.26466091318E+02  0.15966403047E+02  0.94025070957E+02  0.88776504433E+02 0.  0.
         13    1    3    3    0    0  0.28188008824E+02  0.14084034274E+02 -0.27483452021E+02  0.41812380487E+02  0.10566000000E+00 0. -1.
         22    1    1    0    0    0 -0.20164853679E+01 -0.26466091318E+02 -0.15966403047E+02  0.30974929043E+02  0.00000000000E+00 0. -1.
</event>
<event>
 5    1  0.6924865E-004  0.9118800E+02  0.7818608E-02  0.1130116E+00
         25   -1    0    0    0    0  0.00000000000E+00  0.00000000000E+00  0.99999998245E-14  0.12500000000E+03  0.12500000000E+03 0.  0.
        -13    1    3    3    0    0 -0.42791590373E+02 -0.14314327336E+02  0.35477629245E+02  0.57399420856E+02  0.10566000000E+00 0.  1.
         23    2    1    0    0    0 -0.25483719436E+02  0.87021602345E+01  0.87603326579E+01  0.96682320410E+02  0.92442306887E+02 0.  0.
         13    1    3    3    0    0  0.17307870936E+02  0.23016487570E+02 -0.26717296587E+02  0.39282899554E+02  0.10566000000E+00 0. -1.
         22    1    1    0    0    0  0.25483719436E+02 -0.87021602345E+01 -0.87603326579E+01  0.28317679590E+02  0.00000000000E+00 0.  1.
</event>
<event>
 5    1  0.6924865E-004  0.9118800E+02  0.7818608E-02  0.1130116E+00
         25   -1    0    0    0    0  0.00000000000E+00  0.00000000000E+00  0.99999998245E-14  0.12500000000E+03  0.12500000000E+03 0.  0.
        -13    1    3    3    0    0  0.11064194065E+02 -0.45230558980E+02  0.97430083027E+00  0.46574459547E+02  0.10566000000E+00 0.  1.
         23    2    1    0    0    0  0.23927746940E+02 -0.10945460908E+01 -0.16670833169E+02  0.95816926424E+02  0.91264624067E+02 0.  0.
         13    1    3    3    0    0  0.12863552874E+02  0.44136012889E+02 -0.17645133999E+02  0.49242466878E+02  0.10566000000E+00 0. -1.
         22    1    1    0    0    0 -0.23927746940E+02  0.10945460908E+01  0.16670833169E+02  0.29183073576E+02  0.00000000000E+00 0.  1.
</event>
<event>
 5    1  0.6924865E-004  0.9118800E+02  0.7818608E-02  0.1130116E+00
         25   -1    0    0    0    0  0.00000000000E+00  0.00000000000E+00  0.99999998245E-14  0.12500000000E+03  0.12500000000E+03 0.  0.
        -13    1    3    3    0    0  0.14649128016E+02  0.56095014471E+02 -0.16485348228E+02  0.60274583950E+02  0.10566000000E+00 0.  1.
         23    2    1    0    0    0  0.17601013548E+02  0.21127690650E+02 -0.71365812499E+01  0.96590392786E+02  0.92317919152E+02 0.  0.
         13    1    3    3    0    0  0.29518855316E+01 -0.34967323821E+02  0.93487669783E+01  0.36315808836E+02  0.10566000000E+00 0. -1.
         22    1    1    0    0    0 -0.17601013548E+02 -0.21127690650E+02  0.71365812499E+01  0.28409607214E+02  0.00000000000E+00 0.  1.
</event>
<event>
 5    1  0.6924865E-004  0.9118800E+02  0.7818608E-02  0.1130116E+00
         25   -1    0    0    0    0  0.00000000000E+00  0.00000000000E+00  0.99999998245E-14  0.12500000000E+03  0.12500000000E+03 0.  0.
        -13    1    3    3    0    0  0.18471992095E+02  0.35131956038E+01 -0.47503852648E+02  0.51089961987E+02  0.10566000000E+00 0.  1.
         23    2    1    0    0    0  0.19906611669E+01  0.25994574904E+02 -0.11810125596E+02  0.96379033509E+02  0.92031290207E+02 0.  0.
         13    1    3    3    0    0 -0.16481330928E+02  0.22481379300E+02  0.35693727053E+02  0.45289071522E+02  0.10566000000E+00 0. -1.
         22    1    1    0    0    0 -0.19906611669E+01 -0.25994574904E+02  0.11810125596E+02  0.28620966491E+02  0.00000000000E+00 0.  1.
</event>
<event>
 5    1  0.6924865E-004  0.9118800E+02  0.7818608E-02  0.1130116E+00
         25   -1    0    0    0    0  0.00000000000E+00  0.00000000000E+00  0.99999998245E-14  0.12500000000E+03  0.12500000000E+03 0.  0.
        -13    1    3    3    0    0  0.22737371201E+02 -0.39201154087E+02 -0.29318375266E+02  0.53974964781E+02  0.10566000000E+00 0.  1.
         23    2    1    0    0    0 -0.72791044514E+01 -0.28302151135E+02 -0.25115050929E+01  0.95669047436E+02  0.91061857322E+02 0.  0.
         13    1    3    3    0    0 -0.30016475652E+02  0.10899002952E+02  0.26806870173E+02  0.41694082655E+02  0.10566000000E+00 0. -1.
         22    1    1    0    0    0  0.72791044514E+01  0.28302151135E+02  0.25115050929E+01  0.29330952564E+02  0.00000000000E+00 0.  1.
</event>
<event>
 5    1  0.6924865E-004  0.9118800E+02  0.7818608E-02  0.1130116E+00
         25   -1    0    0    0    0  0.00000000000E+00  0.00000000000E+00  0.99999998245E-14  0.12500000000E+03  0.12500000000E+03 0.  0.
        -13    1    3    3    0    0  0.48096652205E+02 -0.34073918610E+02  0.19417261711E+02  0.62059335310E+02  0.10566000000E+00 0. -1.
         23    2    1    0    0    0  0.18980548539E+02 -0.18685429990E+02  0.11838457881E+02  0.95852862890E+02  0.91313830948E+02 0.  0.
         13    1    3    3    0    0 -0.29116103666E+02  0.15388488620E+02 -0.75788038301E+01  0.33793527579E+02  0.10566000000E+00 0.  1.
         22    1    1    0    0    0 -0.18980548539E+02  0.18685429990E+02 -0.11838457881E+02  0.29147137110E+02  0.00000000000E+00 0. -1.
</event>
<event>
 5    1  0.6924865E-004  0.9118800E+02  0.7818608E-02  0.1130116E+00
         25   -1    0    0    0    0  0.00000000000E+00  0.00000000000E+00  0.99999998245E-14  0.12500000000E+03  0.12500000000E+03 0.  0.
        -13    1    3    3    0    0  0.19382119740E+02 -0.38919581149E+02 -0.37968580225E+02  0.57723691937E+02  0.10566000000E+00 0. -1.
         23    2    1    0    0    0 -0.29353417230E+01 -0.27759650706E+02 -0.96558322382E+01  0.95462743280E+02  0.90778223269E+02 0.  0.
         13    1    3    3    0    0 -0.22317461463E+02  0.11159930443E+02  0.28312747987E+02  0.37739051343E+02  0.10566000000E+00 0.  1.
         22    1    1    0    0    0  0.29353417230E+01  0.27759650706E+02  0.96558322382E+01  0.29537256720E+02  0.00000000000E+00 0. -1.
</event>
<event>
 4    1  0.6924865E-004  0.9118800E+02  0.7818608E-02  0.1130116E+00
         25   -1    0    0    0    0  0.00000000000E+00  0.00000000000E+00  0.99999998245E-14  0.12500000000E+03  0.12500000000E+03 0.  0.
        -13    1    1    0    0    0  0.37061055923E+02 -0.32248204658E+01 -0.29361860312E+02  0.47392524074E+02  0.10566000000E+00 0.  1.
         13    1    1    0    0    0  0.15053415725E+02 -0.32496343329E+01  0.18339402682E+02  0.23948075143E+02  0.10566000000E+00 0. -1.
         22    1    1    0    0    0 -0.52114471648E+02  0.64744547988E+01  0.11022457629E+02  0.53659400782E+02  0.00000000000E+00 0.  1.
</event>
<event>
 5    1  0.6924865E-004  0.9118800E+02  0.7818608E-02  0.1130116E+00
         25   -1    0    0    0    0  0.00000000000E+00  0.00000000000E+00  0.99999998245E-14  0.12500000000E+03  0.12500000000E+03 0.  0.
        -13    1    3    3    0    0  0.17313237425E+02  0.24977894725E+02 -0.36615719639E+02  0.47585349675E+02  0.10566000000E+00 0.  1.
         23    2    1    0    0    0  0.28511818485E+02 -0.79152822378E+01 -0.41855236221E+01  0.95115320075E+02  0.90298560447E+02 0.  0.
         13    1    3    3    0    0  0.11198581061E+02 -0.32893176963E+02  0.32430196017E+02  0.47529970400E+02  0.10566000000E+00 0. -1.
         22    1    1    0    0    0 -0.28511818485E+02  0.79152822378E+01  0.41855236221E+01  0.29884679925E+02  0.00000000000E+00 0. -1.
</event>
<event>
 5    1  0.6924865E-004  0.9118800E+02  0.7818608E-02  0.1130116E+00
         25   -1    0    0    0    0  0.00000000000E+00  0.00000000000E+00  0.99999998245E-14  0.12500000000E+03  0.12500000000E+03 0.  0.
        -13    1    3    3    0    0 -0.19529560301E+02  0.26240313236E+02  0.17769671110E+01  0.32758610173E+02  0.10566000000E+00 0. -1.
         23    2    1    0    0    0  0.17203235054E+02 -0.18239490342E+02  0.19643523716E+02  0.93148809626E+02  0.87534007142E+02 0.  0.
         13    1    3    3    0    0  0.36732795356E+02 -0.44479803578E+02  0.17866556605E+02  0.60390199453E+02  0.10566000000E+00 0.  1.
         22    1    1    0    0    0 -0.17203235054E+02  0.18239490342E+02 -0.19643523716E+02  0.31851190374E+02  0.00000000000E+00 0.  1.
</event>
<event>
 5    1  0.6924865E-004  0.9118800E+02  0.7818608E-02  0.1130116E+00
         25   -1    0    0    0    0  0.00000000000E+00  0.00000000000E+00  0.99999998245E-14  0.12500000000E+03  0.12500000000E+03 0.  0.
        -13    1    3    3    0    0 -0.20996447042E+02  0.38151196809E+02 -0.29917821345E+02  0.52834191622E+02  0.10566000000E+00 0. -1.
         23    2    1    0    0    0  0.15544318122E+02  0.12828554633E+02 -0.15511479834E+02  0.99567665335E+02  0.96264823969E+02 0.  0.
         13    1    3    3    0    0  0.36540765164E+02 -0.25322642175E+02  0.14406341511E+02  0.46733473713E+02  0.10566000000E+00 0.  1.
         22    1    1    0    0    0 -0.15544318122E+02 -0.12828554633E+02  0.15511479834E+02  0.25432334665E+02  0.00000000000E+00 0.  1.
</event>
<event>
 5    1  0.6924865E-004  0.9118800E+02  0.7818608E-02  0.1130116E+00
         25   -1    0    0    0    0  0.00000000000E+00  0.00000000000E+00  0.99999998245E-14  0.12500000000E+03  0.12500000000E+03 0.  0.
        -13    1    3    3    0    0 -0.27077765117E+02 -0.30230532585E+02  0.59267089526E+01  0.41014966867E+02  0.10566000000E+00 0.  1.
         23    2    1    0    0    0  0.17888442206E+02 -0.53733469973E+01  0.23195744651E+02  0.95218935673E+02  0.90441881440E+02 0.  0.
         13    1    3    3    0    0  0.44966207323E+02  0.24857185588E+02  0.17269035698E+02  0.54203968806E+02  0.10566000000E+00 0. -1.
         22    1    1    0    0    0 -0.17888442206E+02  0.53733469973E+01 -0.23195744651E+02  0.29781064327E+02  0.00000000000E+00 0. -1.
</event>
<event>
 5    1  0.6924865E-004  0.9118800E+02  0.7818608E-02  0.1130116E+00
         25   -1    0    0    0    0  0.00000000000E+00  0.00000000000E+00  0.99999998245E-14  0.12500000000E+03  0.12500000000E+03 0.  0.
        -13    1    3    3    0    0 -0.21427764478E+02  0.31545843239E+02 -0.24553526312E+02  0.45356103609E+02  0.10566000000E+00 0. -1.
         23    2    1    0    0    0  0.95296823480E+01  0.24306178921E+02  0.14038469208E+02  0.95357398949E+02  0.90633049917E+02 0.  0.
         13    1    3    3    0    0  0.30957446826E+02 -0.72396643185E+01  0.38591995519E+02  0.50001295340E+02  0.10566000000E+00 0.  1.
         22    1    1    0    0    0 -0.95296823480E+01 -0.24306178921E+02 -0.14038469208E+02  0.29642601051E+02  0.00000000000E+00 0.  1.
</event>
<event>
 5    1  0.6924865E-004  0.9118800E+02  0.7818608E-02  0.1130116E+00
         25   -1    0    0    0    0  0.00000000000E+00  0.00000000000E+00  0.99999998245E-14  0.12500000000E+03  0.12500000000E+03 0.  0.
        -13    1    3    3    0    0 -0.49284073338E+02  0.53924665300E+01  0.44947911847E+01  0.49781652162E+02  0.10566000000E+00 0.  1.
         23    2    1    0    0    0 -0.68866996349E+01  0.26659374415E+02 -0.37144651088E+00  0.97462991292E+02  0.93491966623E+02 0.  0.
         13    1    3    3    0    0  0.42397373704E+02  0.21266907885E+02 -0.48662376956E+01  0.47681339131E+02  0.10566000000E+00 0. -1.
         22    1    1    0    0    0  0.68866996349E+01 -0.26659374415E+02  0.37144651088E+00  0.27537008708E+02  0.00000000000E+00 0. -1.
</event>
<event>
 5    1  0.6924865E-004  0.9118800E+02  0.7818608E-02  0.1130116E+00
         25   -1    0    0    0    0  0.00000000000E+00  0.00000000000E+00  0.99999998245E-14  0.12500000000E+03  0.12500000000E+03 0.  0.
        -13    1    3    3    0    0  0.26188204029E+01  0.22076408929E+01  0.46851211792E+02  0.46976367559E+02  0.10566000000E+00 0.  1.
         23    2    1    0    0    0  0.14219243459E+02  0.25233760449E+02  0.57881685378E+01  0.95463032553E+02  0.90778621593E+02 0.  0.
         13    1    3    3    0    0  0.11600423056E+02  0.23026119556E+02 -0.41063043255E+02  0.48486664994E+02  0.10566000000E+00 0. -1.
         22    1    1    0    0    0 -0.14219243459E+02 -0.25233760449E+02 -0.57881685378E+01  0.29536967447E+02  0.00000000000E+00 0.  1.
</event>
<event>
 5    1  0.6924865E-004  0.9118800E+02  0.7818608E-02  0.1130116E+00
         25   -1    0    0    0    0  0.00000000000E+00  0.00000000000E+00  0.99999998245E-14  0.12500000000E+03  0.12500000000E+03 0.  0.
        -13    1    3    3    0    0 -0.18766910624E+02 -0.27550987585E+02  0.14927517610E+02  0.36525276143E+02  0.10566000000E+00 0. -1.
         23    2    1    0    0    0 -0.12561860569E+02  0.12976677292E+02 -0.25267259752E+02  0.93941524347E+02  0.88658790239E+02 0.  0.
         13    1    3    3    0    0  0.62050500548E+01  0.40527664877E+02 -0.40194777362E+02  0.57416248204E+02  0.10566000000E+00 0.  1.
         22    1    1    0    0    0  0.12561860569E+02 -0.12976677292E+02  0.25267259752E+02  0.31058475653E+02  0.00000000000E+00 0.  1.
</event>
<event>
 5    1  0.6924865E-004  0.9118800E+02  0.7818608E-02  0.1130116E+00
         25   -1    0    0    0    0  0.00000000000E+00  0.00000000000E+00  0.99999998245E-14  0.12500000000E+03  0.12500000000E+03 0.  0.
        -13    1    3    3    0    0 -0.77037025836E+01 -0.34705411215E+02  0.39512192612E+02  0.53151078353E+02  0.10566000000E+00 0. -1.
         23    2    1    0    0    0 -0.11914009558E+02  0.48809622505E+01  0.27339871473E+02  0.94780205354E+02  0.89833464469E+02 0.  0.
         13    1    3    3    0    0 -0.42103069748E+01  0.39586373465E+02 -0.12172321138E+02  0.41629127001E+02  0.10566000000E+00 0.  1.
         22    1    1    0    0    0  0.11914009558E+02 -0.48809622505E+01 -0.27339871473E+02  0.30219794646E+02  0.00000000000E+00 0. -1.
</event>
<event>
 5    1  0.6924865E-004  0.9118800E+02  0.7818608E-02  0.1130116E+00
         25   -1    0    0    0    0  0.00000000000E+00  0.00000000000E+00  0.99999998245E-14  0.12500000000E+03  0.12500000000E+03 0.  0.
        -13    1    3    3    0    0  0.29593381000E+02  0.22523024234E+02  0.14269836364E+02  0.39833330435E+02  0.10566000000E+00 0.  1.
         23    2    1    0    0    0 -0.20014760145E+02 -0.57037650932E+01  0.18618924660E+02  0.97075317094E+02  0.92972196239E+02 0.  0.
         13    1    3    3    0    0 -0.49608141145E+02 -0.28226789327E+02  0.43490882960E+01  0.57241986659E+02  0.10566000000E+00 0. -1.
         22    1    1    0    0    0  0.20014760145E+02  0.57037650932E+01 -0.18618924660E+02  0.27924682906E+02  0.00000000000E+00 0. -1.
</event>
<event>
 5    1  0.6924865E-004  0.9118800E+02  0.7818608E-02  0.1130116E+00
         25   -1    0    0    0    0  0.00000000000E+00  0.00000000000E+00  0.99999998245E-14  0.12500000000E+03  0.12500000000E+03 0.  0.
        -13    1    3    3    0    0  0.27260311023E+02  0.28153690787E+02 -0.18733144921E+02  0.43436122579E+02  0.10566000000E+00 0.  1.
         23    2    1    0    0    0  0.29848074011E+02 -0.42222266845E+01  0.15901929925E+02  0.90917657128E+02  0.84287687606E+02 0.  0.
         13    1    3    3    0    0  0.25877629879E+01 -0.32375917472E+02  0.34635074847E+02  0.47481534549E+02  0.10566000000E+00 0. -1.
         22    1    1    0    0    0 -0.29848074011E+02  0.42222266845E+01 -0.15901929925E+02  0.34082342872E+02  0.00000000000E+00 0. -1.
</event>
<event>
 5    1  0.6924865E-004  0.9118800E+02  0.7818608E-02  0.1130116E+00
         25   -1    0    0    0    0  0.00000000000E+00  0.00000000000E+00  0.99999998245E-14  0.12500000000E+03  0.12500000000E+03 0.  0.
        -13    1    3    3    0    0  0.31554511288E+01 -0.13539047785E+02  0.32269118122E+02  0.35136445966E+02  0.10566000000E+00 0. -1.
         23    2    1    0    0    0  0.18033156452E+02  0.80909843819E+01 -0.22002025696E+02  0.95423862751E+02  0.90724669675E+02 0.  0.
         13    1    3    3    0    0  0.14877705323E+02  0.21630032167E+02 -0.54271143817E+02  0.60287416784E+02  0.10566000000E+00 0.  1.
         22    1    1    0    0    0 -0.18033156452E+02 -0.80909843819E+01  0.22002025696E+02  0.29576137249E+02  0.00000000000E+00 0.  1.
</event>
<event>
 5    1  0.6924865E-004  0.9118800E+02  0.7818608E-02  0.1130116E+00
         25   -1    0    0    0    0  0.00000000000E+00  0.00000000000E+00  0.99999998245E-14  0.12500000000E+03  0.12500000000E+03 0.  0.
        -13    1    3    3    0    0 -0.29551420030E+02 -0.19562545700E+02 -0.29289986507E+02  0.45977104015E+02  0.10566000000E+00 0.  1.
         23    2    1    0    0    0  0.17173617592E+02 -0.20230211465E+02 -0.12862081280E+02  0.95510548802E+02  0.90844026774E+02 0.  0.
         13    1    3    3    0    0  0.46725037621E+02 -0.66766576521E+00  0.16427905227E+02  0.49533444787E+02  0.10566000000E+00 0. -1.
         22    1    1    0    0    0 -0.17173617592E+02  0.20230211465E+02  0.12862081280E+02  0.29489451198E+02  0.00000000000E+00 0.  1.
</event>
<event>
 5    1  0.6924865E-004  0.9118800E+02  0.7818608E-02  0.1130116E+00
         25   -1    0    0    0    0  0.00000000000E+00  0.00000000000E+00  0.99999998245E-14  0.12500000000E+03  0.12500000000E+03 0.  0.
        -13    1    3    3    0    0  0.14276589412E+02  0.20770484593E+02  0.57177604619E+02  0.62486187830E+02  0.10566000000E+00 0. -1.
         23    2    1    0    0    0  0.81047869082E+01  0.13368431515E+02  0.35642711950E+02  0.86079498369E+02  0.76778086668E+02 0.  0.
         13    1    3    3    0    0 -0.61718025038E+01 -0.74020530779E+01 -0.21534892669E+02  0.23593310539E+02  0.10566000000E+00 0.  1.
         22    1    1    0    0    0 -0.81047869082E+01 -0.13368431515E+02 -0.35642711950E+02  0.38920501631E+02  0.00000000000E+00 0. -1.
</event>
<event>
 5    1  0.6924865E-004  0.9118800E+02  0.7818608E-02  0.1130116E+00
         25   -1    0    0    0    0  0.00000000000E+00  0.00000000000E+00  0.99999998245E-14  0.12500000000E+03  0.12500000000E+03 0.  0.
        -13    1    3    3    0    0 -0.26780174466E+02 -0.45189286891E+02  0.31847896011E+02  0.61429219745E+02  0.10566000000E+00 0. -1.
         23    2    1    0    0    0 -0.52389849359E+01 -0.24832576288E+02  0.14593640331E+02  0.95724102979E+02  0.91137400362E+02 0.  0.
         13    1    3    3    0    0  0.21541189530E+02  0.20356710603E+02 -0.17254255680E+02  0.34294883234E+02  0.10566000000E+00 0.  1.
         22    1    1    0    0    0  0.52389849359E+01  0.24832576288E+02 -0.14593640331E+02  0.29275897021E+02  0.00000000000E+00 0. -1.
</event>
<event>
 5    1  0.6924865E-004  0.9118800E+02  0.7818608E-02  0.1130116E+00
         25   -1    0    0    0    0  0.00000000000E+00  0.00000000000E+00  0.99999998245E-14  0.12500000000E+03  0.12500000000E+03 0.  0.
        -13    1    3    3    0    0 -0.13498623004E+02  0.30500981852E+02  0.46466667029E+02  0.57198645314E+02  0.10566000000E+00 0. -1.
         23    2    1    0    0    0  0.70202063793E+01  0.30339789579E+01  0.27658072807E+02  0.96304053992E+02  0.91929394091E+02 0.  0.
         13    1    3    3    0    0  0.20518829383E+02 -0.27467002894E+02 -0.18808594222E+02  0.39105408678E+02  0.10566000000E+00 0.  1.
         22    1    1    0    0    0 -0.70202063793E+01 -0.30339789579E+01 -0.27658072807E+02  0.28695946008E+02  0.00000000000E+00 0. -1.
</event>
<event>
 5    1  0.6924865E-004  0.9118800E+02  0.7818608E-02  0.1130116E+00
         25   -1    0    0    0    0  0.00000000000E+00  0.00000000000E+00  0.99999998245E-14  0.12500000000E+03  0.12500000000E+03 0.  0.
        -13    1    3    3    0    0 -0.21378562386E+02 -0.13030156533E+02  0.56464847289E+02  0.61766641906E+02  0.10566000000E+00 0. -1.
         23    2    1    0    0    0 -0.14413619828E+02 -0.10479421968E+01  0.25552485237E+02  0.95643908278E+02  0.91027342428E+02 0.  0.
         13    1    3    3    0    0  0.69649425581E+01  0.11982214336E+02 -0.30912362051E+02  0.33877266372E+02  0.10566000000E+00 0.  1.
         22    1    1    0    0    0  0.14413619828E+02  0.10479421968E+01 -0.25552485237E+02  0.29356091722E+02  0.00000000000E+00 0. -1.
</event>
<event>
 5    1  0.6924865E-004  0.9118800E+02  0.7818608E-02  0.1130116E+00
         25   -1    0    0    0    0  0.00000000000E+00  0.00000000000E+00  0.99999998245E-14  0.12500000000E+03  0.12500000000E+03 0.  0.
        -13    1    3    3    0    0 -0.90842319808E+00 -0.60563365300E+02  0.69246574327E+01  0.60964813571E+02  0.10566000000E+00 0.  1.
         23    2    1    0    0    0 -0.10223864626E+02 -0.30306535543E+02  0.42097186789E+01  0.92739571672E+02  0.86947644696E+02 0.  0.
         13    1    3    3    0    0 -0.93154414283E+01  0.30256829757E+02 -0.27149387537E+01  0.31774758101E+02  0.10566000000E+00 0. -1.
         22    1    1    0    0    0  0.10223864626E+02  0.30306535543E+02 -0.42097186789E+01  0.32260428328E+02  0.00000000000E+00 0.  1.
</event>
<event>
 5    1  0.6924865E-004  0.9118800E+02  0.7818608E-02  0.1130116E+00
         25   -1    0    0    0    0  0.00000000000E+00  0.00000000000E+00  0.99999998245E-14  0.12500000000E+03  0.12500000000E+03 0.  0.
        -13    1    3    3    0    0  0.20495165784E+02 -0.23643055178E+02 -0.13921904028E+02  0.34247283899E+02  0.10566000000E+00 0. -1.
         23    2    1    0    0    0 -0.27282626758E+02  0.12055243655E+02 -0.17268131989E+01  0.95122709189E+02  0.90308788593E+02 0.  0.
         13    1    3    3    0    0 -0.47777792542E+02  0.35698298834E+02  0.12195090829E+02  0.60875425289E+02  0.10566000000E+00 0.  1.
         22    1    1    0    0    0  0.27282626758E+02 -0.12055243655E+02  0.17268131989E+01  0.29877290811E+02  0.00000000000E+00 0.  1.
</event>
<event>
 5    1  0.6924865E-004  0.9118800E+02  0.7818608E-02  0.1130116E+00
         25   -1    0    0    0    0  0.00000000000E+00  0.00000000000E+00  0.99999998245E-14  0.12500000000E+03  0.12500000000E+03 0.  0.
        -13    1    3    3    0    0  0.21531899613E+02 -0.32291610850E+02  0.12534683210E+02  0.40786030445E+02  0.10566000000E+00 0. -1.
         23    2    1    0    0    0 -0.67217628115E+00  0.16554518903E+02  0.24177086183E+02  0.95690694083E+02  0.91091566682E+02 0.  0.
         13    1    3    3    0    0 -0.22204075895E+02  0.48846129753E+02  0.11642402973E+02  0.54904663637E+02  0.10566000000E+00 0.  1.
         22    1    1    0    0    0  0.67217628115E+00 -0.16554518903E+02 -0.24177086183E+02  0.29309305917E+02  0.00000000000E+00 0.  1.
</event>
<event>
 5    1  0.6924865E-004  0.9118800E+02  0.7818608E-02  0.1130116E+00
         25   -1    0    0    0    0  0.00000000000E+00  0.00000000000E+00  0.99999998245E-14  0.12500000000E+03  0.12500000000E+03 0.  0.
        -13    1    3    3    0    0  0.33251730785E+02  0.32668354029E+02  0.38354158702E+02  0.60365152273E+02  0.10566000000E+00 0.  1.
         23    2    1    0    0    0  0.23572789173E+02  0.11829809208E+02  0.10160020671E+02  0.96736122076E+02  0.92515028611E+02 0.  0.
         13    1    3    3    0    0 -0.96789416125E+01 -0.20838544822E+02 -0.28194138031E+02  0.36370969802E+02  0.10566000000E+00 0. -1.
         22    1    1    0    0    0 -0.23572789173E+02 -0.11829809208E+02 -0.10160020671E+02  0.28263877924E+02  0.00000000000E+00 0.  1.
</event>
<event>
 5    1  0.6924865E-004  0.9118800E+02  0.7818608E-02  0.1130116E+00
         25   -1    0    0    0    0  0.00000000000E+00  0.00000000000E+00  0.99999998245E-14  0.12500000000E+03  0.12500000000E+03 0.  0.
        -13    1    3    3    0    0  0.88533320662E+01  0.20654932825E+02 -0.48292121203E+02  0.53264884051E+02  0.10566000000E+00 0. -1.
         23    2    1    0    0    0 -0.83569601915E+00  0.28687308136E+02 -0.83983252853E+01  0.95096958290E+02  0.90273138710E+02 0.  0.
         13    1    3    3    0    0 -0.96890280854E+01  0.80323753109E+01  0.39893795917E+02  0.41832074239E+02  0.10566000000E+00 0.  1.
         22    1    1    0    0    0  0.83569601915E+00 -0.28687308136E+02  0.83983252853E+01  0.29903041710E+02  0.00000000000E+00 0.  1.
</event>
<event>
 5    1  0.6924865E-004  0.9118800E+02  0.7818608E-02  0.1130116E+00
         25   -1    0    0    0    0  0.00000000000E+00  0.00000000000E+00  0.99999998245E-14  0.12500000000E+03  0.12500000000E+03 0.  0.
        -13    1    3    3    0    0  0.15293987334E+02  0.45563750163E+02 -0.35790848080E+02  0.59924597185E+02  0.10566000000E+00 0. -1.
         23    2    1    0    0    0  0.11121330364E+02  0.29920485281E+02 -0.79926604584E+01  0.92094042337E+02  0.86014595182E+02 0.  0.
         13    1    3    3    0    0 -0.41726569698E+01 -0.15643264882E+02  0.27798187621E+02  0.32169445152E+02  0.10566000000E+00 0.  1.
         22    1    1    0    0    0 -0.11121330364E+02 -0.29920485281E+02  0.79926604584E+01  0.32905957663E+02  0.00000000000E+00 0. -1.
</event>
<event>
 5    1  0.6924865E-004  0.9118800E+02  0.7818608E-02  0.1130116E+00
         25   -1    0    0    0    0  0.00000000000E+00  0.00000000000E+00  0.99999998245E-14  0.12500000000E+03  0.12500000000E+03 0.  0.
        -13    1    3    3    0    0 -0.62464858433E+01 -0.39795125527E+02 -0.21018401750E+02  0.45436273805E+02  0.10566000000E+00 0.  1.
         23    2    1    0    0    0  0.17913570258E+02 -0.17408615922E+02  0.16270608976E+02  0.95189119031E+02  0.90400662374E+02 0.  0.
         13    1    3    3    0    0  0.24160056102E+02  0.22386509605E+02  0.37289010726E+02  0.49752845226E+02  0.10566000000E+00 0. -1.
         22    1    1    0    0    0 -0.17913570258E+02  0.17408615922E+02 -0.16270608976E+02  0.29810880969E+02  0.00000000000E+00 0. -1.
</event>
<event>
 5    1  0.6924865E-004  0.9118800E+02  0.7818608E-02  0.1130116E+00
         25   -1    0    0    0    0  0.00000000000E+00  0.00000000000E+00  0.99999998245E-14  0.12500000000E+03  0.12500000000E+03 0.  0.
        -13    1    3    3    0    0  0.39413092611E+02 -0.36017763242E+02 -0.21635685540E+02  0.57608898539E+02  0.10566000000E+00 0.  1.
         23    2    1    0    0    0  0.66200197619E+01 -0.22736130624E+02 -0.21538262098E+02  0.92989798008E+02  0.87306640652E+02 0.  0.
         13    1    3    3    0    0 -0.32793072849E+02  0.13281632618E+02  0.97423442684E-01  0.35380899469E+02  0.10566000000E+00 0. -1.
         22    1    1    0    0    0 -0.66200197619E+01  0.22736130624E+02  0.21538262098E+02  0.32010201992E+02  0.00000000000E+00 0.  1.
</event>
<event>
 5    1  0.6924865E-004  0.9118800E+02  0.7818608E-02  0.1130116E+00
         25   -1    0    0    0    0  0.00000000000E+00  0.00000000000E+00  0.99999998245E-14  0.12500000000E+03  0.12500000000E+03 0.  0.
        -13    1    3    3    0    0 -0.11660635825E+02 -0.13691926185E+02 -0.58094454589E+02  0.60814604237E+02  0.10566000000E+00 0.  1.
         23    2    1    0    0    0  0.29679483614E+00 -0.70213774698E+01 -0.34072572400E+01  0.11718992762E+03  0.11692938854E+03 0.  0.
         13    1    3    3    0    0  0.11957430661E+02  0.66705487149E+01  0.54687197349E+02  0.56375323379E+02  0.10566000000E+00 0. -1.
         22    1    1    0    0    0 -0.29679483614E+00  0.70213774698E+01  0.34072572400E+01  0.78100723843E+01  0.00000000000E+00 0. -1.
</event>
<event>
 5    1  0.6924865E-004  0.9118800E+02  0.7818608E-02  0.1130116E+00
         25   -1    0    0    0    0  0.00000000000E+00  0.00000000000E+00  0.99999998245E-14  0.12500000000E+03  0.12500000000E+03 0.  0.
        -13    1    3    3    0    0 -0.20360869966E+01 -0.38700130328E+02 -0.50757494913E+01  0.39084781368E+02  0.10566000000E+00 0. -1.
         23    2    1    0    0    0 -0.22569711353E+02  0.10117193506E+02  0.15398470302E+02  0.95864757378E+02  0.91330111927E+02 0.  0.
         13    1    3    3    0    0 -0.20533624357E+02  0.48817323834E+02  0.20474219793E+02  0.56779976010E+02  0.10566000000E+00 0.  1.
         22    1    1    0    0    0  0.22569711353E+02 -0.10117193506E+02 -0.15398470302E+02  0.29135242622E+02  0.00000000000E+00 0. -1.
</event>
<event>
 5    1  0.6924865E-004  0.9118800E+02  0.7818608E-02  0.1130116E+00
         25   -1    0    0    0    0  0.00000000000E+00  0.00000000000E+00  0.99999998245E-14  0.12500000000E+03  0.12500000000E+03 0.  0.
        -13    1    3    3    0    0  0.37195560201E+02 -0.14693236662E+02 -0.18130063205E+02  0.43910263699E+02  0.10566000000E+00 0. -1.
         23    2    1    0    0    0  0.10760659969E+02 -0.20925997099E+02  0.22277039949E+02  0.92596980597E+02  0.86742406868E+02 0.  0.
         13    1    3    3    0    0 -0.26434900232E+02 -0.62327604368E+01  0.40407103154E+02  0.48686716898E+02  0.10566000000E+00 0.  1.
         22    1    1    0    0    0 -0.10760659969E+02  0.20925997099E+02 -0.22277039949E+02  0.32403019403E+02  0.00000000000E+00 0.  1.
</event>
<event>
 5    1  0.6924865E-004  0.9118800E+02  0.7818608E-02  0.1130116E+00
         25   -1    0    0    0    0  0.00000000000E+00  0.00000000000E+00  0.99999998245E-14  0.12500000000E+03  0.12500000000E+03 0.  0.
        -13    1    3    3    0    0 -0.26324957035E+02 -0.21806888317E+02  0.10721781343E+02  0.35826128735E+02  0.10566000000E+00 0. -1.
         23    2    1    0    0    0  0.38215678173E+01  0.22641109253E+02 -0.17155828025E+02  0.96337365020E+02  0.91974677249E+02 0.  0.
         13    1    3    3    0    0  0.30146524852E+02  0.44447997569E+02 -0.27877609368E+02  0.60511236285E+02  0.10566000000E+00 0.  1.
         22    1    1    0    0    0 -0.38215678173E+01 -0.22641109253E+02  0.17155828025E+02  0.28662634980E+02  0.00000000000E+00 0.  1.
</event>
<event>
 5    1  0.6924865E-004  0.9118800E+02  0.7818608E-02  0.1130116E+00
         25   -1    0    0    0    0  0.00000000000E+00  0.00000000000E+00  0.99999998245E-14  0.12500000000E+03  0.12500000000E+03 0.  0.
        -13    1    3    3    0    0 -0.34696893602E+02 -0.79365407884E+01 -0.12007532632E+02  0.37564013487E+02  0.10566000000E+00 0.  1.
         23    2    1    0    0    0  0.22832978481E+02  0.40690674157E+01  0.92091234646E+01  0.10004583861E+03  0.96883742967E+02 0.  0.
         13    1    3    3    0    0  0.57529872082E+02  0.12005608204E+02  0.21216656096E+02  0.62481825118E+02  0.10566000000E+00 0. -1.
         22    1    1    0    0    0 -0.22832978481E+02 -0.40690674157E+01 -0.92091234646E+01  0.24954161395E+02  0.00000000000E+00 0. -1.
</event>
<event>
 5    1  0.6924865E-004  0.9118800E+02  0.7818608E-02  0.1130116E+00
         25   -1    0    0    0    0  0.00000000000E+00  0.00000000000E+00  0.99999998245E-14  0.12500000000E+03  0.12500000000E+03 0.  0.
        -13    1    3    3    0    0  0.62860997647E+01  0.86449950349E+01  0.33820907717E+02  0.35469930254E+02  0.10566000000E+00 0. -1.
         23    2    1    0    0    0  0.53952032300E+01 -0.65657678630E+01 -0.26232035715E+02  0.97425786987E+02  0.93442210733E+02 0.  0.
         13    1    3    3    0    0 -0.89089653473E+00 -0.15210762898E+02 -0.60052943432E+02  0.61955856733E+02  0.10566000000E+00 0.  1.
         22    1    1    0    0    0 -0.53952032300E+01  0.65657678630E+01  0.26232035715E+02  0.27574213013E+02  0.00000000000E+00 0.  1.
</event>
<event>
 5    1  0.6924865E-004  0.9118800E+02  0.7818608E-02  0.1130116E+00
         25   -1    0    0    0    0  0.00000000000E+00  0.00000000000E+00  0.99999998245E-14  0.12500000000E+03  0.12500000000E+03 0.  0.
        -13    1    3    3    0    0  0.29309442130E+02  0.92227388442E+01  0.52259363255E+02  0.60623052725E+02  0.10566000000E+00 0.  1.
         23    2    1    0    0    0  0.20153000614E+02  0.98850603626E+01  0.17605065483E+02  0.96472886884E+02  0.92158676862E+02 0.  0.
         13    1    3    3    0    0 -0.91564415166E+01  0.66232151835E+00 -0.34654297773E+02  0.35849834159E+02  0.10566000000E+00 0. -1.
         22    1    1    0    0    0 -0.20153000614E+02 -0.98850603626E+01 -0.17605065483E+02  0.28527113116E+02  0.00000000000E+00 0.  1.
</event>
<event>
 5    1  0.6924865E-004  0.9118800E+02  0.7818608E-02  0.1130116E+00
         25   -1    0    0    0    0  0.00000000000E+00  0.00000000000E+00  0.99999998245E-14  0.12500000000E+03  0.12500000000E+03 0.  0.
        -13    1    3    3    0    0  0.15602306830E+02 -0.44758040558E+02  0.36922770402E+02  0.60083411281E+02  0.10566000000E+00 0. -1.
         23    2    1    0    0    0  0.16214839433E+02 -0.11066164073E+02  0.12061135740E+02  0.10195977430E+03  0.99322422313E+02 0.  0.
         13    1    3    3    0    0  0.61253260277E+00  0.33691876485E+02 -0.24861634662E+02  0.41876363015E+02  0.10566000000E+00 0.  1.
         22    1    1    0    0    0 -0.16214839433E+02  0.11066164073E+02 -0.12061135740E+02  0.23040225704E+02  0.00000000000E+00 0. -1.
</event>
<event>
 5    1  0.6924865E-004  0.9118800E+02  0.7818608E-02  0.1130116E+00
         25   -1    0    0    0    0  0.00000000000E+00  0.00000000000E+00  0.99999998245E-14  0.12500000000E+03  0.12500000000E+03 0.  0.
        -13    1    3    3    0    0 -0.60878783254E+01 -0.12754882345E+02 -0.32640022864E+02  0.35568687672E+02  0.10566000000E+00 0. -1.
         23    2    1    0    0    0 -0.11701464877E+02  0.38109349038E+00  0.26298186974E+02  0.96213472758E+02  0.91806144617E+02 0.  0.
         13    1    3    3    0    0 -0.56135865511E+01  0.13135975835E+02  0.58938209838E+02  0.60644785086E+02  0.10566000000E+00 0.  1.
         22    1    1    0    0    0  0.11701464877E+02 -0.38109349038E+00 -0.26298186974E+02  0.28786527242E+02  0.00000000000E+00 0.  1.
</event>
<event>
 5    1  0.6924865E-004  0.9118800E+02  0.7818608E-02  0.1130116E+00
         25   -1    0    0    0    0  0.00000000000E+00  0.00000000000E+00  0.99999998245E-14  0.12500000000E+03  0.12500000000E+03 0.  0.
        -13    1    3    3    0    0 -0.40858768509E+02  0.21835524609E+02 -0.25193935910E+01  0.46395986972E+02  0.10566000000E+00 0.  1.
         23    2    1    0    0    0 -0.19001328701E+02 -0.17161162140E+02  0.16025521824E+02  0.94794481826E+02  0.89853327465E+02 0.  0.
         13    1    3    3    0    0  0.21857439807E+02 -0.38996686749E+02  0.18544915416E+02  0.48398494854E+02  0.10566000000E+00 0. -1.
         22    1    1    0    0    0  0.19001328701E+02  0.17161162140E+02 -0.16025521824E+02  0.30205518174E+02  0.00000000000E+00 0. -1.
</event>
<event>
 5    1  0.6924865E-004  0.9118800E+02  0.7818608E-02  0.1130116E+00
         25   -1    0    0    0    0  0.00000000000E+00  0.00000000000E+00  0.99999998245E-14  0.12500000000E+03  0.12500000000E+03 0.  0.
        -13    1    3    3    0    0  0.46886738190E+02  0.81215208493E+01 -0.30402821807E+02  0.56468292491E+02  0.10566000000E+00 0.  1.
         23    2    1    0    0    0  0.29742759710E+02  0.28934794560E+01  0.35948622997E+01  0.94901378545E+02  0.90001914625E+02 0.  0.
         13    1    3    3    0    0 -0.17143978480E+02 -0.52280413934E+01  0.33997684107E+02  0.38433086053E+02  0.10566000000E+00 0. -1.
         22    1    1    0    0    0 -0.29742759710E+02 -0.28934794560E+01 -0.35948622997E+01  0.30098621455E+02  0.00000000000E+00 0.  1.
</event>
<event>
 5    1  0.6924865E-004  0.9118800E+02  0.7818608E-02  0.1130116E+00
         25   -1    0    0    0    0  0.00000000000E+00  0.00000000000E+00  0.99999998245E-14  0.12500000000E+03  0.12500000000E+03 0.  0.
        -13    1    3    3    0    0  0.48570394968E+02  0.67114969580E+01  0.18567229422E+02  0.52429768560E+02  0.10566000000E+00 0.  1.
         23    2    1    0    0    0  0.23491272977E+02  0.42987970216E+01 -0.16762356426E+02  0.95823020121E+02  0.91272969877E+02 0.  0.
         13    1    3    3    0    0 -0.25079121991E+02 -0.24126999364E+01 -0.35329585848E+02  0.43393251561E+02  0.10566000000E+00 0. -1.
         22    1    1    0    0    0 -0.23491272977E+02 -0.42987970216E+01  0.16762356426E+02  0.29176979879E+02  0.00000000000E+00 0.  1.
</event>
<event>
 5    1  0.6924865E-004  0.9118800E+02  0.7818608E-02  0.1130116E+00
         25   -1    0    0    0    0  0.00000000000E+00  0.00000000000E+00  0.99999998245E-14  0.12500000000E+03  0.12500000000E+03 0.  0.
        -13    1    3    3    0    0  0.40946256862E+02 -0.18903411444E+02 -0.20158853946E+01  0.45144322712E+02  0.10566000000E+00 0.  1.
         23    2    1    0    0    0 -0.89773710132E+01 -0.26294989111E+02  0.68444610012E+01  0.96384160172E+02  0.92038253150E+02 0.  0.
         13    1    3    3    0    0 -0.49923627875E+02 -0.73915776669E+01  0.88603463958E+01  0.51239837460E+02  0.10566000000E+00 0. -1.
         22    1    1    0    0    0  0.89773710132E+01  0.26294989111E+02 -0.68444610012E+01  0.28615839828E+02  0.00000000000E+00 0. -1.
</event>
<event>
 5    1  0.6924865E-004  0.9118800E+02  0.7818608E-02  0.1130116E+00
         25   -1    0    0    0    0  0.00000000000E+00  0.00000000000E+00  0.99999998245E-14  0.12500000000E+03  0.12500000000E+03 0.  0.
        -13    1    3    3    0    0 -0.15197494686E+02 -0.11481163521E+02  0.16850382618E+02  0.25430837952E+02  0.10566000000E+00 0.  1.
         23    2    1    0    0    0  0.18849613857E+02 -0.41157715301E+02 -0.10896235552E+02  0.78438283746E+02  0.63123457893E+02 0.  0.
         13    1    3    3    0    0  0.34047108543E+02 -0.29676551780E+02 -0.27746618169E+02  0.53007445794E+02  0.10566000000E+00 0. -1.
         22    1    1    0    0    0 -0.18849613857E+02  0.41157715301E+02  0.10896235552E+02  0.46561716254E+02  0.00000000000E+00 0.  1.
</event>
<event>
 5    1  0.6924865E-004  0.9118800E+02  0.7818608E-02  0.1130116E+00
         25   -1    0    0    0    0  0.00000000000E+00  0.00000000000E+00  0.99999998245E-14  0.12500000000E+03  0.12500000000E+03 0.  0.
        -13    1    3    3    0    0 -0.13325280989E+02  0.34611848636E+01  0.57369470332E+02  0.58998391540E+02  0.10566000000E+00 0.  1.
         23    2    1    0    0    0  0.43044278474E+01 -0.91374191892E+01  0.25839900395E+02  0.97256154178E+02  0.93215012442E+02 0.  0.
         13    1    3    3    0    0  0.17629708836E+02 -0.12598604053E+02 -0.31529569936E+02  0.38257762639E+02  0.10566000000E+00 0. -1.
         22    1    1    0    0    0 -0.43044278474E+01  0.91374191892E+01 -0.25839900395E+02  0.27743845822E+02  0.00000000000E+00 0.  1.
</event>
<event>
 5    1  0.6924865E-004  0.9118800E+02  0.7818608E-02  0.1130116E+00
         25   -1    0    0    0    0  0.00000000000E+00  0.00000000000E+00  0.99999998245E-14  0.12500000000E+03  0.12500000000E+03 0.  0.
        -13    1    3    3    0    0 -0.23165967243E+02  0.51012750302E+02  0.17939367120E+01  0.56055259384E+02  0.10566000000E+00 0.  1.
         23    2    1    0    0    0  0.45775026826E-01  0.23969929457E+02 -0.16289094049E+02  0.96019071815E+02  0.91541072496E+02 0.  0.
         13    1    3    3    0    0  0.23211742270E+02 -0.27042820845E+02 -0.18083030761E+02  0.39963812431E+02  0.10566000000E+00 0. -1.
         22    1    1    0    0    0 -0.45775026826E-01 -0.23969929457E+02  0.16289094049E+02  0.28980928185E+02  0.00000000000E+00 0.  1.
</event>
<event>
 5    1  0.6924865E-004  0.9118800E+02  0.7818608E-02  0.1130116E+00
         25   -1    0    0    0    0  0.00000000000E+00  0.00000000000E+00  0.99999998245E-14  0.12500000000E+03  0.12500000000E+03 0.  0.
        -13    1    3    3    0    0 -0.15643609924E+02 -0.43553892625E+01 -0.50174816776E+02  0.52737229256E+02  0.10566000000E+00 0. -1.
         23    2    1    0    0    0  0.15221823771E+02  0.93298713807E+01 -0.21656724923E+02  0.96932863465E+02  0.92780471362E+02 0.  0.
         13    1    3    3    0    0  0.30865433696E+02  0.13685260643E+02  0.28518091853E+02  0.44195634208E+02  0.10566000000E+00 0.  1.
         22    1    1    0    0    0 -0.15221823771E+02 -0.93298713807E+01  0.21656724923E+02  0.28067136535E+02  0.00000000000E+00 0. -1.
</event>
<event>
 5    1  0.6924865E-004  0.9118800E+02  0.7818608E-02  0.1130116E+00
         25   -1    0    0    0    0  0.00000000000E+00  0.00000000000E+00  0.99999998245E-14  0.12500000000E+03  0.12500000000E+03 0.  0.
        -13    1    3    3    0    0  0.46393824156E+02  0.10339134189E+01 -0.32576913716E+02  0.56698521745E+02  0.10566000000E+00 0. -1.
         23    2    1    0    0    0  0.28661168471E+02 -0.66025697005E+01  0.11553531605E+01  0.95565473578E+02  0.90919571020E+02 0.  0.
         13    1    3    3    0    0 -0.17732655685E+02 -0.76364831194E+01  0.33732266877E+02  0.38866951833E+02  0.10566000000E+00 0.  1.
         22    1    1    0    0    0 -0.28661168471E+02  0.66025697005E+01 -0.11553531605E+01  0.29434526422E+02  0.00000000000E+00 0. -1.
</event>
<event>
 5    1  0.6924865E-004  0.9118800E+02  0.7818608E-02  0.1130116E+00
         25   -1    0    0    0    0  0.00000000000E+00  0.00000000000E+00  0.99999998245E-14  0.12500000000E+03  0.12500000000E+03 0.  0.
        -13    1    3    3    0    0 -0.14618566113E+02  0.17793326839E+02 -0.32628191034E+01  0.23258592127E+02  0.10566000000E+00 0.  1.
         23    2    1    0    0    0  0.40526097375E+02  0.26545604878E+01 -0.15126963213E+02  0.81661376627E+02  0.69212312176E+02 0.  0.
         13    1    3    3    0    0  0.55144663488E+02 -0.15138766352E+02 -0.11864144109E+02  0.58402784500E+02  0.10566000000E+00 0. -1.
         22    1    1    0    0    0 -0.40526097375E+02 -0.26545604878E+01  0.15126963213E+02  0.43338623373E+02  0.00000000000E+00 0. -1.
</event>
<event>
 5    1  0.6924865E-004  0.9118800E+02  0.7818608E-02  0.1130116E+00
         25   -1    0    0    0    0  0.00000000000E+00  0.00000000000E+00  0.99999998245E-14  0.12500000000E+03  0.12500000000E+03 0.  0.
        -13    1    3    3    0    0 -0.23557927214E+02  0.19260409515E+00  0.30359255053E+02  0.38427965889E+02  0.10566000000E+00 0.  1.
         23    2    1    0    0    0 -0.85553839773E+01  0.21896631066E+02 -0.19248858010E+02  0.94616195404E+02  0.89604959968E+02 0.  0.
         13    1    3    3    0    0  0.15002543237E+02  0.21704026971E+02 -0.49608113063E+02  0.56188229515E+02  0.10566000000E+00 0. -1.
         22    1    1    0    0    0  0.85553839773E+01 -0.21896631066E+02  0.19248858010E+02  0.30383804596E+02  0.00000000000E+00 0. -1.
</event>
<event>
 5    1  0.6924865E-004  0.9118800E+02  0.7818608E-02  0.1130116E+00
         25   -1    0    0    0    0  0.00000000000E+00  0.00000000000E+00  0.99999998245E-14  0.12500000000E+03  0.12500000000E+03 0.  0.
        -13    1    3    3    0    0  0.17259263342E+02 -0.23825796738E+02  0.50069594507E+02  0.58073455377E+02  0.10566000000E+00 0. -1.
         23    2    1    0    0    0 -0.85092049319E+01 -0.11959528902E+02  0.25376612476E+02  0.95684315445E+02  0.91082813205E+02 0.  0.
         13    1    3    3    0    0 -0.25768468274E+02  0.11866267835E+02 -0.24692982030E+02  0.37610860068E+02  0.10566000000E+00 0.  1.
         22    1    1    0    0    0  0.85092049319E+01  0.11959528902E+02 -0.25376612476E+02  0.29315684555E+02  0.00000000000E+00 0. -1.
</event>
<event>
 5    1  0.6924865E-004  0.9118800E+02  0.7818608E-02  0.1130116E+00
         25   -1    0    0    0    0  0.00000000000E+00  0.00000000000E+00  0.99999998245E-14  0.12500000000E+03  0.12500000000E+03 0.  0.
        -13    1    3    3    0    0  0.46569502520E+02  0.12283354009E+02 -0.17022506131E+02  0.51082053891E+02  0.10566000000E+00 0.  1.
         23    2    1    0    0    0  0.11542910004E+02 -0.17525991436E+02 -0.18390189032E+02  0.97096627448E+02  0.93000843340E+02 0.  0.
         13    1    3    3    0    0 -0.35026592516E+02 -0.29809345444E+02 -0.13676829005E+01  0.46014573557E+02  0.10566000000E+00 0. -1.
         22    1    1    0    0    0 -0.11542910004E+02  0.17525991436E+02  0.18390189032E+02  0.27903372552E+02  0.00000000000E+00 0. -1.
</event>
<event>
 5    1  0.6924865E-004  0.9118800E+02  0.7818608E-02  0.1130116E+00
         25   -1    0    0    0    0  0.00000000000E+00  0.00000000000E+00  0.99999998245E-14  0.12500000000E+03  0.12500000000E+03 0.  0.
        -13    1    3    3    0    0 -0.27984400257E+02 -0.18150084491E+02 -0.74486339616E+01  0.34176681184E+02  0.10566000000E+00 0. -1.
         23    2    1    0    0    0  0.22957911369E+02  0.82668446756E+01  0.15623628106E+02  0.96025801642E+02  0.91550261662E+02 0.  0.
         13    1    3    3    0    0  0.50942311626E+02  0.26416929167E+02  0.23072262068E+02  0.61849120458E+02  0.10566000000E+00 0.  1.
         22    1    1    0    0    0 -0.22957911369E+02 -0.82668446756E+01 -0.15623628106E+02  0.28974198358E+02  0.00000000000E+00 0.  1.
</event>
<event>
 5    1  0.6924865E-004  0.9118800E+02  0.7818608E-02  0.1130116E+00
         25   -1    0    0    0    0  0.00000000000E+00  0.00000000000E+00  0.99999998245E-14  0.12500000000E+03  0.12500000000E+03 0.  0.
        -13    1    3    3    0    0 -0.40308161458E+01 -0.41552442147E+01 -0.47034633633E+02  0.47389676706E+02  0.10566000000E+00 0. -1.
         23    2    1    0    0    0  0.16484959339E+02  0.21043138104E+02 -0.10509301270E+02  0.96276961183E+02  0.91892547553E+02 0.  0.
         13    1    3    3    0    0  0.20515775485E+02  0.25198382319E+02  0.36525332363E+02  0.48887284477E+02  0.10566000000E+00 0.  1.
         22    1    1    0    0    0 -0.16484959339E+02 -0.21043138104E+02  0.10509301270E+02  0.28723038817E+02  0.00000000000E+00 0.  1.
</event>
<event>
 5    1  0.6924865E-004  0.9118800E+02  0.7818608E-02  0.1130116E+00
         25   -1    0    0    0    0  0.00000000000E+00  0.00000000000E+00  0.99999998245E-14  0.12500000000E+03  0.12500000000E+03 0.  0.
        -13    1    3    3    0    0  0.18157875512E+02  0.60679271726E+01  0.32273755767E+02  0.37525120368E+02  0.10566000000E+00 0.  1.
         23    2    1    0    0    0 -0.22731648297E+02 -0.14092978258E+02 -0.66152019804E+01  0.97448216614E+02  0.93472210595E+02 0.  0.
         13    1    3    3    0    0 -0.40889523809E+02 -0.20160905431E+02 -0.38888957747E+02  0.59923096247E+02  0.10566000000E+00 0. -1.
         22    1    1    0    0    0  0.22731648297E+02  0.14092978258E+02  0.66152019804E+01  0.27551783386E+02  0.00000000000E+00 0. -1.
</event>
<event>
 5    1  0.6924865E-004  0.9118800E+02  0.7818608E-02  0.1130116E+00
         25   -1    0    0    0    0  0.00000000000E+00  0.00000000000E+00  0.99999998245E-14  0.12500000000E+03  0.12500000000E+03 0.  0.
        -13    1    3    3    0    0  0.44884089534E+02 -0.42832146805E+02  0.57948526257E+01  0.62311842969E+02  0.10566000000E+00 0. -1.
         23    2    1    0    0    0  0.21890952961E+02 -0.17719741799E+02  0.51641868604E+01  0.96366594738E+02  0.92014393898E+02 0.  0.
         13    1    3    3    0    0 -0.22993136573E+02  0.25112405006E+02 -0.63066576523E+00  0.34054751768E+02  0.10566000000E+00 0.  1.
         22    1    1    0    0    0 -0.21890952961E+02  0.17719741799E+02 -0.51641868604E+01  0.28633405262E+02  0.00000000000E+00 0. -1.
</event>
<event>
 5    1  0.6924865E-004  0.9118800E+02  0.7818608E-02  0.1130116E+00
         25   -1    0    0    0    0  0.00000000000E+00  0.00000000000E+00  0.99999998245E-14  0.12500000000E+03  0.12500000000E+03 0.  0.
        -13    1    3    3    0    0 -0.29071175774E+01 -0.38712866756E+02  0.43825840405E+02  0.58547867906E+02  0.10566000000E+00 0.  1.
         23    2    1    0    0    0 -0.10499673222E+02 -0.67877827158E+01  0.26596032691E+02  0.95611803613E+02  0.90983245179E+02 0.  0.
         13    1    3    3    0    0 -0.75925556451E+01  0.31925084041E+02 -0.17229807714E+02  0.37063935707E+02  0.10566000000E+00 0. -1.
         22    1    1    0    0    0  0.10499673222E+02  0.67877827158E+01 -0.26596032691E+02  0.29388196387E+02  0.00000000000E+00 0.  1.
</event>
<event>
 5    1  0.6924865E-004  0.9118800E+02  0.7818608E-02  0.1130116E+00
         25   -1    0    0    0    0  0.00000000000E+00  0.00000000000E+00  0.99999998245E-14  0.12500000000E+03  0.12500000000E+03 0.  0.
        -13    1    3    3    0    0  0.19230717751E+02 -0.22518714364E+02 -0.36018395162E+02  0.46628842532E+02  0.10566000000E+00 0.  1.
         23    2    1    0    0    0 -0.16886188673E+01 -0.30565714961E+02  0.55817033869E+01  0.93882966442E+02  0.88576190991E+02 0.  0.
         13    1    3    3    0    0 -0.20919336619E+02 -0.80470005972E+01  0.41600098549E+02  0.47254123910E+02  0.10566000000E+00 0. -1.
         22    1    1    0    0    0  0.16886188673E+01  0.30565714961E+02 -0.55817033869E+01  0.31117033558E+02  0.00000000000E+00 0. -1.
</event>
<event>
 5    1  0.6924865E-004  0.9118800E+02  0.7818608E-02  0.1130116E+00
         25   -1    0    0    0    0  0.00000000000E+00  0.00000000000E+00  0.99999998245E-14  0.12500000000E+03  0.12500000000E+03 0.  0.
        -13    1    3    3    0    0  0.36858751505E+02  0.18632342585E+02 -0.21833715332E+00  0.41301217753E+02  0.10566000000E+00 0. -1.
         23    2    1    0    0    0  0.55296204611E+01 -0.16318486341E+02  0.25041422284E+02  0.94603577038E+02  0.89587355467E+02 0.  0.
         13    1    3    3    0    0 -0.31329131044E+02 -0.34950828926E+02  0.25259759437E+02  0.53302359285E+02  0.10566000000E+00 0.  1.
         22    1    1    0    0    0 -0.55296204611E+01  0.16318486341E+02 -0.25041422284E+02  0.30396422962E+02  0.00000000000E+00 0.  1.
</event>
<event>
 5    1  0.6924865E-004  0.9118800E+02  0.7818608E-02  0.1130116E+00
         25   -1    0    0    0    0  0.00000000000E+00  0.00000000000E+00  0.99999998245E-14  0.12500000000E+03  0.12500000000E+03 0.  0.
        -13    1    3    3    0    0 -0.23071398011E+02 -0.14275014888E+01 -0.46873441802E+02  0.52263351185E+02  0.10566000000E+00 0. -1.
         23    2    1    0    0    0 -0.34284351296E+01 -0.24507517575E+02 -0.15969742230E+02  0.95548255535E+02  0.90895895858E+02 0.  0.
         13    1    3    3    0    0  0.19642962881E+02 -0.23080016086E+02  0.30903699573E+02  0.43284904350E+02  0.10566000000E+00 0.  1.
         22    1    1    0    0    0  0.34284351296E+01  0.24507517575E+02  0.15969742230E+02  0.29451744465E+02  0.00000000000E+00 0.  1.
</event>
<event>
 5    1  0.6924865E-004  0.9118800E+02  0.7818608E-02  0.1130116E+00
         25   -1    0    0    0    0  0.00000000000E+00  0.00000000000E+00  0.99999998245E-14  0.12500000000E+03  0.12500000000E+03 0.  0.
        -13    1    3    3    0    0  0.32344646827E+02 -0.44256238180E+02 -0.16333219861E+02  0.57197692534E+02  0.10566000000E+00 0.  1.
         23    2    1    0    0    0  0.20525579018E+02 -0.64038592750E+01 -0.18103866013E+02  0.96892015863E+02  0.92725422435E+02 0.  0.
         13    1    3    3    0    0 -0.11819067808E+02  0.37852378905E+02 -0.17706461521E+01  0.39694323328E+02  0.10566000000E+00 0. -1.
         22    1    1    0    0    0 -0.20525579018E+02  0.64038592750E+01  0.18103866013E+02  0.28107984137E+02  0.00000000000E+00 0.  1.
</event>
<event>
 5    1  0.6924865E-004  0.9118800E+02  0.7818608E-02  0.1130116E+00
         25   -1    0    0    0    0  0.00000000000E+00  0.00000000000E+00  0.99999998245E-14  0.12500000000E+03  0.12500000000E+03 0.  0.
        -13    1    3    3    0    0 -0.10222390658E+02  0.38209089117E+02 -0.28150027323E+02  0.48547574236E+02  0.10566000000E+00 0.  1.
         23    2    1    0    0    0 -0.63577656449E+01 -0.97988916191E+01 -0.25696295320E+02  0.96773433540E+02  0.92565427591E+02 0.  0.
         13    1    3    3    0    0  0.38646250131E+01 -0.48007980736E+02  0.24537320034E+01  0.48225859304E+02  0.10566000000E+00 0. -1.
         22    1    1    0    0    0  0.63577656449E+01  0.97988916191E+01  0.25696295320E+02  0.28226566460E+02  0.00000000000E+00 0. -1.
</event>
<event>
 5    1  0.6924865E-004  0.9118800E+02  0.7818608E-02  0.1130116E+00
         25   -1    0    0    0    0  0.00000000000E+00  0.00000000000E+00  0.99999998245E-14  0.12500000000E+03  0.12500000000E+03 0.  0.
        -13    1    3    3    0    0  0.10084907628E+02 -0.23593034833E+02  0.36693316036E+02  0.44774404075E+02  0.10566000000E+00 0.  1.
         23    2    1    0    0    0 -0.26517093379E+02  0.21234088933E+01  0.13127462005E+02  0.95335284169E+02  0.90602544348E+02 0.  0.
         13    1    3    3    0    0 -0.36602001007E+02  0.25716443727E+02 -0.23565854031E+02  0.50560880094E+02  0.10566000000E+00 0. -1.
         22    1    1    0    0    0  0.26517093379E+02 -0.21234088933E+01 -0.13127462005E+02  0.29664715831E+02  0.00000000000E+00 0.  1.
</event>
<event>
 5    1  0.6924865E-004  0.9118800E+02  0.7818608E-02  0.1130116E+00
         25   -1    0    0    0    0  0.00000000000E+00  0.00000000000E+00  0.99999998245E-14  0.12500000000E+03  0.12500000000E+03 0.  0.
        -13    1    3    3    0    0 -0.14519006869E+02  0.22170069198E+02  0.55799084915E+02  0.61772668471E+02  0.10566000000E+00 0.  1.
         23    2    1    0    0    0 -0.59738008215E+01  0.13746704228E+02  0.17241413762E+02  0.10215433254E+03  0.99566978130E+02 0.  0.
         13    1    3    3    0    0  0.85452060472E+01 -0.84233649703E+01 -0.38557671153E+02  0.40381664065E+02  0.10566000000E+00 0. -1.
         22    1    1    0    0    0  0.59738008215E+01 -0.13746704228E+02 -0.17241413762E+02  0.22845667464E+02  0.00000000000E+00 0.  1.
</event>
<event>
 5    1  0.6924865E-004  0.9118800E+02  0.7818608E-02  0.1130116E+00
         25   -1    0    0    0    0  0.00000000000E+00  0.00000000000E+00  0.99999998245E-14  0.12500000000E+03  0.12500000000E+03 0.  0.
        -13    1    3    3    0    0 -0.64562111139E+01  0.32994816311E+02 -0.13160351375E+02  0.36104661440E+02  0.10566000000E+00 0.  1.
         23    2    1    0    0    0  0.49893199359E+01 -0.19766526302E+01  0.30972907504E+02  0.93565600558E+02  0.88127181615E+02 0.  0.
         13    1    3    3    0    0  0.11445531050E+02 -0.34971468941E+02  0.44133258879E+02  0.57460939117E+02  0.10566000000E+00 0. -1.
         22    1    1    0    0    0 -0.49893199359E+01  0.19766526302E+01 -0.30972907504E+02  0.31434399442E+02  0.00000000000E+00 0. -1.
</event>
<event>
 5    1  0.6924865E-004  0.9118800E+02  0.7818608E-02  0.1130116E+00
         25   -1    0    0    0    0  0.00000000000E+00  0.00000000000E+00  0.99999998245E-14  0.12500000000E+03  0.12500000000E+03 0.  0.
        -13    1    3    3    0    0 -0.88591749446E+01 -0.23125864217E+01 -0.36646574072E+02  0.37773212623E+02  0.10566000000E+00 0.  1.
         23    2    1    0    0    0  0.18572608854E+02 -0.16735155182E+02  0.13397035881E+02  0.96636506051E+02  0.92380336180E+02 0.  0.
         13    1    3    3    0    0  0.27431783798E+02 -0.14422568760E+02  0.50043609953E+02  0.58863293428E+02  0.10566000000E+00 0. -1.
         22    1    1    0    0    0 -0.18572608854E+02  0.16735155182E+02 -0.13397035881E+02  0.28363493949E+02  0.00000000000E+00 0. -1.
</event>
<event>
 5    1  0.6924865E-004  0.9118800E+02  0.7818608E-02  0.1130116E+00
         25   -1    0    0    0    0  0.00000000000E+00  0.00000000000E+00  0.99999998245E-14  0.12500000000E+03  0.12500000000E+03 0.  0.
        -13    1    3    3    0    0  0.11368973596E+02  0.30853441338E+02  0.33234322325E+02  0.46751681761E+02  0.10566000000E+00 0. -1.
         23    2    1    0    0    0  0.29075465009E+02  0.33670350912E+01 -0.30235309787E+01  0.95574478248E+02  0.90931950172E+02 0.  0.
         13    1    3    3    0    0  0.17706491413E+02 -0.27486406247E+02 -0.36257853304E+02  0.48822796487E+02  0.10566000000E+00 0.  1.
         22    1    1    0    0    0 -0.29075465009E+02 -0.33670350912E+01  0.30235309787E+01  0.29425521752E+02  0.00000000000E+00 0. -1.
</event>
<event>
 5    1  0.6924865E-004  0.9118800E+02  0.7818608E-02  0.1130116E+00
         25   -1    0    0    0    0  0.00000000000E+00  0.00000000000E+00  0.99999998245E-14  0.12500000000E+03  0.12500000000E+03 0.  0.
        -13    1    3    3    0    0 -0.26650368980E+02  0.29612840628E+02  0.24905534224E+02  0.46983606672E+02  0.10566000000E+00 0.  1.
         23    2    1    0    0    0 -0.22627071309E+02 -0.16269879042E+02  0.89026498890E+01  0.95743368357E+02  0.91163820067E+02 0.  0.
         13    1    3    3    0    0  0.40232976713E+01 -0.45882719671E+02 -0.16002884336E+02  0.48759761685E+02  0.10566000000E+00 0. -1.
         22    1    1    0    0    0  0.22627071309E+02  0.16269879042E+02 -0.89026498890E+01  0.29256631643E+02  0.00000000000E+00 0.  1.
</event>
<event>
 5    1  0.6924865E-004  0.9118800E+02  0.7818608E-02  0.1130116E+00
         25   -1    0    0    0    0  0.00000000000E+00  0.00000000000E+00  0.99999998245E-14  0.12500000000E+03  0.12500000000E+03 0.  0.
        -13    1    3    3    0    0  0.32437703667E+02  0.42890895453E+02 -0.25347998137E+02  0.59450531584E+02  0.10566000000E+00 0.  1.
         23    2    1    0    0    0  0.19877514201E+02  0.79931391233E+01 -0.17442498057E+02  0.97373082287E+02  0.93371679709E+02 0.  0.
         13    1    3    3    0    0 -0.12560189466E+02 -0.34897756330E+02  0.79055000801E+01  0.37922550703E+02  0.10566000000E+00 0. -1.
         22    1    1    0    0    0 -0.19877514201E+02 -0.79931391233E+01  0.17442498057E+02  0.27626917713E+02  0.00000000000E+00 0.  1.
</event>
<event>
 5    1  0.6924865E-004  0.9118800E+02  0.7818608E-02  0.1130116E+00
         25   -1    0    0    0    0  0.00000000000E+00  0.00000000000E+00  0.99999998245E-14  0.12500000000E+03  0.12500000000E+03 0.  0.
        -13    1    3    3    0    0 -0.39250604339E+02 -0.70738650068E+01 -0.57787200944E+00  0.39887273750E+02  0.10566000000E+00 0.  1.
         23    2    1    0    0    0  0.15073886834E+02 -0.43881977794E+01 -0.21683566619E+02  0.98229579657E+02  0.94511348071E+02 0.  0.
         13    1    3    3    0    0  0.54324491172E+02  0.26856672273E+01 -0.21105694609E+02  0.58342305907E+02  0.10566000000E+00 0. -1.
         22    1    1    0    0    0 -0.15073886834E+02  0.43881977794E+01  0.21683566619E+02  0.26770420343E+02  0.00000000000E+00 0. -1.
</event>
<event>
 5    1  0.6924865E-004  0.9118800E+02  0.7818608E-02  0.1130116E+00
         25   -1    0    0    0    0  0.00000000000E+00  0.00000000000E+00  0.99999998245E-14  0.12500000000E+03  0.12500000000E+03 0.  0.
        -13    1    3    3    0    0  0.38031919472E+02  0.40630450072E+02 -0.13816553496E+02  0.57342555632E+02  0.10566000000E+00 0.  1.
         23    2    1    0    0    0  0.39763572308E+02  0.18200292596E+02 -0.94570627075E+01  0.80258203341E+02  0.66629954489E+02 0.  0.
         13    1    3    3    0    0  0.17316528356E+01 -0.22430157476E+02  0.43594907889E+01  0.22915647709E+02  0.10566000000E+00 0. -1.
         22    1    1    0    0    0 -0.39763572308E+02 -0.18200292596E+02  0.94570627075E+01  0.44741796659E+02  0.00000000000E+00 0.  1.
</event>
<event>
 5    1  0.6924865E-004  0.9118800E+02  0.7818608E-02  0.1130116E+00
         25   -1    0    0    0    0  0.00000000000E+00  0.00000000000E+00  0.99999998245E-14  0.12500000000E+03  0.12500000000E+03 0.  0.
        -13    1    3    3    0    0  0.23997127178E+02  0.12118481053E+02  0.23531689981E+02  0.35727738429E+02  0.10566000000E+00 0.  1.
         23    2    1    0    0    0  0.51838014799E+01 -0.17615318021E+02 -0.23947076511E+02  0.94823292092E+02  0.89893398106E+02 0.  0.
         13    1    3    3    0    0 -0.18813325698E+02 -0.29733799074E+02 -0.47478766492E+02  0.59095553663E+02  0.10566000000E+00 0. -1.
         22    1    1    0    0    0 -0.51838014799E+01  0.17615318021E+02  0.23947076511E+02  0.30176707908E+02  0.00000000000E+00 0. -1.
</event>
<event>
 5    1  0.6924865E-004  0.9118800E+02  0.7818608E-02  0.1130116E+00
         25   -1    0    0    0    0  0.00000000000E+00  0.00000000000E+00  0.99999998245E-14  0.12500000000E+03  0.12500000000E+03 0.  0.
        -13    1    3    3    0    0 -0.53830822509E+02 -0.23148679211E+02  0.53381435466E+01  0.58839831253E+02  0.10566000000E+00 0.  1.
         23    2    1    0    0    0 -0.29032306394E+02  0.38474492957E+01  0.22009323939E+01  0.95631278815E+02  0.91009997824E+02 0.  0.
         13    1    3    3    0    0  0.24798516116E+02  0.26996128507E+02 -0.31372111527E+01  0.36791447563E+02  0.10566000000E+00 0. -1.
         22    1    1    0    0    0  0.29032306394E+02 -0.38474492957E+01 -0.22009323939E+01  0.29368721185E+02  0.00000000000E+00 0.  1.
</event>
<event>
 5    1  0.6924865E-004  0.9118800E+02  0.7818608E-02  0.1130116E+00
         25   -1    0    0    0    0  0.00000000000E+00  0.00000000000E+00  0.99999998245E-14  0.12500000000E+03  0.12500000000E+03 0.  0.
        -13    1    3    3    0    0 -0.19605815447E+02  0.66489516370E+01 -0.12659210474E+01  0.20741510970E+02  0.10566000000E+00 0.  1.
         23    2    1    0    0    0 -0.10849255787E+01 -0.27003321383E+02  0.39748217870E+02  0.76934656425E+02  0.60072157495E+02 0.  0.
         13    1    3    3    0    0  0.18520889868E+02 -0.33652273020E+02  0.41014138917E+02  0.56193145454E+02  0.10566000000E+00 0. -1.
         22    1    1    0    0    0  0.10849255787E+01  0.27003321383E+02 -0.39748217870E+02  0.48065343575E+02  0.00000000000E+00 0. -1.
</event>
<event>
 5    1  0.6924865E-004  0.9118800E+02  0.7818608E-02  0.1130116E+00
         25   -1    0    0    0    0  0.00000000000E+00  0.00000000000E+00  0.99999998245E-14  0.12500000000E+03  0.12500000000E+03 0.  0.
        -13    1    3    3    0    0 -0.25242405337E+02  0.28807311824E+02 -0.14457879143E+02  0.40939976491E+02  0.10566000000E+00 0.  1.
         23    2    1    0    0    0  0.87710672263E+01 -0.14861367948E+02 -0.22254569242E+02  0.96838719317E+02  0.92653547310E+02 0.  0.
         13    1    3    3    0    0  0.34013472564E+02 -0.43668679772E+02 -0.77966900991E+01  0.55898742825E+02  0.10566000000E+00 0. -1.
         22    1    1    0    0    0 -0.87710672263E+01  0.14861367948E+02  0.22254569242E+02  0.28161280683E+02  0.00000000000E+00 0. -1.
</event>
<event>
 5    1  0.6924865E-004  0.9118800E+02  0.7818608E-02  0.1130116E+00
         25   -1    0    0    0    0  0.00000000000E+00  0.00000000000E+00  0.99999998245E-14  0.12500000000E+03  0.12500000000E+03 0.  0.
        -13    1    3    3    0    0 -0.36256056167E+02 -0.26972270488E+02  0.59674402718E+01  0.45580988268E+02  0.10566000000E+00 0. -1.
         23    2    1    0    0    0 -0.13255670353E+02  0.16286183928E+02  0.19430931453E+02  0.96390321907E+02  0.92046621214E+02 0.  0.
         13    1    3    3    0    0  0.23000385814E+02  0.43258454416E+02  0.13463491181E+02  0.50809333639E+02  0.10566000000E+00 0.  1.
         22    1    1    0    0    0  0.13255670353E+02 -0.16286183928E+02 -0.19430931453E+02  0.28609678093E+02  0.00000000000E+00 0. -1.
</event>
<event>
 5    1  0.6924865E-004  0.9118800E+02  0.7818608E-02  0.1130116E+00
         25   -1    0    0    0    0  0.00000000000E+00  0.00000000000E+00  0.99999998245E-14  0.12500000000E+03  0.12500000000E+03 0.  0.
        -13    1    3    3    0    0 -0.34154416935E+02  0.19976540603E+02  0.10358354584E+02  0.40901015200E+02  0.10566000000E+00 0.  1.
         23    2    1    0    0    0  0.18884254963E+02  0.97948098719E+01  0.20045689471E+02  0.95770168452E+02  0.91200559828E+02 0.  0.
         13    1    3    3    0    0  0.53038671898E+02 -0.10181730731E+02  0.96873348873E+01  0.54869153253E+02  0.10566000000E+00 0. -1.
         22    1    1    0    0    0 -0.18884254963E+02 -0.97948098719E+01 -0.20045689471E+02  0.29229831548E+02  0.00000000000E+00 0. -1.
</event>
<event>
 5    1  0.6924865E-004  0.9118800E+02  0.7818608E-02  0.1130116E+00
         25   -1    0    0    0    0  0.00000000000E+00  0.00000000000E+00  0.99999998245E-14  0.12500000000E+03  0.12500000000E+03 0.  0.
        -13    1    3    3    0    0  0.98203176889E+01 -0.26762901833E+01 -0.54173561936E+02  0.55121566973E+02  0.10566000000E+00 0.  1.
         23    2    1    0    0    0 -0.13925637144E+02  0.96711028467E+01 -0.25810224933E+02  0.94119240437E+02  0.88908999033E+02 0.  0.
         13    1    3    3    0    0 -0.23745954833E+02  0.12347393030E+02  0.28363337003E+02  0.38997673464E+02  0.10566000000E+00 0. -1.
         22    1    1    0    0    0  0.13925637144E+02 -0.96711028467E+01  0.25810224933E+02  0.30880759563E+02  0.00000000000E+00 0. -1.
</event>
<event>
 5    1  0.6924865E-004  0.9118800E+02  0.7818608E-02  0.1130116E+00
         25   -1    0    0    0    0  0.00000000000E+00  0.00000000000E+00  0.99999998245E-14  0.12500000000E+03  0.12500000000E+03 0.  0.
        -13    1    3    3    0    0  0.47374084833E+02 -0.14718896862E+01 -0.18095641026E+02  0.50733950775E+02  0.10566000000E+00 0.  1.
         23    2    1    0    0    0  0.20441698722E+02 -0.34748306082E+01  0.19172984111E+02  0.96759234887E+02  0.92546251798E+02 0.  0.
         13    1    3    3    0    0 -0.26932386111E+02 -0.20029409220E+01  0.37268625137E+02  0.46025284113E+02  0.10566000000E+00 0. -1.
         22    1    1    0    0    0 -0.20441698722E+02  0.34748306082E+01 -0.19172984111E+02  0.28240765113E+02  0.00000000000E+00 0. -1.
</event>
<event>
 5    1  0.6924865E-004  0.9118800E+02  0.7818608E-02  0.1130116E+00
         25   -1    0    0    0    0  0.00000000000E+00  0.00000000000E+00  0.99999998245E-14  0.12500000000E+03  0.12500000000E+03 0.  0.
        -13    1    3    3    0    0  0.43399845224E+02  0.21200000798E+02 -0.30012942036E+02  0.56866285732E+02  0.10566000000E+00 0.  1.
         23    2    1    0    0    0  0.70275325455E+01  0.47414434653E+01 -0.26768897887E+02  0.96920801402E+02  0.92764219128E+02 0.  0.
         13    1    3    3    0    0 -0.36372312678E+02 -0.16458557333E+02  0.32440441491E+01  0.40054515669E+02  0.10566000000E+00 0. -1.
         22    1    1    0    0    0 -0.70275325455E+01 -0.47414434653E+01  0.26768897887E+02  0.28079198598E+02  0.00000000000E+00 0.  1.
</event>
<event>
 5    1  0.6924865E-004  0.9118800E+02  0.7818608E-02  0.1130116E+00
         25   -1    0    0    0    0  0.00000000000E+00  0.00000000000E+00  0.99999998245E-14  0.12500000000E+03  0.12500000000E+03 0.  0.
        -13    1    3    3    0    0  0.97043350025E+01 -0.72767965663E+00  0.28155997486E+02  0.29790518525E+02  0.10566000000E+00 0. -1.
         23    2    1    0    0    0  0.46792103654E+01  0.23487098885E+01 -0.33180258254E+02  0.91409212787E+02  0.85013547136E+02 0.  0.
         13    1    3    3    0    0 -0.50251246371E+01  0.30763895451E+01 -0.61336255740E+02  0.61618694262E+02  0.10566000000E+00 0.  1.
         22    1    1    0    0    0 -0.46792103654E+01 -0.23487098885E+01  0.33180258254E+02  0.33590787213E+02  0.00000000000E+00 0.  1.
</event>
<event>
 5    1  0.6924865E-004  0.9118800E+02  0.7818608E-02  0.1130116E+00
         25   -1    0    0    0    0  0.00000000000E+00  0.00000000000E+00  0.99999998245E-14  0.12500000000E+03  0.12500000000E+03 0.  0.
        -13    1    3    3    0    0  0.17926958191E+02 -0.52752458946E+01  0.28284762573E+02  0.33900486826E+02  0.10566000000E+00 0.  1.
         23    2    1    0    0    0 -0.79251885122E+01 -0.94695330878E+01 -0.27129620172E+02  0.95192333863E+02  0.90405107520E+02 0.  0.
         13    1    3    3    0    0 -0.25852146703E+02 -0.41942871932E+01 -0.55414382745E+02  0.61291847037E+02  0.10566000000E+00 0. -1.
         22    1    1    0    0    0  0.79251885122E+01  0.94695330878E+01  0.27129620172E+02  0.29807666137E+02  0.00000000000E+00 0. -1.
</event>
<event>
 5    1  0.6924865E-004  0.9118800E+02  0.7818608E-02  0.1130116E+00
         25   -1    0    0    0    0  0.00000000000E+00  0.00000000000E+00  0.99999998245E-14  0.12500000000E+03  0.12500000000E+03 0.  0.
        -13    1    3    3    0    0  0.61295202249E+01 -0.31599461991E+02 -0.12140159801E+02  0.34401913614E+02  0.10566000000E+00 0. -1.
         23    2    1    0    0    0 -0.26773394462E+02  0.15254916696E+02 -0.12733402687E+02  0.91658334199E+02  0.85379058028E+02 0.  0.
         13    1    3    3    0    0 -0.32902914687E+02  0.46854378687E+02 -0.59324288564E+00  0.57256420585E+02  0.10566000000E+00 0.  1.
         22    1    1    0    0    0  0.26773394462E+02 -0.15254916696E+02  0.12733402687E+02  0.33341665801E+02  0.00000000000E+00 0.  1.
</event>
<event>
 5    1  0.6924865E-004  0.9118800E+02  0.7818608E-02  0.1130116E+00
         25   -1    0    0    0    0  0.00000000000E+00  0.00000000000E+00  0.99999998245E-14  0.12500000000E+03  0.12500000000E+03 0.  0.
        -13    1    3    3    0    0  0.78870829744E+01  0.59013104634E+02  0.12614608260E+02  0.60859609775E+02  0.10566000000E+00 0.  1.
         23    2    1    0    0    0  0.11896455805E+02  0.25005051642E+02  0.11192258482E+02  0.95132878976E+02  0.90322863905E+02 0.  0.
         13    1    3    3    0    0  0.40093728305E+01 -0.34008052992E+02 -0.14223497778E+01  0.34273269201E+02  0.10566000000E+00 0. -1.
         22    1    1    0    0    0 -0.11896455805E+02 -0.25005051642E+02 -0.11192258482E+02  0.29867121024E+02  0.00000000000E+00 0.  1.
</event>
<event>
 5    1  0.6924865E-004  0.9118800E+02  0.7818608E-02  0.1130116E+00
         25   -1    0    0    0    0  0.00000000000E+00  0.00000000000E+00  0.99999998245E-14  0.12500000000E+03  0.12500000000E+03 0.  0.
        -13    1    3    3    0    0  0.23434835210E+02  0.78360541815E+01 -0.33012115630E+02  0.41235981726E+02  0.10566000000E+00 0.  1.
         23    2    1    0    0    0  0.14680412623E+02  0.12269769889E+02  0.21265904214E+02  0.96394048697E+02  0.92051682082E+02 0.  0.
         13    1    3    3    0    0 -0.87544225870E+01  0.44337157074E+01  0.54278019844E+02  0.55158066971E+02  0.10566000000E+00 0. -1.
         22    1    1    0    0    0 -0.14680412623E+02 -0.12269769889E+02 -0.21265904214E+02  0.28605951303E+02  0.00000000000E+00 0. -1.
</event>
<event>
 5    1  0.6924865E-004  0.9118800E+02  0.7818608E-02  0.1130116E+00
         25   -1    0    0    0    0  0.00000000000E+00  0.00000000000E+00  0.99999998245E-14  0.12500000000E+03  0.12500000000E+03 0.  0.
        -13    1    3    3    0    0  0.13603150652E+02  0.35482166517E+02  0.29677656884E+02  0.48216224765E+02  0.10566000000E+00 0. -1.
         23    2    1    0    0    0 -0.23107032826E+02  0.15793751821E+02  0.52002523739E+01  0.96532120076E+02  0.92238983186E+02 0.  0.
         13    1    3    3    0    0 -0.36710183478E+02 -0.19688414696E+02 -0.24477404510E+02  0.48315895312E+02  0.10566000000E+00 0.  1.
         22    1    1    0    0    0  0.23107032826E+02 -0.15793751821E+02 -0.52002523739E+01  0.28467879924E+02  0.00000000000E+00 0. -1.
</event>
<event>
 5    1  0.6924865E-004  0.9118800E+02  0.7818608E-02  0.1130116E+00
         25   -1    0    0    0    0  0.00000000000E+00  0.00000000000E+00  0.99999998245E-14  0.12500000000E+03  0.12500000000E+03 0.  0.
        -13    1    3    3    0    0  0.20638838918E+02 -0.34720962345E+02  0.17557675194E+00  0.40392436041E+02  0.10566000000E+00 0. -1.
         23    2    1    0    0    0 -0.24373336789E+02 -0.37799449343E+01  0.13868550643E+02  0.96703635801E+02  0.92471124953E+02 0.  0.
         13    1    3    3    0    0 -0.45012175708E+02  0.30941017411E+02  0.13692973892E+02  0.56311199760E+02  0.10566000000E+00 0.  1.
         22    1    1    0    0    0  0.24373336789E+02  0.37799449343E+01 -0.13868550643E+02  0.28296364199E+02  0.00000000000E+00 0. -1.
</event>
<event>
 5    1  0.6924865E-004  0.9118800E+02  0.7818608E-02  0.1130116E+00
         25   -1    0    0    0    0  0.00000000000E+00  0.00000000000E+00  0.99999998245E-14  0.12500000000E+03  0.12500000000E+03 0.  0.
        -13    1    3    3    0    0  0.32940501766E+02  0.95061225490E+01  0.14607211484E+02  0.37266939958E+02  0.10566000000E+00 0. -1.
         23    2    1    0    0    0  0.17382791697E+02 -0.46885616769E+01 -0.31927815051E+02  0.88345812904E+02  0.80383165066E+02 0.  0.
         13    1    3    3    0    0 -0.15557710069E+02 -0.14194684226E+02 -0.46535026534E+02  0.51078872946E+02  0.10566000000E+00 0.  1.
         22    1    1    0    0    0 -0.17382791697E+02  0.46885616769E+01  0.31927815051E+02  0.36654187096E+02  0.00000000000E+00 0.  1.
</event>
<event>
 5    1  0.6924865E-004  0.9118800E+02  0.7818608E-02  0.1130116E+00
         25   -1    0    0    0    0  0.00000000000E+00  0.00000000000E+00  0.99999998245E-14  0.12500000000E+03  0.12500000000E+03 0.  0.
        -13    1    3    3    0    0  0.41508561973E+01  0.37454077019E+02 -0.19423529280E+02  0.42394836315E+02  0.10566000000E+00 0. -1.
         23    2    1    0    0    0  0.18924237066E+02  0.34054035429E+01  0.20491486923E+02  0.96899740959E+02  0.92735835791E+02 0.  0.
         13    1    3    3    0    0  0.14773380868E+02 -0.34048673476E+02  0.39915016203E+02  0.54504904644E+02  0.10566000000E+00 0.  1.
         22    1    1    0    0    0 -0.18924237066E+02 -0.34054035429E+01 -0.20491486923E+02  0.28100259041E+02  0.00000000000E+00 0.  1.
</event>
<event>
 5    1  0.6924865E-004  0.9118800E+02  0.7818608E-02  0.1130116E+00
         25   -1    0    0    0    0  0.00000000000E+00  0.00000000000E+00  0.99999998245E-14  0.12500000000E+03  0.12500000000E+03 0.  0.
        -13    1    3    3    0    0  0.21784274784E+02 -0.19481418757E+02  0.17778357177E+02  0.34207622727E+02  0.10566000000E+00 0.  1.
         23    2    1    0    0    0 -0.27743434028E+02  0.83111112919E+01 -0.53841388143E+01  0.95542205559E+02  0.90887575552E+02 0.  0.
         13    1    3    3    0    0 -0.49527708812E+02  0.27792530048E+02 -0.23162495992E+02  0.61334582833E+02  0.10566000000E+00 0. -1.
         22    1    1    0    0    0  0.27743434028E+02 -0.83111112919E+01  0.53841388143E+01  0.29457794441E+02  0.00000000000E+00 0. -1.
</event>
<event>
 5    1  0.6924865E-004  0.9118800E+02  0.7818608E-02  0.1130116E+00
         25   -1    0    0    0    0  0.00000000000E+00  0.00000000000E+00  0.99999998245E-14  0.12500000000E+03  0.12500000000E+03 0.  0.
        -13    1    3    3    0    0 -0.20886537563E+02  0.31510328968E+02  0.15781099061E+02  0.40965870364E+02  0.10566000000E+00 0. -1.
         23    2    1    0    0    0  0.26498450712E+02  0.61521350506E+01  0.13178868686E+02  0.94772541693E+02  0.89822800131E+02 0.  0.
         13    1    3    3    0    0  0.47384988275E+02 -0.25358193917E+02 -0.26022303745E+01  0.53806671330E+02  0.10566000000E+00 0.  1.
         22    1    1    0    0    0 -0.26498450712E+02 -0.61521350506E+01 -0.13178868686E+02  0.30227458307E+02  0.00000000000E+00 0.  1.
</event>
<event>
 5    1  0.6924865E-004  0.9118800E+02  0.7818608E-02  0.1130116E+00
         25   -1    0    0    0    0  0.00000000000E+00  0.00000000000E+00  0.99999998245E-14  0.12500000000E+03  0.12500000000E+03 0.  0.
        -13    1    3    3    0    0 -0.22776824256E+02  0.14386635991E+02 -0.13303028040E+02  0.30045644233E+02  0.10566000000E+00 0. -1.
         23    2    1    0    0    0  0.16499589456E+02 -0.30269292305E+02 -0.30845965814E+01  0.90388134333E+02  0.83498704082E+02 0.  0.
         13    1    3    3    0    0  0.39276413712E+02 -0.44655928295E+02  0.10218431458E+02  0.60342490100E+02  0.10566000000E+00 0.  1.
         22    1    1    0    0    0 -0.16499589456E+02  0.30269292305E+02  0.30845965814E+01  0.34611865667E+02  0.00000000000E+00 0.  1.
</event>
<event>
 5    1  0.6924865E-004  0.9118800E+02  0.7818608E-02  0.1130116E+00
         25   -1    0    0    0    0  0.00000000000E+00  0.00000000000E+00  0.99999998245E-14  0.12500000000E+03  0.12500000000E+03 0.  0.
        -13    1    3    3    0    0  0.47596262133E+02 -0.85984619305E+01  0.25192547365E+00  0.48367471994E+02  0.10566000000E+00 0.  1.
         23    2    1    0    0    0  0.14020887343E+02  0.23070652185E+02  0.11149619916E+02  0.95791194848E+02  0.91229374173E+02 0.  0.
         13    1    3    3    0    0 -0.33575374789E+02  0.31669114116E+02  0.10897694443E+02  0.47423722854E+02  0.10566000000E+00 0. -1.
         22    1    1    0    0    0 -0.14020887343E+02 -0.23070652185E+02 -0.11149619916E+02  0.29208805152E+02  0.00000000000E+00 0. -1.
</event>
<event>
 5    1  0.6924865E-004  0.9118800E+02  0.7818608E-02  0.1130116E+00
         25   -1    0    0    0    0  0.00000000000E+00  0.00000000000E+00  0.99999998245E-14  0.12500000000E+03  0.12500000000E+03 0.  0.
        -13    1    3    3    0    0 -0.41054057394E+02  0.15120742207E+01 -0.49957616627E+01  0.41384668605E+02  0.10566000000E+00 0.  1.
         23    2    1    0    0    0  0.16540731761E+00 -0.10529610697E+01  0.29673863783E+02  0.95306999505E+02  0.90563512942E+02 0.  0.
         13    1    3    3    0    0  0.41219464711E+02 -0.25650352904E+01  0.34669625445E+02  0.53922330900E+02  0.10566000000E+00 0. -1.
         22    1    1    0    0    0 -0.16540731761E+00  0.10529610697E+01 -0.29673863783E+02  0.29693000495E+02  0.00000000000E+00 0. -1.
</event>
<event>
 5    1  0.6924865E-004  0.9118800E+02  0.7818608E-02  0.1130116E+00
         25   -1    0    0    0    0  0.00000000000E+00  0.00000000000E+00  0.99999998245E-14  0.12500000000E+03  0.12500000000E+03 0.  0.
        -13    1    3    3    0    0 -0.25848961720E+01 -0.11585998894E+02  0.53225821100E+02  0.54533624988E+02  0.10566000000E+00 0. -1.
         23    2    1    0    0    0  0.40250282435E+01 -0.24975709778E+02  0.14960405230E+02  0.95609514194E+02  0.90980099739E+02 0.  0.
         13    1    3    3    0    0  0.66099244155E+01 -0.13389710884E+02 -0.38265415870E+02  0.41075889206E+02  0.10566000000E+00 0.  1.
         22    1    1    0    0    0 -0.40250282435E+01  0.24975709778E+02 -0.14960405230E+02  0.29390485806E+02  0.00000000000E+00 0. -1.
</event>
<event>
 5    1  0.6924865E-004  0.9118800E+02  0.7818608E-02  0.1130116E+00
         25   -1    0    0    0    0  0.00000000000E+00  0.00000000000E+00  0.99999998245E-14  0.12500000000E+03  0.12500000000E+03 0.  0.
        -13    1    3    3    0    0  0.12197008289E+02 -0.13029156478E+02  0.28823713358E+02  0.33901969641E+02  0.10566000000E+00 0.  1.
         23    2    1    0    0    0 -0.21733963873E+01  0.20262732149E+02 -0.21139674636E+02  0.95636965250E+02  0.91017807667E+02 0.  0.
         13    1    3    3    0    0 -0.14370404676E+02  0.33291888628E+02 -0.49963387994E+02  0.61734995609E+02  0.10566000000E+00 0. -1.
         22    1    1    0    0    0  0.21733963873E+01 -0.20262732149E+02  0.21139674636E+02  0.29363034750E+02  0.00000000000E+00 0. -1.
</event>
<event>
 5    1  0.6924865E-004  0.9118800E+02  0.7818608E-02  0.1130116E+00
         25   -1    0    0    0    0  0.00000000000E+00  0.00000000000E+00  0.99999998245E-14  0.12500000000E+03  0.12500000000E+03 0.  0.
        -13    1    3    3    0    0 -0.10225187946E+02 -0.77880367993E+01  0.20473563366E+02  0.24174075921E+02  0.10566000000E+00 0. -1.
         23    2    1    0    0    0  0.13632540077E+02  0.36379813804E+02 -0.12446011734E+02  0.84204899688E+02  0.73662914157E+02 0.  0.
         13    1    3    3    0    0  0.23857728023E+02  0.44167850603E+02 -0.32919575100E+02  0.60030823767E+02  0.10566000000E+00 0.  1.
         22    1    1    0    0    0 -0.13632540077E+02 -0.36379813804E+02  0.12446011734E+02  0.40795100312E+02  0.00000000000E+00 0.  1.
</event>
<event>
 5    1  0.6924865E-004  0.9118800E+02  0.7818608E-02  0.1130116E+00
         25   -1    0    0    0    0  0.00000000000E+00  0.00000000000E+00  0.99999998245E-14  0.12500000000E+03  0.12500000000E+03 0.  0.
        -13    1    3    3    0    0  0.41339149855E+00  0.24927747949E+02  0.46511368967E+02  0.52771982316E+02  0.10566000000E+00 0.  1.
         23    2    1    0    0    0  0.21591712931E+02  0.16379828655E+02  0.94638243363E+01  0.96293470688E+02  0.91915002432E+02 0.  0.
         13    1    3    3    0    0  0.21178321432E+02 -0.85479192935E+01 -0.37047544631E+02  0.43521488372E+02  0.10566000000E+00 0. -1.
         22    1    1    0    0    0 -0.21591712931E+02 -0.16379828655E+02 -0.94638243363E+01  0.28706529312E+02  0.00000000000E+00 0.  1.
</event>
<event>
 5    1  0.6924865E-004  0.9118800E+02  0.7818608E-02  0.1130116E+00
         25   -1    0    0    0    0  0.00000000000E+00  0.00000000000E+00  0.99999998245E-14  0.12500000000E+03  0.12500000000E+03 0.  0.
        -13    1    3    3    0    0  0.15207577484E+02 -0.51594153533E+02 -0.28841795374E+02  0.61033494215E+02  0.10566000000E+00 0.  1.
         23    2    1    0    0    0 -0.94139975970E+00 -0.22948757756E+02 -0.18507760829E+02  0.95503069194E+02  0.90833734365E+02 0.  0.
         13    1    3    3    0    0 -0.16148977243E+02  0.28645395777E+02  0.10334034545E+02  0.34469574979E+02  0.10566000000E+00 0. -1.
         22    1    1    0    0    0  0.94139975970E+00  0.22948757756E+02  0.18507760829E+02  0.29496930806E+02  0.00000000000E+00 0.  1.
</event>
<event>
 5    1  0.6924865E-004  0.9118800E+02  0.7818608E-02  0.1130116E+00
         25   -1    0    0    0    0  0.00000000000E+00  0.00000000000E+00  0.99999998245E-14  0.12500000000E+03  0.12500000000E+03 0.  0.
        -13    1    3    3    0    0  0.82482312357E+01  0.24314585532E+01  0.33057219092E+02  0.34157520509E+02  0.10566000000E+00 0.  1.
         23    2    1    0    0    0  0.14130642277E-01  0.29696994296E+02 -0.16285622147E+02  0.91130645731E+02  0.84602963498E+02 0.  0.
         13    1    3    3    0    0 -0.82341005935E+01  0.27265535743E+02 -0.49342841239E+02  0.56973125222E+02  0.10566000000E+00 0. -1.
         22    1    1    0    0    0 -0.14130642277E-01 -0.29696994296E+02  0.16285622147E+02  0.33869354269E+02  0.00000000000E+00 0. -1.
</event>
<event>
 5    1  0.6924865E-004  0.9118800E+02  0.7818608E-02  0.1130116E+00
         25   -1    0    0    0    0  0.00000000000E+00  0.00000000000E+00  0.99999998245E-14  0.12500000000E+03  0.12500000000E+03 0.  0.
        -13    1    3    3    0    0 -0.47546836194E+01 -0.45921512419E+02  0.30348903829E+02  0.55249067385E+02  0.10566000000E+00 0.  1.
         23    2    1    0    0    0 -0.35888088418E-01 -0.37288312733E+02 -0.58191372709E+00  0.87707129662E+02  0.79383766701E+02 0.  0.
         13    1    3    3    0    0  0.47187955310E+01  0.86331996863E+01 -0.30930817556E+02  0.32458062278E+02  0.10566000000E+00 0. -1.
         22    1    1    0    0    0  0.35888088418E-01  0.37288312733E+02  0.58191372709E+00  0.37292870338E+02  0.00000000000E+00 0.  1.
</event>
<event>
 5    1  0.6924865E-004  0.9118800E+02  0.7818608E-02  0.1130116E+00
         25   -1    0    0    0    0  0.00000000000E+00  0.00000000000E+00  0.99999998245E-14  0.12500000000E+03  0.12500000000E+03 0.  0.
        -13    1    3    3    0    0  0.34078325544E+02 -0.52309843091E+01 -0.40103209281E+02  0.52886425739E+02  0.10566000000E+00 0.  1.
         23    2    1    0    0    0  0.32848158445E+02 -0.10227283277E+02 -0.28662788331E+01  0.90477335114E+02  0.83632133648E+02 0.  0.
         13    1    3    3    0    0 -0.12301670986E+01 -0.49962989676E+01  0.37236930448E+02  0.37590909376E+02  0.10566000000E+00 0. -1.
         22    1    1    0    0    0 -0.32848158445E+02  0.10227283277E+02  0.28662788331E+01  0.34522664886E+02  0.00000000000E+00 0.  1.
</event>
<event>
 5    1  0.6924865E-004  0.9118800E+02  0.7818608E-02  0.1130116E+00
         25   -1    0    0    0    0  0.00000000000E+00  0.00000000000E+00  0.99999998245E-14  0.12500000000E+03  0.12500000000E+03 0.  0.
        -13    1    3    3    0    0 -0.21078117520E+01 -0.28915125788E+02 -0.35588046642E+02  0.45902588136E+02  0.10566000000E+00 0.  1.
         23    2    1    0    0    0 -0.21160855460E+02  0.12519621740E+02 -0.16771718441E+02  0.95237384662E+02  0.90467376250E+02 0.  0.
         13    1    3    3    0    0 -0.19053043708E+02  0.41434747529E+02  0.18816328201E+02  0.49334796526E+02  0.10566000000E+00 0. -1.
         22    1    1    0    0    0  0.21160855460E+02 -0.12519621740E+02  0.16771718441E+02  0.29762615338E+02  0.00000000000E+00 0.  1.
</event>
<event>
 5    1  0.6924865E-004  0.9118800E+02  0.7818608E-02  0.1130116E+00
         25   -1    0    0    0    0  0.00000000000E+00  0.00000000000E+00  0.99999998245E-14  0.12500000000E+03  0.12500000000E+03 0.  0.
        -13    1    3    3    0    0  0.37378282620E+01  0.37815234157E+02  0.24334213632E+02  0.45123479604E+02  0.10566000000E+00 0. -1.
         23    2    1    0    0    0  0.24139736153E+02 -0.71480048161E+01  0.15925883175E+02  0.95209823946E+02  0.90429287217E+02 0.  0.
         13    1    3    3    0    0  0.20401907891E+02 -0.44963238973E+02 -0.84083304567E+01  0.50086344343E+02  0.10566000000E+00 0.  1.
         22    1    1    0    0    0 -0.24139736153E+02  0.71480048161E+01 -0.15925883175E+02  0.29790176054E+02  0.00000000000E+00 0.  1.
</event>
<event>
 5    1  0.6924865E-004  0.9118800E+02  0.7818608E-02  0.1130116E+00
         25   -1    0    0    0    0  0.00000000000E+00  0.00000000000E+00  0.99999998245E-14  0.12500000000E+03  0.12500000000E+03 0.  0.
        -13    1    3    3    0    0 -0.14672968935E+02  0.36914956176E+02  0.86627807640E+01  0.40657901341E+02  0.10566000000E+00 0. -1.
         23    2    1    0    0    0 -0.22559306156E+02 -0.16984455969E+02  0.97031613819E+01  0.95141242833E+02  0.90334438107E+02 0.  0.
         13    1    3    3    0    0 -0.78863372206E+01 -0.53899412144E+02  0.10403806179E+01  0.54483341492E+02  0.10566000000E+00 0.  1.
         22    1    1    0    0    0  0.22559306156E+02  0.16984455969E+02 -0.97031613819E+01  0.29858757167E+02  0.00000000000E+00 0.  1.
</event>
<event>
 5    1  0.6924865E-004  0.9118800E+02  0.7818608E-02  0.1130116E+00
         25   -1    0    0    0    0  0.00000000000E+00  0.00000000000E+00  0.99999998245E-14  0.12500000000E+03  0.12500000000E+03 0.  0.
        -13    1    3    3    0    0  0.40422575731E+02 -0.16079938954E+02  0.10950469451E+02  0.44860595301E+02  0.10566000000E+00 0.  1.
         23    2    1    0    0    0 -0.36966569305E+01 -0.13432777246E+02 -0.21281505871E+02  0.99563662426E+02  0.96259626046E+02 0.  0.
         13    1    3    3    0    0 -0.44119232662E+02  0.26471617071E+01 -0.32231975322E+02  0.54703067126E+02  0.10566000000E+00 0. -1.
         22    1    1    0    0    0  0.36966569305E+01  0.13432777246E+02  0.21281505871E+02  0.25436337574E+02  0.00000000000E+00 0.  1.
</event>
<event>
 5    1  0.6924865E-004  0.9118800E+02  0.7818608E-02  0.1130116E+00
         25   -1    0    0    0    0  0.00000000000E+00  0.00000000000E+00  0.99999998245E-14  0.12500000000E+03  0.12500000000E+03 0.  0.
        -13    1    3    3    0    0 -0.44812936375E+02  0.46677290333E+01  0.85937566445E+01  0.45867753141E+02  0.10566000000E+00 0. -1.
         23    2    1    0    0    0 -0.68235127794E+01  0.16652724564E+02 -0.22346898964E+02  0.96307536611E+02  0.91934129422E+02 0.  0.
         13    1    3    3    0    0  0.37989423595E+02  0.11984995531E+02 -0.30940655608E+02  0.50439783470E+02  0.10566000000E+00 0.  1.
         22    1    1    0    0    0  0.68235127794E+01 -0.16652724564E+02  0.22346898964E+02  0.28692463389E+02  0.00000000000E+00 0.  1.
</event>
<event>
 5    1  0.6924865E-004  0.9118800E+02  0.7818608E-02  0.1130116E+00
         25   -1    0    0    0    0  0.00000000000E+00  0.00000000000E+00  0.99999998245E-14  0.12500000000E+03  0.12500000000E+03 0.  0.
        -13    1    3    3    0    0 -0.52051183024E+02 -0.29864950759E+02 -0.55498035160E+01  0.60266511606E+02  0.10566000000E+00 0.  1.
         23    2    1    0    0    0 -0.21760120650E+02 -0.15394655447E+02  0.90172688821E+01  0.96860891892E+02  0.92683455767E+02 0.  0.
         13    1    3    3    0    0  0.30291062375E+02  0.14470295312E+02  0.14567072398E+02  0.36594380286E+02  0.10566000000E+00 0. -1.
         22    1    1    0    0    0  0.21760120650E+02  0.15394655447E+02 -0.90172688821E+01  0.28139108108E+02  0.00000000000E+00 0.  1.
</event>
<event>
 5    1  0.6924865E-004  0.9118800E+02  0.7818608E-02  0.1130116E+00
         25   -1    0    0    0    0  0.00000000000E+00  0.00000000000E+00  0.99999998245E-14  0.12500000000E+03  0.12500000000E+03 0.  0.
        -13    1    3    3    0    0 -0.33842734546E+02  0.24229509653E+02  0.14486827655E+02  0.44071296318E+02  0.10566000000E+00 0.  1.
         23    2    1    0    0    0 -0.13407111065E+02 -0.23617905506E+02  0.98197481110E+00  0.97824268876E+02  0.93973758140E+02 0.  0.
         13    1    3    3    0    0  0.20435623481E+02 -0.47847415159E+02 -0.13504852844E+02  0.53752972558E+02  0.10566000000E+00 0. -1.
         22    1    1    0    0    0  0.13407111065E+02  0.23617905506E+02 -0.98197481110E+00  0.27175731124E+02  0.00000000000E+00 0. -1.
</event>
<event>
 5    1  0.6924865E-004  0.9118800E+02  0.7818608E-02  0.1130116E+00
         25   -1    0    0    0    0  0.00000000000E+00  0.00000000000E+00  0.99999998245E-14  0.12500000000E+03  0.12500000000E+03 0.  0.
        -13    1    3    3    0    0  0.48127579648E+02  0.13470523527E+02  0.15817053019E+02  0.52420504167E+02  0.10566000000E+00 0. -1.
         23    2    1    0    0    0  0.14202554891E+02 -0.85024757281E+01  0.26068816139E+02  0.94119782484E+02  0.88909761112E+02 0.  0.
         13    1    3    3    0    0 -0.33925024758E+02 -0.21972999255E+02  0.10251763121E+02  0.41699278317E+02  0.10566000000E+00 0.  1.
         22    1    1    0    0    0 -0.14202554891E+02  0.85024757281E+01 -0.26068816139E+02  0.30880217516E+02  0.00000000000E+00 0.  1.
</event>
<event>
 5    1  0.6924865E-004  0.9118800E+02  0.7818608E-02  0.1130116E+00
         25   -1    0    0    0    0  0.00000000000E+00  0.00000000000E+00  0.99999998245E-14  0.12500000000E+03  0.12500000000E+03 0.  0.
        -13    1    3    3    0    0  0.45368321468E+02 -0.47437152181E+01 -0.20935807528E+02  0.50190702603E+02  0.10566000000E+00 0. -1.
         23    2    1    0    0    0  0.13059292236E+01  0.17925291383E+02 -0.17584350199E+02  0.99855798000E+02  0.96638240361E+02 0.  0.
         13    1    3    3    0    0 -0.44062392244E+02  0.22669006601E+02  0.33514573295E+01  0.49665095397E+02  0.10566000000E+00 0.  1.
         22    1    1    0    0    0 -0.13059292236E+01 -0.17925291383E+02  0.17584350199E+02  0.25144202000E+02  0.00000000000E+00 0.  1.
</event>
<event>
 5    1  0.6924865E-004  0.9118800E+02  0.7818608E-02  0.1130116E+00
         25   -1    0    0    0    0  0.00000000000E+00  0.00000000000E+00  0.99999998245E-14  0.12500000000E+03  0.12500000000E+03 0.  0.
        -13    1    3    3    0    0 -0.15365784850E+02  0.16222109426E+02  0.36314146552E+02  0.42637924224E+02  0.10566000000E+00 0. -1.
         23    2    1    0    0    0  0.25060891159E+02 -0.80672129830E+01  0.87923087773E+01  0.97243327205E+02  0.93197810067E+02 0.  0.
         13    1    3    3    0    0  0.40426676010E+02 -0.24289322409E+02 -0.27521837774E+02  0.54605402982E+02  0.10566000000E+00 0.  1.
         22    1    1    0    0    0 -0.25060891159E+02  0.80672129830E+01 -0.87923087773E+01  0.27756672795E+02  0.00000000000E+00 0.  1.
</event>
<event>
 5    1  0.6924865E-004  0.9118800E+02  0.7818608E-02  0.1130116E+00
         25   -1    0    0    0    0  0.00000000000E+00  0.00000000000E+00  0.99999998245E-14  0.12500000000E+03  0.12500000000E+03 0.  0.
        -13    1    3    3    0    0 -0.34737232968E+02  0.44557696718E+02  0.19453646960E+01  0.56531931675E+02  0.10566000000E+00 0.  1.
         23    2    1    0    0    0 -0.31367792679E+02  0.91429144037E+01  0.34948237535E+01  0.92140525044E+02  0.86082119287E+02 0.  0.
         13    1    3    3    0    0  0.33694402892E+01 -0.35414782315E+02  0.15494590575E+01  0.35608593368E+02  0.10566000000E+00 0. -1.
         22    1    1    0    0    0  0.31367792679E+02 -0.91429144037E+01 -0.34948237535E+01  0.32859474956E+02  0.00000000000E+00 0. -1.
</event>
<event>
 5    1  0.6924865E-004  0.9118800E+02  0.7818608E-02  0.1130116E+00
         25   -1    0    0    0    0  0.00000000000E+00  0.00000000000E+00  0.99999998245E-14  0.12500000000E+03  0.12500000000E+03 0.  0.
        -13    1    3    3    0    0 -0.18972975875E+02  0.48548768857E+02 -0.31706995503E+02  0.61010667092E+02  0.10566000000E+00 0. -1.
         23    2    1    0    0    0 -0.35998082822E+01  0.28393227557E+02 -0.91241183801E+01  0.94960300818E+02  0.90083712204E+02 0.  0.
         13    1    3    3    0    0  0.15373167593E+02 -0.20155541300E+02  0.22582877123E+02  0.33949633726E+02  0.10566000000E+00 0.  1.
         22    1    1    0    0    0  0.35998082822E+01 -0.28393227557E+02  0.91241183801E+01  0.30039699182E+02  0.00000000000E+00 0. -1.
</event>
<event>
 5    1  0.6924865E-004  0.9118800E+02  0.7818608E-02  0.1130116E+00
         25   -1    0    0    0    0  0.00000000000E+00  0.00000000000E+00  0.99999998245E-14  0.12500000000E+03  0.12500000000E+03 0.  0.
        -13    1    3    3    0    0 -0.28371771090E+02 -0.25228886258E+02  0.45878908211E+02  0.59551150109E+02  0.10566000000E+00 0.  1.
         23    2    1    0    0    0 -0.23820506103E+02 -0.56157647860E+01  0.15385814894E+02  0.96091928029E+02  0.91640504184E+02 0.  0.
         13    1    3    3    0    0  0.45512649873E+01  0.19613121472E+02 -0.30493093317E+02  0.36540777919E+02  0.10566000000E+00 0. -1.
         22    1    1    0    0    0  0.23820506103E+02  0.56157647860E+01 -0.15385814894E+02  0.28908071971E+02  0.00000000000E+00 0.  1.
</event>
<event>
 5    1  0.6924865E-004  0.9118800E+02  0.7818608E-02  0.1130116E+00
         25   -1    0    0    0    0  0.00000000000E+00  0.00000000000E+00  0.99999998245E-14  0.12500000000E+03  0.12500000000E+03 0.  0.
        -13    1    3    3    0    0  0.18912199567E+02 -0.21523918547E+02  0.18407634864E+02  0.34055873905E+02  0.10566000000E+00 0.  1.
         23    2    1    0    0    0  0.73509405613E+01 -0.14410754746E+02 -0.33547798573E+02  0.87755390073E+02  0.79459722617E+02 0.  0.
         13    1    3    3    0    0 -0.11561259006E+02  0.71131638014E+01 -0.51955433437E+02  0.53699516169E+02  0.10566000000E+00 0. -1.
         22    1    1    0    0    0 -0.73509405613E+01  0.14410754746E+02  0.33547798573E+02  0.37244609927E+02  0.00000000000E+00 0. -1.
</event>
<event>
 5    1  0.6924865E-004  0.9118800E+02  0.7818608E-02  0.1130116E+00
         25   -1    0    0    0    0  0.00000000000E+00  0.00000000000E+00  0.99999998245E-14  0.12500000000E+03  0.12500000000E+03 0.  0.
        -13    1    3    3    0    0 -0.43054093269E+02  0.63164947491E+01  0.14769583534E+02  0.45953289489E+02  0.10566000000E+00 0.  1.
         23    2    1    0    0    0  0.49867167568E+01  0.13218585827E+01  0.28396527434E+02  0.96138651722E+02  0.91704214355E+02 0.  0.
         13    1    3    3    0    0  0.48040810025E+02 -0.49946361664E+01  0.13626943900E+02  0.50185362233E+02  0.10566000000E+00 0. -1.
         22    1    1    0    0    0 -0.49867167568E+01 -0.13218585827E+01 -0.28396527434E+02  0.28861348278E+02  0.00000000000E+00 0. -1.
</event>
<event>
 5    1  0.6924865E-004  0.9118800E+02  0.7818608E-02  0.1130116E+00
         25   -1    0    0    0    0  0.00000000000E+00  0.00000000000E+00  0.99999998245E-14  0.12500000000E+03  0.12500000000E+03 0.  0.
        -13    1    3    3    0    0  0.42478850014E+02 -0.20342058867E+02  0.12747114893E+02  0.48792951946E+02  0.10566000000E+00 0.  1.
         23    2    1    0    0    0  0.17404804168E+02  0.17481266635E+02 -0.85105723717E+01  0.98904948105E+02  0.95400403701E+02 0.  0.
         13    1    3    3    0    0 -0.25074045846E+02  0.37823325502E+02 -0.21257687265E+02  0.50111996159E+02  0.10566000000E+00 0. -1.
         22    1    1    0    0    0 -0.17404804168E+02 -0.17481266635E+02  0.85105723717E+01  0.26095051895E+02  0.00000000000E+00 0.  1.
</event>
<event>
 5    1  0.6924865E-004  0.9118800E+02  0.7818608E-02  0.1130116E+00
         25   -1    0    0    0    0  0.00000000000E+00  0.00000000000E+00  0.99999998245E-14  0.12500000000E+03  0.12500000000E+03 0.  0.
        -13    1    3    3    0    0 -0.19989638774E+01  0.30647134492E+02 -0.54154466918E+02  0.62257209706E+02  0.10566000000E+00 0. -1.
         23    2    1    0    0    0  0.12322420659E+00  0.20612921811E+02 -0.29018013831E+02  0.89405718767E+02  0.82014813856E+02 0.  0.
         13    1    3    3    0    0  0.21221880840E+01 -0.10034212682E+02  0.25136453087E+02  0.27148509061E+02  0.10566000000E+00 0.  1.
         22    1    1    0    0    0 -0.12322420659E+00 -0.20612921811E+02  0.29018013831E+02  0.35594281233E+02  0.00000000000E+00 0. -1.
</event>
<event>
 5    1  0.6924865E-004  0.9118800E+02  0.7818608E-02  0.1130116E+00
         25   -1    0    0    0    0  0.00000000000E+00  0.00000000000E+00  0.99999998245E-14  0.12500000000E+03  0.12500000000E+03 0.  0.
        -13    1    3    3    0    0  0.39898532259E+02 -0.87971548077E+01  0.34042860619E+02  0.53180920755E+02  0.10566000000E+00 0. -1.
         23    2    1    0    0    0  0.16214166657E+02  0.20087931346E+02  0.15569464299E+02  0.94853152657E+02  0.89934910709E+02 0.  0.
         13    1    3    3    0    0 -0.23684365602E+02  0.28885086154E+02 -0.18473396320E+02  0.41672231902E+02  0.10566000000E+00 0.  1.
         22    1    1    0    0    0 -0.16214166657E+02 -0.20087931346E+02 -0.15569464299E+02  0.30146847343E+02  0.00000000000E+00 0. -1.
</event>
<event>
 5    1  0.6924865E-004  0.9118800E+02  0.7818608E-02  0.1130116E+00
         25   -1    0    0    0    0  0.00000000000E+00  0.00000000000E+00  0.99999998245E-14  0.12500000000E+03  0.12500000000E+03 0.  0.
        -13    1    3    3    0    0 -0.55618139504E+02  0.19233451045E+02 -0.30975207410E+01  0.58931391293E+02  0.10566000000E+00 0. -1.
         23    2    1    0    0    0 -0.19218059228E+02  0.22138109706E+02 -0.36936226835E+01  0.95452198891E+02  0.90763702672E+02 0.  0.
         13    1    3    3    0    0  0.36400080276E+02  0.29046586606E+01 -0.59610194246E+00  0.36520807597E+02  0.10566000000E+00 0.  1.
         22    1    1    0    0    0  0.19218059228E+02 -0.22138109706E+02  0.36936226835E+01  0.29547801109E+02  0.00000000000E+00 0. -1.
</event>
<event>
 5    1  0.6924865E-004  0.9118800E+02  0.7818608E-02  0.1130116E+00
         25   -1    0    0    0    0  0.00000000000E+00  0.00000000000E+00  0.99999998245E-14  0.12500000000E+03  0.12500000000E+03 0.  0.
        -13    1    3    3    0    0  0.32258897389E+02 -0.29246831009E+02  0.34003833078E+02  0.55247492368E+02  0.10566000000E+00 0. -1.
         23    2    1    0    0    0  0.40953896289E+01 -0.22559405481E+01  0.30198519010E+02  0.94441661787E+02  0.89361151776E+02 0.  0.
         13    1    3    3    0    0 -0.28163507760E+02  0.26990890461E+02 -0.38053140682E+01  0.39194169419E+02  0.10566000000E+00 0.  1.
         22    1    1    0    0    0 -0.40953896289E+01  0.22559405481E+01 -0.30198519010E+02  0.30558338213E+02  0.00000000000E+00 0. -1.
</event>
<event>
 5    1  0.6924865E-004  0.9118800E+02  0.7818608E-02  0.1130116E+00
         25   -1    0    0    0    0  0.00000000000E+00  0.00000000000E+00  0.99999998245E-14  0.12500000000E+03  0.12500000000E+03 0.  0.
        -13    1    3    3    0    0 -0.26904978401E+02 -0.30495467137E+02 -0.11870443384E+02  0.42364725525E+02  0.10566000000E+00 0. -1.
         23    2    1    0    0    0  0.16345246289E+02 -0.72747597315E+01  0.17831205689E+02  0.99740524516E+02  0.96489020770E+02 0.  0.
         13    1    3    3    0    0  0.43250224690E+02  0.23220707405E+02  0.29701649073E+02  0.57375798991E+02  0.10566000000E+00 0.  1.
         22    1    1    0    0    0 -0.16345246289E+02  0.72747597315E+01 -0.17831205689E+02  0.25259475484E+02  0.00000000000E+00 0.  1.
</event>
<event>
 5    1  0.6924865E-004  0.9118800E+02  0.7818608E-02  0.1130116E+00
         25   -1    0    0    0    0  0.00000000000E+00  0.00000000000E+00  0.99999998245E-14  0.12500000000E+03  0.12500000000E+03 0.  0.
        -13    1    3    3    0    0  0.13549003505E+02 -0.90068077921E+01 -0.32693334831E+02  0.36517987198E+02  0.10566000000E+00 0. -1.
         23    2    1    0    0    0 -0.25878802956E+02 -0.16429548354E+02 -0.37094068739E+02  0.76879189147E+02  0.59956628380E+02 0.  0.
         13    1    3    3    0    0 -0.39427806461E+02 -0.74227405615E+01 -0.44007339079E+01  0.40361201948E+02  0.10566000000E+00 0.  1.
         22    1    1    0    0    0  0.25878802956E+02  0.16429548354E+02  0.37094068739E+02  0.48120810853E+02  0.00000000000E+00 0. -1.
</event>
<event>
 5    1  0.6924865E-004  0.9118800E+02  0.7818608E-02  0.1130116E+00
         25   -1    0    0    0    0  0.00000000000E+00  0.00000000000E+00  0.99999998245E-14  0.12500000000E+03  0.12500000000E+03 0.  0.
        -13    1    3    3    0    0 -0.41870524302E+02  0.16867192129E+02  0.40099042622E+02  0.60378699546E+02  0.10566000000E+00 0.  1.
         23    2    1    0    0    0 -0.17969188027E+02  0.18386119241E+02  0.14295697992E+02  0.95583880606E+02  0.90944874246E+02 0.  0.
         13    1    3    3    0    0  0.23901336276E+02  0.15189271125E+01 -0.25803344630E+02  0.35205181060E+02  0.10566000000E+00 0. -1.
         22    1    1    0    0    0  0.17969188027E+02 -0.18386119241E+02 -0.14295697992E+02  0.29416119394E+02  0.00000000000E+00 0.  1.
</event>
<event>
 5    1  0.6924865E-004  0.9118800E+02  0.7818608E-02  0.1130116E+00
         25   -1    0    0    0    0  0.00000000000E+00  0.00000000000E+00  0.99999998245E-14  0.12500000000E+03  0.12500000000E+03 0.  0.
        -13    1    3    3    0    0  0.13463046680E+02 -0.45766774425E+02  0.36833570328E+02  0.60270841494E+02  0.10566000000E+00 0.  1.
         23    2    1    0    0    0  0.14407820979E+02 -0.13773212188E+02  0.21230877920E+02  0.95878927620E+02  0.91349504131E+02 0.  0.
         13    1    3    3    0    0  0.94477429861E+00  0.31993562238E+02 -0.15602692408E+02  0.35608086126E+02  0.10566000000E+00 0. -1.
         22    1    1    0    0    0 -0.14407820979E+02  0.13773212188E+02 -0.21230877920E+02  0.29121072380E+02  0.00000000000E+00 0.  1.
</event>
<event>
 5    1  0.6924865E-004  0.9118800E+02  0.7818608E-02  0.1130116E+00
         25   -1    0    0    0    0  0.00000000000E+00  0.00000000000E+00  0.99999998245E-14  0.12500000000E+03  0.12500000000E+03 0.  0.
        -13    1    3    3    0    0 -0.17128217284E+02  0.17914563936E+02  0.27012202342E+02  0.36660300977E+02  0.10566000000E+00 0.  1.
         23    2    1    0    0    0 -0.87503303910E+01 -0.27967516771E+02 -0.75823510027E+01  0.94730505075E+02  0.89764281698E+02 0.  0.
         13    1    3    3    0    0  0.83778868935E+01 -0.45882080707E+02 -0.34594553344E+02  0.58070204098E+02  0.10566000000E+00 0. -1.
         22    1    1    0    0    0  0.87503303910E+01  0.27967516771E+02  0.75823510027E+01  0.30269494925E+02  0.00000000000E+00 0. -1.
</event>
<event>
 5    1  0.6924865E-004  0.9118800E+02  0.7818608E-02  0.1130116E+00
         25   -1    0    0    0    0  0.00000000000E+00  0.00000000000E+00  0.99999998245E-14  0.12500000000E+03  0.12500000000E+03 0.  0.
        -13    1    3    3    0    0  0.17728814205E+02  0.25234041581E+02  0.22084235752E+02  0.37931416272E+02  0.10566000000E+00 0. -1.
         23    2    1    0    0    0 -0.21729570892E+02 -0.15784309830E+02  0.11308588957E+02  0.95858914361E+02  0.91322114465E+02 0.  0.
         13    1    3    3    0    0 -0.39458385097E+02 -0.41018351412E+02 -0.10775646794E+02  0.57927498089E+02  0.10566000000E+00 0.  1.
         22    1    1    0    0    0  0.21729570892E+02  0.15784309830E+02 -0.11308588957E+02  0.29141085639E+02  0.00000000000E+00 0.  1.
</event>
<event>
 5    1  0.6924865E-004  0.9118800E+02  0.7818608E-02  0.1130116E+00
         25   -1    0    0    0    0  0.00000000000E+00  0.00000000000E+00  0.99999998245E-14  0.12500000000E+03  0.12500000000E+03 0.  0.
        -13    1    3    3    0    0 -0.19316506073E+02  0.39840319482E+02  0.27742641547E+02  0.52249820931E+02  0.10566000000E+00 0. -1.
         23    2    1    0    0    0  0.11414681462E+02  0.88955253139E+01  0.25205613850E+02  0.95935446106E+02  0.91426809671E+02 0.  0.
         13    1    3    3    0    0  0.30731187535E+02 -0.30944794168E+02 -0.25370276974E+01  0.43685625175E+02  0.10566000000E+00 0.  1.
         22    1    1    0    0    0 -0.11414681462E+02 -0.88955253139E+01 -0.25205613850E+02  0.29064553894E+02  0.00000000000E+00 0. -1.
</event>
<event>
 5    1  0.6924865E-004  0.9118800E+02  0.7818608E-02  0.1130116E+00
         25   -1    0    0    0    0  0.00000000000E+00  0.00000000000E+00  0.99999998245E-14  0.12500000000E+03  0.12500000000E+03 0.  0.
        -13    1    3    3    0    0 -0.27331903788E+02  0.18779601703E+02 -0.34486838539E+01  0.33340830662E+02  0.10566000000E+00 0.  1.
         23    2    1    0    0    0  0.12765549626E+02 -0.27210264839E+02  0.34574764009E+01  0.94745877754E+02  0.89785686155E+02 0.  0.
         13    1    3    3    0    0  0.40097453414E+02 -0.45989866542E+02  0.69061602548E+01  0.61405047092E+02  0.10566000000E+00 0. -1.
         22    1    1    0    0    0 -0.12765549626E+02  0.27210264839E+02 -0.34574764009E+01  0.30254122246E+02  0.00000000000E+00 0. -1.
</event>
<event>
 5    1  0.6924865E-004  0.9118800E+02  0.7818608E-02  0.1130116E+00
         25   -1    0    0    0    0  0.00000000000E+00  0.00000000000E+00  0.99999998245E-14  0.12500000000E+03  0.12500000000E+03 0.  0.
        -13    1    3    3    0    0 -0.99011214228E+01 -0.21534963716E+02 -0.38204449914E+02  0.44959737821E+02  0.10566000000E+00 0. -1.
         23    2    1    0    0    0  0.17337873378E+02  0.16128757081E+02 -0.15574710882E+02  0.96657271174E+02  0.92408429234E+02 0.  0.
         13    1    3    3    0    0  0.27238994801E+02  0.37663720797E+02  0.22629739032E+02  0.51697533353E+02  0.10566000000E+00 0.  1.
         22    1    1    0    0    0 -0.17337873378E+02 -0.16128757081E+02  0.15574710882E+02  0.28342728826E+02  0.00000000000E+00 0.  1.
</event>
<event>
 5    1  0.6924865E-004  0.9118800E+02  0.7818608E-02  0.1130116E+00
         25   -1    0    0    0    0  0.00000000000E+00  0.00000000000E+00  0.99999998245E-14  0.12500000000E+03  0.12500000000E+03 0.  0.
        -13    1    3    3    0    0 -0.31472743666E+02 -0.44380469286E+02 -0.17328784532E+02  0.57100416682E+02  0.10566000000E+00 0.  1.
         23    2    1    0    0    0 -0.19806135233E+02 -0.19637066242E+02  0.96160028553E+01  0.95498053041E+02  0.90826831169E+02 0.  0.
         13    1    3    3    0    0  0.11666608433E+02  0.24743403044E+02  0.26944787388E+02  0.38397636359E+02  0.10566000000E+00 0. -1.
         22    1    1    0    0    0  0.19806135233E+02  0.19637066242E+02 -0.96160028553E+01  0.29501946959E+02  0.00000000000E+00 0.  1.
</event>
<event>
 5    1  0.6924865E-004  0.9118800E+02  0.7818608E-02  0.1130116E+00
         25   -1    0    0    0    0  0.00000000000E+00  0.00000000000E+00  0.99999998245E-14  0.12500000000E+03  0.12500000000E+03 0.  0.
        -13    1    3    3    0    0 -0.15731426425E+02 -0.19322413019E+02  0.31121546781E+02  0.39867220374E+02  0.10566000000E+00 0.  1.
         23    2    1    0    0    0  0.13884243361E+02  0.23414629639E+02  0.97220096958E+01  0.96094385193E+02  0.91643855758E+02 0.  0.
         13    1    3    3    0    0  0.29615669786E+02  0.42737042659E+02 -0.21399537085E+02  0.56227164819E+02  0.10566000000E+00 0. -1.
         22    1    1    0    0    0 -0.13884243361E+02 -0.23414629639E+02 -0.97220096958E+01  0.28905614807E+02  0.00000000000E+00 0. -1.
</event>
<event>
 5    1  0.6924865E-004  0.9118800E+02  0.7818608E-02  0.1130116E+00
         25   -1    0    0    0    0  0.00000000000E+00  0.00000000000E+00  0.99999998245E-14  0.12500000000E+03  0.12500000000E+03 0.  0.
        -13    1    3    3    0    0  0.48300488212E+01 -0.21919158598E+02  0.34764051272E+02  0.41380300991E+02  0.10566000000E+00 0.  1.
         23    2    1    0    0    0  0.21152731291E+02  0.19800295347E+02  0.39398063232E+01  0.95759415007E+02  0.91185819905E+02 0.  0.
         13    1    3    3    0    0  0.16322682469E+02  0.41719453945E+02 -0.30824244948E+02  0.54379114016E+02  0.10566000000E+00 0. -1.
         22    1    1    0    0    0 -0.21152731291E+02 -0.19800295347E+02 -0.39398063232E+01  0.29240584993E+02  0.00000000000E+00 0. -1.
</event>
<event>
 5    1  0.6924865E-004  0.9118800E+02  0.7818608E-02  0.1130116E+00
         25   -1    0    0    0    0  0.00000000000E+00  0.00000000000E+00  0.99999998245E-14  0.12500000000E+03  0.12500000000E+03 0.  0.
        -13    1    3    3    0    0 -0.77292683449E+01 -0.31919273501E+02 -0.39420211256E+02  0.51308340739E+02  0.10566000000E+00 0.  1.
         23    2    1    0    0    0  0.11789872542E+01 -0.23505407482E+02  0.78883882045E+01  0.10017821803E+03  0.97054389426E+02 0.  0.
         13    1    3    3    0    0  0.89082555991E+01  0.84138660186E+01  0.47308599460E+02  0.48869877288E+02  0.10566000000E+00 0. -1.
         22    1    1    0    0    0 -0.11789872542E+01  0.23505407482E+02 -0.78883882045E+01  0.24821781973E+02  0.00000000000E+00 0.  1.
</event>
<event>
 5    1  0.6924865E-004  0.9118800E+02  0.7818608E-02  0.1130116E+00
         25   -1    0    0    0    0  0.00000000000E+00  0.00000000000E+00  0.99999998245E-14  0.12500000000E+03  0.12500000000E+03 0.  0.
        -13    1    3    3    0    0  0.16570637647E+02 -0.54736715772E+02 -0.12138577565E+02  0.58464094237E+02  0.10566000000E+00 0.  1.
         23    2    1    0    0    0  0.58540792658E+01 -0.26325702648E+02  0.10206183003E+02  0.96164621808E+02  0.91739606779E+02 0.  0.
         13    1    3    3    0    0 -0.10716558381E+02  0.28411013124E+02  0.22344760569E+02  0.37700527571E+02  0.10566000000E+00 0. -1.
         22    1    1    0    0    0 -0.58540792658E+01  0.26325702648E+02 -0.10206183003E+02  0.28835378192E+02  0.00000000000E+00 0.  1.
</event>
<event>
 5    1  0.6924865E-004  0.9118800E+02  0.7818608E-02  0.1130116E+00
         25   -1    0    0    0    0  0.00000000000E+00  0.00000000000E+00  0.99999998245E-14  0.12500000000E+03  0.12500000000E+03 0.  0.
        -13    1    3    3    0    0  0.78289326988E+01 -0.33298136007E+02 -0.37240205230E+02  0.50565819467E+02  0.10566000000E+00 0.  1.
         23    2    1    0    0    0  0.71552023313E+01 -0.27752876127E+02  0.72753351720E+01  0.95430597646E+02  0.90733948506E+02 0.  0.
         13    1    3    3    0    0 -0.67373036756E+00  0.55452598799E+01  0.44515540402E+02  0.44864778179E+02  0.10566000000E+00 0. -1.
         22    1    1    0    0    0 -0.71552023313E+01  0.27752876127E+02 -0.72753351720E+01  0.29569402354E+02  0.00000000000E+00 0.  1.
</event>
<event>
 5    1  0.6924865E-004  0.9118800E+02  0.7818608E-02  0.1130116E+00
         25   -1    0    0    0    0  0.00000000000E+00  0.00000000000E+00  0.99999998245E-14  0.12500000000E+03  0.12500000000E+03 0.  0.
        -13    1    3    3    0    0  0.17920962464E+02 -0.39735878337E+02  0.33078790298E+02  0.54720365994E+02  0.10566000000E+00 0. -1.
         23    2    1    0    0    0  0.26083183618E+02 -0.10148229389E+02  0.45111378095E+01  0.96650936670E+02  0.92399860213E+02 0.  0.
         13    1    3    3    0    0  0.81622211541E+01  0.29587648949E+02 -0.28567652489E+02  0.41930570676E+02  0.10566000000E+00 0.  1.
         22    1    1    0    0    0 -0.26083183618E+02  0.10148229389E+02 -0.45111378095E+01  0.28349063330E+02  0.00000000000E+00 0.  1.
</event>
<event>
 5    1  0.6924865E-004  0.9118800E+02  0.7818608E-02  0.1130116E+00
         25   -1    0    0    0    0  0.00000000000E+00  0.00000000000E+00  0.99999998245E-14  0.12500000000E+03  0.12500000000E+03 0.  0.
        -13    1    3    3    0    0 -0.11981506265E+02 -0.43923253289E+02 -0.39080733872E+02  0.60001029957E+02  0.10566000000E+00 0. -1.
         23    2    1    0    0    0  0.16088613762E+01 -0.14093183954E+02 -0.26171697535E+02  0.95231492803E+02  0.90459235022E+02 0.  0.
         13    1    3    3    0    0  0.13590367641E+02  0.29830069335E+02  0.12909036338E+02  0.35230462846E+02  0.10566000000E+00 0.  1.
         22    1    1    0    0    0 -0.16088613762E+01  0.14093183954E+02  0.26171697535E+02  0.29768507197E+02  0.00000000000E+00 0. -1.
</event>
<event>
 5    1  0.6924865E-004  0.9118800E+02  0.7818608E-02  0.1130116E+00
         25   -1    0    0    0    0  0.00000000000E+00  0.00000000000E+00  0.99999998245E-14  0.12500000000E+03  0.12500000000E+03 0.  0.
        -13    1    3    3    0    0  0.22711100545E+02  0.43192101343E+02 -0.16132491283E+02  0.51396693915E+02  0.10566000000E+00 0.  1.
         23    2    1    0    0    0  0.29327178584E+02  0.65913473225E+01  0.55263830338E+01  0.94437438381E+02  0.89355243805E+02 0.  0.
         13    1    3    3    0    0  0.66160780392E+01 -0.36600754021E+02  0.21658874317E+02  0.43040744466E+02  0.10566000000E+00 0. -1.
         22    1    1    0    0    0 -0.29327178584E+02 -0.65913473225E+01 -0.55263830338E+01  0.30562561619E+02  0.00000000000E+00 0. -1.
</event>
<event>
 5    1  0.6924865E-004  0.9118800E+02  0.7818608E-02  0.1130116E+00
         25   -1    0    0    0    0  0.00000000000E+00  0.00000000000E+00  0.99999998245E-14  0.12500000000E+03  0.12500000000E+03 0.  0.
        -13    1    3    3    0    0 -0.42737193239E+02 -0.20485469476E+01 -0.21451357425E+02  0.47862679929E+02  0.10566000000E+00 0. -1.
         23    2    1    0    0    0  0.49134928041E+01 -0.11989048343E+02 -0.25180058426E+02  0.96681895649E+02  0.92441732525E+02 0.  0.
         13    1    3    3    0    0  0.47650686043E+02 -0.99405013951E+01 -0.37287010012E+01  0.48819215721E+02  0.10566000000E+00 0.  1.
         22    1    1    0    0    0 -0.49134928041E+01  0.11989048343E+02  0.25180058426E+02  0.28318104351E+02  0.00000000000E+00 0.  1.
</event>
<event>
 5    1  0.6924865E-004  0.9118800E+02  0.7818608E-02  0.1130116E+00
         25   -1    0    0    0    0  0.00000000000E+00  0.00000000000E+00  0.99999998245E-14  0.12500000000E+03  0.12500000000E+03 0.  0.
        -13    1    3    3    0    0 -0.12450207666E+02 -0.30868762219E+02 -0.12146547128E+01  0.33307277012E+02  0.10566000000E+00 0.  1.
         23    2    1    0    0    0  0.21481047837E+02  0.20778383893E+02 -0.70870016129E+00  0.95105537146E+02  0.90285016955E+02 0.  0.
         13    1    3    3    0    0  0.33931255503E+02  0.51647146112E+02  0.50595455152E+00  0.61798260134E+02  0.10566000000E+00 0. -1.
         22    1    1    0    0    0 -0.21481047837E+02 -0.20778383893E+02  0.70870016129E+00  0.29894462854E+02  0.00000000000E+00 0. -1.
</event>
<event>
 5    1  0.6924865E-004  0.9118800E+02  0.7818608E-02  0.1130116E+00
         25   -1    0    0    0    0  0.00000000000E+00  0.00000000000E+00  0.99999998245E-14  0.12500000000E+03  0.12500000000E+03 0.  0.
        -13    1    3    3    0    0 -0.46565227030E+02  0.80437638319E+01  0.81224981872E+01  0.47947978537E+02  0.10566000000E+00 0. -1.
         23    2    1    0    0    0 -0.13362923154E+02 -0.42981874099E+01 -0.24926071179E+02  0.96393162449E+02  0.92050478610E+02 0.  0.
         13    1    3    3    0    0  0.33202303876E+02 -0.12341951242E+02 -0.33048569366E+02  0.48445183912E+02  0.10566000000E+00 0.  1.
         22    1    1    0    0    0  0.13362923154E+02  0.42981874099E+01  0.24926071179E+02  0.28606837551E+02  0.00000000000E+00 0. -1.
</event>
<event>
 5    1  0.6924865E-004  0.9118800E+02  0.7818608E-02  0.1130116E+00
         25   -1    0    0    0    0  0.00000000000E+00  0.00000000000E+00  0.99999998245E-14  0.12500000000E+03  0.12500000000E+03 0.  0.
        -13    1    3    3    0    0  0.47050455263E+01 -0.13792389399E+02 -0.54168516601E+02  0.56094623748E+02  0.10566000000E+00 0.  1.
         23    2    1    0    0    0 -0.16054297689E+02  0.22923982242E+01 -0.23105237449E+02  0.96771511526E+02  0.92562832074E+02 0.  0.
         13    1    3    3    0    0 -0.20759343216E+02  0.16084787623E+02  0.31063279151E+02  0.40676887778E+02  0.10566000000E+00 0. -1.
         22    1    1    0    0    0  0.16054297689E+02 -0.22923982242E+01  0.23105237449E+02  0.28228488474E+02  0.00000000000E+00 0.  1.
</event>
<event>
 5    1  0.6924865E-004  0.9118800E+02  0.7818608E-02  0.1130116E+00
         25   -1    0    0    0    0  0.00000000000E+00  0.00000000000E+00  0.99999998245E-14  0.12500000000E+03  0.12500000000E+03 0.  0.
        -13    1    3    3    0    0  0.55129312310E+02  0.37023583147E+01  0.15926243068E+02  0.57503086136E+02  0.10566000000E+00 0.  1.
         23    2    1    0    0    0  0.27108865697E+02 -0.83172969544E+01 -0.71680469690E+01  0.95751941511E+02  0.91175574458E+02 0.  0.
         13    1    3    3    0    0 -0.28020446613E+02 -0.12019655269E+02 -0.23094290037E+02  0.38248855375E+02  0.10566000000E+00 0. -1.
         22    1    1    0    0    0 -0.27108865697E+02  0.83172969544E+01  0.71680469690E+01  0.29248058489E+02  0.00000000000E+00 0.  1.
</event>
<event>
 5    1  0.6924865E-004  0.9118800E+02  0.7818608E-02  0.1130116E+00
         25   -1    0    0    0    0  0.00000000000E+00  0.00000000000E+00  0.99999998245E-14  0.12500000000E+03  0.12500000000E+03 0.  0.
        -13    1    3    3    0    0  0.18716707127E+02 -0.14034507692E+02  0.23977384013E+02  0.33499382681E+02  0.10566000000E+00 0. -1.
         23    2    1    0    0    0 -0.57480209922E+01  0.16823687440E+02 -0.23722814684E+02  0.95354626990E+02  0.90629226784E+02 0.  0.
         13    1    3    3    0    0 -0.24464728119E+02  0.30858195132E+02 -0.47700198697E+02  0.61855244309E+02  0.10566000000E+00 0.  1.
         22    1    1    0    0    0  0.57480209922E+01 -0.16823687440E+02  0.23722814684E+02  0.29645373010E+02  0.00000000000E+00 0.  1.
</event>
<event>
 5    1  0.6924865E-004  0.9118800E+02  0.7818608E-02  0.1130116E+00
         25   -1    0    0    0    0  0.00000000000E+00  0.00000000000E+00  0.99999998245E-14  0.12500000000E+03  0.12500000000E+03 0.  0.
        -13    1    3    3    0    0 -0.11177903906E+01 -0.20994159323E+02  0.27723500662E+02  0.34793790164E+02  0.10566000000E+00 0. -1.
         23    2    1    0    0    0 -0.31319084350E+01 -0.84624791813E+01 -0.29884173457E+02  0.93783238035E+02  0.88435340836E+02 0.  0.
         13    1    3    3    0    0 -0.20141180444E+01  0.12531680141E+02 -0.57607674119E+02  0.58989447871E+02  0.10566000000E+00 0.  1.
         22    1    1    0    0    0  0.31319084350E+01  0.84624791813E+01  0.29884173457E+02  0.31216761965E+02  0.00000000000E+00 0.  1.
</event>
<event>
 5    1  0.6924865E-004  0.9118800E+02  0.7818608E-02  0.1130116E+00
         25   -1    0    0    0    0  0.00000000000E+00  0.00000000000E+00  0.99999998245E-14  0.12500000000E+03  0.12500000000E+03 0.  0.
        -13    1    3    3    0    0  0.27619072541E+02 -0.37171385943E+02  0.33235714476E+02  0.57001306842E+02  0.10566000000E+00 0. -1.
         23    2    1    0    0    0 -0.54048075910E+01 -0.20148704748E+02  0.18983725164E+02  0.96794254677E+02  0.92593540105E+02 0.  0.
         13    1    3    3    0    0 -0.33023880132E+02  0.17022681195E+02 -0.14251989311E+02  0.39792947835E+02  0.10566000000E+00 0.  1.
         22    1    1    0    0    0  0.54048075910E+01  0.20148704748E+02 -0.18983725164E+02  0.28205745323E+02  0.00000000000E+00 0. -1.
</event>
<event>
 5    1  0.6924865E-004  0.9118800E+02  0.7818608E-02  0.1130116E+00
         25   -1    0    0    0    0  0.00000000000E+00  0.00000000000E+00  0.99999998245E-14  0.12500000000E+03  0.12500000000E+03 0.  0.
        -13    1    3    3    0    0 -0.73484550838E+01  0.29093848445E+02 -0.33082863957E+02  0.44664738453E+02  0.10566000000E+00 0.  1.
         23    2    1    0    0    0  0.17411086825E+01  0.22428166258E+02  0.17506716950E+02  0.96494926075E+02  0.92188565010E+02 0.  0.
         13    1    3    3    0    0  0.90895637663E+01 -0.66656821871E+01  0.50589580907E+02  0.51830187621E+02  0.10566000000E+00 0. -1.
         22    1    1    0    0    0 -0.17411086825E+01 -0.22428166258E+02 -0.17506716950E+02  0.28505073925E+02  0.00000000000E+00 0. -1.
</event>
<event>
 5    1  0.6924865E-004  0.9118800E+02  0.7818608E-02  0.1130116E+00
         25   -1    0    0    0    0  0.00000000000E+00  0.00000000000E+00  0.99999998245E-14  0.12500000000E+03  0.12500000000E+03 0.  0.
        -13    1    3    3    0    0  0.36322639130E+02 -0.10035305306E+02 -0.30514027734E+01  0.37806926467E+02  0.10566000000E+00 0.  1.
         23    2    1    0    0    0 -0.91754213095E+01  0.19511207088E+02  0.18898074134E+02  0.96329235025E+02  0.91963627355E+02 0.  0.
         13    1    3    3    0    0 -0.45498060440E+02  0.29546512395E+02  0.21949476907E+02  0.58522308558E+02  0.10566000000E+00 0. -1.
         22    1    1    0    0    0  0.91754213095E+01 -0.19511207088E+02 -0.18898074134E+02  0.28670764975E+02  0.00000000000E+00 0. -1.
</event>
<event>
 5    1  0.6924865E-004  0.9118800E+02  0.7818608E-02  0.1130116E+00
         25   -1    0    0    0    0  0.00000000000E+00  0.00000000000E+00  0.99999998245E-14  0.12500000000E+03  0.12500000000E+03 0.  0.
        -13    1    3    3    0    0  0.26233292822E+01  0.18673851178E+02  0.31107660606E+02  0.36377084638E+02  0.10566000000E+00 0. -1.
         23    2    1    0    0    0  0.17011580796E+02 -0.21299831607E+02 -0.10448804639E+02  0.95806606466E+02  0.91250488308E+02 0.  0.
         13    1    3    3    0    0  0.14388251514E+02 -0.39973682785E+02 -0.41556465245E+02  0.59429521828E+02  0.10566000000E+00 0.  1.
         22    1    1    0    0    0 -0.17011580796E+02  0.21299831607E+02  0.10448804639E+02  0.29193393534E+02  0.00000000000E+00 0.  1.
</event>
<event>
 5    1  0.6924865E-004  0.9118800E+02  0.7818608E-02  0.1130116E+00
         25   -1    0    0    0    0  0.00000000000E+00  0.00000000000E+00  0.99999998245E-14  0.12500000000E+03  0.12500000000E+03 0.  0.
        -13    1    3    3    0    0  0.32630581136E+02 -0.23880292590E+02 -0.23265581413E+02  0.46651062603E+02  0.10566000000E+00 0. -1.
         23    2    1    0    0    0  0.11811722956E+02  0.84405070969E-03  0.20893024163E+02  0.10099926546E+03  0.98106148454E+02 0.  0.
         13    1    3    3    0    0 -0.20818858180E+02  0.23881136641E+02  0.44158605576E+02  0.54348202855E+02  0.10566000000E+00 0.  1.
         22    1    1    0    0    0 -0.11811722956E+02 -0.84405070969E-03 -0.20893024163E+02  0.24000734542E+02  0.00000000000E+00 0.  1.
</event>
<event>
 5    1  0.6924865E-004  0.9118800E+02  0.7818608E-02  0.1130116E+00
         25   -1    0    0    0    0  0.00000000000E+00  0.00000000000E+00  0.99999998245E-14  0.12500000000E+03  0.12500000000E+03 0.  0.
        -13    1    3    3    0    0  0.78562084746E+00  0.49217478139E+02  0.35706098607E+02  0.60810476040E+02  0.10566000000E+00 0. -1.
         23    2    1    0    0    0 -0.26179253102E+01  0.18025111054E+02  0.25212796180E+02  0.93896250184E+02  0.88594935216E+02 0.  0.
         13    1    3    3    0    0 -0.34035461577E+01 -0.31192367085E+02 -0.10493302427E+02  0.33085774144E+02  0.10566000000E+00 0.  1.
         22    1    1    0    0    0  0.26179253102E+01 -0.18025111054E+02 -0.25212796180E+02  0.31103749816E+02  0.00000000000E+00 0. -1.
</event>
<event>
 5    1  0.6924865E-004  0.9118800E+02  0.7818608E-02  0.1130116E+00
         25   -1    0    0    0    0  0.00000000000E+00  0.00000000000E+00  0.99999998245E-14  0.12500000000E+03  0.12500000000E+03 0.  0.
        -13    1    3    3    0    0 -0.57122246264E+02  0.26871795492E+01  0.86801656048E+01  0.57840542798E+02  0.10566000000E+00 0.  1.
         23    2    1    0    0    0 -0.19379824713E+02  0.15652274951E+02  0.10897514453E+02  0.97809429239E+02  0.93954016996E+02 0.  0.
         13    1    3    3    0    0  0.37742421551E+02  0.12965095402E+02  0.22173488484E+01  0.39968886440E+02  0.10566000000E+00 0. -1.
         22    1    1    0    0    0  0.19379824713E+02 -0.15652274951E+02 -0.10897514453E+02  0.27190570761E+02  0.00000000000E+00 0.  1.
</event>
<event>
 5    1  0.6924865E-004  0.9118800E+02  0.7818608E-02  0.1130116E+00
         25   -1    0    0    0    0  0.00000000000E+00  0.00000000000E+00  0.99999998245E-14  0.12500000000E+03  0.12500000000E+03 0.  0.
        -13    1    3    3    0    0  0.19753069159E+02  0.21885972108E+02 -0.18007077600E+01  0.29536980698E+02  0.10566000000E+00 0. -1.
         23    2    1    0    0    0  0.41722236999E+02 -0.14668647308E+02 -0.20680929488E+02  0.76177719037E+02  0.58475890409E+02 0.  0.
         13    1    3    3    0    0  0.21969167840E+02 -0.36554619416E+02 -0.18880221728E+02  0.46640738338E+02  0.10566000000E+00 0.  1.
         22    1    1    0    0    0 -0.41722236999E+02  0.14668647308E+02  0.20680929488E+02  0.48822280963E+02  0.00000000000E+00 0.  1.
</event>
<event>
 5    1  0.6924865E-004  0.9118800E+02  0.7818608E-02  0.1130116E+00
         25   -1    0    0    0    0  0.00000000000E+00  0.00000000000E+00  0.99999998245E-14  0.12500000000E+03  0.12500000000E+03 0.  0.
        -13    1    3    3    0    0  0.32485024278E+02 -0.34024763297E+02 -0.13854528371E+02  0.49039988174E+02  0.10566000000E+00 0. -1.
         23    2    1    0    0    0  0.41127772213E+00 -0.35820381675E+01 -0.28995455596E+02  0.95781228773E+02  0.91215717907E+02 0.  0.
         13    1    3    3    0    0 -0.32073746555E+02  0.30442725130E+02 -0.15140927225E+02  0.46741240599E+02  0.10566000000E+00 0.  1.
         22    1    1    0    0    0 -0.41127772213E+00  0.35820381675E+01  0.28995455596E+02  0.29218771227E+02  0.00000000000E+00 0. -1.
</event>
<event>
 5    1  0.6924865E-004  0.9118800E+02  0.7818608E-02  0.1130116E+00
         25   -1    0    0    0    0  0.00000000000E+00  0.00000000000E+00  0.99999998245E-14  0.12500000000E+03  0.12500000000E+03 0.  0.
        -13    1    3    3    0    0 -0.98756566956E+00  0.49507474597E+02 -0.83605289029E+01  0.50218272914E+02  0.10566000000E+00 0. -1.
         23    2    1    0    0    0 -0.16017483976E+02  0.27339361161E+02  0.18630605601E+02  0.88242688800E+02  0.80222641442E+02 0.  0.
         13    1    3    3    0    0 -0.15029918306E+02 -0.22168113436E+02  0.26991134504E+02  0.38024415886E+02  0.10566000000E+00 0.  1.
         22    1    1    0    0    0  0.16017483976E+02 -0.27339361161E+02 -0.18630605601E+02  0.36757311200E+02  0.00000000000E+00 0. -1.
</event>
<event>
 5    1  0.6924865E-004  0.9118800E+02  0.7818608E-02  0.1130116E+00
         25   -1    0    0    0    0  0.00000000000E+00  0.00000000000E+00  0.99999998245E-14  0.12500000000E+03  0.12500000000E+03 0.  0.
        -13    1    3    3    0    0 -0.14562323744E+02 -0.39176886415E+02 -0.32565692607E+01  0.41922620497E+02  0.10566000000E+00 0. -1.
         23    2    1    0    0    0 -0.67739159073E+01  0.86919562902E+01 -0.26938868966E+02  0.95894352746E+02  0.91370608986E+02 0.  0.
         13    1    3    3    0    0  0.77884078369E+01  0.47868842705E+02 -0.23682299706E+02  0.53971732249E+02  0.10566000000E+00 0.  1.
         22    1    1    0    0    0  0.67739159073E+01 -0.86919562902E+01  0.26938868966E+02  0.29105647254E+02  0.00000000000E+00 0.  1.
</event>
<event>
 5    1  0.6924865E-004  0.9118800E+02  0.7818608E-02  0.1130116E+00
         25   -1    0    0    0    0  0.00000000000E+00  0.00000000000E+00  0.99999998245E-14  0.12500000000E+03  0.12500000000E+03 0.  0.
        -13    1    3    3    0    0 -0.67258998390E+01  0.46693088826E+02  0.14595792182E+02  0.49381480194E+02  0.10566000000E+00 0.  1.
         23    2    1    0    0    0  0.90190009203E+01  0.18786981238E+01  0.25301990901E+02  0.98073013021E+02  0.94304046865E+02 0.  0.
         13    1    3    3    0    0  0.15744900759E+02 -0.44814390702E+02  0.10706198719E+02  0.48691532826E+02  0.10566000000E+00 0. -1.
         22    1    1    0    0    0 -0.90190009203E+01 -0.18786981238E+01 -0.25301990901E+02  0.26926986979E+02  0.00000000000E+00 0. -1.
</event>
<event>
 5    1  0.6924865E-004  0.9118800E+02  0.7818608E-02  0.1130116E+00
         25   -1    0    0    0    0  0.00000000000E+00  0.00000000000E+00  0.99999998245E-14  0.12500000000E+03  0.12500000000E+03 0.  0.
        -13    1    3    3    0    0  0.24428696644E+02  0.22402110208E+02  0.11047266958E+02  0.34938074257E+02  0.10566000000E+00 0.  1.
         23    2    1    0    0    0 -0.30226974282E+02  0.78480727514E+01  0.12101056076E+02  0.91508243129E+02  0.85159032300E+02 0.  0.
         13    1    3    3    0    0 -0.54655670926E+02 -0.14554037456E+02  0.10537891176E+01  0.56570168872E+02  0.10566000000E+00 0. -1.
         22    1    1    0    0    0  0.30226974282E+02 -0.78480727514E+01 -0.12101056076E+02  0.33491756871E+02  0.00000000000E+00 0. -1.
</event>
<event>
 5    1  0.6924865E-004  0.9118800E+02  0.7818608E-02  0.1130116E+00
         25   -1    0    0    0    0  0.00000000000E+00  0.00000000000E+00  0.99999998245E-14  0.12500000000E+03  0.12500000000E+03 0.  0.
        -13    1    3    3    0    0 -0.34208802330E+01 -0.12506672128E+02  0.36920367049E+02  0.39131112128E+02  0.10566000000E+00 0. -1.
         23    2    1    0    0    0  0.25648095731E+02  0.74942283462E+01 -0.87851398634E+01  0.96872309808E+02  0.92698853563E+02 0.  0.
         13    1    3    3    0    0  0.29068975964E+02  0.20000900474E+02 -0.45705506912E+02  0.57741197680E+02  0.10566000000E+00 0.  1.
         22    1    1    0    0    0 -0.25648095731E+02 -0.74942283462E+01  0.87851398634E+01  0.28127690192E+02  0.00000000000E+00 0.  1.
</event>
<event>
 5    1  0.6924865E-004  0.9118800E+02  0.7818608E-02  0.1130116E+00
         25   -1    0    0    0    0  0.00000000000E+00  0.00000000000E+00  0.99999998245E-14  0.12500000000E+03  0.12500000000E+03 0.  0.
        -13    1    3    3    0    0  0.18463901918E+02  0.44765019213E+02  0.17624941946E+01  0.48455548382E+02  0.10566000000E+00 0. -1.
         23    2    1    0    0    0  0.61026603638E+01  0.81585358633E+01  0.28029647876E+02  0.95176094639E+02  0.90382651320E+02 0.  0.
         13    1    3    3    0    0 -0.12361241554E+02 -0.36606483350E+02  0.26267153681E+02  0.46720546257E+02  0.10566000000E+00 0.  1.
         22    1    1    0    0    0 -0.61026603638E+01 -0.81585358633E+01 -0.28029647876E+02  0.29823905361E+02  0.00000000000E+00 0. -1.
</event>
<event>
 5    1  0.6924865E-004  0.9118800E+02  0.7818608E-02  0.1130116E+00
         25   -1    0    0    0    0  0.00000000000E+00  0.00000000000E+00  0.99999998245E-14  0.12500000000E+03  0.12500000000E+03 0.  0.
        -13    1    3    3    0    0  0.82072410985E+01 -0.32467487955E+02  0.36266393470E+02  0.49363539581E+02  0.10566000000E+00 0.  1.
         23    2    1    0    0    0 -0.22133454986E+02 -0.17955759398E+02  0.35587469139E+01  0.96277816853E+02  0.91893711499E+02 0.  0.
         13    1    3    3    0    0 -0.30340696084E+02  0.14511728558E+02 -0.32707646556E+02  0.46914277272E+02  0.10566000000E+00 0. -1.
         22    1    1    0    0    0  0.22133454986E+02  0.17955759398E+02 -0.35587469139E+01  0.28722183147E+02  0.00000000000E+00 0. -1.
</event>
<event>
 5    1  0.6924865E-004  0.9118800E+02  0.7818608E-02  0.1130116E+00
         25   -1    0    0    0    0  0.00000000000E+00  0.00000000000E+00  0.99999998245E-14  0.12500000000E+03  0.12500000000E+03 0.  0.
        -13    1    3    3    0    0 -0.10320404546E+02  0.13723015112E+02  0.37898552392E+02  0.41607010602E+02  0.10566000000E+00 0. -1.
         23    2    1    0    0    0 -0.23927274435E+02  0.15716085995E+02 -0.12437405420E+02  0.93787840919E+02  0.88441846599E+02 0.  0.
         13    1    3    3    0    0 -0.13606869889E+02  0.19930708832E+01 -0.50335957812E+02  0.52180830317E+02  0.10566000000E+00 0.  1.
         22    1    1    0    0    0  0.23927274435E+02 -0.15716085995E+02  0.12437405420E+02  0.31212159081E+02  0.00000000000E+00 0.  1.
</event>
<event>
 5    1  0.6924865E-004  0.9118800E+02  0.7818608E-02  0.1130116E+00
         25   -1    0    0    0    0  0.00000000000E+00  0.00000000000E+00  0.99999998245E-14  0.12500000000E+03  0.12500000000E+03 0.  0.
        -13    1    3    3    0    0 -0.16907546624E+02 -0.16195026491E+02  0.32269531293E+02  0.39868255917E+02  0.10566000000E+00 0. -1.
         23    2    1    0    0    0  0.21883931824E+02  0.16942706133E+02  0.94808361489E+01  0.95745119770E+02  0.91166221499E+02 0.  0.
         13    1    3    3    0    0  0.38791478448E+02  0.33137732624E+02 -0.22788695145E+02  0.55876863853E+02  0.10566000000E+00 0.  1.
         22    1    1    0    0    0 -0.21883931824E+02 -0.16942706133E+02 -0.94808361489E+01  0.29254880230E+02  0.00000000000E+00 0.  1.
</event>
<event>
 5    1  0.6924865E-004  0.9118800E+02  0.7818608E-02  0.1130116E+00
         25   -1    0    0    0    0  0.00000000000E+00  0.00000000000E+00  0.99999998245E-14  0.12500000000E+03  0.12500000000E+03 0.  0.
        -13    1    3    3    0    0  0.22416369554E+02  0.33150046243E+02  0.14629514829E+02  0.42608133707E+02  0.10566000000E+00 0. -1.
         23    2    1    0    0    0 -0.22262962591E+02  0.41131202283E+01  0.18110642430E+02  0.96007714293E+02  0.91525562403E+02 0.  0.
         13    1    3    3    0    0 -0.44679332145E+02 -0.29036926014E+02  0.34811276013E+01  0.53399580585E+02  0.10566000000E+00 0.  1.
         22    1    1    0    0    0  0.22262962591E+02 -0.41131202283E+01 -0.18110642430E+02  0.28992285707E+02  0.00000000000E+00 0.  1.
</event>
<event>
 5    1  0.6924865E-004  0.9118800E+02  0.7818608E-02  0.1130116E+00
         25   -1    0    0    0    0  0.00000000000E+00  0.00000000000E+00  0.99999998245E-14  0.12500000000E+03  0.12500000000E+03 0.  0.
        -13    1    3    3    0    0  0.67349790251E+00  0.50209228470E+01 -0.46295124987E+02  0.46571590345E+02  0.10566000000E+00 0. -1.
         23    2    1    0    0    0  0.13873238569E+02  0.25108809353E+02 -0.29153393985E+01  0.96165675674E+02  0.91741042716E+02 0.  0.
         13    1    3    3    0    0  0.13199740667E+02  0.20087886506E+02  0.43379785588E+02  0.49594085329E+02  0.10566000000E+00 0.  1.
         22    1    1    0    0    0 -0.13873238569E+02 -0.25108809353E+02  0.29153393985E+01  0.28834324326E+02  0.00000000000E+00 0. -1.
</event>
<event>
 5    1  0.6924865E-004  0.9118800E+02  0.7818608E-02  0.1130116E+00
         25   -1    0    0    0    0  0.00000000000E+00  0.00000000000E+00  0.99999998245E-14  0.12500000000E+03  0.12500000000E+03 0.  0.
        -13    1    3    3    0    0  0.19084175876E+02  0.32811043430E+02  0.45771804883E+01  0.38232605000E+02  0.10566000000E+00 0. -1.
         23    2    1    0    0    0  0.16269774559E+02 -0.21968350920E+02 -0.11425999000E+02  0.95371171817E+02  0.90652043299E+02 0.  0.
         13    1    3    3    0    0 -0.28144013175E+01 -0.54779394350E+02 -0.16003179488E+02  0.57138566817E+02  0.10566000000E+00 0.  1.
         22    1    1    0    0    0 -0.16269774559E+02  0.21968350920E+02  0.11425999000E+02  0.29628828183E+02  0.00000000000E+00 0.  1.
</event>
<event>
 5    1  0.6924865E-004  0.9118800E+02  0.7818608E-02  0.1130116E+00
         25   -1    0    0    0    0  0.00000000000E+00  0.00000000000E+00  0.99999998245E-14  0.12500000000E+03  0.12500000000E+03 0.  0.
        -13    1    3    3    0    0 -0.44422438717E+02 -0.36327081595E+02 -0.31448574487E+01  0.57470959721E+02  0.10566000000E+00 0.  1.
         23    2    1    0    0    0 -0.10768491080E+02 -0.23256118671E+02 -0.14795442376E+02  0.95407558889E+02  0.90702203514E+02 0.  0.
         13    1    3    3    0    0  0.33653947637E+02  0.13070962924E+02 -0.11650584927E+02  0.37936599169E+02  0.10566000000E+00 0. -1.
         22    1    1    0    0    0  0.10768491080E+02  0.23256118671E+02  0.14795442376E+02  0.29592441111E+02  0.00000000000E+00 0.  1.
</event>
<event>
 5    1  0.6924865E-004  0.9118800E+02  0.7818608E-02  0.1130116E+00
         25   -1    0    0    0    0  0.00000000000E+00  0.00000000000E+00  0.99999998245E-14  0.12500000000E+03  0.12500000000E+03 0.  0.
        -13    1    3    3    0    0  0.29564825089E+02 -0.22316076507E+02  0.12655634781E+02  0.39144123556E+02  0.10566000000E+00 0.  1.
         23    2    1    0    0    0 -0.19132747535E+02  0.76622717280E+01  0.19362449920E+02  0.96721440928E+02  0.92495190318E+02 0.  0.
         13    1    3    3    0    0 -0.48697572624E+02  0.29978348235E+02  0.67068151393E+01  0.57577317372E+02  0.10566000000E+00 0. -1.
         22    1    1    0    0    0  0.19132747535E+02 -0.76622717280E+01 -0.19362449920E+02  0.28278559072E+02  0.00000000000E+00 0. -1.
</event>
<event>
 5    1  0.6924865E-004  0.9118800E+02  0.7818608E-02  0.1130116E+00
         25   -1    0    0    0    0  0.00000000000E+00  0.00000000000E+00  0.99999998245E-14  0.12500000000E+03  0.12500000000E+03 0.  0.
        -13    1    3    3    0    0 -0.36466359899E+01 -0.38436308828E+02  0.23761338063E+02  0.45334977015E+02  0.10566000000E+00 0.  1.
         23    2    1    0    0    0  0.28037529194E+02 -0.26047803975E+01  0.74176467915E+01  0.95881115953E+02  0.91352498533E+02 0.  0.
         13    1    3    3    0    0  0.31684165184E+02  0.35831528430E+02 -0.16343691272E+02  0.50546138938E+02  0.10566000000E+00 0. -1.
         22    1    1    0    0    0 -0.28037529194E+02  0.26047803975E+01 -0.74176467915E+01  0.29118884047E+02  0.00000000000E+00 0. -1.
</event>
<event>
 5    1  0.6924865E-004  0.9118800E+02  0.7818608E-02  0.1130116E+00
         25   -1    0    0    0    0  0.00000000000E+00  0.00000000000E+00  0.99999998245E-14  0.12500000000E+03  0.12500000000E+03 0.  0.
        -13    1    3    3    0    0 -0.13206004357E+02 -0.14938046003E+02  0.45443228991E+02  0.49625013800E+02  0.10566000000E+00 0. -1.
         23    2    1    0    0    0  0.14948439310E+02  0.12587207449E+02  0.22508967323E+02  0.95191490492E+02  0.90403941413E+02 0.  0.
         13    1    3    3    0    0  0.28154443667E+02  0.27525253452E+02 -0.22934261668E+02  0.45566476692E+02  0.10566000000E+00 0.  1.
         22    1    1    0    0    0 -0.14948439310E+02 -0.12587207449E+02 -0.22508967323E+02  0.29808509508E+02  0.00000000000E+00 0. -1.
</event>
<event>
 5    1  0.6924865E-004  0.9118800E+02  0.7818608E-02  0.1130116E+00
         25   -1    0    0    0    0  0.00000000000E+00  0.00000000000E+00  0.99999998245E-14  0.12500000000E+03  0.12500000000E+03 0.  0.
        -13    1    3    3    0    0  0.44837878676E+02  0.12805568183E+02  0.10587692847E+02  0.47817657246E+02  0.10566000000E+00 0. -1.
         23    2    1    0    0    0  0.35103440150E+01  0.31922691709E+01  0.30105821207E+02  0.94522572810E+02  0.89474260000E+02 0.  0.
         13    1    3    3    0    0 -0.41327534661E+02 -0.96132990122E+01  0.19518128360E+02  0.46704915564E+02  0.10566000000E+00 0.  1.
         22    1    1    0    0    0 -0.35103440150E+01 -0.31922691709E+01 -0.30105821207E+02  0.30477427190E+02  0.00000000000E+00 0.  1.
</event>
<event>
 5    1  0.6924865E-004  0.9118800E+02  0.7818608E-02  0.1130116E+00
         25   -1    0    0    0    0  0.00000000000E+00  0.00000000000E+00  0.99999998245E-14  0.12500000000E+03  0.12500000000E+03 0.  0.
        -13    1    3    3    0    0  0.25991059172E+02 -0.44756753004E+02 -0.13557724409E+02  0.53502571448E+02  0.10566000000E+00 0.  1.
         23    2    1    0    0    0 -0.46540123134E+01 -0.37661078498E+02 -0.20512035618E+01  0.86997051427E+02  0.78257669635E+02 0.  0.
         13    1    3    3    0    0 -0.30645071485E+02  0.70956745067E+01  0.11506520847E+02  0.33494479979E+02  0.10566000000E+00 0. -1.
         22    1    1    0    0    0  0.46540123134E+01  0.37661078498E+02  0.20512035618E+01  0.38002948573E+02  0.00000000000E+00 0.  1.
</event>
<event>
 5    1  0.6924865E-004  0.9118800E+02  0.7818608E-02  0.1130116E+00
         25   -1    0    0    0    0  0.00000000000E+00  0.00000000000E+00  0.99999998245E-14  0.12500000000E+03  0.12500000000E+03 0.  0.
        -13    1    3    3    0    0  0.23232348009E+02  0.32852872761E+02 -0.24923761099E+02  0.47331366703E+02  0.10566000000E+00 0.  1.
         23    2    1    0    0    0  0.27847443558E+02 -0.61351978698E+01  0.41492770448E+01  0.96184426683E+02  0.91766587987E+02 0.  0.
         13    1    3    3    0    0  0.46150955485E+01 -0.38988070630E+02  0.29073038144E+02  0.48853059980E+02  0.10566000000E+00 0. -1.
         22    1    1    0    0    0 -0.27847443558E+02  0.61351978698E+01 -0.41492770448E+01  0.28815573317E+02  0.00000000000E+00 0. -1.
</event>
<event>
 5    1  0.6924865E-004  0.9118800E+02  0.7818608E-02  0.1130116E+00
         25   -1    0    0    0    0  0.00000000000E+00  0.00000000000E+00  0.99999998245E-14  0.12500000000E+03  0.12500000000E+03 0.  0.
        -13    1    3    3    0    0  0.64850362027E+01 -0.27468087885E+02  0.23222316333E+02  0.36549127029E+02  0.10566000000E+00 0. -1.
         23    2    1    0    0    0 -0.27843503413E+02  0.72450927407E+01 -0.87746951412E+01  0.94920981965E+02  0.90029136901E+02 0.  0.
         13    1    3    3    0    0 -0.34328539616E+02  0.34713180626E+02 -0.31997011475E+02  0.58371854936E+02  0.10566000000E+00 0.  1.
         22    1    1    0    0    0  0.27843503413E+02 -0.72450927407E+01  0.87746951412E+01  0.30079018035E+02  0.00000000000E+00 0.  1.
</event>
<event>
 5    1  0.6924865E-004  0.9118800E+02  0.7818608E-02  0.1130116E+00
         25   -1    0    0    0    0  0.00000000000E+00  0.00000000000E+00  0.99999998245E-14  0.12500000000E+03  0.12500000000E+03 0.  0.
        -13    1    3    3    0    0  0.19377319600E+02 -0.29866778891E+02 -0.43235976940E+01  0.35863765241E+02  0.10566000000E+00 0. -1.
         23    2    1    0    0    0 -0.25828315420E+02  0.47355157202E+01 -0.16374578186E+02  0.94054018074E+02  0.88817253496E+02 0.  0.
         13    1    3    3    0    0 -0.45205635020E+02  0.34602294612E+02 -0.12050980492E+02  0.58190252833E+02  0.10566000000E+00 0.  1.
         22    1    1    0    0    0  0.25828315420E+02 -0.47355157202E+01  0.16374578186E+02  0.30945981926E+02  0.00000000000E+00 0.  1.
</event>
<event>
 5    1  0.6924865E-004  0.9118800E+02  0.7818608E-02  0.1130116E+00
         25   -1    0    0    0    0  0.00000000000E+00  0.00000000000E+00  0.99999998245E-14  0.12500000000E+03  0.12500000000E+03 0.  0.
        -13    1    3    3    0    0 -0.32290754773E+02 -0.18141972325E+02  0.26629268680E+02  0.45617465056E+02  0.10566000000E+00 0.  1.
         23    2    1    0    0    0 -0.20867741447E+02  0.23288468767E+02  0.65588902726E+01  0.93049499969E+02  0.87392076255E+02 0.  0.
         13    1    3    3    0    0  0.11423013326E+02  0.41430441092E+02 -0.20070378407E+02  0.47432034913E+02  0.10566000000E+00 0. -1.
         22    1    1    0    0    0  0.20867741447E+02 -0.23288468767E+02 -0.65588902726E+01  0.31950500031E+02  0.00000000000E+00 0. -1.
</event>
<event>
 5    1  0.6924865E-004  0.9118800E+02  0.7818608E-02  0.1130116E+00
         25   -1    0    0    0    0  0.00000000000E+00  0.00000000000E+00  0.99999998245E-14  0.12500000000E+03  0.12500000000E+03 0.  0.
        -13    1    3    3    0    0  0.42739231318E+02  0.14541670445E+02  0.17073423242E+02  0.48266085591E+02  0.10566000000E+00 0.  1.
         23    2    1    0    0    0  0.25070957459E+02 -0.71320215090E+01 -0.18148622780E+02  0.93238527309E+02  0.87662031845E+02 0.  0.
         13    1    3    3    0    0 -0.17668273860E+02 -0.21673691954E+02 -0.35222046022E+02  0.44972441718E+02  0.10566000000E+00 0. -1.
         22    1    1    0    0    0 -0.25070957459E+02  0.71320215090E+01  0.18148622780E+02  0.31761472691E+02  0.00000000000E+00 0. -1.
</event>
<event>
 5    1  0.6924865E-004  0.9118800E+02  0.7818608E-02  0.1130116E+00
         25   -1    0    0    0    0  0.00000000000E+00  0.00000000000E+00  0.99999998245E-14  0.12500000000E+03  0.12500000000E+03 0.  0.
        -13    1    3    3    0    0 -0.48212231902E+01 -0.79817097318E+01 -0.32463314545E+02  0.33776172646E+02  0.10566000000E+00 0. -1.
         23    2    1    0    0    0  0.12781507731E+02 -0.20364970079E+01  0.26451765227E+02  0.95551568062E+02  0.90900451130E+02 0.  0.
         13    1    3    3    0    0  0.17602730921E+02  0.59452127239E+01  0.58915079773E+02  0.61775395417E+02  0.10566000000E+00 0.  1.
         22    1    1    0    0    0 -0.12781507731E+02  0.20364970079E+01 -0.26451765227E+02  0.29448431938E+02  0.00000000000E+00 0.  1.
</event>
<event>
 5    1  0.6924865E-004  0.9118800E+02  0.7818608E-02  0.1130116E+00
         25   -1    0    0    0    0  0.00000000000E+00  0.00000000000E+00  0.99999998245E-14  0.12500000000E+03  0.12500000000E+03 0.  0.
        -13    1    3    3    0    0 -0.71507849199E+01  0.36929297862E+02  0.34516886046E+01  0.37773430924E+02  0.10566000000E+00 0. -1.
         23    2    1    0    0    0 -0.22465710089E+02 -0.18736845142E+02  0.37363940980E+01  0.95508676928E+02  0.90841451067E+02 0.  0.
         13    1    3    3    0    0 -0.15314925169E+02 -0.55666143004E+02  0.28470549337E+00  0.57735246004E+02  0.10566000000E+00 0.  1.
         22    1    1    0    0    0  0.22465710089E+02  0.18736845142E+02 -0.37363940980E+01  0.29491323072E+02  0.00000000000E+00 0.  1.
</event>
<event>
 5    1  0.6924865E-004  0.9118800E+02  0.7818608E-02  0.1130116E+00
         25   -1    0    0    0    0  0.00000000000E+00  0.00000000000E+00  0.99999998245E-14  0.12500000000E+03  0.12500000000E+03 0.  0.
        -13    1    3    3    0    0  0.86651196963E+01  0.35732523537E+02  0.15765895582E+02  0.40005901630E+02  0.10566000000E+00 0.  1.
         23    2    1    0    0    0 -0.11779328666E+02 -0.11448025246E+02  0.27703288449E+02  0.92793136496E+02  0.87024617919E+02 0.  0.
         13    1    3    3    0    0 -0.20444448362E+02 -0.47180548783E+02  0.11937392867E+02  0.52787234866E+02  0.10566000000E+00 0. -1.
         22    1    1    0    0    0  0.11779328666E+02  0.11448025246E+02 -0.27703288449E+02  0.32206863504E+02  0.00000000000E+00 0. -1.
</event>
<event>
 5    1  0.6924865E-004  0.9118800E+02  0.7818608E-02  0.1130116E+00
         25   -1    0    0    0    0  0.00000000000E+00  0.00000000000E+00  0.99999998245E-14  0.12500000000E+03  0.12500000000E+03 0.  0.
        -13    1    3    3    0    0 -0.12792754567E+02  0.31339573013E+02  0.18338238700E+02  0.38498383975E+02  0.10566000000E+00 0.  1.
         23    2    1    0    0    0 -0.22243917145E+02 -0.20400428663E+02 -0.16695231788E+01  0.94771592050E+02  0.89821478569E+02 0.  0.
         13    1    3    3    0    0 -0.94511625779E+01 -0.51740001676E+02 -0.20007761879E+02  0.56273208074E+02  0.10566000000E+00 0. -1.
         22    1    1    0    0    0  0.22243917145E+02  0.20400428663E+02  0.16695231788E+01  0.30228407950E+02  0.00000000000E+00 0. -1.
</event>
<event>
 5    1  0.6924865E-004  0.9118800E+02  0.7818608E-02  0.1130116E+00
         25   -1    0    0    0    0  0.00000000000E+00  0.00000000000E+00  0.99999998245E-14  0.12500000000E+03  0.12500000000E+03 0.  0.
        -13    1    3    3    0    0 -0.38868972275E+02  0.35201780825E+02  0.22857764439E+02  0.57205340119E+02  0.10566000000E+00 0.  1.
         23    2    1    0    0    0 -0.36755385420E+01  0.27044867458E+02  0.13633487503E+02  0.94490879710E+02  0.89429972199E+02 0.  0.
         13    1    3    3    0    0  0.35193433733E+02 -0.81569133672E+01 -0.92242769366E+01  0.37285539591E+02  0.10566000000E+00 0. -1.
         22    1    1    0    0    0  0.36755385420E+01 -0.27044867458E+02 -0.13633487503E+02  0.30509120290E+02  0.00000000000E+00 0.  1.
</event>
<event>
 5    1  0.6924865E-004  0.9118800E+02  0.7818608E-02  0.1130116E+00
         25   -1    0    0    0    0  0.00000000000E+00  0.00000000000E+00  0.99999998245E-14  0.12500000000E+03  0.12500000000E+03 0.  0.
        -13    1    3    3    0    0 -0.53721112336E+02  0.15752766388E+02  0.22166180631E+02  0.60211778642E+02  0.10566000000E+00 0.  1.
         23    2    1    0    0    0 -0.28884623423E+02  0.72698118843E-01  0.15949044425E+01  0.96071286314E+02  0.91612344030E+02 0.  0.
         13    1    3    3    0    0  0.24836488912E+02 -0.15680068269E+02 -0.20571276189E+02  0.35859507672E+02  0.10566000000E+00 0. -1.
         22    1    1    0    0    0  0.28884623423E+02 -0.72698118843E-01 -0.15949044425E+01  0.28928713686E+02  0.00000000000E+00 0.  1.
</event>
<event>
 5    1  0.6924865E-004  0.9118800E+02  0.7818608E-02  0.1130116E+00
         25   -1    0    0    0    0  0.00000000000E+00  0.00000000000E+00  0.99999998245E-14  0.12500000000E+03  0.12500000000E+03 0.  0.
        -13    1    3    3    0    0 -0.46828226054E+02 -0.64425703182E+01 -0.24390982504E+02  0.53191358878E+02  0.10566000000E+00 0. -1.
         23    2    1    0    0    0 -0.25529078803E+02  0.12869405131E+02  0.68012371658E+01  0.95612719079E+02  0.90984502910E+02 0.  0.
         13    1    3    3    0    0  0.21299147252E+02  0.19311975449E+02  0.31192219670E+02  0.42421360202E+02  0.10566000000E+00 0.  1.
         22    1    1    0    0    0  0.25529078803E+02 -0.12869405131E+02 -0.68012371658E+01  0.29387280921E+02  0.00000000000E+00 0. -1.
</event>
<event>
 5    1  0.6924865E-004  0.9118800E+02  0.7818608E-02  0.1130116E+00
         25   -1    0    0    0    0  0.00000000000E+00  0.00000000000E+00  0.99999998245E-14  0.12500000000E+03  0.12500000000E+03 0.  0.
        -13    1    3    3    0    0  0.15952469453E+02 -0.11862284515E+02  0.49160683796E+02  0.53028096994E+02  0.10566000000E+00 0.  1.
         23    2    1    0    0    0  0.19339407046E+02 -0.24837684961E+02  0.14211751086E+02  0.90461657132E+02  0.83608697412E+02 0.  0.
         13    1    3    3    0    0  0.33869375934E+01 -0.12975400446E+02 -0.34948932709E+02  0.37433560138E+02  0.10566000000E+00 0. -1.
         22    1    1    0    0    0 -0.19339407046E+02  0.24837684961E+02 -0.14211751086E+02  0.34538342868E+02  0.00000000000E+00 0.  1.
</event>
<event>
 5    1  0.6924865E-004  0.9118800E+02  0.7818608E-02  0.1130116E+00
         25   -1    0    0    0    0  0.00000000000E+00  0.00000000000E+00  0.99999998245E-14  0.12500000000E+03  0.12500000000E+03 0.  0.
        -13    1    3    3    0    0 -0.34179098608E+02 -0.27092504622E+02  0.22763351753E+02  0.49197519606E+02  0.10566000000E+00 0.  1.
         23    2    1    0    0    0 -0.70576640722E+01 -0.28202106362E+02 -0.12209467166E+02  0.93468420371E+02  0.87989232823E+02 0.  0.
         13    1    3    3    0    0  0.27121434536E+02 -0.11096017403E+01 -0.34972818919E+02  0.44270900764E+02  0.10566000000E+00 0. -1.
         22    1    1    0    0    0  0.70576640722E+01  0.28202106362E+02  0.12209467166E+02  0.31531579629E+02  0.00000000000E+00 0.  1.
</event>
<event>
 5    1  0.6924865E-004  0.9118800E+02  0.7818608E-02  0.1130116E+00
         25   -1    0    0    0    0  0.00000000000E+00  0.00000000000E+00  0.99999998245E-14  0.12500000000E+03  0.12500000000E+03 0.  0.
        -13    1    3    3    0    0 -0.31571424998E+02 -0.20050923810E+02 -0.37376807173E+02  0.52875621042E+02  0.10566000000E+00 0.  1.
         23    2    1    0    0    0 -0.17255327594E+02  0.15596646083E+02 -0.13485674811E+02  0.98113848834E+02  0.94358159204E+02 0.  0.
         13    1    3    3    0    0  0.14316097404E+02  0.35647569893E+02  0.23891132362E+02  0.45238227792E+02  0.10566000000E+00 0. -1.
         22    1    1    0    0    0  0.17255327594E+02 -0.15596646083E+02  0.13485674811E+02  0.26886151166E+02  0.00000000000E+00 0.  1.
</event>
<event>
 5    1  0.6924865E-004  0.9118800E+02  0.7818608E-02  0.1130116E+00
         25   -1    0    0    0    0  0.00000000000E+00  0.00000000000E+00  0.99999998245E-14  0.12500000000E+03  0.12500000000E+03 0.  0.
        -13    1    3    3    0    0  0.24910066876E+01  0.18025359842E+02  0.27822886182E+02  0.33245193206E+02  0.10566000000E+00 0.  1.
         23    2    1    0    0    0 -0.97892324640E+00 -0.15814017862E+02 -0.24600818402E+02  0.95738391744E+02  0.91156996089E+02 0.  0.
         13    1    3    3    0    0 -0.34699299340E+01 -0.33839377704E+02 -0.52423704585E+02  0.62493198538E+02  0.10566000000E+00 0. -1.
         22    1    1    0    0    0  0.97892324640E+00  0.15814017862E+02  0.24600818402E+02  0.29261608256E+02  0.00000000000E+00 0. -1.
</event>
<event>
 5    1  0.6924865E-004  0.9118800E+02  0.7818608E-02  0.1130116E+00
         25   -1    0    0    0    0  0.00000000000E+00  0.00000000000E+00  0.99999998245E-14  0.12500000000E+03  0.12500000000E+03 0.  0.
        -13    1    3    3    0    0  0.86972672098E+01  0.14163880099E+02 -0.30427519234E+02  0.34671357735E+02  0.10566000000E+00 0. -1.
         23    2    1    0    0    0 -0.21360884585E+02 -0.17356449137E+02  0.11540010837E+02  0.95155309232E+02  0.90353900348E+02 0.  0.
         13    1    3    3    0    0 -0.30058151795E+02 -0.31520329236E+02  0.41967530071E+02  0.60483951498E+02  0.10566000000E+00 0.  1.
         22    1    1    0    0    0  0.21360884585E+02  0.17356449137E+02 -0.11540010837E+02  0.29844690768E+02  0.00000000000E+00 0.  1.
</event>
<event>
 5    1  0.6924865E-004  0.9118800E+02  0.7818608E-02  0.1130116E+00
         25   -1    0    0    0    0  0.00000000000E+00  0.00000000000E+00  0.99999998245E-14  0.12500000000E+03  0.12500000000E+03 0.  0.
        -13    1    3    3    0    0  0.24889912721E+02  0.27105569403E+02  0.41811770075E+02  0.55699685177E+02  0.10566000000E+00 0.  1.
         23    2    1    0    0    0  0.34393096648E+01 -0.35887873414E+01  0.29448594767E+02  0.95134836694E+02  0.90325573197E+02 0.  0.
         13    1    3    3    0    0 -0.21450603056E+02 -0.30694356745E+02 -0.12363175308E+02  0.39435151517E+02  0.10566000000E+00 0. -1.
         22    1    1    0    0    0 -0.34393096648E+01  0.35887873414E+01 -0.29448594767E+02  0.29865163306E+02  0.00000000000E+00 0.  1.
</event>
<event>
 5    1  0.6924865E-004  0.9118800E+02  0.7818608E-02  0.1130116E+00
         25   -1    0    0    0    0  0.00000000000E+00  0.00000000000E+00  0.99999998245E-14  0.12500000000E+03  0.12500000000E+03 0.  0.
        -13    1    3    3    0    0 -0.26891688624E+02 -0.46319171980E+02  0.28119415694E+02  0.60492489724E+02  0.10566000000E+00 0.  1.
         23    2    1    0    0    0 -0.14177648897E+02 -0.26616217263E+02  0.32580856670E+01  0.94667775026E+02  0.89676885297E+02 0.  0.
         13    1    3    3    0    0  0.12714039727E+02  0.19702954716E+02 -0.24861330027E+02  0.34175285302E+02  0.10566000000E+00 0. -1.
         22    1    1    0    0    0  0.14177648897E+02  0.26616217263E+02 -0.32580856670E+01  0.30332224974E+02  0.00000000000E+00 0.  1.
</event>
<event>
 5    1  0.6924865E-004  0.9118800E+02  0.7818608E-02  0.1130116E+00
         25   -1    0    0    0    0  0.00000000000E+00  0.00000000000E+00  0.99999998245E-14  0.12500000000E+03  0.12500000000E+03 0.  0.
        -13    1    3    3    0    0 -0.25033722066E+02  0.32933216640E+01  0.32432460092E+02  0.41102418904E+02  0.10566000000E+00 0. -1.
         23    2    1    0    0    0 -0.18113728241E+02 -0.43084694041E+01 -0.21817428589E+02  0.96317771188E+02  0.91948044009E+02 0.  0.
         13    1    3    3    0    0  0.69199938256E+01 -0.76017910681E+01 -0.54249888681E+02  0.55215352284E+02  0.10566000000E+00 0.  1.
         22    1    1    0    0    0  0.18113728241E+02  0.43084694041E+01  0.21817428589E+02  0.28682228812E+02  0.00000000000E+00 0.  1.
</event>
<event>
 5    1  0.6924865E-004  0.9118800E+02  0.7818608E-02  0.1130116E+00
         25   -1    0    0    0    0  0.00000000000E+00  0.00000000000E+00  0.99999998245E-14  0.12500000000E+03  0.12500000000E+03 0.  0.
        -13    1    3    3    0    0  0.77061547181E+01  0.30149848332E+02  0.46845255272E+02  0.56239552634E+02  0.10566000000E+00 0. -1.
         23    2    1    0    0    0  0.17396874467E+02  0.52572803025E-01  0.24475458647E+02  0.94971645381E+02  0.90099452525E+02 0.  0.
         13    1    3    3    0    0  0.96907197487E+01 -0.30097275529E+02 -0.22369796625E+02  0.38732092747E+02  0.10566000000E+00 0.  1.
         22    1    1    0    0    0 -0.17396874467E+02 -0.52572803025E-01 -0.24475458647E+02  0.30028354619E+02  0.00000000000E+00 0. -1.
</event>
<event>
 5    1  0.6924865E-004  0.9118800E+02  0.7818608E-02  0.1130116E+00
         25   -1    0    0    0    0  0.00000000000E+00  0.00000000000E+00  0.99999998245E-14  0.12500000000E+03  0.12500000000E+03 0.  0.
        -13    1    3    3    0    0 -0.21117841601E+02  0.20038357375E+02 -0.32378038183E+02  0.43541331178E+02  0.10566000000E+00 0.  1.
         23    2    1    0    0    0  0.26944665935E+01  0.22140544667E+02  0.16032052150E+02  0.97532008364E+02  0.93584197870E+02 0.  0.
         13    1    3    3    0    0  0.23812308194E+02  0.21021872925E+01  0.48410090333E+02  0.53990677186E+02  0.10566000000E+00 0. -1.
         22    1    1    0    0    0 -0.26944665935E+01 -0.22140544667E+02 -0.16032052150E+02  0.27467991636E+02  0.00000000000E+00 0. -1.
</event>
<event>
 5    1  0.6924865E-004  0.9118800E+02  0.7818608E-02  0.1130116E+00
         25   -1    0    0    0    0  0.00000000000E+00  0.00000000000E+00  0.99999998245E-14  0.12500000000E+03  0.12500000000E+03 0.  0.
        -13    1    3    3    0    0  0.19120084551E+02 -0.28201670415E+02 -0.79455540213E+01  0.34986495111E+02  0.10566000000E+00 0. -1.
         23    2    1    0    0    0 -0.14083260090E+02  0.22127330653E+02 -0.13434261115E+02  0.95530755892E+02  0.90871827168E+02 0.  0.
         13    1    3    3    0    0 -0.33203344641E+02  0.50329001068E+02 -0.54887070940E+01  0.60544260781E+02  0.10566000000E+00 0.  1.
         22    1    1    0    0    0  0.14083260090E+02 -0.22127330653E+02  0.13434261115E+02  0.29469244108E+02  0.00000000000E+00 0.  1.
</event>
<event>
 5    1  0.6924865E-004  0.9118800E+02  0.7818608E-02  0.1130116E+00
         25   -1    0    0    0    0  0.00000000000E+00  0.00000000000E+00  0.99999998245E-14  0.12500000000E+03  0.12500000000E+03 0.  0.
        -13    1    3    3    0    0  0.76866425419E+01 -0.49147470418E+01  0.42585983394E+02  0.43552455244E+02  0.10566000000E+00 0.  1.
         23    2    1    0    0    0 -0.23811723876E+02 -0.14445489593E+02  0.28401941107E+00  0.97147692545E+02  0.93069453294E+02 0.  0.
         13    1    3    3    0    0 -0.31498366418E+02 -0.95307425510E+01 -0.42301963983E+02  0.53595237302E+02  0.10566000000E+00 0. -1.
         22    1    1    0    0    0  0.23811723876E+02  0.14445489593E+02 -0.28401941107E+00  0.27852307455E+02  0.00000000000E+00 0.  1.
</event>
<event>
 5    1  0.6924865E-004  0.9118800E+02  0.7818608E-02  0.1130116E+00
         25   -1    0    0    0    0  0.00000000000E+00  0.00000000000E+00  0.99999998245E-14  0.12500000000E+03  0.12500000000E+03 0.  0.
        -13    1    3    3    0    0  0.18888017425E+02 -0.17143446065E+02  0.40415164980E+02  0.47791753155E+02  0.10566000000E+00 0.  1.
         23    2    1    0    0    0  0.92406012823E+01  0.22847627218E+02  0.15394180962E+02  0.95941720818E+02  0.91435388140E+02 0.  0.
         13    1    3    3    0    0 -0.96474161426E+01  0.39991073283E+02 -0.25020984019E+02  0.48149967662E+02  0.10566000000E+00 0. -1.
         22    1    1    0    0    0 -0.92406012823E+01 -0.22847627218E+02 -0.15394180962E+02  0.29058279182E+02  0.00000000000E+00 0. -1.
</event>
<event>
 5    1  0.6924865E-004  0.9118800E+02  0.7818608E-02  0.1130116E+00
         25   -1    0    0    0    0  0.00000000000E+00  0.00000000000E+00  0.99999998245E-14  0.12500000000E+03  0.12500000000E+03 0.  0.
        -13    1    3    3    0    0 -0.29666196537E+02 -0.71762479441E+01 -0.12778322446E+02  0.33088947401E+02  0.10566000000E+00 0.  1.
         23    2    1    0    0    0  0.19794209833E+02  0.99845660739E+01  0.20236921324E+02  0.94982750171E+02  0.90114857503E+02 0.  0.
         13    1    3    3    0    0  0.49460406370E+02  0.17160814018E+02  0.33015243771E+02  0.61893802770E+02  0.10566000000E+00 0. -1.
         22    1    1    0    0    0 -0.19794209833E+02 -0.99845660739E+01 -0.20236921324E+02  0.30017249829E+02  0.00000000000E+00 0. -1.
</event>
<event>
 5    1  0.6924865E-004  0.9118800E+02  0.7818608E-02  0.1130116E+00
         25   -1    0    0    0    0  0.00000000000E+00  0.00000000000E+00  0.99999998245E-14  0.12500000000E+03  0.12500000000E+03 0.  0.
        -13    1    3    3    0    0 -0.40810269418E+02  0.19932994207E+02 -0.21194675932E+02  0.50120133678E+02  0.10566000000E+00 0. -1.
         23    2    1    0    0    0 -0.24865190610E+02 -0.24946631426E+01  0.15202405724E+02  0.95749116457E+02  0.91171701280E+02 0.  0.
         13    1    3    3    0    0  0.15945078808E+02 -0.22427657350E+02  0.36397081655E+02  0.45628982779E+02  0.10566000000E+00 0.  1.
         22    1    1    0    0    0  0.24865190610E+02  0.24946631426E+01 -0.15202405724E+02  0.29250883543E+02  0.00000000000E+00 0. -1.
</event>
<event>
 5    1  0.6924865E-004  0.9118800E+02  0.7818608E-02  0.1130116E+00
         25   -1    0    0    0    0  0.00000000000E+00  0.00000000000E+00  0.99999998245E-14  0.12500000000E+03  0.12500000000E+03 0.  0.
        -13    1    3    3    0    0 -0.11653833851E+02  0.32878324919E+02  0.10846786137E+02  0.36530261790E+02  0.10566000000E+00 0. -1.
         23    2    1    0    0    0  0.25049876696E+02 -0.50184836541E+01 -0.15100660190E+02  0.95323217175E+02  0.90585894562E+02 0.  0.
         13    1    3    3    0    0  0.36703710548E+02 -0.37896808573E+02 -0.25947446327E+02  0.58792955385E+02  0.10566000000E+00 0.  1.
         22    1    1    0    0    0 -0.25049876696E+02  0.50184836541E+01  0.15100660190E+02  0.29676782825E+02  0.00000000000E+00 0.  1.
</event>
<event>
 5    1  0.6924865E-004  0.9118800E+02  0.7818608E-02  0.1130116E+00
         25   -1    0    0    0    0  0.00000000000E+00  0.00000000000E+00  0.99999998245E-14  0.12500000000E+03  0.12500000000E+03 0.  0.
        -13    1    3    3    0    0  0.47851700781E-01 -0.75966599126E+01 -0.40042095249E+02  0.40756497489E+02  0.10566000000E+00 0.  1.
         23    2    1    0    0    0  0.26871515906E+02 -0.51021893782E+01  0.85725841533E+01  0.96336435975E+02  0.91973414603E+02 0.  0.
         13    1    3    3    0    0  0.26823664206E+02  0.24944705344E+01  0.48614679402E+02  0.55579938486E+02  0.10566000000E+00 0. -1.
         22    1    1    0    0    0 -0.26871515906E+02  0.51021893782E+01 -0.85725841533E+01  0.28663564025E+02  0.00000000000E+00 0.  1.
</event>
<event>
 5    1  0.6924865E-004  0.9118800E+02  0.7818608E-02  0.1130116E+00
         25   -1    0    0    0    0  0.00000000000E+00  0.00000000000E+00  0.99999998245E-14  0.12500000000E+03  0.12500000000E+03 0.  0.
        -13    1    3    3    0    0 -0.92807834408E+01 -0.92646851556E+01 -0.33582022061E+02  0.36051778070E+02  0.10566000000E+00 0.  1.
         23    2    1    0    0    0 -0.16269231569E+02 -0.30550419039E+00  0.24694837089E+02  0.95426089073E+02  0.90727737040E+02 0.  0.
         13    1    3    3    0    0 -0.69884481282E+01  0.89591809652E+01  0.58276859149E+02  0.59374311003E+02  0.10566000000E+00 0. -1.
         22    1    1    0    0    0  0.16269231569E+02  0.30550419039E+00 -0.24694837089E+02  0.29573910927E+02  0.00000000000E+00 0. -1.
</event>
<event>
 5    1  0.6924865E-004  0.9118800E+02  0.7818608E-02  0.1130116E+00
         25   -1    0    0    0    0  0.00000000000E+00  0.00000000000E+00  0.99999998245E-14  0.12500000000E+03  0.12500000000E+03 0.  0.
        -13    1    3    3    0    0  0.24345559608E+02 -0.31490381133E+02  0.38409099320E+02  0.55313835983E+02  0.10566000000E+00 0. -1.
         23    2    1    0    0    0  0.26131878774E+02 -0.34782258720E+02  0.15059248675E+02  0.78962389500E+02  0.64152921795E+02 0.  0.
         13    1    3    3    0    0  0.17863191653E+01 -0.32918775869E+01 -0.23349850645E+02  0.23648553516E+02  0.10566000000E+00 0.  1.
         22    1    1    0    0    0 -0.26131878774E+02  0.34782258720E+02 -0.15059248675E+02  0.46037610500E+02  0.00000000000E+00 0. -1.
</event>
<event>
 5    1  0.6924865E-004  0.9118800E+02  0.7818608E-02  0.1130116E+00
         25   -1    0    0    0    0  0.00000000000E+00  0.00000000000E+00  0.99999998245E-14  0.12500000000E+03  0.12500000000E+03 0.  0.
        -13    1    3    3    0    0 -0.11901384596E+02  0.40046368159E+02 -0.45932270772E+02  0.62089767437E+02  0.10566000000E+00 0. -1.
         23    2    1    0    0    0 -0.86016928141E+01  0.22258101715E+02 -0.19182319223E+02  0.94383442682E+02  0.89279676694E+02 0.  0.
         13    1    3    3    0    0  0.32996917822E+01 -0.17788266444E+02  0.26749951549E+02  0.32293675246E+02  0.10566000000E+00 0.  1.
         22    1    1    0    0    0  0.86016928141E+01 -0.22258101715E+02  0.19182319223E+02  0.30616557318E+02  0.00000000000E+00 0. -1.
</event>
<event>
 5    1  0.6924865E-004  0.9118800E+02  0.7818608E-02  0.1130116E+00
         25   -1    0    0    0    0  0.00000000000E+00  0.00000000000E+00  0.99999998245E-14  0.12500000000E+03  0.12500000000E+03 0.  0.
        -13    1    3    3    0    0  0.49639550164E+02  0.30355818499E+02  0.61460409163E+01  0.58509363697E+02  0.10566000000E+00 0.  1.
         23    2    1    0    0    0  0.13882419233E+02  0.26710037124E+02  0.49437755500E+00  0.94893654223E+02  0.89991185989E+02 0.  0.
         13    1    3    3    0    0 -0.35757130931E+02 -0.36457813753E+01 -0.56516633613E+01  0.36384290526E+02  0.10566000000E+00 0. -1.
         22    1    1    0    0    0 -0.13882419233E+02 -0.26710037124E+02 -0.49437755500E+00  0.30106345777E+02  0.00000000000E+00 0.  1.
</event>
<event>
 5    1  0.6924865E-004  0.9118800E+02  0.7818608E-02  0.1130116E+00
         25   -1    0    0    0    0  0.00000000000E+00  0.00000000000E+00  0.99999998245E-14  0.12500000000E+03  0.12500000000E+03 0.  0.
        -13    1    3    3    0    0  0.22502110740E+02 -0.30890779629E+02  0.41147725540E+01  0.38438623428E+02  0.10566000000E+00 0.  1.
         23    2    1    0    0    0  0.20898874847E+02  0.69343053841E+01  0.32490241815E+02  0.85751262769E+02  0.76241823774E+02 0.  0.
         13    1    3    3    0    0 -0.16032358936E+01  0.37825085013E+02  0.28375469261E+02  0.47312639341E+02  0.10566000000E+00 0. -1.
         22    1    1    0    0    0 -0.20898874847E+02 -0.69343053841E+01 -0.32490241815E+02  0.39248737231E+02  0.00000000000E+00 0.  1.
</event>
<event>
 5    1  0.6924865E-004  0.9118800E+02  0.7818608E-02  0.1130116E+00
         25   -1    0    0    0    0  0.00000000000E+00  0.00000000000E+00  0.99999998245E-14  0.12500000000E+03  0.12500000000E+03 0.  0.
        -13    1    3    3    0    0  0.12625301443E+01  0.42484946260E+02 -0.19253580622E+02  0.46661292009E+02  0.10566000000E+00 0.  1.
         23    2    1    0    0    0 -0.12608362972E+02  0.15746663481E+02  0.20301772742E+02  0.96380248008E+02  0.92032939766E+02 0.  0.
         13    1    3    3    0    0 -0.13870893116E+02 -0.26738282780E+02  0.39555353365E+02  0.49718955999E+02  0.10566000000E+00 0. -1.
         22    1    1    0    0    0  0.12608362972E+02 -0.15746663481E+02 -0.20301772742E+02  0.28619751992E+02  0.00000000000E+00 0.  1.
</event>
<event>
 5    1  0.6924865E-004  0.9118800E+02  0.7818608E-02  0.1130116E+00
         25   -1    0    0    0    0  0.00000000000E+00  0.00000000000E+00  0.99999998245E-14  0.12500000000E+03  0.12500000000E+03 0.  0.
        -13    1    3    3    0    0 -0.21885577499E+02 -0.20866123409E+02 -0.90929041181E+01  0.31576346811E+02  0.10566000000E+00 0. -1.
         23    2    1    0    0    0  0.18832151152E+01 -0.15597286841E+02  0.37608049263E+02  0.84242335380E+02  0.73726412125E+02 0.  0.
         13    1    3    3    0    0  0.23768792615E+02  0.52688365689E+01  0.46700953381E+02  0.52665988568E+02  0.10566000000E+00 0.  1.
         22    1    1    0    0    0 -0.18832151152E+01  0.15597286841E+02 -0.37608049263E+02  0.40757664620E+02  0.00000000000E+00 0.  1.
</event>
<event>
 5    1  0.6924865E-004  0.9118800E+02  0.7818608E-02  0.1130116E+00
         25   -1    0    0    0    0  0.00000000000E+00  0.00000000000E+00  0.99999998245E-14  0.12500000000E+03  0.12500000000E+03 0.  0.
        -13    1    3    3    0    0  0.25021974811E+02 -0.35564479940E+02  0.32715644240E+02  0.54417423670E+02  0.10566000000E+00 0.  1.
         23    2    1    0    0    0  0.25601627355E+02 -0.14595431060E+02 -0.25177899164E+01  0.95422826418E+02  0.90723241809E+02 0.  0.
         13    1    3    3    0    0  0.57965254409E+00  0.20969048880E+02 -0.35233434156E+02  0.41005402747E+02  0.10566000000E+00 0. -1.
         22    1    1    0    0    0 -0.25601627355E+02  0.14595431060E+02  0.25177899164E+01  0.29577173582E+02  0.00000000000E+00 0. -1.
</event>
<event>
 5    1  0.6924865E-004  0.9118800E+02  0.7818608E-02  0.1130116E+00
         25   -1    0    0    0    0  0.00000000000E+00  0.00000000000E+00  0.99999998245E-14  0.12500000000E+03  0.12500000000E+03 0.  0.
        -13    1    3    3    0    0 -0.16545268101E+02  0.19620058561E+02  0.21680072085E+02  0.33596566553E+02  0.10566000000E+00 0.  1.
         23    2    1    0    0    0  0.12946059571E+02  0.23389392471E+02 -0.24643948368E+02  0.88640842560E+02  0.80840649675E+02 0.  0.
         13    1    3    3    0    0  0.29491327673E+02  0.37693339097E+01 -0.46324020454E+02  0.55044276006E+02  0.10566000000E+00 0. -1.
         22    1    1    0    0    0 -0.12946059571E+02 -0.23389392471E+02  0.24643948368E+02  0.36359157440E+02  0.00000000000E+00 0. -1.
</event>
<event>
 5    1  0.6924865E-004  0.9118800E+02  0.7818608E-02  0.1130116E+00
         25   -1    0    0    0    0  0.00000000000E+00  0.00000000000E+00  0.99999998245E-14  0.12500000000E+03  0.12500000000E+03 0.  0.
        -13    1    3    3    0    0 -0.17560018373E+02  0.19840810467E+02 -0.28463290342E+02  0.38886785241E+02  0.10566000000E+00 0.  1.
         23    2    1    0    0    0  0.13217364525E+02  0.14782439647E+02  0.20203626659E+02  0.96690888797E+02  0.92453892288E+02 0.  0.
         13    1    3    3    0    0  0.30777382899E+02 -0.50583708203E+01  0.48666917001E+02  0.57804103556E+02  0.10566000000E+00 0. -1.
         22    1    1    0    0    0 -0.13217364525E+02 -0.14782439647E+02 -0.20203626659E+02  0.28309111203E+02  0.00000000000E+00 0. -1.
</event>
<event>
 5    1  0.6924865E-004  0.9118800E+02  0.7818608E-02  0.1130116E+00
         25   -1    0    0    0    0  0.00000000000E+00  0.00000000000E+00  0.99999998245E-14  0.12500000000E+03  0.12500000000E+03 0.  0.
        -13    1    3    3    0    0  0.15817798771E+02 -0.36051863164E+02  0.71351236155E+01  0.40010757911E+02  0.10566000000E+00 0.  1.
         23    2    1    0    0    0 -0.26800081466E+02 -0.45861957181E+01 -0.10513419968E+02  0.95848506777E+02  0.91307867647E+02 0.  0.
         13    1    3    3    0    0 -0.42617880236E+02  0.31465667446E+02 -0.17648543584E+02  0.55837748865E+02  0.10566000000E+00 0. -1.
         22    1    1    0    0    0  0.26800081466E+02  0.45861957181E+01  0.10513419968E+02  0.29151493223E+02  0.00000000000E+00 0. -1.
</event>
<event>
 5    1  0.6924865E-004  0.9118800E+02  0.7818608E-02  0.1130116E+00
         25   -1    0    0    0    0  0.00000000000E+00  0.00000000000E+00  0.99999998245E-14  0.12500000000E+03  0.12500000000E+03 0.  0.
        -13    1    3    3    0    0 -0.30655628849E+02  0.30027190276E+02  0.23770241652E+00  0.42912322268E+02  0.10566000000E+00 0. -1.
         23    2    1    0    0    0 -0.11144586936E+02 -0.18401403845E+02 -0.16660364437E+02  0.97790052837E+02  0.93928234356E+02 0.  0.
         13    1    3    3    0    0  0.19511041913E+02 -0.48428594120E+02 -0.16898066854E+02  0.54877730569E+02  0.10566000000E+00 0.  1.
         22    1    1    0    0    0  0.11144586936E+02  0.18401403845E+02  0.16660364437E+02  0.27209947163E+02  0.00000000000E+00 0.  1.
</event>
<event>
 5    1  0.6924865E-004  0.9118800E+02  0.7818608E-02  0.1130116E+00
         25   -1    0    0    0    0  0.00000000000E+00  0.00000000000E+00  0.99999998245E-14  0.12500000000E+03  0.12500000000E+03 0.  0.
        -13    1    3    3    0    0 -0.37647267303E+02  0.67048718867E+01  0.69139175375E+01  0.38859818092E+02  0.10566000000E+00 0.  1.
         23    2    1    0    0    0  0.15374935019E+02  0.23350652078E+02  0.11812528013E+02  0.94649095609E+02  0.89650844403E+02 0.  0.
         13    1    3    3    0    0  0.53022202322E+02  0.16645780191E+02  0.48986104757E+01  0.55789277517E+02  0.10566000000E+00 0. -1.
         22    1    1    0    0    0 -0.15374935019E+02 -0.23350652078E+02 -0.11812528013E+02  0.30350904391E+02  0.00000000000E+00 0. -1.
</event>
<event>
 5    1  0.6924865E-004  0.9118800E+02  0.7818608E-02  0.1130116E+00
         25   -1    0    0    0    0  0.00000000000E+00  0.00000000000E+00  0.99999998245E-14  0.12500000000E+03  0.12500000000E+03 0.  0.
        -13    1    3    3    0    0 -0.36277059054E+02  0.17107658342E+01  0.32121661569E+02  0.48484678398E+02  0.10566000000E+00 0.  1.
         23    2    1    0    0    0  0.90521013507E+00 -0.14719834711E+02  0.32687614150E+02  0.89139533492E+02  0.81608108501E+02 0.  0.
         13    1    3    3    0    0  0.37182269189E+02 -0.16430600546E+02  0.56595258097E+00  0.40654855094E+02  0.10566000000E+00 0. -1.
         22    1    1    0    0    0 -0.90521013507E+00  0.14719834711E+02 -0.32687614150E+02  0.35860466508E+02  0.00000000000E+00 0.  1.
</event>
<event>
 5    1  0.6924865E-004  0.9118800E+02  0.7818608E-02  0.1130116E+00
         25   -1    0    0    0    0  0.00000000000E+00  0.00000000000E+00  0.99999998245E-14  0.12500000000E+03  0.12500000000E+03 0.  0.
        -13    1    3    3    0    0 -0.33730992800E+02 -0.12615243203E+02 -0.26645119885E+01  0.36111425125E+02  0.10566000000E+00 0.  1.
         23    2    1    0    0    0  0.13262458269E+02  0.13612338852E+02  0.22522209110E+02  0.95530719867E+02  0.90871777614E+02 0.  0.
         13    1    3    3    0    0  0.46993451069E+02  0.26227582056E+02  0.25186721099E+02  0.59419294742E+02  0.10566000000E+00 0. -1.
         22    1    1    0    0    0 -0.13262458269E+02 -0.13612338852E+02 -0.22522209110E+02  0.29469280133E+02  0.00000000000E+00 0. -1.
</event>
<event>
 5    1  0.6924865E-004  0.9118800E+02  0.7818608E-02  0.1130116E+00
         25   -1    0    0    0    0  0.00000000000E+00  0.00000000000E+00  0.99999998245E-14  0.12500000000E+03  0.12500000000E+03 0.  0.
        -13    1    3    3    0    0 -0.10304452400E+02  0.28049713367E+02 -0.96508983952E+01  0.31402534342E+02  0.10566000000E+00 0.  1.
         23    2    1    0    0    0 -0.28570216590E+02 -0.11749900549E+02  0.23383207839E+02  0.86256073408E+02  0.77065026777E+02 0.  0.
         13    1    3    3    0    0 -0.18265764190E+02 -0.39799613917E+02  0.33034106234E+02  0.54853539066E+02  0.10566000000E+00 0. -1.
         22    1    1    0    0    0  0.28570216590E+02  0.11749900549E+02 -0.23383207839E+02  0.38743926592E+02  0.00000000000E+00 0. -1.
</event>
<event>
 5    1  0.6924865E-004  0.9118800E+02  0.7818608E-02  0.1130116E+00
         25   -1    0    0    0    0  0.00000000000E+00  0.00000000000E+00  0.99999998245E-14  0.12500000000E+03  0.12500000000E+03 0.  0.
        -13    1    3    3    0    0 -0.10242684146E+02 -0.22353536304E+02 -0.25842030141E+02  0.35670924429E+02  0.10566000000E+00 0. -1.
         23    2    1    0    0    0  0.99574796835E+01 -0.29487841755E+01  0.27326548166E+02  0.95766680578E+02  0.91195779203E+02 0.  0.
         13    1    3    3    0    0  0.20200163830E+02  0.19404752128E+02  0.53168578307E+02  0.60095756149E+02  0.10566000000E+00 0.  1.
         22    1    1    0    0    0 -0.99574796835E+01  0.29487841755E+01 -0.27326548166E+02  0.29233319422E+02  0.00000000000E+00 0.  1.
</event>
<event>
 5    1  0.6924865E-004  0.9118800E+02  0.7818608E-02  0.1130116E+00
         25   -1    0    0    0    0  0.00000000000E+00  0.00000000000E+00  0.99999998245E-14  0.12500000000E+03  0.12500000000E+03 0.  0.
        -13    1    3    3    0    0  0.35894441264E+02 -0.20898617120E+02 -0.40976084974E+02  0.58345640925E+02  0.10566000000E+00 0. -1.
         23    2    1    0    0    0  0.26096446582E+02 -0.97691058727E+01 -0.57744369334E+01  0.96542943307E+02  0.92253649395E+02 0.  0.
         13    1    3    3    0    0 -0.97979946822E+01  0.11129511247E+02  0.35201648041E+02  0.38197302381E+02  0.10566000000E+00 0.  1.
         22    1    1    0    0    0 -0.26096446582E+02  0.97691058727E+01  0.57744369334E+01  0.28457056693E+02  0.00000000000E+00 0. -1.
</event>
<event>
 5    1  0.6924865E-004  0.9118800E+02  0.7818608E-02  0.1130116E+00
         25   -1    0    0    0    0  0.00000000000E+00  0.00000000000E+00  0.99999998245E-14  0.12500000000E+03  0.12500000000E+03 0.  0.
        -13    1    3    3    0    0  0.47213891658E+02  0.13665099833E+01 -0.35188519588E+02  0.58900441338E+02  0.10566000000E+00 0.  1.
         23    2    1    0    0    0  0.16720338943E+02 -0.13788197824E+02 -0.16640191574E+02  0.97676381843E+02  0.93776838615E+02 0.  0.
         13    1    3    3    0    0 -0.30493552715E+02 -0.15154707807E+02  0.18548328014E+02  0.38775940505E+02  0.10566000000E+00 0. -1.
         22    1    1    0    0    0 -0.16720338943E+02  0.13788197824E+02  0.16640191574E+02  0.27323618157E+02  0.00000000000E+00 0.  1.
</event>
<event>
 5    1  0.6924865E-004  0.9118800E+02  0.7818608E-02  0.1130116E+00
         25   -1    0    0    0    0  0.00000000000E+00  0.00000000000E+00  0.99999998245E-14  0.12500000000E+03  0.12500000000E+03 0.  0.
        -13    1    3    3    0    0 -0.13245024080E+02 -0.22499757771E+02 -0.46360919380E+02  0.53207290595E+02  0.10566000000E+00 0. -1.
         23    2    1    0    0    0 -0.25539278575E+02 -0.89220186803E+01 -0.63497450115E+01  0.97211937290E+02  0.93155699356E+02 0.  0.
         13    1    3    3    0    0 -0.12294254495E+02  0.13577739090E+02  0.40011174369E+02  0.44004646695E+02  0.10566000000E+00 0.  1.
         22    1    1    0    0    0  0.25539278575E+02  0.89220186803E+01  0.63497450115E+01  0.27788062710E+02  0.00000000000E+00 0. -1.
</event>
<event>
 5    1  0.6924865E-004  0.9118800E+02  0.7818608E-02  0.1130116E+00
         25   -1    0    0    0    0  0.00000000000E+00  0.00000000000E+00  0.99999998245E-14  0.12500000000E+03  0.12500000000E+03 0.  0.
        -13    1    3    3    0    0 -0.16179888840E+02 -0.33993676680E+02 -0.27643837013E+01  0.37749328979E+02  0.10566000000E+00 0.  1.
         23    2    1    0    0    0 -0.15280410413E+02  0.20532041139E+02  0.15281615148E+02  0.95190883655E+02  0.90403102346E+02 0.  0.
         13    1    3    3    0    0  0.89947842731E+00  0.54525717819E+02  0.18045998849E+02  0.57441554676E+02  0.10566000000E+00 0. -1.
         22    1    1    0    0    0  0.15280410413E+02 -0.20532041139E+02 -0.15281615148E+02  0.29809116345E+02  0.00000000000E+00 0. -1.
</event>
<event>
 5    1  0.6924865E-004  0.9118800E+02  0.7818608E-02  0.1130116E+00
         25   -1    0    0    0    0  0.00000000000E+00  0.00000000000E+00  0.99999998245E-14  0.12500000000E+03  0.12500000000E+03 0.  0.
        -13    1    3    3    0    0 -0.42488581968E+02  0.33583440084E+01 -0.14829197716E+02  0.45127312584E+02  0.10566000000E+00 0.  1.
         23    2    1    0    0    0 -0.27480770676E+00 -0.21336049115E+02 -0.21761751336E+02  0.94522527462E+02  0.89474196647E+02 0.  0.
         13    1    3    3    0    0  0.42213774261E+02 -0.24694393123E+02 -0.69325536200E+01  0.49395214878E+02  0.10566000000E+00 0. -1.
         22    1    1    0    0    0  0.27480770676E+00  0.21336049115E+02  0.21761751336E+02  0.30477472538E+02  0.00000000000E+00 0.  1.
</event>
<event>
 5    1  0.6924865E-004  0.9118800E+02  0.7818608E-02  0.1130116E+00
         25   -1    0    0    0    0  0.00000000000E+00  0.00000000000E+00  0.99999998245E-14  0.12500000000E+03  0.12500000000E+03 0.  0.
        -13    1    3    3    0    0 -0.13642432472E+02  0.29255235629E+02  0.39204715195E+02  0.50783911163E+02  0.10566000000E+00 0. -1.
         23    2    1    0    0    0 -0.94346996637E+01 -0.12890560354E+02  0.24758870223E+02  0.95535075790E+02  0.90877769270E+02 0.  0.
         13    1    3    3    0    0  0.42077328083E+01 -0.42145795984E+02 -0.14445844971E+02  0.44751164627E+02  0.10566000000E+00 0.  1.
         22    1    1    0    0    0  0.94346996637E+01  0.12890560354E+02 -0.24758870223E+02  0.29464924210E+02  0.00000000000E+00 0. -1.
</event>
<event>
 5    1  0.6924865E-004  0.9118800E+02  0.7818608E-02  0.1130116E+00
         25   -1    0    0    0    0  0.00000000000E+00  0.00000000000E+00  0.99999998245E-14  0.12500000000E+03  0.12500000000E+03 0.  0.
        -13    1    3    3    0    0 -0.27365878052E+01  0.33788188475E+02 -0.76550042353E+01  0.34752566051E+02  0.10566000000E+00 0. -1.
         23    2    1    0    0    0 -0.83689394782E+01 -0.23254002293E+02  0.14662488870E+02  0.96263675418E+02  0.91874473356E+02 0.  0.
         13    1    3    3    0    0 -0.56323516730E+01 -0.57042190768E+02  0.22317493105E+02  0.61511109367E+02  0.10566000000E+00 0.  1.
         22    1    1    0    0    0  0.83689394782E+01  0.23254002293E+02 -0.14662488870E+02  0.28736324582E+02  0.00000000000E+00 0.  1.
</event>
<event>
 5    1  0.6924865E-004  0.9118800E+02  0.7818608E-02  0.1130116E+00
         25   -1    0    0    0    0  0.00000000000E+00  0.00000000000E+00  0.99999998245E-14  0.12500000000E+03  0.12500000000E+03 0.  0.
        -13    1    3    3    0    0 -0.30852373161E+02 -0.36360253261E+02  0.35781868586E+02  0.59617868382E+02  0.10566000000E+00 0. -1.
         23    2    1    0    0    0 -0.21347795904E+01 -0.21944283415E+02  0.19132981955E+02  0.95807880225E+02  0.91252233157E+02 0.  0.
         13    1    3    3    0    0  0.28717593571E+02  0.14415969846E+02 -0.16648886631E+02  0.36190011843E+02  0.10566000000E+00 0.  1.
         22    1    1    0    0    0  0.21347795904E+01  0.21944283415E+02 -0.19132981955E+02  0.29192119775E+02  0.00000000000E+00 0. -1.
</event>
<event>
 5    1  0.6924865E-004  0.9118800E+02  0.7818608E-02  0.1130116E+00
         25   -1    0    0    0    0  0.00000000000E+00  0.00000000000E+00  0.99999998245E-14  0.12500000000E+03  0.12500000000E+03 0.  0.
        -13    1    3    3    0    0  0.58227795931E+01  0.23841811045E+02  0.23460509045E+02  0.33952074528E+02  0.10566000000E+00 0.  1.
         23    2    1    0    0    0  0.70440486885E+01 -0.21139693948E+02 -0.18922083303E+02  0.95767303945E+02  0.91196633634E+02 0.  0.
         13    1    3    3    0    0  0.12212690954E+01 -0.44981504993E+02 -0.42382592348E+02  0.61815229416E+02  0.10566000000E+00 0. -1.
         22    1    1    0    0    0 -0.70440486885E+01  0.21139693948E+02  0.18922083303E+02  0.29232696055E+02  0.00000000000E+00 0. -1.
</event>
<event>
 5    1  0.6924865E-004  0.9118800E+02  0.7818608E-02  0.1130116E+00
         25   -1    0    0    0    0  0.00000000000E+00  0.00000000000E+00  0.99999998245E-14  0.12500000000E+03  0.12500000000E+03 0.  0.
        -13    1    3    3    0    0  0.25926120207E+02 -0.15377109399E+02 -0.20346190795E+02  0.36367538360E+02  0.10566000000E+00 0. -1.
         23    2    1    0    0    0 -0.21927089067E+02 -0.18973485748E+00  0.15577915199E+02  0.98101957762E+02  0.94342405315E+02 0.  0.
         13    1    3    3    0    0 -0.47853209274E+02  0.15187374542E+02  0.35924105995E+02  0.61734419402E+02  0.10566000000E+00 0.  1.
         22    1    1    0    0    0  0.21927089067E+02  0.18973485748E+00 -0.15577915199E+02  0.26898042238E+02  0.00000000000E+00 0.  1.
</event>
<event>
 5    1  0.6924865E-004  0.9118800E+02  0.7818608E-02  0.1130116E+00
         25   -1    0    0    0    0  0.00000000000E+00  0.00000000000E+00  0.99999998245E-14  0.12500000000E+03  0.12500000000E+03 0.  0.
        -13    1    3    3    0    0  0.12988199604E+02  0.45454392121E+02  0.19861755188E+02  0.51276657216E+02  0.10566000000E+00 0.  1.
         23    2    1    0    0    0  0.24768271636E+02  0.26058763365E+01  0.14867360334E+02  0.95994892266E+02  0.91508049190E+02 0.  0.
         13    1    3    3    0    0  0.11780072032E+02 -0.42848515785E+02 -0.49943948542E+01  0.44718235051E+02  0.10566000000E+00 0. -1.
         22    1    1    0    0    0 -0.24768271636E+02 -0.26058763365E+01 -0.14867360334E+02  0.29005107734E+02  0.00000000000E+00 0.  1.
</event>
<event>
 5    1  0.6924865E-004  0.9118800E+02  0.7818608E-02  0.1130116E+00
         25   -1    0    0    0    0  0.00000000000E+00  0.00000000000E+00  0.99999998245E-14  0.12500000000E+03  0.12500000000E+03 0.  0.
        -13    1    3    3    0    0 -0.40933879178E+02 -0.30376734755E+02 -0.19255152426E+02  0.54489453456E+02  0.10566000000E+00 0. -1.
         23    2    1    0    0    0 -0.36760595576E+00 -0.27029197173E+02 -0.95118376991E+01  0.96343627404E+02  0.91983187872E+02 0.  0.
         13    1    3    3    0    0  0.40566273222E+02  0.33475375826E+01  0.97433147273E+01  0.41854173948E+02  0.10566000000E+00 0.  1.
         22    1    1    0    0    0  0.36760595576E+00  0.27029197173E+02  0.95118376991E+01  0.28656372596E+02  0.00000000000E+00 0. -1.
</event>
<event>
 5    1  0.6924865E-004  0.9118800E+02  0.7818608E-02  0.1130116E+00
         25   -1    0    0    0    0  0.00000000000E+00  0.00000000000E+00  0.99999998245E-14  0.12500000000E+03  0.12500000000E+03 0.  0.
        -13    1    3    3    0    0  0.15313232066E+02  0.43854279586E+02  0.32868047822E+02  0.56903538080E+02  0.10566000000E+00 0.  1.
         23    2    1    0    0    0  0.11717544441E+02  0.61218878542E+01  0.26564512318E+02  0.95327594076E+02  0.90591934072E+02 0.  0.
         13    1    3    3    0    0 -0.35956876257E+01 -0.37732391732E+02 -0.63035355034E+01  0.38424055996E+02  0.10566000000E+00 0. -1.
         22    1    1    0    0    0 -0.11717544441E+02 -0.61218878542E+01 -0.26564512318E+02  0.29672405924E+02  0.00000000000E+00 0.  1.
</event>
<event>
 5    1  0.6924865E-004  0.9118800E+02  0.7818608E-02  0.1130116E+00
         25   -1    0    0    0    0  0.00000000000E+00  0.00000000000E+00  0.99999998245E-14  0.12500000000E+03  0.12500000000E+03 0.  0.
        -13    1    3    3    0    0  0.26686891092E+02 -0.65331326385E+01  0.52992683452E+02  0.59691771977E+02  0.10566000000E+00 0.  1.
         23    2    1    0    0    0  0.11627341618E+02  0.10095802284E+02  0.25906227289E+02  0.94862765402E+02  0.89948270414E+02 0.  0.
         13    1    3    3    0    0 -0.15059549475E+02  0.16628934922E+02 -0.27086456163E+02  0.35170993425E+02  0.10566000000E+00 0. -1.
         22    1    1    0    0    0 -0.11627341618E+02 -0.10095802284E+02 -0.25906227289E+02  0.30137234598E+02  0.00000000000E+00 0.  1.
</event>
<event>
 5    1  0.6924865E-004  0.9118800E+02  0.7818608E-02  0.1130116E+00
         25   -1    0    0    0    0  0.00000000000E+00  0.00000000000E+00  0.99999998245E-14  0.12500000000E+03  0.12500000000E+03 0.  0.
        -13    1    3    3    0    0 -0.33393280528E+02 -0.84740555883E+01  0.87341761138E+01  0.35541775406E+02  0.10566000000E+00 0.  1.
         23    2    1    0    0    0  0.19540605431E+02 -0.14201892915E+02 -0.17764958647E+02  0.95014623919E+02  0.90159059333E+02 0.  0.
         13    1    3    3    0    0  0.52933885959E+02 -0.57278373271E+01 -0.26499134761E+02  0.59472848514E+02  0.10566000000E+00 0. -1.
         22    1    1    0    0    0 -0.19540605431E+02  0.14201892915E+02  0.17764958647E+02  0.29985376081E+02  0.00000000000E+00 0. -1.
</event>
<event>
 5    1  0.6924865E-004  0.9118800E+02  0.7818608E-02  0.1130116E+00
         25   -1    0    0    0    0  0.00000000000E+00  0.00000000000E+00  0.99999998245E-14  0.12500000000E+03  0.12500000000E+03 0.  0.
        -13    1    3    3    0    0  0.61121866154E+01 -0.36910290132E+02  0.50007375266E+02  0.62453799627E+02  0.10566000000E+00 0.  1.
         23    2    1    0    0    0  0.44193809805E+01 -0.16806882602E+02  0.22288859319E+02  0.96737029867E+02  0.92516255148E+02 0.  0.
         13    1    3    3    0    0 -0.16928056349E+01  0.20103407531E+02 -0.27718515947E+02  0.34283230239E+02  0.10566000000E+00 0. -1.
         22    1    1    0    0    0 -0.44193809805E+01  0.16806882602E+02 -0.22288859319E+02  0.28262970133E+02  0.00000000000E+00 0.  1.
</event>
<event>
 5    1  0.6924865E-004  0.9118800E+02  0.7818608E-02  0.1130116E+00
         25   -1    0    0    0    0  0.00000000000E+00  0.00000000000E+00  0.99999998245E-14  0.12500000000E+03  0.12500000000E+03 0.  0.
        -13    1    3    3    0    0 -0.42872976786E+02  0.32550714514E+02 -0.72256634781E+01  0.54312636933E+02  0.10566000000E+00 0.  1.
         23    2    1    0    0    0 -0.16284655478E+02  0.16598470933E+02  0.19037989624E+02  0.94947640853E+02  0.90066143546E+02 0.  0.
         13    1    3    3    0    0  0.26588321308E+02 -0.15952243582E+02  0.26263653103E+02  0.40635003920E+02  0.10566000000E+00 0. -1.
         22    1    1    0    0    0  0.16284655478E+02 -0.16598470933E+02 -0.19037989624E+02  0.30052359147E+02  0.00000000000E+00 0.  1.
</event>
<event>
 5    1  0.6924865E-004  0.9118800E+02  0.7818608E-02  0.1130116E+00
         25   -1    0    0    0    0  0.00000000000E+00  0.00000000000E+00  0.99999998245E-14  0.12500000000E+03  0.12500000000E+03 0.  0.
        -13    1    3    3    0    0 -0.35559786831E+02  0.23884998458E+02 -0.22587063687E+01  0.42896439354E+02  0.10566000000E+00 0. -1.
         23    2    1    0    0    0  0.10185065496E+02  0.41470972839E+01 -0.25019095149E+02  0.97670728200E+02  0.93769302280E+02 0.  0.
         13    1    3    3    0    0  0.45744852327E+02 -0.19737901174E+02 -0.22760388780E+02  0.54774288846E+02  0.10566000000E+00 0.  1.
         22    1    1    0    0    0 -0.10185065496E+02 -0.41470972839E+01  0.25019095149E+02  0.27329271800E+02  0.00000000000E+00 0. -1.
</event>
<event>
 5    1  0.6924865E-004  0.9118800E+02  0.7818608E-02  0.1130116E+00
         25   -1    0    0    0    0  0.00000000000E+00  0.00000000000E+00  0.99999998245E-14  0.12500000000E+03  0.12500000000E+03 0.  0.
        -13    1    3    3    0    0 -0.21472307730E+01  0.34458074778E+02  0.62479178130E+01  0.35085854107E+02  0.10566000000E+00 0.  1.
         23    2    1    0    0    0 -0.74718374714E+01 -0.25733503992E+02  0.11705607482E+02  0.95758542624E+02  0.91184624011E+02 0.  0.
         13    1    3    3    0    0 -0.53246066985E+01 -0.60191578770E+02  0.54576896694E+01  0.60672688517E+02  0.10566000000E+00 0. -1.
         22    1    1    0    0    0  0.74718374714E+01  0.25733503992E+02 -0.11705607482E+02  0.29241457376E+02  0.00000000000E+00 0. -1.
</event>
<event>
 5    1  0.6924865E-004  0.9118800E+02  0.7818608E-02  0.1130116E+00
         25   -1    0    0    0    0  0.00000000000E+00  0.00000000000E+00  0.99999998245E-14  0.12500000000E+03  0.12500000000E+03 0.  0.
        -13    1    3    3    0    0  0.19365688364E+01  0.42263467653E+02 -0.34573730397E+02  0.54637944640E+02  0.10566000000E+00 0.  1.
         23    2    1    0    0    0  0.16839892526E+02  0.41651153449E+01 -0.21045672651E+02  0.97726377149E+02  0.93843456283E+02 0.  0.
         13    1    3    3    0    0  0.14903323689E+02 -0.38098352308E+02  0.13528057746E+02  0.43088432508E+02  0.10566000000E+00 0. -1.
         22    1    1    0    0    0 -0.16839892526E+02 -0.41651153449E+01  0.21045672651E+02  0.27273622851E+02  0.00000000000E+00 0.  1.
</event>
<event>
 5    1  0.6924865E-004  0.9118800E+02  0.7818608E-02  0.1130116E+00
         25   -1    0    0    0    0  0.00000000000E+00  0.00000000000E+00  0.99999998245E-14  0.12500000000E+03  0.12500000000E+03 0.  0.
        -13    1    3    3    0    0  0.21058070884E+02 -0.27493414623E+02 -0.12900810762E+01  0.34655528710E+02  0.10566000000E+00 0.  1.
         23    2    1    0    0    0  0.17522515222E+02  0.23724778267E+02  0.19061580147E+02  0.89882376487E+02  0.82738105620E+02 0.  0.
         13    1    3    3    0    0 -0.35355556619E+01  0.51218192889E+02  0.20351661224E+02  0.55226847776E+02  0.10566000000E+00 0. -1.
         22    1    1    0    0    0 -0.17522515222E+02 -0.23724778267E+02 -0.19061580147E+02  0.35117623513E+02  0.00000000000E+00 0. -1.
</event>
<event>
 5    1  0.6924865E-004  0.9118800E+02  0.7818608E-02  0.1130116E+00
         25   -1    0    0    0    0  0.00000000000E+00  0.00000000000E+00  0.99999998245E-14  0.12500000000E+03  0.12500000000E+03 0.  0.
        -13    1    3    3    0    0  0.52505493639E+02 -0.18374377894E+02 -0.24708681688E+02  0.60868503679E+02  0.10566000000E+00 0. -1.
         23    2    1    0    0    0  0.28369662998E+02 -0.34089328315E+01 -0.37131563354E+01  0.96186008057E+02  0.91768742033E+02 0.  0.
         13    1    3    3    0    0 -0.24135830641E+02  0.14965445063E+02  0.20995525353E+02  0.35317504379E+02  0.10566000000E+00 0.  1.
         22    1    1    0    0    0 -0.28369662998E+02  0.34089328315E+01  0.37131563354E+01  0.28813991943E+02  0.00000000000E+00 0. -1.
</event>
<event>
 5    1  0.6924865E-004  0.9118800E+02  0.7818608E-02  0.1130116E+00
         25   -1    0    0    0    0  0.00000000000E+00  0.00000000000E+00  0.99999998245E-14  0.12500000000E+03  0.12500000000E+03 0.  0.
        -13    1    3    3    0    0  0.48396180209E+02  0.12867491504E+01 -0.35106726727E+02  0.59802503357E+02  0.10566000000E+00 0.  1.
         23    2    1    0    0    0  0.13375104177E+02 -0.10124948370E+02 -0.17936000221E+02  0.10044174079E+03  0.97393198934E+02 0.  0.
         13    1    3    3    0    0 -0.35021076032E+02 -0.11411697521E+02  0.17170726506E+02  0.40639237438E+02  0.10566000000E+00 0. -1.
         22    1    1    0    0    0 -0.13375104177E+02  0.10124948370E+02  0.17936000221E+02  0.24558259205E+02  0.00000000000E+00 0.  1.
</event>
<event>
 5    1  0.6924865E-004  0.9118800E+02  0.7818608E-02  0.1130116E+00
         25   -1    0    0    0    0  0.00000000000E+00  0.00000000000E+00  0.99999998245E-14  0.12500000000E+03  0.12500000000E+03 0.  0.
        -13    1    3    3    0    0  0.32743775021E+02  0.11268619144E+02 -0.42299422441E+02  0.54666158480E+02  0.10566000000E+00 0.  1.
         23    2    1    0    0    0 -0.32086263958E+01 -0.20718924207E+01 -0.29736255848E+02  0.95019457419E+02  0.90165760435E+02 0.  0.
         13    1    3    3    0    0 -0.35952401417E+02 -0.13340511565E+02  0.12563166592E+02  0.40353298940E+02  0.10566000000E+00 0. -1.
         22    1    1    0    0    0  0.32086263958E+01  0.20718924207E+01  0.29736255848E+02  0.29980542581E+02  0.00000000000E+00 0. -1.
</event>
<event>
 5    1  0.6924865E-004  0.9118800E+02  0.7818608E-02  0.1130116E+00
         25   -1    0    0    0    0  0.00000000000E+00  0.00000000000E+00  0.99999998245E-14  0.12500000000E+03  0.12500000000E+03 0.  0.
        -13    1    3    3    0    0 -0.27430902220E+02 -0.23876947836E+02 -0.49459667953E+01  0.36701999757E+02  0.10566000000E+00 0.  1.
         23    2    1    0    0    0  0.19180069614E+02  0.16904333021E+02 -0.63726908528E+01  0.98651513630E+02  0.95067756929E+02 0.  0.
         13    1    3    3    0    0  0.46610971834E+02  0.40781280857E+02 -0.14267240575E+01  0.61949513874E+02  0.10566000000E+00 0. -1.
         22    1    1    0    0    0 -0.19180069614E+02 -0.16904333021E+02  0.63726908528E+01  0.26348486370E+02  0.00000000000E+00 0. -1.
</event>
<event>
 5    1  0.6924865E-004  0.9118800E+02  0.7818608E-02  0.1130116E+00
         25   -1    0    0    0    0  0.00000000000E+00  0.00000000000E+00  0.99999998245E-14  0.12500000000E+03  0.12500000000E+03 0.  0.
        -13    1    3    3    0    0 -0.12875871365E+02 -0.28422354849E+02  0.87096570939E+01  0.32395796167E+02  0.10566000000E+00 0.  1.
         23    2    1    0    0    0 -0.65603122745E-01  0.31184670716E+02  0.16442788928E+01  0.93771941390E+02  0.88419372015E+02 0.  0.
         13    1    3    3    0    0  0.12810268242E+02  0.59607025566E+02 -0.70653782010E+01  0.61376145223E+02  0.10566000000E+00 0. -1.
         22    1    1    0    0    0  0.65603122745E-01 -0.31184670716E+02 -0.16442788928E+01  0.31228058610E+02  0.00000000000E+00 0. -1.
</event>
<event>
 5    1  0.6924865E-004  0.9118800E+02  0.7818608E-02  0.1130116E+00
         25   -1    0    0    0    0  0.00000000000E+00  0.00000000000E+00  0.99999998245E-14  0.12500000000E+03  0.12500000000E+03 0.  0.
        -13    1    3    3    0    0  0.12804456289E+01 -0.13305350178E+02 -0.35883690805E+02  0.38292588241E+02  0.10566000000E+00 0.  1.
         23    2    1    0    0    0 -0.24843388597E+02  0.15898687149E+02  0.51822542331E+01  0.95053080810E+02  0.90212361695E+02 0.  0.
         13    1    3    3    0    0 -0.26123834226E+02  0.29204037327E+02  0.41065945038E+02  0.56760492569E+02  0.10566000000E+00 0. -1.
         22    1    1    0    0    0  0.24843388597E+02 -0.15898687149E+02 -0.51822542331E+01  0.29946919190E+02  0.00000000000E+00 0. -1.
</event>
<event>
 5    1  0.6924865E-004  0.9118800E+02  0.7818608E-02  0.1130116E+00
         25   -1    0    0    0    0  0.00000000000E+00  0.00000000000E+00  0.99999998245E-14  0.12500000000E+03  0.12500000000E+03 0.  0.
        -13    1    3    3    0    0 -0.99651702331E+01  0.37506973811E+00 -0.37815651196E+02  0.39108565999E+02  0.10566000000E+00 0.  1.
         23    2    1    0    0    0  0.38907008597E+01  0.31731701629E+02  0.35509323930E+01  0.92834062079E+02  0.87083382570E+02 0.  0.
         13    1    3    3    0    0  0.13855871093E+02  0.31356631891E+02  0.41366583589E+02  0.53725496081E+02  0.10566000000E+00 0. -1.
         22    1    1    0    0    0 -0.38907008597E+01 -0.31731701629E+02 -0.35509323930E+01  0.32165937921E+02  0.00000000000E+00 0. -1.
</event>
<event>
 5    1  0.6924865E-004  0.9118800E+02  0.7818608E-02  0.1130116E+00
         25   -1    0    0    0    0  0.00000000000E+00  0.00000000000E+00  0.99999998245E-14  0.12500000000E+03  0.12500000000E+03 0.  0.
        -13    1    3    3    0    0 -0.17516654745E+02  0.29377330923E+02 -0.17700222090E+02  0.38511943493E+02  0.10566000000E+00 0.  1.
         23    2    1    0    0    0  0.13815946304E+02  0.69263546732E+01  0.24730840097E+02  0.95837194695E+02  0.91292380152E+02 0.  0.
         13    1    3    3    0    0  0.31332601049E+02 -0.22450976249E+02  0.42431062186E+02  0.57325251202E+02  0.10566000000E+00 0. -1.
         22    1    1    0    0    0 -0.13815946304E+02 -0.69263546732E+01 -0.24730840097E+02  0.29162805305E+02  0.00000000000E+00 0. -1.
</event>
<event>
 5    1  0.6924865E-004  0.9118800E+02  0.7818608E-02  0.1130116E+00
         25   -1    0    0    0    0  0.00000000000E+00  0.00000000000E+00  0.99999998245E-14  0.12500000000E+03  0.12500000000E+03 0.  0.
        -13    1    3    3    0    0 -0.20254479429E+02 -0.49158895018E+02 -0.24581215639E+00  0.53168717156E+02  0.10566000000E+00 0.  1.
         23    2    1    0    0    0  0.10508058162E+02 -0.21434573934E+02  0.14431428752E+02  0.97105083224E+02  0.93012207834E+02 0.  0.
         13    1    3    3    0    0  0.30762537591E+02  0.27724321084E+02  0.14677240909E+02  0.43936366069E+02  0.10566000000E+00 0. -1.
         22    1    1    0    0    0 -0.10508058162E+02  0.21434573934E+02 -0.14431428752E+02  0.27894916776E+02  0.00000000000E+00 0.  1.
</event>
<event>
 5    1  0.6924865E-004  0.9118800E+02  0.7818608E-02  0.1130116E+00
         25   -1    0    0    0    0  0.00000000000E+00  0.00000000000E+00  0.99999998245E-14  0.12500000000E+03  0.12500000000E+03 0.  0.
        -13    1    3    3    0    0 -0.37780422649E+01  0.32481836446E+02 -0.24745297613E+02  0.41008343301E+02  0.10566000000E+00 0.  1.
         23    2    1    0    0    0 -0.16997196610E+02  0.24324909468E+02  0.20557263914E+02  0.88900041373E+02  0.81240447705E+02 0.  0.
         13    1    3    3    0    0 -0.13219154345E+02 -0.81569269781E+01  0.45302561527E+02  0.47891698073E+02  0.10566000000E+00 0. -1.
         22    1    1    0    0    0  0.16997196610E+02 -0.24324909468E+02 -0.20557263914E+02  0.36099958627E+02  0.00000000000E+00 0.  1.
</event>
<event>
 5    1  0.6924865E-004  0.9118800E+02  0.7818608E-02  0.1130116E+00
         25   -1    0    0    0    0  0.00000000000E+00  0.00000000000E+00  0.99999998245E-14  0.12500000000E+03  0.12500000000E+03 0.  0.
        -13    1    3    3    0    0  0.29396402489E+02  0.92079123120E+01 -0.40364019217E+01  0.31068276955E+02  0.10566000000E+00 0.  1.
         23    2    1    0    0    0 -0.30498351146E+02 -0.13889326857E+01  0.87876406206E+01  0.93230499149E+02  0.87650583497E+02 0.  0.
         13    1    3    3    0    0 -0.59894753635E+02 -0.10596844998E+02  0.12824042542E+02  0.62162222194E+02  0.10566000000E+00 0. -1.
         22    1    1    0    0    0  0.30498351146E+02  0.13889326857E+01 -0.87876406206E+01  0.31769500851E+02  0.00000000000E+00 0. -1.
</event>
<event>
 5    1  0.6924865E-004  0.9118800E+02  0.7818608E-02  0.1130116E+00
         25   -1    0    0    0    0  0.00000000000E+00  0.00000000000E+00  0.99999998245E-14  0.12500000000E+03  0.12500000000E+03 0.  0.
        -13    1    3    3    0    0  0.13332062758E+02  0.63274651391E+01  0.27278213491E+02  0.31014396782E+02  0.10566000000E+00 0. -1.
         23    2    1    0    0    0 -0.32714964863E+02  0.10407692528E+01 -0.10302736902E+02  0.90685301775E+02  0.83942393602E+02 0.  0.
         13    1    3    3    0    0 -0.46047027621E+02 -0.52866958863E+01 -0.37580950393E+02  0.59670904992E+02  0.10566000000E+00 0.  1.
         22    1    1    0    0    0  0.32714964863E+02 -0.10407692528E+01  0.10302736902E+02  0.34314698225E+02  0.00000000000E+00 0.  1.
</event>
<event>
 5    1  0.6924865E-004  0.9118800E+02  0.7818608E-02  0.1130116E+00
         25   -1    0    0    0    0  0.00000000000E+00  0.00000000000E+00  0.99999998245E-14  0.12500000000E+03  0.12500000000E+03 0.  0.
        -13    1    3    3    0    0  0.32341444638E+02  0.28421380598E+00 -0.17804656304E+02  0.36919734139E+02  0.10566000000E+00 0.  1.
         23    2    1    0    0    0 -0.34137243279E+00  0.17477641909E+02  0.25657983152E+02  0.93952993682E+02  0.88674959377E+02 0.  0.
         13    1    3    3    0    0 -0.32682817071E+02  0.17193428103E+02  0.43462639456E+02  0.57033259543E+02  0.10566000000E+00 0. -1.
         22    1    1    0    0    0  0.34137243279E+00 -0.17477641909E+02 -0.25657983152E+02  0.31047006318E+02  0.00000000000E+00 0. -1.
</event>
<event>
 5    1  0.6924865E-004  0.9118800E+02  0.7818608E-02  0.1130116E+00
         25   -1    0    0    0    0  0.00000000000E+00  0.00000000000E+00  0.99999998245E-14  0.12500000000E+03  0.12500000000E+03 0.  0.
        -13    1    3    3    0    0 -0.12681738184E+01  0.49012429686E+02 -0.34919870581E+02  0.60193314031E+02  0.10566000000E+00 0.  1.
         23    2    1    0    0    0 -0.53394287863E+01  0.14832390693E+02 -0.23962503082E+02  0.96317063131E+02  0.91947081427E+02 0.  0.
         13    1    3    3    0    0 -0.40712549679E+01 -0.34180038993E+02  0.10957367499E+02  0.36123749101E+02  0.10566000000E+00 0. -1.
         22    1    1    0    0    0  0.53394287863E+01 -0.14832390693E+02  0.23962503082E+02  0.28682936869E+02  0.00000000000E+00 0.  1.
</event>
<event>
 5    1  0.6924865E-004  0.9118800E+02  0.7818608E-02  0.1130116E+00
         25   -1    0    0    0    0  0.00000000000E+00  0.00000000000E+00  0.99999998245E-14  0.12500000000E+03  0.12500000000E+03 0.  0.
        -13    1    3    3    0    0 -0.19125922125E+02  0.53124248298E+02  0.66796293540E+01  0.56856092609E+02  0.10566000000E+00 0. -1.
         23    2    1    0    0    0  0.89104514809E+01  0.27827494504E+02  0.82101476022E+01  0.94649182554E+02  0.89650965631E+02 0.  0.
         13    1    3    3    0    0  0.28036373606E+02 -0.25296753794E+02  0.15305182481E+01  0.37793089945E+02  0.10566000000E+00 0.  1.
         22    1    1    0    0    0 -0.89104514809E+01 -0.27827494504E+02 -0.82101476022E+01  0.30350817446E+02  0.00000000000E+00 0. -1.
</event>
<event>
 5    1  0.6924865E-004  0.9118800E+02  0.7818608E-02  0.1130116E+00
         25   -1    0    0    0    0  0.00000000000E+00  0.00000000000E+00  0.99999998245E-14  0.12500000000E+03  0.12500000000E+03 0.  0.
        -13    1    3    3    0    0 -0.15283757665E+02 -0.33906684055E+02 -0.14797878608E+02  0.40028050755E+02  0.10566000000E+00 0.  1.
         23    2    1    0    0    0 -0.19300192306E+02  0.20962561981E+02 -0.25441251455E+01  0.96392326194E+02  0.92049343009E+02 0.  0.
         13    1    3    3    0    0 -0.40164346412E+01  0.54869246035E+02  0.12253753462E+02  0.56364275438E+02  0.10566000000E+00 0. -1.
         22    1    1    0    0    0  0.19300192306E+02 -0.20962561981E+02  0.25441251455E+01  0.28607673806E+02  0.00000000000E+00 0. -1.
</event>
<event>
 5    1  0.6924865E-004  0.9118800E+02  0.7818608E-02  0.1130116E+00
         25   -1    0    0    0    0  0.00000000000E+00  0.00000000000E+00  0.99999998245E-14  0.12500000000E+03  0.12500000000E+03 0.  0.
        -13    1    3    3    0    0 -0.90915279180E+01  0.60562829625E+01  0.50373828879E+02  0.51544817811E+02  0.10566000000E+00 0.  1.
         23    2    1    0    0    0  0.21271812689E+02 -0.28686013433E+01  0.16306274624E+02  0.98044231029E+02  0.94265888619E+02 0.  0.
         13    1    3    3    0    0  0.30363340607E+02 -0.89248843059E+01 -0.34067554255E+02  0.46499413218E+02  0.10566000000E+00 0. -1.
         22    1    1    0    0    0 -0.21271812689E+02  0.28686013433E+01 -0.16306274624E+02  0.26955768971E+02  0.00000000000E+00 0. -1.
</event>
<event>
 5    1  0.6924865E-004  0.9118800E+02  0.7818608E-02  0.1130116E+00
         25   -1    0    0    0    0  0.00000000000E+00  0.00000000000E+00  0.99999998245E-14  0.12500000000E+03  0.12500000000E+03 0.  0.
        -13    1    3    3    0    0 -0.39449639310E+01  0.39580771206E+02 -0.34559434739E+02  0.52693129374E+02  0.10566000000E+00 0.  1.
         23    2    1    0    0    0 -0.10318083590E+02  0.24474852926E+02  0.71367432996E+01  0.97497011441E+02  0.93537440955E+02 0.  0.
         13    1    3    3    0    0 -0.63731196593E+01 -0.15105918280E+02  0.41696178039E+02  0.44803882068E+02  0.10566000000E+00 0. -1.
         22    1    1    0    0    0  0.10318083590E+02 -0.24474852926E+02 -0.71367432996E+01  0.27502988559E+02  0.00000000000E+00 0.  1.
</event>
<event>
 5    1  0.6924865E-004  0.9118800E+02  0.7818608E-02  0.1130116E+00
         25   -1    0    0    0    0  0.00000000000E+00  0.00000000000E+00  0.99999998245E-14  0.12500000000E+03  0.12500000000E+03 0.  0.
        -13    1    3    3    0    0  0.15159129025E+02 -0.18275498334E+02 -0.32513635524E+02  0.40260907729E+02  0.10566000000E+00 0.  1.
         23    2    1    0    0    0 -0.11015479785E+02 -0.26797393885E+02  0.12835700283E+02  0.93310943282E+02  0.87765231274E+02 0.  0.
         13    1    3    3    0    0 -0.26174608810E+02 -0.85218955510E+01  0.45349335806E+02  0.53050035554E+02  0.10566000000E+00 0. -1.
         22    1    1    0    0    0  0.11015479785E+02  0.26797393885E+02 -0.12835700283E+02  0.31689056718E+02  0.00000000000E+00 0. -1.
</event>
<event>
 5    1  0.6924865E-004  0.9118800E+02  0.7818608E-02  0.1130116E+00
         25   -1    0    0    0    0  0.00000000000E+00  0.00000000000E+00  0.99999998245E-14  0.12500000000E+03  0.12500000000E+03 0.  0.
        -13    1    3    3    0    0  0.27502926830E+02 -0.29144020870E+02  0.56438369782E+01  0.40467876107E+02  0.10566000000E+00 0.  1.
         23    2    1    0    0    0 -0.22683279363E+01  0.44940199652E+01 -0.27975014227E+02  0.96575662750E+02  0.92297972283E+02 0.  0.
         13    1    3    3    0    0 -0.29771254767E+02  0.33638040835E+02 -0.33618851206E+02  0.56107786643E+02  0.10566000000E+00 0. -1.
         22    1    1    0    0    0  0.22683279363E+01 -0.44940199652E+01  0.27975014227E+02  0.28424337250E+02  0.00000000000E+00 0. -1.
</event>
<event>
 5    1  0.6924865E-004  0.9118800E+02  0.7818608E-02  0.1130116E+00
         25   -1    0    0    0    0  0.00000000000E+00  0.00000000000E+00  0.99999998245E-14  0.12500000000E+03  0.12500000000E+03 0.  0.
        -13    1    3    3    0    0 -0.24509851608E+02 -0.61122470728E+01 -0.25322162782E+02  0.35767519932E+02  0.10566000000E+00 0.  1.
         23    2    1    0    0    0  0.24037004554E+02 -0.11227460924E+02  0.10657002752E+02  0.96409701394E+02  0.92072934940E+02 0.  0.
         13    1    3    3    0    0  0.48546856161E+02 -0.51152138510E+01  0.35979165534E+02  0.60642181462E+02  0.10566000000E+00 0. -1.
         22    1    1    0    0    0 -0.24037004554E+02  0.11227460924E+02 -0.10657002752E+02  0.28590298606E+02  0.00000000000E+00 0. -1.
</event>
<event>
 5    1  0.6924865E-004  0.9118800E+02  0.7818608E-02  0.1130116E+00
         25   -1    0    0    0    0  0.00000000000E+00  0.00000000000E+00  0.99999998245E-14  0.12500000000E+03  0.12500000000E+03 0.  0.
        -13    1    3    3    0    0 -0.62276225198E+01  0.32812167533E+02  0.17290475340E+02  0.37608420892E+02  0.10566000000E+00 0. -1.
         23    2    1    0    0    0 -0.13292511102E+02 -0.13266457878E+02 -0.20191183431E+02  0.97425126575E+02  0.93441327280E+02 0.  0.
         13    1    3    3    0    0 -0.70648885825E+01 -0.46078625411E+02 -0.37481658771E+02  0.59816705683E+02  0.10566000000E+00 0.  1.
         22    1    1    0    0    0  0.13292511102E+02  0.13266457878E+02  0.20191183431E+02  0.27574873425E+02  0.00000000000E+00 0.  1.
</event>
<event>
 5    1  0.6924865E-004  0.9118800E+02  0.7818608E-02  0.1130116E+00
         25   -1    0    0    0    0  0.00000000000E+00  0.00000000000E+00  0.99999998245E-14  0.12500000000E+03  0.12500000000E+03 0.  0.
        -13    1    3    3    0    0  0.28834394857E+02 -0.28497809540E+02 -0.12903766514E+01  0.40561357365E+02  0.10566000000E+00 0. -1.
         23    2    1    0    0    0  0.74572684721E+01  0.23654951754E+02 -0.11193179527E+02  0.97788699710E+02  0.93926433593E+02 0.  0.
         13    1    3    3    0    0 -0.21377126385E+02  0.52152761294E+02 -0.99028028754E+01  0.57227342345E+02  0.10566000000E+00 0.  1.
         22    1    1    0    0    0 -0.74572684721E+01 -0.23654951754E+02  0.11193179527E+02  0.27211300290E+02  0.00000000000E+00 0.  1.
</event>
<event>
 5    1  0.6924865E-004  0.9118800E+02  0.7818608E-02  0.1130116E+00
         25   -1    0    0    0    0  0.00000000000E+00  0.00000000000E+00  0.99999998245E-14  0.12500000000E+03  0.12500000000E+03 0.  0.
        -13    1    3    3    0    0  0.39858283417E+02  0.10253891664E+02  0.96728315494E+01  0.42277652317E+02  0.10566000000E+00 0.  1.
         23    2    1    0    0    0  0.11349725025E+02 -0.21775613939E+02 -0.19078223699E+02  0.93903822742E+02  0.88605618814E+02 0.  0.
         13    1    3    3    0    0 -0.28508558392E+02 -0.32029505604E+02 -0.28751055248E+02  0.51626170425E+02  0.10566000000E+00 0. -1.
         22    1    1    0    0    0 -0.11349725025E+02  0.21775613939E+02  0.19078223699E+02  0.31096177258E+02  0.00000000000E+00 0.  1.
</event>
<event>
 5    1  0.6924865E-004  0.9118800E+02  0.7818608E-02  0.1130116E+00
         25   -1    0    0    0    0  0.00000000000E+00  0.00000000000E+00  0.99999998245E-14  0.12500000000E+03  0.12500000000E+03 0.  0.
        -13    1    3    3    0    0 -0.23697936061E+02  0.26007932430E+02 -0.27574717879E+02  0.44703254389E+02  0.10566000000E+00 0.  1.
         23    2    1    0    0    0  0.36995839995E+01  0.25049928182E+02  0.15168641260E+02  0.95482657616E+02  0.90805640816E+02 0.  0.
         13    1    3    3    0    0  0.27397520060E+02 -0.95800424743E+00  0.42743359139E+02  0.50779403227E+02  0.10566000000E+00 0. -1.
         22    1    1    0    0    0 -0.36995839995E+01 -0.25049928182E+02 -0.15168641260E+02  0.29517342384E+02  0.00000000000E+00 0. -1.
</event>
<event>
 5    1  0.6924865E-004  0.9118800E+02  0.7818608E-02  0.1130116E+00
         25   -1    0    0    0    0  0.00000000000E+00  0.00000000000E+00  0.99999998245E-14  0.12500000000E+03  0.12500000000E+03 0.  0.
        -13    1    3    3    0    0 -0.46736680717E-01  0.36245021784E+01  0.45880777641E+02  0.46023864694E+02  0.10566000000E+00 0.  1.
         23    2    1    0    0    0  0.13755908596E+02  0.25492803204E+02  0.32958934407E+01  0.95845738733E+02  0.91304078130E+02 0.  0.
         13    1    3    3    0    0  0.13802645277E+02  0.21868301025E+02 -0.42584884200E+02  0.49821874039E+02  0.10566000000E+00 0. -1.
         22    1    1    0    0    0 -0.13755908596E+02 -0.25492803204E+02 -0.32958934407E+01  0.29154261267E+02  0.00000000000E+00 0. -1.
</event>
<event>
 5    1  0.6924865E-004  0.9118800E+02  0.7818608E-02  0.1130116E+00
         25   -1    0    0    0    0  0.00000000000E+00  0.00000000000E+00  0.99999998245E-14  0.12500000000E+03  0.12500000000E+03 0.  0.
        -13    1    3    3    0    0  0.33870299755E+02  0.11734114163E+02  0.11932823525E+01  0.35865327650E+02  0.10566000000E+00 0.  1.
         23    2    1    0    0    0 -0.13147233123E+02  0.28004797241E+02 -0.18017244535E+02  0.89198610252E+02  0.81698546884E+02 0.  0.
         13    1    3    3    0    0 -0.47017532878E+02  0.16270683078E+02 -0.19210526887E+02  0.53333282601E+02  0.10566000000E+00 0. -1.
         22    1    1    0    0    0  0.13147233123E+02 -0.28004797241E+02  0.18017244535E+02  0.35801389748E+02  0.00000000000E+00 0. -1.
</event>
<event>
 5    1  0.6924865E-004  0.9118800E+02  0.7818608E-02  0.1130116E+00
         25   -1    0    0    0    0  0.00000000000E+00  0.00000000000E+00  0.99999998245E-14  0.12500000000E+03  0.12500000000E+03 0.  0.
        -13    1    3    3    0    0  0.98386803684E+01  0.13574272805E+02  0.32972065276E+02  0.36989576453E+02  0.10566000000E+00 0.  1.
         23    2    1    0    0    0  0.25662526963E+01 -0.27541472546E+02 -0.87223464529E+01  0.95996591743E+02  0.91510370646E+02 0.  0.
         13    1    3    3    0    0 -0.72724276720E+01 -0.41115745351E+02 -0.41694411729E+02  0.59007015290E+02  0.10566000000E+00 0. -1.
         22    1    1    0    0    0 -0.25662526963E+01  0.27541472546E+02  0.87223464529E+01  0.29003408257E+02  0.00000000000E+00 0. -1.
</event>
<event>
 5    1  0.6924865E-004  0.9118800E+02  0.7818608E-02  0.1130116E+00
         25   -1    0    0    0    0  0.00000000000E+00  0.00000000000E+00  0.99999998245E-14  0.12500000000E+03  0.12500000000E+03 0.  0.
        -13    1    3    3    0    0 -0.21418769634E+02 -0.22270678788E+02 -0.21226595403E+02  0.37487682547E+02  0.10566000000E+00 0.  1.
         23    2    1    0    0    0  0.25148632114E+02 -0.11217786520E+02  0.11171239841E+02  0.95283186053E+02  0.90530638533E+02 0.  0.
         13    1    3    3    0    0  0.46567401747E+02  0.11052892268E+02  0.32397835244E+02  0.57795503506E+02  0.10566000000E+00 0. -1.
         22    1    1    0    0    0 -0.25148632114E+02  0.11217786520E+02 -0.11171239841E+02  0.29716813947E+02  0.00000000000E+00 0. -1.
</event>
<event>
 5    1  0.6924865E-004  0.9118800E+02  0.7818608E-02  0.1130116E+00
         25   -1    0    0    0    0  0.00000000000E+00  0.00000000000E+00  0.99999998245E-14  0.12500000000E+03  0.12500000000E+03 0.  0.
        -13    1    3    3    0    0 -0.11651762099E+02  0.44154604106E+02  0.27179975432E+02  0.53142777988E+02  0.10566000000E+00 0. -1.
         23    2    1    0    0    0  0.64144820323E+01  0.52265666214E+01  0.27729440039E+02  0.96062404674E+02  0.91600224718E+02 0.  0.
         13    1    3    3    0    0  0.18066244132E+02 -0.38928037485E+02  0.54946460687E+00  0.42919626685E+02  0.10566000000E+00 0.  1.
         22    1    1    0    0    0 -0.64144820323E+01 -0.52265666214E+01 -0.27729440039E+02  0.28937595326E+02  0.00000000000E+00 0. -1.
</event>
<event>
 5    1  0.6924865E-004  0.9118800E+02  0.7818608E-02  0.1130116E+00
         25   -1    0    0    0    0  0.00000000000E+00  0.00000000000E+00  0.99999998245E-14  0.12500000000E+03  0.12500000000E+03 0.  0.
        -13    1    3    3    0    0  0.19959700333E+02  0.21095604487E+02  0.29164910173E+02  0.41158441607E+02  0.10566000000E+00 0. -1.
         23    2    1    0    0    0 -0.20318526575E+02 -0.14359827662E+02  0.76687849082E+01  0.98964304606E+02  0.95478144890E+02 0.  0.
         13    1    3    3    0    0 -0.40278226908E+02 -0.35455432149E+02 -0.21496125265E+02  0.57805863000E+02  0.10566000000E+00 0.  1.
         22    1    1    0    0    0  0.20318526575E+02  0.14359827662E+02 -0.76687849082E+01  0.26035695394E+02  0.00000000000E+00 0.  1.
</event>
<event>
 5    1  0.6924865E-004  0.9118800E+02  0.7818608E-02  0.1130116E+00
         25   -1    0    0    0    0  0.00000000000E+00  0.00000000000E+00  0.99999998245E-14  0.12500000000E+03  0.12500000000E+03 0.  0.
        -13    1    3    3    0    0  0.13074487583E+02  0.26956865386E+02  0.31665252842E+02  0.43592593621E+02  0.10566000000E+00 0. -1.
         23    2    1    0    0    0 -0.22939265694E+02 -0.82450000654E+01  0.13543144716E+02  0.97114399675E+02  0.93024727459E+02 0.  0.
         13    1    3    3    0    0 -0.36013753277E+02 -0.35201865451E+02 -0.18122108126E+02  0.53521806054E+02  0.10566000000E+00 0.  1.
         22    1    1    0    0    0  0.22939265694E+02  0.82450000654E+01 -0.13543144716E+02  0.27885600325E+02  0.00000000000E+00 0.  1.
</event>
<event>
 5    1  0.6924865E-004  0.9118800E+02  0.7818608E-02  0.1130116E+00
         25   -1    0    0    0    0  0.00000000000E+00  0.00000000000E+00  0.99999998245E-14  0.12500000000E+03  0.12500000000E+03 0.  0.
        -13    1    3    3    0    0 -0.30195846833E+02 -0.22561297029E+02  0.28865132768E+02  0.47476397751E+02  0.10566000000E+00 0.  1.
         23    2    1    0    0    0 -0.44344436295E+01 -0.27117699069E+02 -0.11200554261E+02  0.95327010450E+02  0.90591128774E+02 0.  0.
         13    1    3    3    0    0  0.25761403204E+02 -0.45564020395E+01 -0.40065687029E+02  0.47850612699E+02  0.10566000000E+00 0. -1.
         22    1    1    0    0    0  0.44344436295E+01  0.27117699069E+02  0.11200554261E+02  0.29672989550E+02  0.00000000000E+00 0.  1.
</event>
<event>
 5    1  0.6924865E-004  0.9118800E+02  0.7818608E-02  0.1130116E+00
         25   -1    0    0    0    0  0.00000000000E+00  0.00000000000E+00  0.99999998245E-14  0.12500000000E+03  0.12500000000E+03 0.  0.
        -13    1    3    3    0    0 -0.75104310210E+01 -0.88495566044E+01 -0.24276622892E+02  0.26908861167E+02  0.10566000000E+00 0.  1.
         23    2    1    0    0    0 -0.16288547359E+02  0.77188286680E+01  0.33121232289E+02  0.87291736722E+02  0.78726959681E+02 0.  0.
         13    1    3    3    0    0 -0.87781163385E+01  0.16568385272E+02  0.57397855181E+02  0.60382875556E+02  0.10566000000E+00 0. -1.
         22    1    1    0    0    0  0.16288547359E+02 -0.77188286680E+01 -0.33121232289E+02  0.37708263278E+02  0.00000000000E+00 0. -1.
</event>
<event>
 5    1  0.6924865E-004  0.9118800E+02  0.7818608E-02  0.1130116E+00
         25   -1    0    0    0    0  0.00000000000E+00  0.00000000000E+00  0.99999998245E-14  0.12500000000E+03  0.12500000000E+03 0.  0.
        -13    1    3    3    0    0  0.28241943011E+02  0.90291138378E+01 -0.37267924794E+02  0.47623960611E+02  0.10566000000E+00 0.  1.
         23    2    1    0    0    0  0.22317120823E+02 -0.21925121481E+02 -0.39832910992E+01  0.93462221991E+02  0.87980426788E+02 0.  0.
         13    1    3    3    0    0 -0.59248221879E+01 -0.30954235319E+02  0.33284633695E+02  0.45838261380E+02  0.10566000000E+00 0. -1.
         22    1    1    0    0    0 -0.22317120823E+02  0.21925121481E+02  0.39832910992E+01  0.31537778009E+02  0.00000000000E+00 0. -1.
</event>
<event>
 5    1  0.6924865E-004  0.9118800E+02  0.7818608E-02  0.1130116E+00
         25   -1    0    0    0    0  0.00000000000E+00  0.00000000000E+00  0.99999998245E-14  0.12500000000E+03  0.12500000000E+03 0.  0.
        -13    1    3    3    0    0 -0.59170075860E+01 -0.13690073294E+02  0.46476873788E+02  0.48811269669E+02  0.10566000000E+00 0.  1.
         23    2    1    0    0    0 -0.27769790123E+02  0.27783538980E+01  0.81087745196E+01  0.95937434421E+02  0.91429528081E+02 0.  0.
         13    1    3    3    0    0 -0.21852782537E+02  0.16468427191E+02 -0.38368099268E+02  0.47126164752E+02  0.10566000000E+00 0. -1.
         22    1    1    0    0    0  0.27769790123E+02 -0.27783538980E+01 -0.81087745196E+01  0.29062565579E+02  0.00000000000E+00 0. -1.
</event>
<event>
 5    1  0.6924865E-004  0.9118800E+02  0.7818608E-02  0.1130116E+00
         25   -1    0    0    0    0  0.00000000000E+00  0.00000000000E+00  0.99999998245E-14  0.12500000000E+03  0.12500000000E+03 0.  0.
        -13    1    3    3    0    0  0.36837527133E+02  0.10164894190E+02  0.22007073017E+02  0.44098196176E+02  0.10566000000E+00 0.  1.
         23    2    1    0    0    0  0.48968525810E+01 -0.19248845856E+02 -0.14158825273E+02  0.10060800203E+03  0.97606354849E+02 0.  0.
         13    1    3    3    0    0 -0.31940674552E+02 -0.29413740046E+02 -0.36165898289E+02  0.56509805852E+02  0.10566000000E+00 0. -1.
         22    1    1    0    0    0 -0.48968525810E+01  0.19248845856E+02  0.14158825273E+02  0.24391997972E+02  0.00000000000E+00 0. -1.
</event>
<event>
 5    1  0.6924865E-004  0.9118800E+02  0.7818608E-02  0.1130116E+00
         25   -1    0    0    0    0  0.00000000000E+00  0.00000000000E+00  0.99999998245E-14  0.12500000000E+03  0.12500000000E+03 0.  0.
        -13    1    3    3    0    0 -0.37173666441E+02 -0.20675769563E+02  0.15754930664E+02  0.45360753167E+02  0.10566000000E+00 0. -1.
         23    2    1    0    0    0 -0.22354472039E+02  0.17141448027E+02 -0.11816536945E+02  0.94451968869E+02  0.89375568347E+02 0.  0.
         13    1    3    3    0    0  0.14819194402E+02  0.37817217589E+02 -0.27571467610E+02  0.49091215702E+02  0.10566000000E+00 0.  1.
         22    1    1    0    0    0  0.22354472039E+02 -0.17141448027E+02  0.11816536945E+02  0.30548031131E+02  0.00000000000E+00 0. -1.
</event>
<event>
 5    1  0.6924865E-004  0.9118800E+02  0.7818608E-02  0.1130116E+00
         25   -1    0    0    0    0  0.00000000000E+00  0.00000000000E+00  0.99999998245E-14  0.12500000000E+03  0.12500000000E+03 0.  0.
        -13    1    3    3    0    0 -0.19536501821E+02 -0.12769404254E+02 -0.48361635659E+02  0.53699083382E+02  0.10566000000E+00 0.  1.
         23    2    1    0    0    0 -0.24931615391E+02 -0.13654740140E+02 -0.65991503145E+01  0.95818050799E+02  0.91266164046E+02 0.  0.
         13    1    3    3    0    0 -0.53951135708E+01 -0.88533588603E+00  0.41762485345E+02  0.42118967417E+02  0.10566000000E+00 0. -1.
         22    1    1    0    0    0  0.24931615391E+02  0.13654740140E+02  0.65991503145E+01  0.29181949201E+02  0.00000000000E+00 0.  1.
</event>
<event>
 5    1  0.6924865E-004  0.9118800E+02  0.7818608E-02  0.1130116E+00
         25   -1    0    0    0    0  0.00000000000E+00  0.00000000000E+00  0.99999998245E-14  0.12500000000E+03  0.12500000000E+03 0.  0.
        -13    1    3    3    0    0  0.11503571475E+02 -0.50491133702E+01 -0.32046637025E+02  0.34421269749E+02  0.10566000000E+00 0. -1.
         23    2    1    0    0    0 -0.25419681273E+02  0.24906771401E+02 -0.51703944857E+01  0.89038347692E+02  0.81452973690E+02 0.  0.
         13    1    3    3    0    0 -0.36923252747E+02  0.29955884771E+02  0.26876242540E+02  0.54617077942E+02  0.10566000000E+00 0.  1.
         22    1    1    0    0    0  0.25419681273E+02 -0.24906771401E+02  0.51703944857E+01  0.35961652308E+02  0.00000000000E+00 0.  1.
</event>
<event>
 5    1  0.6924865E-004  0.9118800E+02  0.7818608E-02  0.1130116E+00
         25   -1    0    0    0    0  0.00000000000E+00  0.00000000000E+00  0.99999998245E-14  0.12500000000E+03  0.12500000000E+03 0.  0.
        -13    1    3    3    0    0  0.35654547544E+02 -0.21307097311E+02 -0.16599702823E+02  0.44730308006E+02  0.10566000000E+00 0. -1.
         23    2    1    0    0    0 -0.62623594141E+01  0.61887189982E+01 -0.27579660288E+02  0.96049092417E+02  0.91582056672E+02 0.  0.
         13    1    3    3    0    0 -0.41916906959E+02  0.27495816309E+02 -0.10979957465E+02  0.51318784411E+02  0.10566000000E+00 0.  1.
         22    1    1    0    0    0  0.62623594141E+01 -0.61887189982E+01  0.27579660288E+02  0.28950907583E+02  0.00000000000E+00 0.  1.
</event>
<event>
 5    1  0.6924865E-004  0.9118800E+02  0.7818608E-02  0.1130116E+00
         25   -1    0    0    0    0  0.00000000000E+00  0.00000000000E+00  0.99999998245E-14  0.12500000000E+03  0.12500000000E+03 0.  0.
        -13    1    3    3    0    0 -0.35017323101E+02  0.88259540611E+01 -0.16077383886E+01  0.36148393727E+02  0.10566000000E+00 0. -1.
         23    2    1    0    0    0  0.14410284107E+02 -0.20566245149E+02 -0.15735642536E+02  0.95364933379E+02  0.90643440716E+02 0.  0.
         13    1    3    3    0    0  0.49427607208E+02 -0.29392199211E+02 -0.14127904147E+02  0.59216539652E+02  0.10566000000E+00 0.  1.
         22    1    1    0    0    0 -0.14410284107E+02  0.20566245149E+02  0.15735642536E+02  0.29635066621E+02  0.00000000000E+00 0.  1.
</event>
<event>
 5    1  0.6924865E-004  0.9118800E+02  0.7818608E-02  0.1130116E+00
         25   -1    0    0    0    0  0.00000000000E+00  0.00000000000E+00  0.99999998245E-14  0.12500000000E+03  0.12500000000E+03 0.  0.
        -13    1    3    3    0    0 -0.71806300169E+01  0.16207550647E+02 -0.28667122010E+01  0.17957598623E+02  0.10566000000E+00 0.  1.
         23    2    1    0    0    0  0.98841050308E+01 -0.42717253480E+02  0.84729062522E+01  0.80342980199E+02  0.66788809315E+02 0.  0.
         13    1    3    3    0    0  0.17064735048E+02 -0.58924804127E+02  0.11339618453E+02  0.62385381576E+02  0.10566000000E+00 0. -1.
         22    1    1    0    0    0 -0.98841050308E+01  0.42717253480E+02 -0.84729062522E+01  0.44657019801E+02  0.00000000000E+00 0. -1.
</event>
<event>
 5    1  0.6924865E-004  0.9118800E+02  0.7818608E-02  0.1130116E+00
         25   -1    0    0    0    0  0.00000000000E+00  0.00000000000E+00  0.99999998245E-14  0.12500000000E+03  0.12500000000E+03 0.  0.
        -13    1    3    3    0    0 -0.29170388530E+02  0.16456481074E+02  0.24630331716E+01  0.33582808590E+02  0.10566000000E+00 0.  1.
         23    2    1    0    0    0  0.24021839685E+02 -0.55720923819E+01  0.19431379222E+02  0.93604530680E+02  0.88182382991E+02 0.  0.
         13    1    3    3    0    0  0.53192228215E+02 -0.22028573455E+02  0.16968346050E+02  0.60021722090E+02  0.10566000000E+00 0. -1.
         22    1    1    0    0    0 -0.24021839685E+02  0.55720923819E+01 -0.19431379222E+02  0.31395469320E+02  0.00000000000E+00 0. -1.
</event>
<event>
 5    1  0.6924865E-004  0.9118800E+02  0.7818608E-02  0.1130116E+00
         25   -1    0    0    0    0  0.00000000000E+00  0.00000000000E+00  0.99999998245E-14  0.12500000000E+03  0.12500000000E+03 0.  0.
        -13    1    3    3    0    0 -0.48713486096E+02  0.20800026388E+02 -0.71499326068E+00  0.52973268776E+02  0.10566000000E+00 0. -1.
         23    2    1    0    0    0 -0.10113613038E+02  0.25865501652E+02 -0.13725856010E+02  0.94020838171E+02  0.88770544342E+02 0.  0.
         13    1    3    3    0    0  0.38599873058E+02  0.50654752643E+01 -0.13010862749E+02  0.41047569396E+02  0.10566000000E+00 0.  1.
         22    1    1    0    0    0  0.10113613038E+02 -0.25865501652E+02  0.13725856010E+02  0.30979161829E+02  0.00000000000E+00 0.  1.
</event>
<event>
 5    1  0.6924865E-004  0.9118800E+02  0.7818608E-02  0.1130116E+00
         25   -1    0    0    0    0  0.00000000000E+00  0.00000000000E+00  0.99999998245E-14  0.12500000000E+03  0.12500000000E+03 0.  0.
        -13    1    3    3    0    0  0.17012242019E+02  0.13965122309E+02  0.49186829461E+02  0.53886885010E+02  0.10566000000E+00 0. -1.
         23    2    1    0    0    0  0.55460973082E+01  0.26701620679E+02  0.11279989371E+02  0.95487733018E+02  0.90812627175E+02 0.  0.
         13    1    3    3    0    0 -0.11466144711E+02  0.12736498369E+02 -0.37906840091E+02  0.41600848007E+02  0.10566000000E+00 0.  1.
         22    1    1    0    0    0 -0.55460973082E+01 -0.26701620679E+02 -0.11279989371E+02  0.29512266982E+02  0.00000000000E+00 0. -1.
</event>
<event>
 5    1  0.6924865E-004  0.9118800E+02  0.7818608E-02  0.1130116E+00
         25   -1    0    0    0    0  0.00000000000E+00  0.00000000000E+00  0.99999998245E-14  0.12500000000E+03  0.12500000000E+03 0.  0.
        -13    1    3    3    0    0 -0.35173633743E+02 -0.19077425898E+02  0.22749370084E+02  0.46029096155E+02  0.10566000000E+00 0.  1.
         23    2    1    0    0    0 -0.10116975183E+02  0.23038541623E+02  0.15172418554E+02  0.95617524411E+02  0.90991104526E+02 0.  0.
         13    1    3    3    0    0  0.25056658561E+02  0.42115967520E+02 -0.75769515302E+01  0.49588428256E+02  0.10566000000E+00 0. -1.
         22    1    1    0    0    0  0.10116975183E+02 -0.23038541623E+02 -0.15172418554E+02  0.29382475589E+02  0.00000000000E+00 0.  1.
</event>
<event>
 5    1  0.6924865E-004  0.9118800E+02  0.7818608E-02  0.1130116E+00
         25   -1    0    0    0    0  0.00000000000E+00  0.00000000000E+00  0.99999998245E-14  0.12500000000E+03  0.12500000000E+03 0.  0.
        -13    1    3    3    0    0 -0.22583725010E+02 -0.17486016037E+02  0.31101979339E+02  0.42227120136E+02  0.10566000000E+00 0.  1.
         23    2    1    0    0    0  0.15638163119E+02  0.16636146591E+02  0.19985670152E+02  0.94656293394E+02  0.89660879700E+02 0.  0.
         13    1    3    3    0    0  0.38221888128E+02  0.34122162628E+02 -0.11116309187E+02  0.52429173258E+02  0.10566000000E+00 0. -1.
         22    1    1    0    0    0 -0.15638163119E+02 -0.16636146591E+02 -0.19985670152E+02  0.30343706606E+02  0.00000000000E+00 0.  1.
</event>
<event>
 5    1  0.6924865E-004  0.9118800E+02  0.7818608E-02  0.1130116E+00
         25   -1    0    0    0    0  0.00000000000E+00  0.00000000000E+00  0.99999998245E-14  0.12500000000E+03  0.12500000000E+03 0.  0.
        -13    1    3    3    0    0  0.69468438348E+01 -0.38306100216E+02 -0.29645466523E+01  0.39043765878E+02  0.10566000000E+00 0. -1.
         23    2    1    0    0    0  0.63664209682E+01  0.23359195149E+02  0.11089516893E+00  0.10078852314E+03  0.97837266853E+02 0.  0.
         13    1    3    3    0    0 -0.58042286662E+00  0.61665295365E+02  0.30754418213E+01  0.61744757264E+02  0.10566000000E+00 0.  1.
         22    1    1    0    0    0 -0.63664209682E+01 -0.23359195149E+02 -0.11089516893E+00  0.24211476859E+02  0.00000000000E+00 0.  1.
</event>
<event>
 5    1  0.6924865E-004  0.9118800E+02  0.7818608E-02  0.1130116E+00
         25   -1    0    0    0    0  0.00000000000E+00  0.00000000000E+00  0.99999998245E-14  0.12500000000E+03  0.12500000000E+03 0.  0.
        -13    1    3    3    0    0 -0.45863565006E+02 -0.16402532283E+02 -0.20512789796E+02  0.52851635449E+02  0.10566000000E+00 0. -1.
         23    2    1    0    0    0 -0.39237794035E+01 -0.24110169640E+02 -0.16150126586E+02  0.95716507831E+02  0.91126982599E+02 0.  0.
         13    1    3    3    0    0  0.41939785602E+02 -0.77076373573E+01  0.43626632105E+01  0.42864872382E+02  0.10566000000E+00 0.  1.
         22    1    1    0    0    0  0.39237794035E+01  0.24110169640E+02  0.16150126586E+02  0.29283492169E+02  0.00000000000E+00 0. -1.
</event>
<event>
 5    1  0.6924865E-004  0.9118800E+02  0.7818608E-02  0.1130116E+00
         25   -1    0    0    0    0  0.00000000000E+00  0.00000000000E+00  0.99999998245E-14  0.12500000000E+03  0.12500000000E+03 0.  0.
        -13    1    3    3    0    0 -0.32515470400E+02 -0.10576822080E+01 -0.78173827736E+01  0.33458887377E+02  0.10566000000E+00 0.  1.
         23    2    1    0    0    0  0.16266503656E+02 -0.16680947209E+02  0.22190559498E+02  0.92824324843E+02  0.87069404562E+02 0.  0.
         13    1    3    3    0    0  0.48781974057E+02 -0.15623265001E+02  0.30007942271E+02  0.59365437466E+02  0.10566000000E+00 0. -1.
         22    1    1    0    0    0 -0.16266503656E+02  0.16680947209E+02 -0.22190559498E+02  0.32175675157E+02  0.00000000000E+00 0. -1.
</event>
<event>
 5    1  0.6924865E-004  0.9118800E+02  0.7818608E-02  0.1130116E+00
         25   -1    0    0    0    0  0.00000000000E+00  0.00000000000E+00  0.99999998245E-14  0.12500000000E+03  0.12500000000E+03 0.  0.
        -13    1    3    3    0    0 -0.33802906541E+02  0.26214849741E+02  0.84177287447E+01  0.43597295315E+02  0.10566000000E+00 0. -1.
         23    2    1    0    0    0  0.14048654784E+02  0.95014536244E+01  0.23076977408E+02  0.96361054340E+02  0.92006867053E+02 0.  0.
         13    1    3    3    0    0  0.47851561325E+02 -0.16713396116E+02  0.14659248664E+02  0.52763759025E+02  0.10566000000E+00 0.  1.
         22    1    1    0    0    0 -0.14048654784E+02 -0.95014536244E+01 -0.23076977408E+02  0.28638945660E+02  0.00000000000E+00 0.  1.
</event>
<event>
 5    1  0.6924865E-004  0.9118800E+02  0.7818608E-02  0.1130116E+00
         25   -1    0    0    0    0  0.00000000000E+00  0.00000000000E+00  0.99999998245E-14  0.12500000000E+03  0.12500000000E+03 0.  0.
        -13    1    3    3    0    0 -0.92658373525E+01 -0.31208041777E+02 -0.85339112939E+01  0.33654664155E+02  0.10566000000E+00 0.  1.
         23    2    1    0    0    0  0.65735013389E+01  0.28444238750E+02 -0.16023319072E+01  0.95762128917E+02  0.91189540130E+02 0.  0.
         13    1    3    3    0    0  0.15839338691E+02  0.59652280527E+02  0.69315793867E+01  0.62107464762E+02  0.10566000000E+00 0. -1.
         22    1    1    0    0    0 -0.65735013389E+01 -0.28444238750E+02  0.16023319072E+01  0.29237871083E+02  0.00000000000E+00 0. -1.
</event>
<event>
 5    1  0.6924865E-004  0.9118800E+02  0.7818608E-02  0.1130116E+00
         25   -1    0    0    0    0  0.00000000000E+00  0.00000000000E+00  0.99999998245E-14  0.12500000000E+03  0.12500000000E+03 0.  0.
        -13    1    3    3    0    0  0.44621269791E-02  0.55769541962E+02  0.12520417157E+02  0.57157797721E+02  0.10566000000E+00 0.  1.
         23    2    1    0    0    0 -0.52119998339E+01  0.14567361678E+02  0.20366136761E+02  0.99423594953E+02  0.96077566259E+02 0.  0.
         13    1    3    3    0    0 -0.52164619609E+01 -0.41202180283E+02  0.78457196040E+01  0.42265797232E+02  0.10566000000E+00 0. -1.
         22    1    1    0    0    0  0.52119998339E+01 -0.14567361678E+02 -0.20366136761E+02  0.25576405047E+02  0.00000000000E+00 0.  1.
</event>
<event>
 5    1  0.6924865E-004  0.9118800E+02  0.7818608E-02  0.1130116E+00
         25   -1    0    0    0    0  0.00000000000E+00  0.00000000000E+00  0.99999998245E-14  0.12500000000E+03  0.12500000000E+03 0.  0.
        -13    1    3    3    0    0 -0.23985336276E+02 -0.28872042064E+01 -0.25832491244E+02  0.35368928063E+02  0.10566000000E+00 0. -1.
         23    2    1    0    0    0 -0.95586745793E+01  0.16145178848E+01  0.30136621458E+02  0.93342601486E+02  0.87810309028E+02 0.  0.
         13    1    3    3    0    0  0.14426661697E+02  0.45017220912E+01  0.55969112703E+02  0.57973673424E+02  0.10566000000E+00 0.  1.
         22    1    1    0    0    0  0.95586745793E+01 -0.16145178848E+01 -0.30136621458E+02  0.31657398514E+02  0.00000000000E+00 0.  1.
</event>
<event>
 5    1  0.6924865E-004  0.9118800E+02  0.7818608E-02  0.1130116E+00
         25   -1    0    0    0    0  0.00000000000E+00  0.00000000000E+00  0.99999998245E-14  0.12500000000E+03  0.12500000000E+03 0.  0.
        -13    1    3    3    0    0  0.33899036981E+02 -0.23146787789E+02  0.21762639928E+02  0.46460113580E+02  0.10566000000E+00 0.  1.
         23    2    1    0    0    0 -0.14983096170E+02 -0.16872298860E+02  0.18446460550E+02  0.95854853809E+02  0.91316556288E+02 0.  0.
         13    1    3    3    0    0 -0.48882133150E+02  0.62744889287E+01 -0.33161793778E+01  0.49394740230E+02  0.10566000000E+00 0. -1.
         22    1    1    0    0    0  0.14983096170E+02  0.16872298860E+02 -0.18446460550E+02  0.29145146191E+02  0.00000000000E+00 0.  1.
</event>
<event>
 5    1  0.6924865E-004  0.9118800E+02  0.7818608E-02  0.1130116E+00
         25   -1    0    0    0    0  0.00000000000E+00  0.00000000000E+00  0.99999998245E-14  0.12500000000E+03  0.12500000000E+03 0.  0.
        -13    1    3    3    0    0  0.17381651467E+01 -0.84247465780E+01 -0.54732663729E+02  0.55404631719E+02  0.10566000000E+00 0. -1.
         23    2    1    0    0    0 -0.19727412024E+02  0.29604676647E+00 -0.22971092336E+02  0.94719156023E+02  0.89748476342E+02 0.  0.
         13    1    3    3    0    0 -0.21465577171E+02  0.87207933445E+01  0.31761571393E+02  0.39314524304E+02  0.10566000000E+00 0.  1.
         22    1    1    0    0    0  0.19727412024E+02 -0.29604676647E+00  0.22971092336E+02  0.30280843977E+02  0.00000000000E+00 0. -1.
</event>
<event>
 5    1  0.6924865E-004  0.9118800E+02  0.7818608E-02  0.1130116E+00
         25   -1    0    0    0    0  0.00000000000E+00  0.00000000000E+00  0.99999998245E-14  0.12500000000E+03  0.12500000000E+03 0.  0.
        -13    1    3    3    0    0  0.11518456428E+02 -0.53458459837E+02  0.15759000620E+02  0.56910798898E+02  0.10566000000E+00 0.  1.
         23    2    1    0    0    0  0.28740416505E+01 -0.26521027543E+02 -0.11272652616E+02  0.96039721784E+02  0.91569265838E+02 0.  0.
         13    1    3    3    0    0 -0.86444147780E+01  0.26937432295E+02 -0.27031653236E+02  0.39128922886E+02  0.10566000000E+00 0. -1.
         22    1    1    0    0    0 -0.28740416505E+01  0.26521027543E+02  0.11272652616E+02  0.28960278216E+02  0.00000000000E+00 0.  1.
</event>
<event>
 5    1  0.6924865E-004  0.9118800E+02  0.7818608E-02  0.1130116E+00
         25   -1    0    0    0    0  0.00000000000E+00  0.00000000000E+00  0.99999998245E-14  0.12500000000E+03  0.12500000000E+03 0.  0.
        -13    1    3    3    0    0  0.25111138988E+02  0.20108515063E+02  0.10205205475E+02  0.33750245364E+02  0.10566000000E+00 0.  1.
         23    2    1    0    0    0 -0.30143570697E-01 -0.23935937363E+02  0.28606500510E+02  0.87700376979E+02  0.79373133015E+02 0.  0.
         13    1    3    3    0    0 -0.25141282559E+02 -0.44044452426E+02  0.18401295035E+02  0.53950131614E+02  0.10566000000E+00 0. -1.
         22    1    1    0    0    0  0.30143570697E-01  0.23935937363E+02 -0.28606500510E+02  0.37299623021E+02  0.00000000000E+00 0. -1.
</event>
<event>
 5    1  0.6924865E-004  0.9118800E+02  0.7818608E-02  0.1130116E+00
         25   -1    0    0    0    0  0.00000000000E+00  0.00000000000E+00  0.99999998245E-14  0.12500000000E+03  0.12500000000E+03 0.  0.
        -13    1    3    3    0    0  0.18113734689E+01  0.40795578642E+02 -0.45180111624E+02  0.60900032520E+02  0.10566000000E+00 0.  1.
         23    2    1    0    0    0  0.97005937592E+01  0.23008163430E+02 -0.18492807647E+02  0.93928131077E+02  0.88639905061E+02 0.  0.
         13    1    3    3    0    0  0.78892202903E+01 -0.17787415212E+02  0.26687303976E+02  0.33028098557E+02  0.10566000000E+00 0. -1.
         22    1    1    0    0    0 -0.97005937592E+01 -0.23008163430E+02  0.18492807647E+02  0.31071868923E+02  0.00000000000E+00 0.  1.
</event>
<event>
 5    1  0.6924865E-004  0.9118800E+02  0.7818608E-02  0.1130116E+00
         25   -1    0    0    0    0  0.00000000000E+00  0.00000000000E+00  0.99999998245E-14  0.12500000000E+03  0.12500000000E+03 0.  0.
        -13    1    3    3    0    0  0.38947073144E+02  0.86977383472E+01 -0.23391387508E+02  0.46256819307E+02  0.10566000000E+00 0.  1.
         23    2    1    0    0    0 -0.45377811164E+01 -0.19796555859E+02 -0.16760959819E+02  0.98667038614E+02  0.95088167789E+02 0.  0.
         13    1    3    3    0    0 -0.43484854260E+02 -0.28494294206E+02  0.66304276891E+01  0.52410219306E+02  0.10566000000E+00 0. -1.
         22    1    1    0    0    0  0.45377811164E+01  0.19796555859E+02  0.16760959819E+02  0.26332961386E+02  0.00000000000E+00 0. -1.
</event>
<event>
 5    1  0.6924865E-004  0.9118800E+02  0.7818608E-02  0.1130116E+00
         25   -1    0    0    0    0  0.00000000000E+00  0.00000000000E+00  0.99999998245E-14  0.12500000000E+03  0.12500000000E+03 0.  0.
        -13    1    3    3    0    0  0.26749619082E+02  0.29627124501E+02  0.37473911368E+02  0.54750468715E+02  0.10566000000E+00 0. -1.
         23    2    1    0    0    0  0.26493418804E+02 -0.23367931533E+01  0.11144181027E+02  0.96163311339E+02  0.91737821180E+02 0.  0.
         13    1    3    3    0    0 -0.25620027822E+00 -0.31963917654E+02 -0.26329730341E+02  0.41412842625E+02  0.10566000000E+00 0.  1.
         22    1    1    0    0    0 -0.26493418804E+02  0.23367931533E+01 -0.11144181027E+02  0.28836688661E+02  0.00000000000E+00 0. -1.
</event>
<event>
 5    1  0.6924865E-004  0.9118800E+02  0.7818608E-02  0.1130116E+00
         25   -1    0    0    0    0  0.00000000000E+00  0.00000000000E+00  0.99999998245E-14  0.12500000000E+03  0.12500000000E+03 0.  0.
        -13    1    3    3    0    0  0.69360319710E+01 -0.50381969676E+01  0.53743813148E+02  0.54423345946E+02  0.10566000000E+00 0.  1.
         23    2    1    0    0    0  0.22356788371E+02 -0.99752165495E+01  0.15317948427E+02  0.96121453023E+02  0.91680768190E+02 0.  0.
         13    1    3    3    0    0  0.15420756400E+02 -0.49370195819E+01 -0.38425864721E+02  0.41698107078E+02  0.10566000000E+00 0. -1.
         22    1    1    0    0    0 -0.22356788371E+02  0.99752165495E+01 -0.15317948427E+02  0.28878546977E+02  0.00000000000E+00 0.  1.
</event>
<event>
 5    1  0.6924865E-004  0.9118800E+02  0.7818608E-02  0.1130116E+00
         25   -1    0    0    0    0  0.00000000000E+00  0.00000000000E+00  0.99999998245E-14  0.12500000000E+03  0.12500000000E+03 0.  0.
        -13    1    3    3    0    0  0.15414702483E+02 -0.24492082402E+02 -0.21104654417E+02  0.35817492306E+02  0.10566000000E+00 0.  1.
         23    2    1    0    0    0 -0.62913379436E+01 -0.48933431553E+01  0.29596809744E+02  0.94348786527E+02  0.89231141603E+02 0.  0.
         13    1    3    3    0    0 -0.21706040427E+02  0.19598739246E+02  0.50701464161E+02  0.58531294221E+02  0.10566000000E+00 0. -1.
         22    1    1    0    0    0  0.62913379436E+01  0.48933431553E+01 -0.29596809744E+02  0.30651213473E+02  0.00000000000E+00 0. -1.
</event>
<event>
 5    1  0.6924865E-004  0.9118800E+02  0.7818608E-02  0.1130116E+00
         25   -1    0    0    0    0  0.00000000000E+00  0.00000000000E+00  0.99999998245E-14  0.12500000000E+03  0.12500000000E+03 0.  0.
        -13    1    3    3    0    0 -0.55494078242E+02 -0.69077867890E+01 -0.25558389552E+01  0.55980833462E+02  0.10566000000E+00 0. -1.
         23    2    1    0    0    0 -0.19512003627E+02 -0.44216206187E+01 -0.20576812305E+02  0.96300274930E+02  0.91924255410E+02 0.  0.
         13    1    3    3    0    0  0.35982074615E+02  0.24861661704E+01 -0.18020973350E+02  0.40319441469E+02  0.10566000000E+00 0.  1.
         22    1    1    0    0    0  0.19512003627E+02  0.44216206187E+01  0.20576812305E+02  0.28699725070E+02  0.00000000000E+00 0. -1.
</event>
<event>
 5    1  0.6924865E-004  0.9118800E+02  0.7818608E-02  0.1130116E+00
         25   -1    0    0    0    0  0.00000000000E+00  0.00000000000E+00  0.99999998245E-14  0.12500000000E+03  0.12500000000E+03 0.  0.
        -13    1    3    3    0    0 -0.13503946512E+02  0.18512585002E+02  0.48539376699E+02  0.53676388004E+02  0.10566000000E+00 0.  1.
         23    2    1    0    0    0 -0.13148710834E+02 -0.14230988840E+02  0.20577606971E+02  0.96736108750E+02  0.92515010606E+02 0.  0.
         13    1    3    3    0    0  0.35523567861E+00 -0.32743573842E+02 -0.27961769727E+02  0.43059720745E+02  0.10566000000E+00 0. -1.
         22    1    1    0    0    0  0.13148710834E+02  0.14230988840E+02 -0.20577606971E+02  0.28263891250E+02  0.00000000000E+00 0.  1.
</event>
<event>
 5    1  0.6924865E-004  0.9118800E+02  0.7818608E-02  0.1130116E+00
         25   -1    0    0    0    0  0.00000000000E+00  0.00000000000E+00  0.99999998245E-14  0.12500000000E+03  0.12500000000E+03 0.  0.
        -13    1    3    3    0    0  0.13713853575E+02  0.29466862141E+02 -0.20377438059E+02  0.38361659117E+02  0.10566000000E+00 0. -1.
         23    2    1    0    0    0  0.50830862429E+01  0.35444421868E+01  0.29297424108E+02  0.95054384368E+02  0.90214167912E+02 0.  0.
         13    1    3    3    0    0 -0.86307673323E+01 -0.25922419954E+02  0.49674862167E+02  0.56692725251E+02  0.10566000000E+00 0.  1.
         22    1    1    0    0    0 -0.50830862429E+01 -0.35444421868E+01 -0.29297424108E+02  0.29945615632E+02  0.00000000000E+00 0.  1.
</event>
<event>
 5    1  0.6924865E-004  0.9118800E+02  0.7818608E-02  0.1130116E+00
         25   -1    0    0    0    0  0.00000000000E+00  0.00000000000E+00  0.99999998245E-14  0.12500000000E+03  0.12500000000E+03 0.  0.
        -13    1    3    3    0    0 -0.59691691067E+02  0.64638773341E+01 -0.21024285039E+01  0.60077542080E+02  0.10566000000E+00 0. -1.
         23    2    1    0    0    0 -0.27938379832E+02 -0.44528218644E+01 -0.10724481811E+02  0.94744501322E+02  0.89783769861E+02 0.  0.
         13    1    3    3    0    0  0.31753311236E+02 -0.10916699199E+02 -0.86220533067E+01  0.34666959242E+02  0.10566000000E+00 0.  1.
         22    1    1    0    0    0  0.27938379832E+02  0.44528218644E+01  0.10724481811E+02  0.30255498678E+02  0.00000000000E+00 0. -1.
</event>
<event>
 5    1  0.6924865E-004  0.9118800E+02  0.7818608E-02  0.1130116E+00
         25   -1    0    0    0    0  0.00000000000E+00  0.00000000000E+00  0.99999998245E-14  0.12500000000E+03  0.12500000000E+03 0.  0.
        -13    1    3    3    0    0  0.17566192819E+02  0.28059090754E+02  0.15852949293E+00  0.33104682444E+02  0.10566000000E+00 0. -1.
         23    2    1    0    0    0 -0.26750339692E+02 -0.65808035889E+01  0.17973888426E+02  0.92107017243E+02  0.86033448790E+02 0.  0.
         13    1    3    3    0    0 -0.44316532510E+02 -0.34639894343E+02  0.17815358933E+02  0.59002334799E+02  0.10566000000E+00 0.  1.
         22    1    1    0    0    0  0.26750339692E+02  0.65808035889E+01 -0.17973888426E+02  0.32892982757E+02  0.00000000000E+00 0.  1.
</event>
<event>
 5    1  0.6924865E-004  0.9118800E+02  0.7818608E-02  0.1130116E+00
         25   -1    0    0    0    0  0.00000000000E+00  0.00000000000E+00  0.99999998245E-14  0.12500000000E+03  0.12500000000E+03 0.  0.
        -13    1    3    3    0    0  0.42532531190E+02 -0.14962634012E+02 -0.24931014676E+02  0.51521483702E+02  0.10566000000E+00 0. -1.
         23    2    1    0    0    0  0.23837628190E+02  0.16586756163E+02  0.16514775121E+00  0.95958989833E+02  0.91458993316E+02 0.  0.
         13    1    3    3    0    0 -0.18694903000E+02  0.31549390175E+02  0.25096162427E+02  0.44437506132E+02  0.10566000000E+00 0.  1.
         22    1    1    0    0    0 -0.23837628190E+02 -0.16586756163E+02 -0.16514775121E+00  0.29041010167E+02  0.00000000000E+00 0. -1.
</event>
<event>
 5    1  0.6924865E-004  0.9118800E+02  0.7818608E-02  0.1130116E+00
         25   -1    0    0    0    0  0.00000000000E+00  0.00000000000E+00  0.99999998245E-14  0.12500000000E+03  0.12500000000E+03 0.  0.
        -13    1    3    3    0    0  0.80586870301E+01 -0.21543795277E+02  0.33963481246E+02  0.41019590124E+02  0.10566000000E+00 0.  1.
         23    2    1    0    0    0 -0.18132203689E+02 -0.15663292341E+02 -0.14909634652E+02  0.96779214344E+02  0.92573233637E+02 0.  0.
         13    1    3    3    0    0 -0.26190890719E+02  0.58805029365E+01 -0.48873115898E+02  0.55759624219E+02  0.10566000000E+00 0. -1.
         22    1    1    0    0    0  0.18132203689E+02  0.15663292341E+02  0.14909634652E+02  0.28220785656E+02  0.00000000000E+00 0. -1.
</event>
<event>
 5    1  0.6924865E-004  0.9118800E+02  0.7818608E-02  0.1130116E+00
         25   -1    0    0    0    0  0.00000000000E+00  0.00000000000E+00  0.99999998245E-14  0.12500000000E+03  0.12500000000E+03 0.  0.
        -13    1    3    3    0    0 -0.27935558675E+02 -0.89080165779E+01  0.27536499306E+02  0.40224596405E+02  0.10566000000E+00 0.  1.
         23    2    1    0    0    0 -0.21410052253E+02  0.71100023395E+01 -0.22482822422E+02  0.93150042782E+02  0.87535768092E+02 0.  0.
         13    1    3    3    0    0  0.65255064220E+01  0.16018018917E+02 -0.50019321728E+02  0.52925446378E+02  0.10566000000E+00 0. -1.
         22    1    1    0    0    0  0.21410052253E+02 -0.71100023395E+01  0.22482822422E+02  0.31849957218E+02  0.00000000000E+00 0. -1.
</event>
<event>
 5    1  0.6924865E-004  0.9118800E+02  0.7818608E-02  0.1130116E+00
         25   -1    0    0    0    0  0.00000000000E+00  0.00000000000E+00  0.99999998245E-14  0.12500000000E+03  0.12500000000E+03 0.  0.
        -13    1    3    3    0    0 -0.25619476703E+02  0.36169978662E+02 -0.12850665514E+02  0.46149493075E+02  0.10566000000E+00 0. -1.
         23    2    1    0    0    0 -0.23742427520E+02 -0.57024933972E+01  0.14878655738E+02  0.96406369730E+02  0.92068411697E+02 0.  0.
         13    1    3    3    0    0  0.18770491830E+01 -0.41872472059E+02  0.27729321252E+02  0.50256876655E+02  0.10566000000E+00 0.  1.
         22    1    1    0    0    0  0.23742427520E+02  0.57024933972E+01 -0.14878655738E+02  0.28593630270E+02  0.00000000000E+00 0.  1.
</event>
<event>
 5    1  0.6924865E-004  0.9118800E+02  0.7818608E-02  0.1130116E+00
         25   -1    0    0    0    0  0.00000000000E+00  0.00000000000E+00  0.99999998245E-14  0.12500000000E+03  0.12500000000E+03 0.  0.
        -13    1    3    3    0    0  0.55930334530E+02 -0.91745134561E+01 -0.29651568389E+01  0.56755416807E+02  0.10566000000E+00 0. -1.
         23    2    1    0    0    0  0.19591040158E+02 -0.13753182835E+02 -0.16635782213E+02  0.95850246271E+02  0.91310248975E+02 0.  0.
         13    1    3    3    0    0 -0.36339294371E+02 -0.45786693793E+01 -0.13670625375E+02  0.39094829465E+02  0.10566000000E+00 0.  1.
         22    1    1    0    0    0 -0.19591040158E+02  0.13753182835E+02  0.16635782213E+02  0.29149753729E+02  0.00000000000E+00 0. -1.
</event>
<event>
 5    1  0.6924865E-004  0.9118800E+02  0.7818608E-02  0.1130116E+00
         25   -1    0    0    0    0  0.00000000000E+00  0.00000000000E+00  0.99999998245E-14  0.12500000000E+03  0.12500000000E+03 0.  0.
        -13    1    3    3    0    0 -0.10033951614E+02 -0.34057186805E+02  0.54610911280E+01  0.35922233205E+02  0.10566000000E+00 0. -1.
         23    2    1    0    0    0  0.97213634511E+01  0.17726859925E+02  0.23304346382E+02  0.94148111396E+02  0.88949580375E+02 0.  0.
         13    1    3    3    0    0  0.19755315065E+02  0.51784046730E+02  0.17843255254E+02  0.58225878191E+02  0.10566000000E+00 0.  1.
         22    1    1    0    0    0 -0.97213634511E+01 -0.17726859925E+02 -0.23304346382E+02  0.30851888604E+02  0.00000000000E+00 0.  1.
</event>
<event>
 5    1  0.6924865E-004  0.9118800E+02  0.7818608E-02  0.1130116E+00
         25   -1    0    0    0    0  0.00000000000E+00  0.00000000000E+00  0.99999998245E-14  0.12500000000E+03  0.12500000000E+03 0.  0.
        -13    1    3    3    0    0 -0.76350406539E+01  0.20360869596E+02 -0.29983079833E+02  0.37038562294E+02  0.10566000000E+00 0. -1.
         23    2    1    0    0    0 -0.16612252638E+02 -0.20223469245E+02  0.12080917063E+02  0.96174591016E+02  0.91753189340E+02 0.  0.
         13    1    3    3    0    0 -0.89772119840E+01 -0.40584338841E+02  0.42063996896E+02  0.59136028722E+02  0.10566000000E+00 0.  1.
         22    1    1    0    0    0  0.16612252638E+02  0.20223469245E+02 -0.12080917063E+02  0.28825408984E+02  0.00000000000E+00 0.  1.
</event>
<event>
 5    1  0.6924865E-004  0.9118800E+02  0.7818608E-02  0.1130116E+00
         25   -1    0    0    0    0  0.00000000000E+00  0.00000000000E+00  0.99999998245E-14  0.12500000000E+03  0.12500000000E+03 0.  0.
        -13    1    3    3    0    0 -0.16127366961E+01  0.30066744205E+02  0.19553559090E+02  0.35902128960E+02  0.10566000000E+00 0. -1.
         23    2    1    0    0    0  0.19625755191E+02 -0.22509253818E+02  0.10613861919E+02  0.93306296538E+02  0.87758612879E+02 0.  0.
         13    1    3    3    0    0  0.21238491888E+02 -0.52575998023E+02 -0.89396971706E+01  0.57404167578E+02  0.10566000000E+00 0.  1.
         22    1    1    0    0    0 -0.19625755191E+02  0.22509253818E+02 -0.10613861919E+02  0.31693703462E+02  0.00000000000E+00 0.  1.
</event>
<event>
 5    1  0.6924865E-004  0.9118800E+02  0.7818608E-02  0.1130116E+00
         25   -1    0    0    0    0  0.00000000000E+00  0.00000000000E+00  0.99999998245E-14  0.12500000000E+03  0.12500000000E+03 0.  0.
        -13    1    3    3    0    0 -0.39368139929E+02 -0.19339080651E+02 -0.18658088457E+02  0.47665353359E+02  0.10566000000E+00 0. -1.
         23    2    1    0    0    0 -0.22435215842E+02  0.97738121255E+00  0.20283558821E+02  0.94739184704E+02  0.89776367581E+02 0.  0.
         13    1    3    3    0    0  0.16932924088E+02  0.20316461864E+02  0.38941647278E+02  0.47073831346E+02  0.10566000000E+00 0.  1.
         22    1    1    0    0    0  0.22435215842E+02 -0.97738121255E+00 -0.20283558821E+02  0.30260815296E+02  0.00000000000E+00 0. -1.
</event>
<event>
 5    1  0.6924865E-004  0.9118800E+02  0.7818608E-02  0.1130116E+00
         25   -1    0    0    0    0  0.00000000000E+00  0.00000000000E+00  0.99999998245E-14  0.12500000000E+03  0.12500000000E+03 0.  0.
        -13    1    3    3    0    0 -0.40948541625E+01 -0.43437274820E+02 -0.11434987434E+02  0.45103600477E+02  0.10566000000E+00 0. -1.
         23    2    1    0    0    0  0.15083918396E+02 -0.10954359809E+02  0.22456124187E+02  0.95814385281E+02  0.91261143540E+02 0.  0.
         13    1    3    3    0    0  0.19178772558E+02  0.32482915011E+02  0.33891111622E+02  0.50710784804E+02  0.10566000000E+00 0.  1.
         22    1    1    0    0    0 -0.15083918396E+02  0.10954359809E+02 -0.22456124187E+02  0.29185614719E+02  0.00000000000E+00 0.  1.
</event>
<event>
 5    1  0.6924865E-004  0.9118800E+02  0.7818608E-02  0.1130116E+00
         25   -1    0    0    0    0  0.00000000000E+00  0.00000000000E+00  0.99999998245E-14  0.12500000000E+03  0.12500000000E+03 0.  0.
        -13    1    3    3    0    0  0.28429332922E+02 -0.22686683584E+02  0.11215022788E+02  0.38061798205E+02  0.10566000000E+00 0.  1.
         23    2    1    0    0    0 -0.26429118305E+02 -0.11546932485E+02  0.11255800798E+02  0.94039977458E+02  0.88797490755E+02 0.  0.
         13    1    3    3    0    0 -0.54858451227E+02  0.11139751099E+02  0.40778010379E-01  0.55978179253E+02  0.10566000000E+00 0. -1.
         22    1    1    0    0    0  0.26429118305E+02  0.11546932485E+02 -0.11255800798E+02  0.30960022542E+02  0.00000000000E+00 0. -1.
</event>
<event>
 5    1  0.6924865E-004  0.9118800E+02  0.7818608E-02  0.1130116E+00
         25   -1    0    0    0    0  0.00000000000E+00  0.00000000000E+00  0.99999998245E-14  0.12500000000E+03  0.12500000000E+03 0.  0.
        -13    1    3    3    0    0  0.13439253597E+02  0.25601672788E+02  0.17923370903E+02  0.34019370590E+02  0.10566000000E+00 0. -1.
         23    2    1    0    0    0 -0.10883692188E+02 -0.96871706608E+01 -0.25878463455E+02  0.95301668366E+02  0.90556154355E+02 0.  0.
         13    1    3    3    0    0 -0.24322945785E+02 -0.35288843448E+02 -0.43801834358E+02  0.61282297776E+02  0.10566000000E+00 0.  1.
         22    1    1    0    0    0  0.10883692188E+02  0.96871706608E+01  0.25878463455E+02  0.29698331634E+02  0.00000000000E+00 0.  1.
</event>
<event>
 5    1  0.6924865E-004  0.9118800E+02  0.7818608E-02  0.1130116E+00
         25   -1    0    0    0    0  0.00000000000E+00  0.00000000000E+00  0.99999998245E-14  0.12500000000E+03  0.12500000000E+03 0.  0.
        -13    1    3    3    0    0  0.46464297083E+01  0.56499910735E+02 -0.17471950723E+01  0.56717661066E+02  0.10566000000E+00 0. -1.
         23    2    1    0    0    0  0.19290941273E+02  0.20054720512E+02 -0.68965290133E+01  0.96331300301E+02  0.91966434503E+02 0.  0.
         13    1    3    3    0    0  0.14644511564E+02 -0.36445190223E+02 -0.51493339410E+01  0.39613639235E+02  0.10566000000E+00 0.  1.
         22    1    1    0    0    0 -0.19290941273E+02 -0.20054720512E+02  0.68965290133E+01  0.28668699699E+02  0.00000000000E+00 0. -1.
</event>
<event>
 5    1  0.6924865E-004  0.9118800E+02  0.7818608E-02  0.1130116E+00
         25   -1    0    0    0    0  0.00000000000E+00  0.00000000000E+00  0.99999998245E-14  0.12500000000E+03  0.12500000000E+03 0.  0.
        -13    1    3    3    0    0  0.54828245265E+02 -0.29144591554E+02  0.21894838342E+00  0.62093500450E+02  0.10566000000E+00 0.  1.
         23    2    1    0    0    0  0.25591992575E+02 -0.12397484759E+02  0.50088105443E+01  0.96125514804E+02  0.91686305962E+02 0.  0.
         13    1    3    3    0    0 -0.29236252691E+02  0.16747106795E+02  0.47898621609E+01  0.34032014354E+02  0.10566000000E+00 0. -1.
         22    1    1    0    0    0 -0.25591992575E+02  0.12397484759E+02 -0.50088105443E+01  0.28874485196E+02  0.00000000000E+00 0.  1.
</event>
<event>
 5    1  0.6924865E-004  0.9118800E+02  0.7818608E-02  0.1130116E+00
         25   -1    0    0    0    0  0.00000000000E+00  0.00000000000E+00  0.99999998245E-14  0.12500000000E+03  0.12500000000E+03 0.  0.
        -13    1    3    3    0    0  0.21966853735E+02 -0.19515084978E+02 -0.19313076741E+02  0.35162299440E+02  0.10566000000E+00 0. -1.
         23    2    1    0    0    0 -0.29638187327E+02  0.20177948385E+01  0.25100817220E+01  0.95187349090E+02  0.90398214985E+02 0.  0.
         13    1    3    3    0    0 -0.51605041061E+02  0.21532879816E+02  0.21823158463E+02  0.60025049650E+02  0.10566000000E+00 0.  1.
         22    1    1    0    0    0  0.29638187327E+02 -0.20177948385E+01 -0.25100817220E+01  0.29812650910E+02  0.00000000000E+00 0.  1.
</event>
<event>
 5    1  0.6924865E-004  0.9118800E+02  0.7818608E-02  0.1130116E+00
         25   -1    0    0    0    0  0.00000000000E+00  0.00000000000E+00  0.99999998245E-14  0.12500000000E+03  0.12500000000E+03 0.  0.
        -13    1    3    3    0    0  0.21139362416E+02 -0.30774216530E+02  0.55654172668E+01  0.37747981135E+02  0.10566000000E+00 0. -1.
         23    2    1    0    0    0  0.12939455416E+02  0.26163451680E+02 -0.18708515621E+01  0.95751824060E+02  0.91175413434E+02 0.  0.
         13    1    3    3    0    0 -0.81999069994E+01  0.56937668209E+02 -0.74362688289E+01  0.58003842925E+02  0.10566000000E+00 0.  1.
         22    1    1    0    0    0 -0.12939455416E+02 -0.26163451680E+02  0.18708515621E+01  0.29248175940E+02  0.00000000000E+00 0.  1.
</event>
<event>
 5    1  0.6924865E-004  0.9118800E+02  0.7818608E-02  0.1130116E+00
         25   -1    0    0    0    0  0.00000000000E+00  0.00000000000E+00  0.99999998245E-14  0.12500000000E+03  0.12500000000E+03 0.  0.
        -13    1    3    3    0    0  0.21146450856E+02  0.24900464828E+02  0.34141017117E+02  0.47252785592E+02  0.10566000000E+00 0.  1.
         23    2    1    0    0    0  0.23500984135E+02 -0.15617356827E+02  0.74944109421E+01  0.95804721530E+02  0.91247906181E+02 0.  0.
         13    1    3    3    0    0  0.23545332790E+01 -0.40517821655E+02 -0.26646606175E+02  0.48551935938E+02  0.10566000000E+00 0. -1.
         22    1    1    0    0    0 -0.23500984135E+02  0.15617356827E+02 -0.74944109421E+01  0.29195278470E+02  0.00000000000E+00 0.  1.
</event>
<event>
 5    1  0.6924865E-004  0.9118800E+02  0.7818608E-02  0.1130116E+00
         25   -1    0    0    0    0  0.00000000000E+00  0.00000000000E+00  0.99999998245E-14  0.12500000000E+03  0.12500000000E+03 0.  0.
        -13    1    3    3    0    0  0.37993676936E+00 -0.40275197093E+02  0.43311775545E+02  0.59145218892E+02  0.10566000000E+00 0. -1.
         23    2    1    0    0    0  0.10478428974E+02 -0.97534511335E+01  0.25127630123E+02  0.96080714421E+02  0.91625207259E+02 0.  0.
         13    1    3    3    0    0  0.10098492204E+02  0.30521745960E+02 -0.18184145422E+02  0.36935495529E+02  0.10566000000E+00 0.  1.
         22    1    1    0    0    0 -0.10478428974E+02  0.97534511335E+01 -0.25127630123E+02  0.28919285579E+02  0.00000000000E+00 0. -1.
</event>
<event>
 5    1  0.6924865E-004  0.9118800E+02  0.7818608E-02  0.1130116E+00
         25   -1    0    0    0    0  0.00000000000E+00  0.00000000000E+00  0.99999998245E-14  0.12500000000E+03  0.12500000000E+03 0.  0.
        -13    1    3    3    0    0 -0.55600366943E+02 -0.17505110393E+02 -0.15900756793E+02  0.60420815326E+02  0.10566000000E+00 0. -1.
         23    2    1    0    0    0 -0.26011386436E+02 -0.11479207866E+01 -0.16390559140E+02  0.94233778662E+02  0.89069886413E+02 0.  0.
         13    1    3    3    0    0  0.29588980506E+02  0.16357189606E+02 -0.48980234745E+00  0.33812963337E+02  0.10566000000E+00 0.  1.
         22    1    1    0    0    0  0.26011386436E+02  0.11479207866E+01  0.16390559140E+02  0.30766221338E+02  0.00000000000E+00 0. -1.
</event>
<event>
 5    1  0.6924865E-004  0.9118800E+02  0.7818608E-02  0.1130116E+00
         25   -1    0    0    0    0  0.00000000000E+00  0.00000000000E+00  0.99999998245E-14  0.12500000000E+03  0.12500000000E+03 0.  0.
        -13    1    3    3    0    0 -0.38222727822E+02  0.12012313083E+02 -0.44361156329E+02  0.59776215526E+02  0.10566000000E+00 0. -1.
         23    2    1    0    0    0 -0.87351309345E+01  0.15027321611E+01 -0.29056352688E+02  0.94621844231E+02  0.89612839805E+02 0.  0.
         13    1    3    3    0    0  0.29487596887E+02 -0.10509580922E+02  0.15304803641E+02  0.34845628705E+02  0.10566000000E+00 0.  1.
         22    1    1    0    0    0  0.87351309345E+01 -0.15027321611E+01  0.29056352688E+02  0.30378155769E+02  0.00000000000E+00 0. -1.
</event>
<event>
 5    1  0.6924865E-004  0.9118800E+02  0.7818608E-02  0.1130116E+00
         25   -1    0    0    0    0  0.00000000000E+00  0.00000000000E+00  0.99999998245E-14  0.12500000000E+03  0.12500000000E+03 0.  0.
        -13    1    3    3    0    0 -0.43410151262E+02 -0.28785984995E+02 -0.17904593232E+02  0.55078669079E+02  0.10566000000E+00 0. -1.
         23    2    1    0    0    0 -0.29954809720E+02  0.27923250152E+01  0.21591301878E+01  0.94837945237E+02  0.89913771522E+02 0.  0.
         13    1    3    3    0    0  0.13455341542E+02  0.31578310010E+02  0.20063723420E+02  0.39759276158E+02  0.10566000000E+00 0.  1.
         22    1    1    0    0    0  0.29954809720E+02 -0.27923250152E+01 -0.21591301878E+01  0.30162054763E+02  0.00000000000E+00 0. -1.
</event>
<event>
 5    1  0.6924865E-004  0.9118800E+02  0.7818608E-02  0.1130116E+00
         25   -1    0    0    0    0  0.00000000000E+00  0.00000000000E+00  0.99999998245E-14  0.12500000000E+03  0.12500000000E+03 0.  0.
        -13    1    3    3    0    0 -0.69681067125E+01 -0.17378279107E+02  0.32813208364E+02  0.37779318456E+02  0.10566000000E+00 0.  1.
         23    2    1    0    0    0 -0.19634487638E+02  0.24483675833E+02 -0.18134547917E+01  0.93563522694E+02  0.88124234315E+02 0.  0.
         13    1    3    3    0    0 -0.12666380925E+02  0.41861954940E+02 -0.34626663156E+02  0.55784204238E+02  0.10566000000E+00 0. -1.
         22    1    1    0    0    0  0.19634487638E+02 -0.24483675833E+02  0.18134547917E+01  0.31436477306E+02  0.00000000000E+00 0. -1.
</event>
<event>
 5    1  0.6924865E-004  0.9118800E+02  0.7818608E-02  0.1130116E+00
         25   -1    0    0    0    0  0.00000000000E+00  0.00000000000E+00  0.99999998245E-14  0.12500000000E+03  0.12500000000E+03 0.  0.
        -13    1    3    3    0    0 -0.79835850902E+01  0.25155328425E+02 -0.29275798561E+02  0.39415881628E+02  0.10566000000E+00 0.  1.
         23    2    1    0    0    0  0.47154279561E+01 -0.26524506075E+02 -0.65995206425E+01  0.97263050707E+02  0.93224260130E+02 0.  0.
         13    1    3    3    0    0  0.12699013046E+02 -0.51679834500E+02  0.22676277919E+02  0.57847169080E+02  0.10566000000E+00 0. -1.
         22    1    1    0    0    0 -0.47154279561E+01  0.26524506075E+02  0.65995206425E+01  0.27736949293E+02  0.00000000000E+00 0. -1.
</event>
<event>
 5    1  0.6924865E-004  0.9118800E+02  0.7818608E-02  0.1130116E+00
         25   -1    0    0    0    0  0.00000000000E+00  0.00000000000E+00  0.99999998245E-14  0.12500000000E+03  0.12500000000E+03 0.  0.
        -13    1    3    3    0    0 -0.17165709443E+02 -0.33044394763E+02  0.62385580453E+01  0.37756117073E+02  0.10566000000E+00 0.  1.
         23    2    1    0    0    0  0.62112905937E+01  0.16819699561E+02  0.23473609901E+02  0.95462011139E+02  0.90777215119E+02 0.  0.
         13    1    3    3    0    0  0.23377000036E+02  0.49864094324E+02  0.17235051856E+02  0.57705894066E+02  0.10566000000E+00 0. -1.
         22    1    1    0    0    0 -0.62112905937E+01 -0.16819699561E+02 -0.23473609901E+02  0.29537988861E+02  0.00000000000E+00 0. -1.
</event>
<event>
 5    1  0.6924865E-004  0.9118800E+02  0.7818608E-02  0.1130116E+00
         25   -1    0    0    0    0  0.00000000000E+00  0.00000000000E+00  0.99999998245E-14  0.12500000000E+03  0.12500000000E+03 0.  0.
        -13    1    3    3    0    0 -0.13406343389E+02 -0.39603404707E+02  0.37033898312E+02  0.55854100080E+02  0.10566000000E+00 0.  1.
         23    2    1    0    0    0 -0.23853131217E+02 -0.16665345574E+02  0.69836974970E+01  0.95075467544E+02  0.90243375857E+02 0.  0.
         13    1    3    3    0    0 -0.10446787828E+02  0.22938059133E+02 -0.30050200815E+02  0.39221367464E+02  0.10566000000E+00 0. -1.
         22    1    1    0    0    0  0.23853131217E+02  0.16665345574E+02 -0.69836974970E+01  0.29924532456E+02  0.00000000000E+00 0.  1.
</event>
<event>
 5    1  0.6924865E-004  0.9118800E+02  0.7818608E-02  0.1130116E+00
         25   -1    0    0    0    0  0.00000000000E+00  0.00000000000E+00  0.99999998245E-14  0.12500000000E+03  0.12500000000E+03 0.  0.
        -13    1    3    3    0    0 -0.30234098571E+02 -0.34078393089E+02  0.22687225053E+02  0.50893604083E+02  0.10566000000E+00 0. -1.
         23    2    1    0    0    0 -0.18465432616E+02  0.12597081967E+02  0.86085954264E+01  0.10104657455E+03  0.98166407882E+02 0.  0.
         13    1    3    3    0    0  0.11768665955E+02  0.46675475056E+02 -0.14078629626E+02  0.50152970463E+02  0.10566000000E+00 0.  1.
         22    1    1    0    0    0  0.18465432616E+02 -0.12597081967E+02 -0.86085954264E+01  0.23953425454E+02  0.00000000000E+00 0. -1.
</event>
<event>
 5    1  0.6924865E-004  0.9118800E+02  0.7818608E-02  0.1130116E+00
         25   -1    0    0    0    0  0.00000000000E+00  0.00000000000E+00  0.99999998245E-14  0.12500000000E+03  0.12500000000E+03 0.  0.
        -13    1    3    3    0    0 -0.29628235662E+02  0.27053851796E+01  0.38877142173E+02  0.48955028394E+02  0.10566000000E+00 0.  1.
         23    2    1    0    0    0  0.14135631428E+02  0.76587704999E+01  0.25264111980E+02  0.95054245783E+02  0.90213975890E+02 0.  0.
         13    1    3    3    0    0  0.43763867091E+02  0.49533853203E+01 -0.13613030193E+02  0.46099217390E+02  0.10566000000E+00 0. -1.
         22    1    1    0    0    0 -0.14135631428E+02 -0.76587704999E+01 -0.25264111980E+02  0.29945754217E+02  0.00000000000E+00 0. -1.
</event>
<event>
 5    1  0.6924865E-004  0.9118800E+02  0.7818608E-02  0.1130116E+00
         25   -1    0    0    0    0  0.00000000000E+00  0.00000000000E+00  0.99999998245E-14  0.12500000000E+03  0.12500000000E+03 0.  0.
        -13    1    3    3    0    0 -0.40554339053E+02 -0.14288178504E+02 -0.35377718962E+02  0.55681241221E+02  0.10566000000E+00 0. -1.
         23    2    1    0    0    0 -0.31125957007E+01 -0.22255996794E+01 -0.29259676389E+02  0.95491184227E+02  0.90817377505E+02 0.  0.
         13    1    3    3    0    0  0.37441743353E+02  0.12062578824E+02  0.61180425728E+01  0.39809943006E+02  0.10566000000E+00 0.  1.
         22    1    1    0    0    0  0.31125957007E+01  0.22255996794E+01  0.29259676389E+02  0.29508815773E+02  0.00000000000E+00 0. -1.
</event>
<event>
 5    1  0.6924865E-004  0.9118800E+02  0.7818608E-02  0.1130116E+00
         25   -1    0    0    0    0  0.00000000000E+00  0.00000000000E+00  0.99999998245E-14  0.12500000000E+03  0.12500000000E+03 0.  0.
        -13    1    3    3    0    0  0.21326419801E+02  0.27409619267E+02  0.44688643046E+02  0.56596725976E+02  0.10566000000E+00 0. -1.
         23    2    1    0    0    0  0.25000105328E+02  0.15721805921E+02  0.93134567583E+01  0.94033551630E+02  0.88788444674E+02 0.  0.
         13    1    3    3    0    0  0.36736855277E+01 -0.11687813346E+02 -0.35375186288E+02  0.37436825654E+02  0.10566000000E+00 0.  1.
         22    1    1    0    0    0 -0.25000105328E+02 -0.15721805921E+02 -0.93134567583E+01  0.30966448370E+02  0.00000000000E+00 0. -1.
</event>
<event>
 5    1  0.6924865E-004  0.9118800E+02  0.7818608E-02  0.1130116E+00
         25   -1    0    0    0    0  0.00000000000E+00  0.00000000000E+00  0.99999998245E-14  0.12500000000E+03  0.12500000000E+03 0.  0.
        -13    1    3    3    0    0  0.14404400527E+02  0.46448061713E+02 -0.29072786442E+02  0.56658161521E+02  0.10566000000E+00 0.  1.
         23    2    1    0    0    0 -0.11985023363E+02  0.20286901963E+02 -0.17735395676E+02  0.95508587080E+02  0.90841327434E+02 0.  0.
         13    1    3    3    0    0 -0.26389423890E+02 -0.26161159750E+02  0.11337390766E+02  0.38850425559E+02  0.10566000000E+00 0. -1.
         22    1    1    0    0    0  0.11985023363E+02 -0.20286901963E+02  0.17735395676E+02  0.29491412920E+02  0.00000000000E+00 0.  1.
</event>
<event>
 5    1  0.6924865E-004  0.9118800E+02  0.7818608E-02  0.1130116E+00
         25   -1    0    0    0    0  0.00000000000E+00  0.00000000000E+00  0.99999998245E-14  0.12500000000E+03  0.12500000000E+03 0.  0.
        -13    1    3    3    0    0 -0.40072589265E+02  0.10601781452E+02  0.63603769726E+01  0.41936568047E+02  0.10566000000E+00 0.  1.
         23    2    1    0    0    0 -0.16259048410E+02 -0.18582293408E+02 -0.24188920736E+02  0.90434668092E+02  0.83568337444E+02 0.  0.
         13    1    3    3    0    0  0.23813540854E+02 -0.29184074860E+02 -0.30549297709E+02  0.48498100045E+02  0.10566000000E+00 0. -1.
         22    1    1    0    0    0  0.16259048410E+02  0.18582293408E+02  0.24188920736E+02  0.34565331908E+02  0.00000000000E+00 0. -1.
</event>
<event>
 5    1  0.6924865E-004  0.9118800E+02  0.7818608E-02  0.1130116E+00
         25   -1    0    0    0    0  0.00000000000E+00  0.00000000000E+00  0.99999998245E-14  0.12500000000E+03  0.12500000000E+03 0.  0.
        -13    1    3    3    0    0  0.25669748264E+02  0.68306434889E+01 -0.48096510126E+02  0.54944327431E+02  0.10566000000E+00 0.  1.
         23    2    1    0    0    0 -0.45157903074E+01 -0.98197567105E+01 -0.28320074794E+02  0.94687517088E+02  0.89704399402E+02 0.  0.
         13    1    3    3    0    0 -0.30185538572E+02 -0.16650400199E+02  0.19776435333E+02  0.39743189658E+02  0.10566000000E+00 0. -1.
         22    1    1    0    0    0  0.45157903074E+01  0.98197567105E+01  0.28320074794E+02  0.30312482912E+02  0.00000000000E+00 0.  1.
</event>
<event>
 5    1  0.6924865E-004  0.9118800E+02  0.7818608E-02  0.1130116E+00
         25   -1    0    0    0    0  0.00000000000E+00  0.00000000000E+00  0.99999998245E-14  0.12500000000E+03  0.12500000000E+03 0.  0.
        -13    1    3    3    0    0 -0.25662459483E+02  0.69856561152E+01 -0.23966315075E+02  0.35801629018E+02  0.10566000000E+00 0. -1.
         23    2    1    0    0    0  0.12476184929E+02  0.19338382045E+02  0.19429857528E+02  0.94881109349E+02  0.89973759159E+02 0.  0.
         13    1    3    3    0    0  0.38138644412E+02  0.12352725930E+02  0.43396172602E+02  0.59079480330E+02  0.10566000000E+00 0.  1.
         22    1    1    0    0    0 -0.12476184929E+02 -0.19338382045E+02 -0.19429857528E+02  0.30118890651E+02  0.00000000000E+00 0.  1.
</event>
<event>
 5    1  0.6924865E-004  0.9118800E+02  0.7818608E-02  0.1130116E+00
         25   -1    0    0    0    0  0.00000000000E+00  0.00000000000E+00  0.99999998245E-14  0.12500000000E+03  0.12500000000E+03 0.  0.
        -13    1    3    3    0    0 -0.28475912462E+02 -0.49444955223E+02 -0.14737045741E+02  0.58931085759E+02  0.10566000000E+00 0.  1.
         23    2    1    0    0    0 -0.14512233262E+02 -0.27958923592E+02  0.72265503010E+01  0.92680820680E+02  0.86863140457E+02 0.  0.
         13    1    3    3    0    0  0.13963679200E+02  0.21486031632E+02  0.21963596042E+02  0.33749734921E+02  0.10566000000E+00 0. -1.
         22    1    1    0    0    0  0.14512233262E+02  0.27958923592E+02 -0.72265503010E+01  0.32319179320E+02  0.00000000000E+00 0.  1.
</event>
<event>
 5    1  0.6924865E-004  0.9118800E+02  0.7818608E-02  0.1130116E+00
         25   -1    0    0    0    0  0.00000000000E+00  0.00000000000E+00  0.99999998245E-14  0.12500000000E+03  0.12500000000E+03 0.  0.
        -13    1    3    3    0    0  0.52399321321E+02  0.27865692967E+02 -0.17661779933E+02  0.61920395298E+02  0.10566000000E+00 0.  1.
         23    2    1    0    0    0  0.22589390110E+02  0.11310245630E+02 -0.13736203772E+02  0.96244383230E+02  0.91848221580E+02 0.  0.
         13    1    3    3    0    0 -0.29809931211E+02 -0.16555447337E+02  0.39255761612E+01  0.34323987932E+02  0.10566000000E+00 0. -1.
         22    1    1    0    0    0 -0.22589390110E+02 -0.11310245630E+02  0.13736203772E+02  0.28755616770E+02  0.00000000000E+00 0.  1.
</event>
<event>
 5    1  0.6924865E-004  0.9118800E+02  0.7818608E-02  0.1130116E+00
         25   -1    0    0    0    0  0.00000000000E+00  0.00000000000E+00  0.99999998245E-14  0.12500000000E+03  0.12500000000E+03 0.  0.
        -13    1    3    3    0    0  0.28683457646E+01 -0.41440626162E+02 -0.37224039786E+02  0.55778071015E+02  0.10566000000E+00 0.  1.
         23    2    1    0    0    0 -0.14091467401E+02 -0.25200993222E+02 -0.49260978079E+01  0.95709626966E+02  0.91117543544E+02 0.  0.
         13    1    3    3    0    0 -0.16959813166E+02  0.16239632940E+02  0.32297941978E+02  0.39931555951E+02  0.10566000000E+00 0. -1.
         22    1    1    0    0    0  0.14091467401E+02  0.25200993222E+02  0.49260978079E+01  0.29290373034E+02  0.00000000000E+00 0.  1.
</event>
<event>
 5    1  0.6924865E-004  0.9118800E+02  0.7818608E-02  0.1130116E+00
         25   -1    0    0    0    0  0.00000000000E+00  0.00000000000E+00  0.99999998245E-14  0.12500000000E+03  0.12500000000E+03 0.  0.
        -13    1    3    3    0    0 -0.94471991550E+01  0.61227116480E+01  0.24729267686E+02  0.27171400665E+02  0.10566000000E+00 0. -1.
         23    2    1    0    0    0  0.34468518331E+02  0.28996640803E+02  0.96215202220E+01  0.78940716623E+02  0.64110678953E+02 0.  0.
         13    1    3    3    0    0  0.43915717486E+02  0.22873929155E+02 -0.15107747464E+02  0.51769315958E+02  0.10566000000E+00 0.  1.
         22    1    1    0    0    0 -0.34468518331E+02 -0.28996640803E+02 -0.96215202220E+01  0.46059283377E+02  0.00000000000E+00 0.  1.
</event>
<event>
 5    1  0.6924865E-004  0.9118800E+02  0.7818608E-02  0.1130116E+00
         25   -1    0    0    0    0  0.00000000000E+00  0.00000000000E+00  0.99999998245E-14  0.12500000000E+03  0.12500000000E+03 0.  0.
        -13    1    3    3    0    0  0.82685648402E+01 -0.40767374428E+02  0.10275730628E+02  0.42847984622E+02  0.10566000000E+00 0. -1.
         23    2    1    0    0    0 -0.17919029620E+02 -0.16943660399E+02 -0.22885350132E+02  0.91356003494E+02  0.84935274613E+02 0.  0.
         13    1    3    3    0    0 -0.26187594460E+02  0.23823714028E+02 -0.33161080759E+02  0.48508018872E+02  0.10566000000E+00 0.  1.
         22    1    1    0    0    0  0.17919029620E+02  0.16943660399E+02  0.22885350132E+02  0.33643996506E+02  0.00000000000E+00 0.  1.
</event>
<event>
 5    1  0.6924865E-004  0.9118800E+02  0.7818608E-02  0.1130116E+00
         25   -1    0    0    0    0  0.00000000000E+00  0.00000000000E+00  0.99999998245E-14  0.12500000000E+03  0.12500000000E+03 0.  0.
        -13    1    3    3    0    0 -0.32772368587E+02 -0.17972171485E+02 -0.86656725938E+01  0.38368374167E+02  0.10566000000E+00 0.  1.
         23    2    1    0    0    0  0.96095542218E+01  0.21856036877E+02 -0.14893332442E+02  0.96860326378E+02  0.92682693069E+02 0.  0.
         13    1    3    3    0    0  0.42381922809E+02  0.39828208362E+02 -0.62276598481E+01  0.58491952211E+02  0.10566000000E+00 0. -1.
         22    1    1    0    0    0 -0.96095542218E+01 -0.21856036877E+02  0.14893332442E+02  0.28139673622E+02  0.00000000000E+00 0. -1.
</event>
<event>
 5    1  0.6924865E-004  0.9118800E+02  0.7818608E-02  0.1130116E+00
         25   -1    0    0    0    0  0.00000000000E+00  0.00000000000E+00  0.99999998245E-14  0.12500000000E+03  0.12500000000E+03 0.  0.
        -13    1    3    3    0    0 -0.10400752714E+02  0.36174786795E+02 -0.30282233443E+02  0.48309581689E+02  0.10566000000E+00 0.  1.
         23    2    1    0    0    0 -0.19275170160E+02  0.17840686318E+02  0.12664231940E+02  0.95841724269E+02  0.91298581956E+02 0.  0.
         13    1    3    3    0    0 -0.88744174459E+01 -0.18334100476E+02  0.42946465383E+02  0.47532142579E+02  0.10566000000E+00 0. -1.
         22    1    1    0    0    0  0.19275170160E+02 -0.17840686318E+02 -0.12664231940E+02  0.29158275731E+02  0.00000000000E+00 0.  1.
</event>
<event>
 5    1  0.6924865E-004  0.9118800E+02  0.7818608E-02  0.1130116E+00
         25   -1    0    0    0    0  0.00000000000E+00  0.00000000000E+00  0.99999998245E-14  0.12500000000E+03  0.12500000000E+03 0.  0.
        -13    1    3    3    0    0  0.33773296192E+02 -0.19829124430E+02  0.18472257135E+02  0.43302022575E+02  0.10566000000E+00 0.  1.
         23    2    1    0    0    0  0.30743606297E+02  0.13357487235E+02 -0.12912284603E+02  0.89078991007E+02  0.81515322190E+02 0.  0.
         13    1    3    3    0    0 -0.30296898953E+01  0.33186611666E+02 -0.31384541738E+02  0.45776968432E+02  0.10566000000E+00 0. -1.
         22    1    1    0    0    0 -0.30743606297E+02 -0.13357487235E+02  0.12912284603E+02  0.35921008993E+02  0.00000000000E+00 0.  1.
</event>
<event>
 5    1  0.6924865E-004  0.9118800E+02  0.7818608E-02  0.1130116E+00
         25   -1    0    0    0    0  0.00000000000E+00  0.00000000000E+00  0.99999998245E-14  0.12500000000E+03  0.12500000000E+03 0.  0.
        -13    1    3    3    0    0 -0.32508539139E+02 -0.46409633734E+02  0.20333479018E+02  0.60200670705E+02  0.10566000000E+00 0.  1.
         23    2    1    0    0    0 -0.65631617556E+01 -0.17895295763E+02  0.17936366431E+02  0.98826923310E+02  0.95298115550E+02 0.  0.
         13    1    3    3    0    0  0.25945377383E+02  0.28514337972E+02 -0.23971125871E+01  0.38626252605E+02  0.10566000000E+00 0. -1.
         22    1    1    0    0    0  0.65631617556E+01  0.17895295763E+02 -0.17936366431E+02  0.26173076690E+02  0.00000000000E+00 0.  1.
</event>
<event>
 5    1  0.6924865E-004  0.9118800E+02  0.7818608E-02  0.1130116E+00
         25   -1    0    0    0    0  0.00000000000E+00  0.00000000000E+00  0.99999998245E-14  0.12500000000E+03  0.12500000000E+03 0.  0.
        -13    1    3    3    0    0 -0.69823296558E+01 -0.58083985863E+02  0.76157493057E+01  0.58995873946E+02  0.10566000000E+00 0.  1.
         23    2    1    0    0    0 -0.13026324371E+02 -0.22273823004E+02  0.13647089033E+02  0.95810081245E+02  0.91255248130E+02 0.  0.
         13    1    3    3    0    0 -0.60439947155E+01  0.35810162859E+02  0.60313397271E+01  0.36814207299E+02  0.10566000000E+00 0. -1.
         22    1    1    0    0    0  0.13026324371E+02  0.22273823004E+02 -0.13647089033E+02  0.29189918755E+02  0.00000000000E+00 0.  1.
</event>
<event>
 5    1  0.6924865E-004  0.9118800E+02  0.7818608E-02  0.1130116E+00
         25   -1    0    0    0    0  0.00000000000E+00  0.00000000000E+00  0.99999998245E-14  0.12500000000E+03  0.12500000000E+03 0.  0.
        -13    1    3    3    0    0  0.19925381557E+01 -0.31530883941E+02 -0.33292988788E+02  0.45897724528E+02  0.10566000000E+00 0. -1.
         23    2    1    0    0    0 -0.23455333529E+02  0.76918123128E+01 -0.15073942531E+02  0.96076992013E+02  0.91620128810E+02 0.  0.
         13    1    3    3    0    0 -0.25447871685E+02  0.39222696254E+02  0.18219046257E+02  0.50179267484E+02  0.10566000000E+00 0.  1.
         22    1    1    0    0    0  0.23455333529E+02 -0.76918123128E+01  0.15073942531E+02  0.28923007987E+02  0.00000000000E+00 0.  1.
</event>
<event>
 5    1  0.6924865E-004  0.9118800E+02  0.7818608E-02  0.1130116E+00
         25   -1    0    0    0    0  0.00000000000E+00  0.00000000000E+00  0.99999998245E-14  0.12500000000E+03  0.12500000000E+03 0.  0.
        -13    1    3    3    0    0 -0.28035701912E+02 -0.13781151928E+02 -0.10111199519E+02  0.32835472433E+02  0.10566000000E+00 0.  1.
         23    2    1    0    0    0  0.14519866589E+02  0.26494289135E+02  0.72190895943E+01  0.93937335319E+02  0.88652883933E+02 0.  0.
         13    1    3    3    0    0  0.42555568501E+02  0.40275441063E+02  0.17330289113E+02  0.61101862885E+02  0.10566000000E+00 0. -1.
         22    1    1    0    0    0 -0.14519866589E+02 -0.26494289135E+02 -0.72190895943E+01  0.31062664681E+02  0.00000000000E+00 0. -1.
</event>
<event>
 5    1  0.6924865E-004  0.9118800E+02  0.7818608E-02  0.1130116E+00
         25   -1    0    0    0    0  0.00000000000E+00  0.00000000000E+00  0.99999998245E-14  0.12500000000E+03  0.12500000000E+03 0.  0.
        -13    1    3    3    0    0 -0.35911705931E+02 -0.14903999493E+02  0.18126693095E+02  0.42899510375E+02  0.10566000000E+00 0.  1.
         23    2    1    0    0    0  0.13338264273E+02 -0.25608317591E+02  0.10736746631E+01  0.96106263638E+02  0.91660056238E+02 0.  0.
         13    1    3    3    0    0  0.49249970205E+02 -0.10704318098E+02 -0.17053018432E+02  0.53206753263E+02  0.10566000000E+00 0. -1.
         22    1    1    0    0    0 -0.13338264273E+02  0.25608317591E+02 -0.10736746631E+01  0.28893736362E+02  0.00000000000E+00 0. -1.
</event>
<event>
 5    1  0.6924865E-004  0.9118800E+02  0.7818608E-02  0.1130116E+00
         25   -1    0    0    0    0  0.00000000000E+00  0.00000000000E+00  0.99999998245E-14  0.12500000000E+03  0.12500000000E+03 0.  0.
        -13    1    3    3    0    0  0.47067869385E+01 -0.47520178848E+02 -0.25394601168E+02  0.54085286110E+02  0.10566000000E+00 0.  1.
         23    2    1    0    0    0  0.25000924028E+02 -0.20504602609E+02 -0.10583459632E+02  0.90978028450E+02  0.84377171749E+02 0.  0.
         13    1    3    3    0    0  0.20294137089E+02  0.27015576239E+02  0.14811141536E+02  0.36892742340E+02  0.10566000000E+00 0. -1.
         22    1    1    0    0    0 -0.25000924028E+02  0.20504602609E+02  0.10583459632E+02  0.34021971550E+02  0.00000000000E+00 0.  1.
</event>
<event>
 5    1  0.6924865E-004  0.9118800E+02  0.7818608E-02  0.1130116E+00
         25   -1    0    0    0    0  0.00000000000E+00  0.00000000000E+00  0.99999998245E-14  0.12500000000E+03  0.12500000000E+03 0.  0.
        -13    1    3    3    0    0 -0.33572334483E+02  0.17339921236E+02 -0.23521773476E+02  0.44509094605E+02  0.10566000000E+00 0. -1.
         23    2    1    0    0    0  0.21569222083E+01  0.25426687235E+02  0.13106651218E+02  0.96312841840E+02  0.91941342496E+02 0.  0.
         13    1    3    3    0    0  0.35729256691E+02  0.80867659990E+01  0.36628424694E+02  0.51803747235E+02  0.10566000000E+00 0.  1.
         22    1    1    0    0    0 -0.21569222083E+01 -0.25426687235E+02 -0.13106651218E+02  0.28687158160E+02  0.00000000000E+00 0. -1.
</event>
<event>
 5    1  0.6924865E-004  0.9118800E+02  0.7818608E-02  0.1130116E+00
         25   -1    0    0    0    0  0.00000000000E+00  0.00000000000E+00  0.99999998245E-14  0.12500000000E+03  0.12500000000E+03 0.  0.
        -13    1    3    3    0    0  0.33640500752E+02 -0.19536610568E+01  0.59912566256E+01  0.34225814853E+02  0.10566000000E+00 0. -1.
         23    2    1    0    0    0 -0.24646926366E+02 -0.70221074530E+01 -0.13677413253E+02  0.95950858779E+02  0.91447879663E+02 0.  0.
         13    1    3    3    0    0 -0.58287427118E+02 -0.50684463962E+01 -0.19668669879E+02  0.61725043926E+02  0.10566000000E+00 0.  1.
         22    1    1    0    0    0  0.24646926366E+02  0.70221074530E+01  0.13677413253E+02  0.29049141221E+02  0.00000000000E+00 0.  1.
</event>
<event>
 5    1  0.6924865E-004  0.9118800E+02  0.7818608E-02  0.1130116E+00
         25   -1    0    0    0    0  0.00000000000E+00  0.00000000000E+00  0.99999998245E-14  0.12500000000E+03  0.12500000000E+03 0.  0.
        -13    1    3    3    0    0 -0.28104855683E+02 -0.32353122177E+02  0.13137810383E+01  0.42875921124E+02  0.10566000000E+00 0.  1.
         23    2    1    0    0    0 -0.11190618111E+02  0.12866659662E+02  0.23463856106E+02  0.95994252157E+02  0.91507174797E+02 0.  0.
         13    1    3    3    0    0  0.16914237572E+02  0.45219781839E+02  0.22150075068E+02  0.53118331033E+02  0.10566000000E+00 0. -1.
         22    1    1    0    0    0  0.11190618111E+02 -0.12866659662E+02 -0.23463856106E+02  0.29005747843E+02  0.00000000000E+00 0. -1.
</event>
<event>
 5    1  0.6924865E-004  0.9118800E+02  0.7818608E-02  0.1130116E+00
         25   -1    0    0    0    0  0.00000000000E+00  0.00000000000E+00  0.99999998245E-14  0.12500000000E+03  0.12500000000E+03 0.  0.
        -13    1    3    3    0    0  0.35058663296E+02 -0.28441241586E+02 -0.47842798704E+01  0.45397297199E+02  0.10566000000E+00 0.  1.
         23    2    1    0    0    0 -0.42134617277E+01 -0.16610896659E+02  0.24003267383E+02  0.95507085722E+02  0.90839261504E+02 0.  0.
         13    1    3    3    0    0 -0.39272125024E+02  0.11830344927E+02  0.28787547253E+02  0.50109788523E+02  0.10566000000E+00 0. -1.
         22    1    1    0    0    0  0.42134617277E+01  0.16610896659E+02 -0.24003267383E+02  0.29492914278E+02  0.00000000000E+00 0. -1.
</event>
<event>
 5    1  0.6924865E-004  0.9118800E+02  0.7818608E-02  0.1130116E+00
         25   -1    0    0    0    0  0.00000000000E+00  0.00000000000E+00  0.99999998245E-14  0.12500000000E+03  0.12500000000E+03 0.  0.
        -13    1    3    3    0    0  0.36927912620E+02  0.19096993142E+02  0.34933335023E+02  0.54302071207E+02  0.10566000000E+00 0. -1.
         23    2    1    0    0    0  0.58378396087E+01  0.26369992964E+02  0.61277398406E+01  0.97305125099E+02  0.93280658632E+02 0.  0.
         13    1    3    3    0    0 -0.31090073011E+02  0.72729998223E+01 -0.28805595182E+02  0.43003053892E+02  0.10566000000E+00 0.  1.
         22    1    1    0    0    0 -0.58378396087E+01 -0.26369992964E+02 -0.61277398406E+01  0.27694874901E+02  0.00000000000E+00 0. -1.
</event>
<event>
 5    1  0.6924865E-004  0.9118800E+02  0.7818608E-02  0.1130116E+00
         25   -1    0    0    0    0  0.00000000000E+00  0.00000000000E+00  0.99999998245E-14  0.12500000000E+03  0.12500000000E+03 0.  0.
        -13    1    3    3    0    0  0.19615013251E+02  0.39194013666E+01 -0.44784457071E+02  0.49048641276E+02  0.10566000000E+00 0.  1.
         23    2    1    0    0    0 -0.15471258348E+02 -0.14471528315E+02 -0.20538736373E+02  0.95493650540E+02  0.90820772046E+02 0.  0.
         13    1    3    3    0    0 -0.35086271600E+02 -0.18390929682E+02  0.24245720698E+02  0.46445009264E+02  0.10566000000E+00 0. -1.
         22    1    1    0    0    0  0.15471258348E+02  0.14471528315E+02  0.20538736373E+02  0.29506349460E+02  0.00000000000E+00 0.  1.
</event>
<event>
 5    1  0.6924865E-004  0.9118800E+02  0.7818608E-02  0.1130116E+00
         25   -1    0    0    0    0  0.00000000000E+00  0.00000000000E+00  0.99999998245E-14  0.12500000000E+03  0.12500000000E+03 0.  0.
        -13    1    3    3    0    0  0.13676338664E+02 -0.27158951962E+02 -0.21015159624E+02  0.36963482100E+02  0.10566000000E+00 0.  1.
         23    2    1    0    0    0 -0.29691855233E+02  0.15831268917E+01  0.45273377287E+01  0.94923275697E+02  0.90032321553E+02 0.  0.
         13    1    3    3    0    0 -0.43368193897E+02  0.28742078854E+02  0.25542497353E+02  0.57959793596E+02  0.10566000000E+00 0. -1.
         22    1    1    0    0    0  0.29691855233E+02 -0.15831268917E+01 -0.45273377287E+01  0.30076724303E+02  0.00000000000E+00 0. -1.
</event>
<event>
 5    1  0.6924865E-004  0.9118800E+02  0.7818608E-02  0.1130116E+00
         25   -1    0    0    0    0  0.00000000000E+00  0.00000000000E+00  0.99999998245E-14  0.12500000000E+03  0.12500000000E+03 0.  0.
        -13    1    3    3    0    0 -0.12982076957E+02  0.30915376732E+02 -0.73288313033E+01  0.34322263517E+02  0.10566000000E+00 0. -1.
         23    2    1    0    0    0  0.22337026521E+02 -0.17319879835E+02  0.71712545541E+01  0.95839274989E+02  0.91295228502E+02 0.  0.
         13    1    3    3    0    0  0.35319103478E+02 -0.48235256567E+02  0.14500085857E+02  0.61517011472E+02  0.10566000000E+00 0.  1.
         22    1    1    0    0    0 -0.22337026521E+02  0.17319879835E+02 -0.71712545541E+01  0.29160725011E+02  0.00000000000E+00 0.  1.
</event>
<event>
 5    1  0.6924865E-004  0.9118800E+02  0.7818608E-02  0.1130116E+00
         25   -1    0    0    0    0  0.00000000000E+00  0.00000000000E+00  0.99999998245E-14  0.12500000000E+03  0.12500000000E+03 0.  0.
        -13    1    3    3    0    0 -0.17930357041E+02  0.24194015947E+02 -0.29462223419E+02  0.42129347064E+02  0.10566000000E+00 0. -1.
         23    2    1    0    0    0 -0.14390423680E+02 -0.24517329973E+02 -0.80747071404E+01  0.95446917960E+02  0.90756429469E+02 0.  0.
         13    1    3    3    0    0  0.35399333609E+01 -0.48711345920E+02  0.21387516278E+02  0.53317570895E+02  0.10566000000E+00 0.  1.
         22    1    1    0    0    0  0.14390423680E+02  0.24517329973E+02  0.80747071404E+01  0.29553082040E+02  0.00000000000E+00 0.  1.
</event>
<event>
 4    1  0.6924865E-004  0.9118800E+02  0.7818608E-02  0.1130116E+00
         25   -1    0    0    0    0  0.00000000000E+00  0.00000000000E+00  0.99999998245E-14  0.12500000000E+03  0.12500000000E+03 0.  0.
        -13    1    1    0    0    0  0.21352924757E+02  0.85368619681E+01  0.11327578040E+01  0.23024328703E+02  0.10566000000E+00 0. -1.
         13    1    1    0    0    0  0.11915865718E+02  0.34583804242E+02 -0.23085612937E+02  0.43254873256E+02  0.10566000000E+00 0.  1.
         22    1    1    0    0    0 -0.33268790475E+02 -0.43120666210E+02  0.21952855133E+02  0.58720798041E+02  0.00000000000E+00 0. -1.
</event>
<event>
 5    1  0.6924865E-004  0.9118800E+02  0.7818608E-02  0.1130116E+00
         25   -1    0    0    0    0  0.00000000000E+00  0.00000000000E+00  0.99999998245E-14  0.12500000000E+03  0.12500000000E+03 0.  0.
        -13    1    3    3    0    0  0.20095705815E+02 -0.25174685104E+02 -0.10945226498E+02  0.34020748219E+02  0.10566000000E+00 0.  1.
         23    2    1    0    0    0 -0.12282340752E+02  0.26386681584E+02  0.75756944183E-01  0.95894698103E+02  0.91371081453E+02 0.  0.
         13    1    3    3    0    0 -0.32378046567E+02  0.51561366688E+02  0.11020983442E+02  0.61873949884E+02  0.10566000000E+00 0. -1.
         22    1    1    0    0    0  0.12282340752E+02 -0.26386681584E+02 -0.75756944183E-01  0.29105301897E+02  0.00000000000E+00 0. -1.
</event>
<event>
 5    1  0.6924865E-004  0.9118800E+02  0.7818608E-02  0.1130116E+00
         25   -1    0    0    0    0  0.00000000000E+00  0.00000000000E+00  0.99999998245E-14  0.12500000000E+03  0.12500000000E+03 0.  0.
        -13    1    3    3    0    0 -0.38372448028E+02  0.85852263379E+01  0.10619331751E+02  0.40729992019E+02  0.10566000000E+00 0.  1.
         23    2    1    0    0    0 -0.17312271204E+01 -0.16798709563E+02 -0.22931853603E+02  0.96520819886E+02  0.92223668174E+02 0.  0.
         13    1    3    3    0    0  0.36641220908E+02 -0.25383935901E+02 -0.33551185353E+02  0.55790827867E+02  0.10566000000E+00 0. -1.
         22    1    1    0    0    0  0.17312271204E+01  0.16798709563E+02  0.22931853603E+02  0.28479180114E+02  0.00000000000E+00 0. -1.
</event>
<event>
 5    1  0.6924865E-004  0.9118800E+02  0.7818608E-02  0.1130116E+00
         25   -1    0    0    0    0  0.00000000000E+00  0.00000000000E+00  0.99999998245E-14  0.12500000000E+03  0.12500000000E+03 0.  0.
        -13    1    3    3    0    0  0.21767649706E+02  0.26644667245E+02  0.32455712984E+01  0.34558844937E+02  0.10566000000E+00 0. -1.
         23    2    1    0    0    0 -0.71140138146E+00 -0.29490995110E+02 -0.29925704377E+01  0.95349024260E+02  0.90621498912E+02 0.  0.
         13    1    3    3    0    0 -0.22479051087E+02 -0.56135662355E+02 -0.62381417360E+01  0.60790179323E+02  0.10566000000E+00 0.  1.
         22    1    1    0    0    0  0.71140138146E+00  0.29490995110E+02  0.29925704377E+01  0.29650975740E+02  0.00000000000E+00 0.  1.
</event>
<event>
 5    1  0.6924865E-004  0.9118800E+02  0.7818608E-02  0.1130116E+00
         25   -1    0    0    0    0  0.00000000000E+00  0.00000000000E+00  0.99999998245E-14  0.12500000000E+03  0.12500000000E+03 0.  0.
        -13    1    3    3    0    0 -0.15750691438E+01 -0.26368557132E+01 -0.35453734529E+02  0.35586687215E+02  0.10566000000E+00 0.  1.
         23    2    1    0    0    0  0.16358946094E+02 -0.66755729008E+01  0.22503198271E+02  0.96389297050E+02  0.92045229439E+02 0.  0.
         13    1    3    3    0    0  0.17934015237E+02 -0.40387171875E+01  0.57956932800E+02  0.60802609835E+02  0.10566000000E+00 0. -1.
         22    1    1    0    0    0 -0.16358946094E+02  0.66755729008E+01 -0.22503198271E+02  0.28610702950E+02  0.00000000000E+00 0. -1.
</event>
<event>
 5    1  0.6924865E-004  0.9118800E+02  0.7818608E-02  0.1130116E+00
         25   -1    0    0    0    0  0.00000000000E+00  0.00000000000E+00  0.99999998245E-14  0.12500000000E+03  0.12500000000E+03 0.  0.
        -13    1    3    3    0    0  0.18274469529E+02 -0.26472313015E+02 -0.21618914794E+02  0.38757299104E+02  0.10566000000E+00 0.  1.
         23    2    1    0    0    0 -0.13166962686E+02 -0.43157664620E+01  0.23298051817E+02  0.97892916700E+02  0.94065026312E+02 0.  0.
         13    1    3    3    0    0 -0.31441432215E+02  0.22156546553E+02  0.44916966611E+02  0.59135617596E+02  0.10566000000E+00 0. -1.
         22    1    1    0    0    0  0.13166962686E+02  0.43157664620E+01 -0.23298051817E+02  0.27107083300E+02  0.00000000000E+00 0. -1.
</event>
<event>
 5    1  0.6924865E-004  0.9118800E+02  0.7818608E-02  0.1130116E+00
         25   -1    0    0    0    0  0.00000000000E+00  0.00000000000E+00  0.99999998245E-14  0.12500000000E+03  0.12500000000E+03 0.  0.
        -13    1    3    3    0    0  0.30368298843E+02  0.16734692783E+02 -0.41414732802E+00  0.34676594400E+02  0.10566000000E+00 0.  1.
         23    2    1    0    0    0 -0.13246545150E+02 -0.25528378677E+02  0.55765245681E+01  0.95703810785E+02  0.91109564241E+02 0.  0.
         13    1    3    3    0    0 -0.43614843993E+02 -0.42263071460E+02  0.59906718962E+01  0.61027216384E+02  0.10566000000E+00 0. -1.
         22    1    1    0    0    0  0.13246545150E+02  0.25528378677E+02 -0.55765245681E+01  0.29296189215E+02  0.00000000000E+00 0. -1.
</event>
<event>
 5    1  0.6924865E-004  0.9118800E+02  0.7818608E-02  0.1130116E+00
         25   -1    0    0    0    0  0.00000000000E+00  0.00000000000E+00  0.99999998245E-14  0.12500000000E+03  0.12500000000E+03 0.  0.
        -13    1    3    3    0    0 -0.18022174398E+02  0.25266421129E+02 -0.13487149230E+02  0.33839402552E+02  0.10566000000E+00 0. -1.
         23    2    1    0    0    0  0.27349545060E+02 -0.84960515911E+01  0.94111882958E+01  0.94854503275E+02  0.89936787906E+02 0.  0.
         13    1    3    3    0    0  0.45371719459E+02 -0.33762472720E+02  0.22898337525E+02  0.61015100723E+02  0.10566000000E+00 0.  1.
         22    1    1    0    0    0 -0.27349545060E+02  0.84960515911E+01 -0.94111882958E+01  0.30145496725E+02  0.00000000000E+00 0.  1.
</event>
<event>
 5    1  0.6924865E-004  0.9118800E+02  0.7818608E-02  0.1130116E+00
         25   -1    0    0    0    0  0.00000000000E+00  0.00000000000E+00  0.99999998245E-14  0.12500000000E+03  0.12500000000E+03 0.  0.
        -13    1    3    3    0    0 -0.39209136161E+02 -0.80412842794E+01 -0.13545851048E+02  0.42255412151E+02  0.10566000000E+00 0. -1.
         23    2    1    0    0    0  0.34223199746E+00 -0.23193114516E+02  0.18470155684E+02  0.95348957275E+02  0.90621406515E+02 0.  0.
         13    1    3    3    0    0  0.39551368159E+02 -0.15151830237E+02  0.32016006732E+02  0.53093545124E+02  0.10566000000E+00 0.  1.
         22    1    1    0    0    0 -0.34223199746E+00  0.23193114516E+02 -0.18470155684E+02  0.29651042725E+02  0.00000000000E+00 0.  1.
</event>
<event>
 5    1  0.6924865E-004  0.9118800E+02  0.7818608E-02  0.1130116E+00
         25   -1    0    0    0    0  0.00000000000E+00  0.00000000000E+00  0.99999998245E-14  0.12500000000E+03  0.12500000000E+03 0.  0.
        -13    1    3    3    0    0 -0.36247692076E+02 -0.17175499175E+02  0.19169503204E+02  0.44456427768E+02  0.10566000000E+00 0. -1.
         23    2    1    0    0    0 -0.14904621894E+02 -0.43164542547E+01 -0.25235821805E+02  0.95375242899E+02  0.90657656735E+02 0.  0.
         13    1    3    3    0    0  0.21343070183E+02  0.12859044921E+02 -0.44405325009E+02  0.50918815131E+02  0.10566000000E+00 0.  1.
         22    1    1    0    0    0  0.14904621894E+02  0.43164542547E+01  0.25235821805E+02  0.29624757101E+02  0.00000000000E+00 0.  1.
</event>
<event>
 5    1  0.6924865E-004  0.9118800E+02  0.7818608E-02  0.1130116E+00
         25   -1    0    0    0    0  0.00000000000E+00  0.00000000000E+00  0.99999998245E-14  0.12500000000E+03  0.12500000000E+03 0.  0.
        -13    1    3    3    0    0 -0.70072157336E+01 -0.38282247932E+02 -0.18802411701E+02  0.43222371857E+02  0.10566000000E+00 0. -1.
         23    2    1    0    0    0  0.12819153486E+02 -0.11081528476E+02  0.22709132098E+02  0.96665645409E+02  0.92419756287E+02 0.  0.
         13    1    3    3    0    0  0.19826369219E+02  0.27200719456E+02  0.41511543799E+02  0.53443273552E+02  0.10566000000E+00 0.  1.
         22    1    1    0    0    0 -0.12819153486E+02  0.11081528476E+02 -0.22709132098E+02  0.28334354591E+02  0.00000000000E+00 0.  1.
</event>
<event>
 5    1  0.6924865E-004  0.9118800E+02  0.7818608E-02  0.1130116E+00
         25   -1    0    0    0    0  0.00000000000E+00  0.00000000000E+00  0.99999998245E-14  0.12500000000E+03  0.12500000000E+03 0.  0.
        -13    1    3    3    0    0 -0.16931620522E+02  0.12178107232E+02 -0.23449139168E+02  0.31382469008E+02  0.10566000000E+00 0.  1.
         23    2    1    0    0    0  0.14904613336E+02 -0.23738544349E+02  0.15298876096E+02  0.93066920031E+02  0.87416989240E+02 0.  0.
         13    1    3    3    0    0  0.31836233858E+02 -0.35916651581E+02  0.38748015264E+02  0.61684451023E+02  0.10566000000E+00 0. -1.
         22    1    1    0    0    0 -0.14904613336E+02  0.23738544349E+02 -0.15298876096E+02  0.31933079969E+02  0.00000000000E+00 0. -1.
</event>
<event>
 5    1  0.6924865E-004  0.9118800E+02  0.7818608E-02  0.1130116E+00
         25   -1    0    0    0    0  0.00000000000E+00  0.00000000000E+00  0.99999998245E-14  0.12500000000E+03  0.12500000000E+03 0.  0.
        -13    1    3    3    0    0 -0.25716917560E+02 -0.32535239208E+01  0.42989044958E+02  0.50199745190E+02  0.10566000000E+00 0.  1.
         23    2    1    0    0    0 -0.26737477917E+02 -0.12505499042E+02 -0.12975151853E+01  0.95454039577E+02  0.90766237634E+02 0.  0.
         13    1    3    3    0    0 -0.10205603575E+01 -0.92519751211E+01 -0.44286560144E+02  0.45254294387E+02  0.10566000000E+00 0. -1.
         22    1    1    0    0    0  0.26737477917E+02  0.12505499042E+02  0.12975151853E+01  0.29545960423E+02  0.00000000000E+00 0.  1.
</event>
<event>
 5    1  0.6924865E-004  0.9118800E+02  0.7818608E-02  0.1130116E+00
         25   -1    0    0    0    0  0.00000000000E+00  0.00000000000E+00  0.99999998245E-14  0.12500000000E+03  0.12500000000E+03 0.  0.
        -13    1    3    3    0    0  0.23516100987E+02 -0.33630634271E+02 -0.14111000700E+02  0.43395369245E+02  0.10566000000E+00 0. -1.
         23    2    1    0    0    0 -0.19365950609E+02 -0.51319481023E+01 -0.21729257109E+02  0.95444331359E+02  0.90752866840E+02 0.  0.
         13    1    3    3    0    0 -0.42882051596E+02  0.28498686169E+02 -0.76182564094E+01  0.52048962114E+02  0.10566000000E+00 0.  1.
         22    1    1    0    0    0  0.19365950609E+02  0.51319481023E+01  0.21729257109E+02  0.29555668641E+02  0.00000000000E+00 0.  1.
</event>
<event>
 5    1  0.6924865E-004  0.9118800E+02  0.7818608E-02  0.1130116E+00
         25   -1    0    0    0    0  0.00000000000E+00  0.00000000000E+00  0.99999998245E-14  0.12500000000E+03  0.12500000000E+03 0.  0.
        -13    1    3    3    0    0 -0.22917296033E+02 -0.16136868273E+02  0.22560258573E+02  0.35980236325E+02  0.10566000000E+00 0. -1.
         23    2    1    0    0    0  0.92040227783E+01 -0.20087712033E+02 -0.23803186995E+02  0.92521977875E+02  0.86634256901E+02 0.  0.
         13    1    3    3    0    0  0.32121318811E+02 -0.39508437600E+01 -0.46363445568E+02  0.56541741550E+02  0.10566000000E+00 0.  1.
         22    1    1    0    0    0 -0.92040227783E+01  0.20087712033E+02  0.23803186995E+02  0.32478022125E+02  0.00000000000E+00 0.  1.
</event>
<event>
 5    1  0.6924865E-004  0.9118800E+02  0.7818608E-02  0.1130116E+00
         25   -1    0    0    0    0  0.00000000000E+00  0.00000000000E+00  0.99999998245E-14  0.12500000000E+03  0.12500000000E+03 0.  0.
        -13    1    3    3    0    0  0.84558796529E+00  0.28654058470E+02  0.12094486652E+02  0.31113628159E+02  0.10566000000E+00 0. -1.
         23    2    1    0    0    0  0.20695150383E+02 -0.26965621596E+02  0.28410681140E+01  0.90889801152E+02  0.84246366615E+02 0.  0.
         13    1    3    3    0    0  0.19849562418E+02 -0.55619680067E+02 -0.92534185381E+01  0.59776172992E+02  0.10566000000E+00 0.  1.
         22    1    1    0    0    0 -0.20695150383E+02  0.26965621596E+02 -0.28410681140E+01  0.34110198848E+02  0.00000000000E+00 0.  1.
</event>
<event>
 5    1  0.6924865E-004  0.9118800E+02  0.7818608E-02  0.1130116E+00
         25   -1    0    0    0    0  0.00000000000E+00  0.00000000000E+00  0.99999998245E-14  0.12500000000E+03  0.12500000000E+03 0.  0.
        -13    1    3    3    0    0  0.21711068787E+02  0.38201173302E+02 -0.42515596165E+02  0.61141534417E+02  0.10566000000E+00 0.  1.
         23    2    1    0    0    0  0.61690327721E+01  0.93781442349E+01 -0.23369212227E+02  0.99074594801E+02  0.95622427810E+02 0.  0.
         13    1    3    3    0    0 -0.15542036015E+02 -0.28823029067E+02  0.19146383938E+02  0.37933060384E+02  0.10566000000E+00 0. -1.
         22    1    1    0    0    0 -0.61690327721E+01 -0.93781442349E+01  0.23369212227E+02  0.25925405199E+02  0.00000000000E+00 0.  1.
</event>
<event>
 5    1  0.6924865E-004  0.9118800E+02  0.7818608E-02  0.1130116E+00
         25   -1    0    0    0    0  0.00000000000E+00  0.00000000000E+00  0.99999998245E-14  0.12500000000E+03  0.12500000000E+03 0.  0.
        -13    1    3    3    0    0 -0.20303019934E+02  0.24050654707E+02  0.20840335641E+02  0.37748872353E+02  0.10566000000E+00 0.  1.
         23    2    1    0    0    0 -0.30032693399E+01 -0.92803245149E+01 -0.25676986509E+02  0.97532716078E+02  0.93585143156E+02 0.  0.
         13    1    3    3    0    0  0.17299750594E+02 -0.33330979222E+02 -0.46517322150E+02  0.59783843725E+02  0.10566000000E+00 0. -1.
         22    1    1    0    0    0  0.30032693399E+01  0.92803245149E+01  0.25676986509E+02  0.27467283922E+02  0.00000000000E+00 0. -1.
</event>
<event>
 5    1  0.6924865E-004  0.9118800E+02  0.7818608E-02  0.1130116E+00
         25   -1    0    0    0    0  0.00000000000E+00  0.00000000000E+00  0.99999998245E-14  0.12500000000E+03  0.12500000000E+03 0.  0.
        -13    1    3    3    0    0  0.35271014577E+02 -0.44819368712E+02  0.66516118458E+01  0.57420165318E+02  0.10566000000E+00 0. -1.
         23    2    1    0    0    0  0.27069516787E+02 -0.96701057100E+01  0.11892211444E+02  0.93892213571E+02  0.88589239712E+02 0.  0.
         13    1    3    3    0    0 -0.82014977899E+01  0.35149263002E+02  0.52405995980E+01  0.36472048253E+02  0.10566000000E+00 0.  1.
         22    1    1    0    0    0 -0.27069516787E+02  0.96701057100E+01 -0.11892211444E+02  0.31107786429E+02  0.00000000000E+00 0. -1.
</event>
<event>
 5    1  0.6924865E-004  0.9118800E+02  0.7818608E-02  0.1130116E+00
         25   -1    0    0    0    0  0.00000000000E+00  0.00000000000E+00  0.99999998245E-14  0.12500000000E+03  0.12500000000E+03 0.  0.
        -13    1    3    3    0    0 -0.22947228622E+02  0.21152847731E+02  0.31033518410E+02  0.44012597032E+02  0.10566000000E+00 0.  1.
         23    2    1    0    0    0  0.69050281074E+01  0.27432871941E+02 -0.98699441761E+01  0.95039064198E+02  0.90192937914E+02 0.  0.
         13    1    3    3    0    0  0.29852256729E+02  0.62800242098E+01 -0.40903462586E+02  0.51026467166E+02  0.10566000000E+00 0. -1.
         22    1    1    0    0    0 -0.69050281074E+01 -0.27432871941E+02  0.98699441761E+01  0.29960935802E+02  0.00000000000E+00 0. -1.
</event>
<event>
 5    1  0.6924865E-004  0.9118800E+02  0.7818608E-02  0.1130116E+00
         25   -1    0    0    0    0  0.00000000000E+00  0.00000000000E+00  0.99999998245E-14  0.12500000000E+03  0.12500000000E+03 0.  0.
        -13    1    3    3    0    0  0.30491244561E+02 -0.30538313764E+02 -0.98949125690E+01  0.44274428976E+02  0.10566000000E+00 0. -1.
         23    2    1    0    0    0  0.16706261395E+02  0.18834901821E+02 -0.14842298005E+02  0.95774215041E+02  0.91206105937E+02 0.  0.
         13    1    3    3    0    0 -0.13784983166E+02  0.49373215584E+02 -0.49473854360E+01  0.51499786065E+02  0.10566000000E+00 0.  1.
         22    1    1    0    0    0 -0.16706261395E+02 -0.18834901821E+02  0.14842298005E+02  0.29225784959E+02  0.00000000000E+00 0. -1.
</event>
<event>
 5    1  0.6924865E-004  0.9118800E+02  0.7818608E-02  0.1130116E+00
         25   -1    0    0    0    0  0.00000000000E+00  0.00000000000E+00  0.99999998245E-14  0.12500000000E+03  0.12500000000E+03 0.  0.
        -13    1    3    3    0    0  0.49707113647E+02  0.15290229312E+02 -0.18245797868E+02  0.55113596901E+02  0.10566000000E+00 0.  1.
         23    2    1    0    0    0  0.29988364597E+02 -0.13080324543E+02 -0.11531549520E+02  0.90310325230E+02  0.83382140219E+02 0.  0.
         13    1    3    3    0    0 -0.19718749050E+02 -0.28370553855E+02  0.67142483481E+01  0.35196728329E+02  0.10566000000E+00 0. -1.
         22    1    1    0    0    0 -0.29988364597E+02  0.13080324543E+02  0.11531549520E+02  0.34689674770E+02  0.00000000000E+00 0.  1.
</event>
<event>
 5    1  0.6924865E-004  0.9118800E+02  0.7818608E-02  0.1130116E+00
         25   -1    0    0    0    0  0.00000000000E+00  0.00000000000E+00  0.99999998245E-14  0.12500000000E+03  0.12500000000E+03 0.  0.
        -13    1    3    3    0    0 -0.32313717040E+02  0.15431685877E+02  0.27713275124E+01  0.35916634839E+02  0.10566000000E+00 0.  1.
         23    2    1    0    0    0  0.21929933427E+02  0.25750568212E+02  0.91450133505E+00  0.91164367065E+02  0.84652771758E+02 0.  0.
         13    1    3    3    0    0  0.54243650467E+02  0.10318882336E+02 -0.18568261773E+01  0.55247732227E+02  0.10566000000E+00 0. -1.
         22    1    1    0    0    0 -0.21929933427E+02 -0.25750568212E+02 -0.91450133505E+00  0.33835632935E+02  0.00000000000E+00 0. -1.
</event>
<event>
 5    1  0.6924865E-004  0.9118800E+02  0.7818608E-02  0.1130116E+00
         25   -1    0    0    0    0  0.00000000000E+00  0.00000000000E+00  0.99999998245E-14  0.12500000000E+03  0.12500000000E+03 0.  0.
        -13    1    3    3    0    0 -0.15182288348E+02 -0.80202031676E+01  0.37664871572E+02  0.41394193468E+02  0.10566000000E+00 0. -1.
         23    2    1    0    0    0  0.26421912486E+02 -0.12756136693E+02  0.34702506167E+01  0.95455472214E+02  0.90768210589E+02 0.  0.
         13    1    3    3    0    0  0.41604200834E+02 -0.47359335253E+01 -0.34194620955E+02  0.54061278746E+02  0.10566000000E+00 0.  1.
         22    1    1    0    0    0 -0.26421912486E+02  0.12756136693E+02 -0.34702506167E+01  0.29544527786E+02  0.00000000000E+00 0.  1.
</event>
<event>
 5    1  0.6924865E-004  0.9118800E+02  0.7818608E-02  0.1130116E+00
         25   -1    0    0    0    0  0.00000000000E+00  0.00000000000E+00  0.99999998245E-14  0.12500000000E+03  0.12500000000E+03 0.  0.
        -13    1    3    3    0    0 -0.64251531906E+01  0.40673127380E+02 -0.44467548776E+02  0.60604949819E+02  0.10566000000E+00 0.  1.
         23    2    1    0    0    0  0.72891282487E+01  0.20616084878E+02 -0.16816571673E+02  0.97414651911E+02  0.93427313875E+02 0.  0.
         13    1    3    3    0    0  0.13714281439E+02 -0.20057042501E+02  0.27650977104E+02  0.36809702092E+02  0.10566000000E+00 0. -1.
         22    1    1    0    0    0 -0.72891282487E+01 -0.20616084878E+02  0.16816571673E+02  0.27585348089E+02  0.00000000000E+00 0.  1.
</event>
<event>
 5    1  0.6924865E-004  0.9118800E+02  0.7818608E-02  0.1130116E+00
         25   -1    0    0    0    0  0.00000000000E+00  0.00000000000E+00  0.99999998245E-14  0.12500000000E+03  0.12500000000E+03 0.  0.
        -13    1    3    3    0    0  0.16864360220E+02 -0.35586928615E+02 -0.83494609331E+01  0.40256189534E+02  0.10566000000E+00 0.  1.
         23    2    1    0    0    0 -0.26012098549E+02 -0.54039321578E+01  0.11133936605E+02  0.96193814934E+02  0.91779375317E+02 0.  0.
         13    1    3    3    0    0 -0.42876458770E+02  0.30182996457E+02  0.19483397538E+02  0.55937625400E+02  0.10566000000E+00 0. -1.
         22    1    1    0    0    0  0.26012098549E+02  0.54039321578E+01 -0.11133936605E+02  0.28806185066E+02  0.00000000000E+00 0. -1.
</event>
<event>
 5    1  0.6924865E-004  0.9118800E+02  0.7818608E-02  0.1130116E+00
         25   -1    0    0    0    0  0.00000000000E+00  0.00000000000E+00  0.99999998245E-14  0.12500000000E+03  0.12500000000E+03 0.  0.
        -13    1    3    3    0    0 -0.35704826249E+02  0.37835827478E+02 -0.17418275531E+02  0.54861570748E+02  0.10566000000E+00 0. -1.
         23    2    1    0    0    0 -0.23234509049E+02 -0.26550236148E+00 -0.19002584415E+02  0.94983152786E+02  0.90115415976E+02 0.  0.
         13    1    3    3    0    0  0.12470317200E+02 -0.38101329839E+02 -0.15843088836E+01  0.40121582038E+02  0.10566000000E+00 0.  1.
         22    1    1    0    0    0  0.23234509049E+02  0.26550236148E+00  0.19002584415E+02  0.30016847214E+02  0.00000000000E+00 0. -1.
</event>
<event>
 5    1  0.6924865E-004  0.9118800E+02  0.7818608E-02  0.1130116E+00
         25   -1    0    0    0    0  0.00000000000E+00  0.00000000000E+00  0.99999998245E-14  0.12500000000E+03  0.12500000000E+03 0.  0.
        -13    1    3    3    0    0 -0.82172881085E+01  0.18364705703E+02 -0.29934081284E+02  0.36067251431E+02  0.10566000000E+00 0.  1.
         23    2    1    0    0    0  0.62963765853E+01 -0.22451636638E+02  0.14028838907E+02  0.97787343627E+02  0.93924628861E+02 0.  0.
         13    1    3    3    0    0  0.14513664694E+02 -0.40816342341E+02  0.43962920190E+02  0.61720092196E+02  0.10566000000E+00 0. -1.
         22    1    1    0    0    0 -0.62963765853E+01  0.22451636638E+02 -0.14028838907E+02  0.27212656373E+02  0.00000000000E+00 0. -1.
</event>
<event>
 5    1  0.6924865E-004  0.9118800E+02  0.7818608E-02  0.1130116E+00
         25   -1    0    0    0    0  0.00000000000E+00  0.00000000000E+00  0.99999998245E-14  0.12500000000E+03  0.12500000000E+03 0.  0.
        -13    1    3    3    0    0  0.83212935016E+01  0.11733607225E+02 -0.47978025937E+02  0.50088158290E+02  0.10566000000E+00 0. -1.
         23    2    1    0    0    0 -0.23560104481E+02  0.38403226239E+01 -0.14089627475E+02  0.97280977590E+02  0.93248294341E+02 0.  0.
         13    1    3    3    0    0 -0.31881397982E+02 -0.78932846014E+01  0.33888398462E+02  0.47192819300E+02  0.10566000000E+00 0.  1.
         22    1    1    0    0    0  0.23560104481E+02 -0.38403226239E+01  0.14089627475E+02  0.27719022410E+02  0.00000000000E+00 0. -1.
</event>
<event>
 5    1  0.6924865E-004  0.9118800E+02  0.7818608E-02  0.1130116E+00
         25   -1    0    0    0    0  0.00000000000E+00  0.00000000000E+00  0.99999998245E-14  0.12500000000E+03  0.12500000000E+03 0.  0.
        -13    1    3    3    0    0  0.50203267211E+02 -0.24152706813E+02 -0.22416547836E+02  0.60051928078E+02  0.10566000000E+00 0. -1.
         23    2    1    0    0    0  0.15206580741E+02 -0.32956968366E+01 -0.18268824579E+02  0.10100309047E+03  0.98111021896E+02 0.  0.
         13    1    3    3    0    0 -0.34996686469E+02  0.20857009976E+02  0.41477232563E+01  0.40951162392E+02  0.10566000000E+00 0.  1.
         22    1    1    0    0    0 -0.15206580741E+02  0.32956968366E+01  0.18268824579E+02  0.23996909530E+02  0.00000000000E+00 0. -1.
</event>
<event>
 5    1  0.6924865E-004  0.9118800E+02  0.7818608E-02  0.1130116E+00
         25   -1    0    0    0    0  0.00000000000E+00  0.00000000000E+00  0.99999998245E-14  0.12500000000E+03  0.12500000000E+03 0.  0.
        -13    1    3    3    0    0  0.16823921017E+02  0.28860508110E+02  0.11725615153E+02  0.35404441268E+02  0.10566000000E+00 0.  1.
         23    2    1    0    0    0 -0.20159904217E+01 -0.27242989847E+02  0.13319567096E+02  0.94608297501E+02  0.89593941622E+02 0.  0.
         13    1    3    3    0    0 -0.18839911438E+02 -0.56103497957E+02  0.15939519427E+01  0.59203856233E+02  0.10566000000E+00 0. -1.
         22    1    1    0    0    0  0.20159904217E+01  0.27242989847E+02 -0.13319567096E+02  0.30391702499E+02  0.00000000000E+00 0. -1.
</event>
<event>
 5    1  0.6924865E-004  0.9118800E+02  0.7818608E-02  0.1130116E+00
         25   -1    0    0    0    0  0.00000000000E+00  0.00000000000E+00  0.99999998245E-14  0.12500000000E+03  0.12500000000E+03 0.  0.
        -13    1    3    3    0    0  0.26115977797E+02  0.48815022044E+02  0.12139712796E+02  0.56677459931E+02  0.10566000000E+00 0. -1.
         23    2    1    0    0    0  0.25441533374E+02  0.95426000967E+01  0.10108735290E+02  0.96008287974E+02  0.91526345899E+02 0.  0.
         13    1    3    3    0    0 -0.67444442341E+00 -0.39272421947E+02 -0.20309775058E+01  0.39330828043E+02  0.10566000000E+00 0.  1.
         22    1    1    0    0    0 -0.25441533374E+02 -0.95426000967E+01 -0.10108735290E+02  0.28991712026E+02  0.00000000000E+00 0. -1.
</event>
<event>
 5    1  0.6924865E-004  0.9118800E+02  0.7818608E-02  0.1130116E+00
         25   -1    0    0    0    0  0.00000000000E+00  0.00000000000E+00  0.99999998245E-14  0.12500000000E+03  0.12500000000E+03 0.  0.
        -13    1    3    3    0    0 -0.11244370929E+02  0.44035751904E+02  0.20058258747E+02  0.49678247063E+02  0.10566000000E+00 0. -1.
         23    2    1    0    0    0  0.22549591932E+02  0.16248293891E+02  0.14102490301E+02  0.93833168538E+02  0.88505887569E+02 0.  0.
         13    1    3    3    0    0  0.33793962861E+02 -0.27787458012E+02 -0.59557684453E+01  0.44154921475E+02  0.10566000000E+00 0.  1.
         22    1    1    0    0    0 -0.22549591932E+02 -0.16248293891E+02 -0.14102490301E+02  0.31166831462E+02  0.00000000000E+00 0.  1.
</event>
<event>
 5    1  0.6924865E-004  0.9118800E+02  0.7818608E-02  0.1130116E+00
         25   -1    0    0    0    0  0.00000000000E+00  0.00000000000E+00  0.99999998245E-14  0.12500000000E+03  0.12500000000E+03 0.  0.
        -13    1    3    3    0    0  0.84657531820E+01 -0.16816619935E+02 -0.59527380152E+02  0.62433867690E+02  0.10566000000E+00 0. -1.
         23    2    1    0    0    0  0.42009736082E+01 -0.10212438589E+02 -0.28677055942E+02  0.94270281181E+02  0.89121099046E+02 0.  0.
         13    1    3    3    0    0 -0.42647795739E+01  0.66041813461E+01  0.30850324210E+02  0.31836413491E+02  0.10566000000E+00 0.  1.
         22    1    1    0    0    0 -0.42009736082E+01  0.10212438589E+02  0.28677055942E+02  0.30729718819E+02  0.00000000000E+00 0. -1.
</event>
<event>
 5    1  0.6924865E-004  0.9118800E+02  0.7818608E-02  0.1130116E+00
         25   -1    0    0    0    0  0.00000000000E+00  0.00000000000E+00  0.99999998245E-14  0.12500000000E+03  0.12500000000E+03 0.  0.
        -13    1    3    3    0    0  0.27235887622E+02  0.23930812381E+02 -0.23482312812E+02  0.43196151852E+02  0.10566000000E+00 0.  1.
         23    2    1    0    0    0 -0.19919404422E+02  0.37238742260E+01 -0.22790209860E+02  0.94503384168E+02  0.89447448493E+02 0.  0.
         13    1    3    3    0    0 -0.47155292044E+02 -0.20206938155E+02  0.69210295218E+00  0.51307232316E+02  0.10566000000E+00 0. -1.
         22    1    1    0    0    0  0.19919404422E+02 -0.37238742260E+01  0.22790209860E+02  0.30496615832E+02  0.00000000000E+00 0. -1.
</event>
<event>
 5    1  0.6924865E-004  0.9118800E+02  0.7818608E-02  0.1130116E+00
         25   -1    0    0    0    0  0.00000000000E+00  0.00000000000E+00  0.99999998245E-14  0.12500000000E+03  0.12500000000E+03 0.  0.
        -13    1    3    3    0    0  0.12088797352E+02  0.88874800779E+01  0.27152655850E+02  0.31022640238E+02  0.10566000000E+00 0. -1.
         23    2    1    0    0    0 -0.19047127469E+02 -0.16428032051E+02 -0.19945926315E+02  0.92898391342E+02  0.87175672269E+02 0.  0.
         13    1    3    3    0    0 -0.31135924821E+02 -0.25315512129E+02 -0.47098582165E+02  0.61875751105E+02  0.10566000000E+00 0.  1.
         22    1    1    0    0    0  0.19047127469E+02  0.16428032051E+02  0.19945926315E+02  0.32101608658E+02  0.00000000000E+00 0.  1.
</event>
<event>
 5    1  0.6924865E-004  0.9118800E+02  0.7818608E-02  0.1130116E+00
         25   -1    0    0    0    0  0.00000000000E+00  0.00000000000E+00  0.99999998245E-14  0.12500000000E+03  0.12500000000E+03 0.  0.
        -13    1    3    3    0    0  0.17131318699E+02  0.47269358721E+02  0.28896792884E+02  0.57990604043E+02  0.10566000000E+00 0. -1.
         23    2    1    0    0    0 -0.54019975792E+01  0.28466824799E+02  0.55357263770E+01  0.95501085469E+02  0.90831004438E+02 0.  0.
         13    1    3    3    0    0 -0.22533316278E+02 -0.18802533922E+02 -0.23361066507E+02  0.37510481426E+02  0.10566000000E+00 0.  1.
         22    1    1    0    0    0  0.54019975792E+01 -0.28466824799E+02 -0.55357263770E+01  0.29498914531E+02  0.00000000000E+00 0. -1.
</event>
<event>
 5    1  0.6924865E-004  0.9118800E+02  0.7818608E-02  0.1130116E+00
         25   -1    0    0    0    0  0.00000000000E+00  0.00000000000E+00  0.99999998245E-14  0.12500000000E+03  0.12500000000E+03 0.  0.
        -13    1    3    3    0    0 -0.34213944158E+02 -0.31209500838E+01  0.83271167503E+01  0.35350902983E+02  0.10566000000E+00 0. -1.
         23    2    1    0    0    0  0.25920165942E+02 -0.53135345301E+00  0.13513471984E+02  0.95763870571E+02  0.91191927508E+02 0.  0.
         13    1    3    3    0    0  0.60134110100E+02  0.25895966308E+01  0.51863552340E+01  0.60412967588E+02  0.10566000000E+00 0.  1.
         22    1    1    0    0    0 -0.25920165942E+02  0.53135345301E+00 -0.13513471984E+02  0.29236129429E+02  0.00000000000E+00 0.  1.
</event>
<event>
 5    1  0.6924865E-004  0.9118800E+02  0.7818608E-02  0.1130116E+00
         25   -1    0    0    0    0  0.00000000000E+00  0.00000000000E+00  0.99999998245E-14  0.12500000000E+03  0.12500000000E+03 0.  0.
        -13    1    3    3    0    0  0.14648515577E+01  0.57430260018E+02 -0.15644345371E+02  0.59541055264E+02  0.10566000000E+00 0.  1.
         23    2    1    0    0    0 -0.68222423855E+01  0.28124648811E+02  0.40038439149E+01  0.95784086049E+02  0.91219633370E+02 0.  0.
         13    1    3    3    0    0 -0.82870939432E+01 -0.29305611207E+02  0.19648189286E+02  0.36243030785E+02  0.10566000000E+00 0. -1.
         22    1    1    0    0    0  0.68222423855E+01 -0.28124648811E+02 -0.40038439149E+01  0.29215913951E+02  0.00000000000E+00 0.  1.
</event>
<event>
 5    1  0.6924865E-004  0.9118800E+02  0.7818608E-02  0.1130116E+00
         25   -1    0    0    0    0  0.00000000000E+00  0.00000000000E+00  0.99999998245E-14  0.12500000000E+03  0.12500000000E+03 0.  0.
        -13    1    3    3    0    0 -0.10530527902E+02  0.16734479275E+02  0.55235556003E+02  0.58667815926E+02  0.10566000000E+00 0.  1.
         23    2    1    0    0    0 -0.43596322628E+01 -0.78272301980E+01  0.26780286104E+02  0.96760742753E+02  0.92548288414E+02 0.  0.
         13    1    3    3    0    0  0.61708956395E+01 -0.24561709473E+02 -0.28455269899E+02  0.38092926828E+02  0.10566000000E+00 0. -1.
         22    1    1    0    0    0  0.43596322628E+01  0.78272301980E+01 -0.26780286104E+02  0.28239257247E+02  0.00000000000E+00 0.  1.
</event>
<event>
 5    1  0.6924865E-004  0.9118800E+02  0.7818608E-02  0.1130116E+00
         25   -1    0    0    0    0  0.00000000000E+00  0.00000000000E+00  0.99999998245E-14  0.12500000000E+03  0.12500000000E+03 0.  0.
        -13    1    3    3    0    0  0.42531060487E+02 -0.41644273015E+02 -0.48601708518E+01  0.59722433020E+02  0.10566000000E+00 0. -1.
         23    2    1    0    0    0  0.24210861403E+02 -0.14964845314E+02 -0.13899232169E+02  0.93325072059E+02  0.87785351938E+02 0.  0.
         13    1    3    3    0    0 -0.18320199084E+02  0.26679427701E+02 -0.90390613175E+01  0.33602639040E+02  0.10566000000E+00 0.  1.
         22    1    1    0    0    0 -0.24210861403E+02  0.14964845314E+02  0.13899232169E+02  0.31674927941E+02  0.00000000000E+00 0. -1.
</event>
<event>
 5    1  0.6924865E-004  0.9118800E+02  0.7818608E-02  0.1130116E+00
         25   -1    0    0    0    0  0.00000000000E+00  0.00000000000E+00  0.99999998245E-14  0.12500000000E+03  0.12500000000E+03 0.  0.
        -13    1    3    3    0    0 -0.45129147035E+01  0.26999329149E+02  0.56101396728E+02  0.62423617746E+02  0.10566000000E+00 0. -1.
         23    2    1    0    0    0 -0.66543373135E+00  0.11712979064E+02  0.27943491212E+02  0.94693641233E+02  0.89712932781E+02 0.  0.
         13    1    3    3    0    0  0.38474809722E+01 -0.15286350085E+02 -0.28157905516E+02  0.32270023487E+02  0.10566000000E+00 0.  1.
         22    1    1    0    0    0  0.66543373135E+00 -0.11712979064E+02 -0.27943491212E+02  0.30306358767E+02  0.00000000000E+00 0. -1.
</event>
<event>
 5    1  0.6924865E-004  0.9118800E+02  0.7818608E-02  0.1130116E+00
         25   -1    0    0    0    0  0.00000000000E+00  0.00000000000E+00  0.99999998245E-14  0.12500000000E+03  0.12500000000E+03 0.  0.
        -13    1    3    3    0    0 -0.46689683250E+01  0.30947759894E+02  0.33845644083E+02  0.46098827481E+02  0.10566000000E+00 0. -1.
         23    2    1    0    0    0  0.28820165480E+02  0.69106713406E+01  0.10001922718E+02  0.93720649387E+02  0.88346829863E+02 0.  0.
         13    1    3    3    0    0  0.33489133805E+02 -0.24037088553E+02 -0.23843721365E+02  0.47621821907E+02  0.10566000000E+00 0.  1.
         22    1    1    0    0    0 -0.28820165480E+02 -0.69106713406E+01 -0.10001922718E+02  0.31279350613E+02  0.00000000000E+00 0.  1.
</event>
<event>
 5    1  0.6924865E-004  0.9118800E+02  0.7818608E-02  0.1130116E+00
         25   -1    0    0    0    0  0.00000000000E+00  0.00000000000E+00  0.99999998245E-14  0.12500000000E+03  0.12500000000E+03 0.  0.
        -13    1    3    3    0    0 -0.13407387055E+02 -0.57886087986E+02  0.16643654931E+02  0.61705588267E+02  0.10566000000E+00 0.  1.
         23    2    1    0    0    0 -0.12414386633E+02 -0.27359226233E+02  0.42954962229E+01  0.94650444100E+02  0.89652724582E+02 0.  0.
         13    1    3    3    0    0  0.99300042208E+00  0.30526861753E+02 -0.12348158708E+02  0.32944855833E+02  0.10566000000E+00 0. -1.
         22    1    1    0    0    0  0.12414386633E+02  0.27359226233E+02 -0.42954962229E+01  0.30349555900E+02  0.00000000000E+00 0.  1.
</event>
<event>
 5    1  0.6924865E-004  0.9118800E+02  0.7818608E-02  0.1130116E+00
         25   -1    0    0    0    0  0.00000000000E+00  0.00000000000E+00  0.99999998245E-14  0.12500000000E+03  0.12500000000E+03 0.  0.
        -13    1    3    3    0    0 -0.45553010853E+02  0.23550892844E+02 -0.30123291160E+01  0.51369316156E+02  0.10566000000E+00 0.  1.
         23    2    1    0    0    0 -0.61913328184E+01  0.26484330529E+02  0.14069571407E+02  0.94378027412E+02  0.89272094480E+02 0.  0.
         13    1    3    3    0    0  0.39361678035E+02  0.29334376846E+01  0.17081900523E+02  0.43008711256E+02  0.10566000000E+00 0. -1.
         22    1    1    0    0    0  0.61913328184E+01 -0.26484330529E+02 -0.14069571407E+02  0.30621972588E+02  0.00000000000E+00 0.  1.
</event>
<event>
 5    1  0.6924865E-004  0.9118800E+02  0.7818608E-02  0.1130116E+00
         25   -1    0    0    0    0  0.00000000000E+00  0.00000000000E+00  0.99999998245E-14  0.12500000000E+03  0.12500000000E+03 0.  0.
        -13    1    3    3    0    0 -0.22766616760E+02 -0.18886760686E+02  0.24135358001E+02  0.38177941770E+02  0.10566000000E+00 0.  1.
         23    2    1    0    0    0 -0.10393234655E+02  0.23036596371E+01 -0.27589289764E+02  0.95428136954E+02  0.90730558460E+02 0.  0.
         13    1    3    3    0    0  0.12373382105E+02  0.21190420323E+02 -0.51724647765E+02  0.57250195184E+02  0.10566000000E+00 0. -1.
         22    1    1    0    0    0  0.10393234655E+02 -0.23036596371E+01  0.27589289764E+02  0.29571863046E+02  0.00000000000E+00 0. -1.
</event>
<event>
 5    1  0.6924865E-004  0.9118800E+02  0.7818608E-02  0.1130116E+00
         25   -1    0    0    0    0  0.00000000000E+00  0.00000000000E+00  0.99999998245E-14  0.12500000000E+03  0.12500000000E+03 0.  0.
        -13    1    3    3    0    0  0.61767100785E+01  0.39701949246E+02  0.38475799838E+02  0.55630880440E+02  0.10566000000E+00 0. -1.
         23    2    1    0    0    0 -0.17580759248E+02  0.14846079099E+02  0.19079825760E+02  0.95108046042E+02  0.90288490466E+02 0.  0.
         13    1    3    3    0    0 -0.23757469327E+02 -0.24855870147E+02 -0.19395974078E+02  0.39477165603E+02  0.10566000000E+00 0.  1.
         22    1    1    0    0    0  0.17580759248E+02 -0.14846079099E+02 -0.19079825760E+02  0.29891953958E+02  0.00000000000E+00 0. -1.
</event>
<event>
 5    1  0.6924865E-004  0.9118800E+02  0.7818608E-02  0.1130116E+00
         25   -1    0    0    0    0  0.00000000000E+00  0.00000000000E+00  0.99999998245E-14  0.12500000000E+03  0.12500000000E+03 0.  0.
        -13    1    3    3    0    0  0.29222784980E+01 -0.34769259085E+02 -0.14567116389E+02  0.37810754196E+02  0.10566000000E+00 0.  1.
         23    2    1    0    0    0  0.14794206283E+02  0.61429943650E+01  0.24576457270E+02  0.95663893045E+02  0.91054781649E+02 0.  0.
         13    1    3    3    0    0  0.11871927785E+02  0.40912253450E+02  0.39143573660E+02  0.57853138848E+02  0.10566000000E+00 0. -1.
         22    1    1    0    0    0 -0.14794206283E+02 -0.61429943650E+01 -0.24576457270E+02  0.29336106955E+02  0.00000000000E+00 0. -1.
</event>
<event>
 5    1  0.6924865E-004  0.9118800E+02  0.7818608E-02  0.1130116E+00
         25   -1    0    0    0    0  0.00000000000E+00  0.00000000000E+00  0.99999998245E-14  0.12500000000E+03  0.12500000000E+03 0.  0.
        -13    1    3    3    0    0 -0.45820462045E+02 -0.23219611727E+02  0.27419108185E+02  0.58227860758E+02  0.10566000000E+00 0.  1.
         23    2    1    0    0    0 -0.18824508017E+02 -0.22271356004E+02  0.12896652671E+01  0.95810299131E+02  0.91255546586E+02 0.  0.
         13    1    3    3    0    0  0.26995954028E+02  0.94825572321E+00 -0.26129442918E+02  0.37582438373E+02  0.10566000000E+00 0. -1.
         22    1    1    0    0    0  0.18824508017E+02  0.22271356004E+02 -0.12896652671E+01  0.29189700869E+02  0.00000000000E+00 0.  1.
</event>
<event>
 5    1  0.6924865E-004  0.9118800E+02  0.7818608E-02  0.1130116E+00
         25   -1    0    0    0    0  0.00000000000E+00  0.00000000000E+00  0.99999998245E-14  0.12500000000E+03  0.12500000000E+03 0.  0.
        -13    1    3    3    0    0 -0.33968795528E+02 -0.30116277219E+01  0.25440206685E+02  0.42546025095E+02  0.10566000000E+00 0. -1.
         23    2    1    0    0    0 -0.15930278599E+02 -0.53873121546E+01 -0.24265396771E+02  0.95477019308E+02  0.90797878979E+02 0.  0.
         13    1    3    3    0    0  0.18038516929E+02 -0.23756844328E+01 -0.49705603455E+02  0.52930994213E+02  0.10566000000E+00 0.  1.
         22    1    1    0    0    0  0.15930278599E+02  0.53873121546E+01  0.24265396771E+02  0.29522980692E+02  0.00000000000E+00 0. -1.
</event>
<event>
 5    1  0.6924865E-004  0.9118800E+02  0.7818608E-02  0.1130116E+00
         25   -1    0    0    0    0  0.00000000000E+00  0.00000000000E+00  0.99999998245E-14  0.12500000000E+03  0.12500000000E+03 0.  0.
        -13    1    3    3    0    0 -0.34872835847E+02 -0.32036532712E+02  0.37442052714E+02  0.60368639074E+02  0.10566000000E+00 0. -1.
         23    2    1    0    0    0 -0.22604492319E+02 -0.52871149755E+01  0.17729411940E+02  0.95789578820E+02  0.91227159909E+02 0.  0.
         13    1    3    3    0    0  0.12268343528E+02  0.26749417736E+02 -0.19712640774E+02  0.35420939746E+02  0.10566000000E+00 0.  1.
         22    1    1    0    0    0  0.22604492319E+02  0.52871149755E+01 -0.17729411940E+02  0.29210421180E+02  0.00000000000E+00 0. -1.
</event>
<event>
 5    1  0.6924865E-004  0.9118800E+02  0.7818608E-02  0.1130116E+00
         25   -1    0    0    0    0  0.00000000000E+00  0.00000000000E+00  0.99999998245E-14  0.12500000000E+03  0.12500000000E+03 0.  0.
        -13    1    3    3    0    0  0.16265619916E+02  0.70147041283E+01 -0.38302403194E+02  0.42200257342E+02  0.10566000000E+00 0.  1.
         23    2    1    0    0    0 -0.26697301359E+02 -0.70800765174E+01 -0.95897007194E+01  0.95762425832E+02  0.91189947133E+02 0.  0.
         13    1    3    3    0    0 -0.42962921274E+02 -0.14094780646E+02  0.28712702475E+02  0.53562168490E+02  0.10566000000E+00 0. -1.
         22    1    1    0    0    0  0.26697301359E+02  0.70800765174E+01  0.95897007194E+01  0.29237574168E+02  0.00000000000E+00 0. -1.
</event>
<event>
 5    1  0.6924865E-004  0.9118800E+02  0.7818608E-02  0.1130116E+00
         25   -1    0    0    0    0  0.00000000000E+00  0.00000000000E+00  0.99999998245E-14  0.12500000000E+03  0.12500000000E+03 0.  0.
        -13    1    3    3    0    0  0.41805055024E+02 -0.11471409355E+02  0.32116334250E+02  0.53951144083E+02  0.10566000000E+00 0.  1.
         23    2    1    0    0    0  0.22541610964E+02  0.13722062802E+02  0.68648522035E+00  0.98601316428E+02  0.95001732126E+02 0.  0.
         13    1    3    3    0    0 -0.19263444060E+02  0.25193472156E+02 -0.31429849030E+02  0.44650172345E+02  0.10566000000E+00 0. -1.
         22    1    1    0    0    0 -0.22541610964E+02 -0.13722062802E+02 -0.68648522035E+00  0.26398683572E+02  0.00000000000E+00 0.  1.
</event>
<event>
 5    1  0.6924865E-004  0.9118800E+02  0.7818608E-02  0.1130116E+00
         25   -1    0    0    0    0  0.00000000000E+00  0.00000000000E+00  0.99999998245E-14  0.12500000000E+03  0.12500000000E+03 0.  0.
        -13    1    3    3    0    0  0.11735307352E+02 -0.55361642625E+02 -0.22520364155E+01  0.56636664316E+02  0.10566000000E+00 0. -1.
         23    2    1    0    0    0  0.18125980284E+02 -0.18888477905E+02  0.11855381279E+02  0.96261944672E+02  0.91872118556E+02 0.  0.
         13    1    3    3    0    0  0.63906729317E+01  0.36473164720E+02  0.14107417694E+02  0.39625280356E+02  0.10566000000E+00 0.  1.
         22    1    1    0    0    0 -0.18125980284E+02  0.18888477905E+02 -0.11855381279E+02  0.28738055328E+02  0.00000000000E+00 0. -1.
</event>
<event>
 5    1  0.6924865E-004  0.9118800E+02  0.7818608E-02  0.1130116E+00
         25   -1    0    0    0    0  0.00000000000E+00  0.00000000000E+00  0.99999998245E-14  0.12500000000E+03  0.12500000000E+03 0.  0.
        -13    1    3    3    0    0 -0.34485841728E+02  0.36002885631E+02 -0.24142929185E+02  0.55392898887E+02  0.10566000000E+00 0. -1.
         23    2    1    0    0    0 -0.24316063267E+02  0.92012777617E+01  0.73533591435E+01  0.97981370576E+02  0.94182496484E+02 0.  0.
         13    1    3    3    0    0  0.10169778461E+02 -0.26801607869E+02  0.31496288329E+02  0.42588471689E+02  0.10566000000E+00 0.  1.
         22    1    1    0    0    0  0.24316063267E+02 -0.92012777617E+01 -0.73533591435E+01  0.27018629424E+02  0.00000000000E+00 0. -1.
</event>
<event>
 5    1  0.6924865E-004  0.9118800E+02  0.7818608E-02  0.1130116E+00
         25   -1    0    0    0    0  0.00000000000E+00  0.00000000000E+00  0.99999998245E-14  0.12500000000E+03  0.12500000000E+03 0.  0.
        -13    1    3    3    0    0 -0.26307306737E+02 -0.43769110729E+02  0.14142993872E+02  0.52989101535E+02  0.10566000000E+00 0.  1.
         23    2    1    0    0    0  0.10771437240E+02 -0.28573047489E+02  0.59861939234E+01  0.93882843627E+02  0.88576017673E+02 0.  0.
         13    1    3    3    0    0  0.37078743977E+02  0.15196063240E+02 -0.81567999490E+01  0.40893742093E+02  0.10566000000E+00 0. -1.
         22    1    1    0    0    0 -0.10771437240E+02  0.28573047489E+02 -0.59861939234E+01  0.31117156373E+02  0.00000000000E+00 0.  1.
</event>
<event>
 5    1  0.6924865E-004  0.9118800E+02  0.7818608E-02  0.1130116E+00
         25   -1    0    0    0    0  0.00000000000E+00  0.00000000000E+00  0.99999998245E-14  0.12500000000E+03  0.12500000000E+03 0.  0.
        -13    1    3    3    0    0 -0.25194059788E+02  0.22624660173E+02  0.13686446005E+02  0.36523223637E+02  0.10566000000E+00 0. -1.
         23    2    1    0    0    0  0.17146693167E+02 -0.20725818100E+00 -0.22493986390E+02  0.96715172509E+02  0.92486718653E+02 0.  0.
         13    1    3    3    0    0  0.42340752955E+02 -0.22831918354E+02 -0.36180432395E+02  0.60191948871E+02  0.10566000000E+00 0.  1.
         22    1    1    0    0    0 -0.17146693167E+02  0.20725818100E+00  0.22493986390E+02  0.28284827491E+02  0.00000000000E+00 0.  1.
</event>
<event>
 5    1  0.6924865E-004  0.9118800E+02  0.7818608E-02  0.1130116E+00
         25   -1    0    0    0    0  0.00000000000E+00  0.00000000000E+00  0.99999998245E-14  0.12500000000E+03  0.12500000000E+03 0.  0.
        -13    1    3    3    0    0  0.58488298446E+02  0.12469557817E+02  0.72313538500E+01  0.60238480806E+02  0.10566000000E+00 0.  1.
         23    2    1    0    0    0  0.28001316235E+02  0.11789988661E+02 -0.68934201586E+01  0.93845597662E+02  0.88523439921E+02 0.  0.
         13    1    3    3    0    0 -0.30486982211E+02 -0.67956915570E+00 -0.14124774009E+02  0.33607116856E+02  0.10566000000E+00 0. -1.
         22    1    1    0    0    0 -0.28001316235E+02 -0.11789988661E+02  0.68934201586E+01  0.31154402338E+02  0.00000000000E+00 0.  1.
</event>
<event>
 5    1  0.6924865E-004  0.9118800E+02  0.7818608E-02  0.1130116E+00
         25   -1    0    0    0    0  0.00000000000E+00  0.00000000000E+00  0.99999998245E-14  0.12500000000E+03  0.12500000000E+03 0.  0.
        -13    1    3    3    0    0  0.42928655369E+02 -0.23527189527E+02  0.24127620614E+02  0.54576105938E+02  0.10566000000E+00 0. -1.
         23    2    1    0    0    0  0.11016274059E+02 -0.27068931082E+02 -0.16160821314E+01  0.95730612485E+02  0.91146328073E+02 0.  0.
         13    1    3    3    0    0 -0.31912381309E+02 -0.35417415542E+01 -0.25743702745E+02  0.41154506547E+02  0.10566000000E+00 0.  1.
         22    1    1    0    0    0 -0.11016274059E+02  0.27068931082E+02  0.16160821314E+01  0.29269387515E+02  0.00000000000E+00 0. -1.
</event>
<event>
 5    1  0.6924865E-004  0.9118800E+02  0.7818608E-02  0.1130116E+00
         25   -1    0    0    0    0  0.00000000000E+00  0.00000000000E+00  0.99999998245E-14  0.12500000000E+03  0.12500000000E+03 0.  0.
        -13    1    3    3    0    0 -0.37776537608E+02  0.48982102189E+02  0.34814077757E+01  0.61955181321E+02  0.10566000000E+00 0.  1.
         23    2    1    0    0    0 -0.23983468172E+02  0.21974465085E+02  0.35254146080E+01  0.92281314063E+02  0.86286317082E+02 0.  0.
         13    1    3    3    0    0  0.13793069436E+02 -0.27007637104E+02  0.44006832241E-01  0.30326132741E+02  0.10566000000E+00 0. -1.
         22    1    1    0    0    0  0.23983468172E+02 -0.21974465085E+02 -0.35254146080E+01  0.32718685937E+02  0.00000000000E+00 0.  1.
</event>
<event>
 5    1  0.6924865E-004  0.9118800E+02  0.7818608E-02  0.1130116E+00
         25   -1    0    0    0    0  0.00000000000E+00  0.00000000000E+00  0.99999998245E-14  0.12500000000E+03  0.12500000000E+03 0.  0.
        -13    1    3    3    0    0  0.42503049109E+02 -0.30215842563E+02 -0.54377611115E+01  0.52431734049E+02  0.10566000000E+00 0.  1.
         23    2    1    0    0    0  0.24419213582E+02  0.88032031174E+00  0.17365511654E+02  0.95022776132E+02  0.90170361168E+02 0.  0.
         13    1    3    3    0    0 -0.18083835528E+02  0.31096162875E+02  0.22803272766E+02  0.42591042084E+02  0.10566000000E+00 0. -1.
         22    1    1    0    0    0 -0.24419213582E+02 -0.88032031174E+00 -0.17365511654E+02  0.29977223868E+02  0.00000000000E+00 0.  1.
</event>
<event>
 5    1  0.6924865E-004  0.9118800E+02  0.7818608E-02  0.1130116E+00
         25   -1    0    0    0    0  0.00000000000E+00  0.00000000000E+00  0.99999998245E-14  0.12500000000E+03  0.12500000000E+03 0.  0.
        -13    1    3    3    0    0  0.25385438343E+01  0.40240927192E+02  0.33105453494E+01  0.40456733687E+02  0.10566000000E+00 0.  1.
         23    2    1    0    0    0  0.29785926810E+02 -0.45054377516E+01 -0.75126331007E+01  0.93952615869E+02  0.88674426794E+02 0.  0.
         13    1    3    3    0    0  0.27247382976E+02 -0.44746364943E+02 -0.10823178450E+02  0.53495882182E+02  0.10566000000E+00 0. -1.
         22    1    1    0    0    0 -0.29785926810E+02  0.45054377516E+01  0.75126331007E+01  0.31047384131E+02  0.00000000000E+00 0. -1.
</event>
<event>
 5    1  0.6924865E-004  0.9118800E+02  0.7818608E-02  0.1130116E+00
         25   -1    0    0    0    0  0.00000000000E+00  0.00000000000E+00  0.99999998245E-14  0.12500000000E+03  0.12500000000E+03 0.  0.
        -13    1    3    3    0    0  0.16673700082E+02 -0.20692749015E+02 -0.30330247803E+02  0.40325391902E+02  0.10566000000E+00 0.  1.
         23    2    1    0    0    0 -0.27606967421E+02 -0.84873915134E+01  0.12897522938E+01  0.96089034505E+02  0.91636557258E+02 0.  0.
         13    1    3    3    0    0 -0.44280667503E+02  0.12205357501E+02  0.31620000097E+02  0.55763642603E+02  0.10566000000E+00 0. -1.
         22    1    1    0    0    0  0.27606967421E+02  0.84873915134E+01 -0.12897522938E+01  0.28910965495E+02  0.00000000000E+00 0. -1.
</event>
<event>
 5    1  0.6924865E-004  0.9118800E+02  0.7818608E-02  0.1130116E+00
         25   -1    0    0    0    0  0.00000000000E+00  0.00000000000E+00  0.99999998245E-14  0.12500000000E+03  0.12500000000E+03 0.  0.
        -13    1    3    3    0    0  0.35878072575E+02  0.12333700354E+02 -0.18921729898E+02  0.42395746043E+02  0.10566000000E+00 0.  1.
         23    2    1    0    0    0  0.17927319891E+02 -0.15427185816E+01  0.26383454868E+02  0.93064823942E+02  0.87413991932E+02 0.  0.
         13    1    3    3    0    0 -0.17950752684E+02 -0.13876418936E+02  0.45305184766E+02  0.50669077899E+02  0.10566000000E+00 0. -1.
         22    1    1    0    0    0 -0.17927319891E+02  0.15427185816E+01 -0.26383454868E+02  0.31935176058E+02  0.00000000000E+00 0. -1.
</event>
<event>
 5    1  0.6924865E-004  0.9118800E+02  0.7818608E-02  0.1130116E+00
         25   -1    0    0    0    0  0.00000000000E+00  0.00000000000E+00  0.99999998245E-14  0.12500000000E+03  0.12500000000E+03 0.  0.
        -13    1    3    3    0    0  0.39571039276E+02  0.33799308000E+02 -0.13645570503E+02  0.53800307890E+02  0.10566000000E+00 0.  1.
         23    2    1    0    0    0  0.26684310519E+02 -0.57840145785E+01 -0.11161752507E+02  0.95502678570E+02  0.90833196809E+02 0.  0.
         13    1    3    3    0    0 -0.12886728757E+02 -0.39583322579E+02  0.24838179952E+01  0.41702370680E+02  0.10566000000E+00 0. -1.
         22    1    1    0    0    0 -0.26684310519E+02  0.57840145785E+01  0.11161752507E+02  0.29497321430E+02  0.00000000000E+00 0.  1.
</event>
<event>
 5    1  0.6924865E-004  0.9118800E+02  0.7818608E-02  0.1130116E+00
         25   -1    0    0    0    0  0.00000000000E+00  0.00000000000E+00  0.99999998245E-14  0.12500000000E+03  0.12500000000E+03 0.  0.
        -13    1    3    3    0    0  0.24832822266E+02  0.37813056960E+02 -0.34096062522E+02  0.56648468487E+02  0.10566000000E+00 0. -1.
         23    2    1    0    0    0  0.65838645170E+01  0.50409201011E+01 -0.29401299124E+02  0.94451767029E+02  0.89375286054E+02 0.  0.
         13    1    3    3    0    0 -0.18248957749E+02 -0.32772136859E+02  0.46947633978E+01  0.37803298542E+02  0.10566000000E+00 0.  1.
         22    1    1    0    0    0 -0.65838645170E+01 -0.50409201011E+01  0.29401299124E+02  0.30548232971E+02  0.00000000000E+00 0. -1.
</event>
<event>
 5    1  0.6924865E-004  0.9118800E+02  0.7818608E-02  0.1130116E+00
         25   -1    0    0    0    0  0.00000000000E+00  0.00000000000E+00  0.99999998245E-14  0.12500000000E+03  0.12500000000E+03 0.  0.
        -13    1    3    3    0    0 -0.27747432144E+02 -0.84556271916E+01  0.18364562099E+02  0.34331995673E+02  0.10566000000E+00 0. -1.
         23    2    1    0    0    0  0.68740294661E+01  0.15230523832E+02 -0.25170051505E+02  0.94788203792E+02  0.89844593316E+02 0.  0.
         13    1    3    3    0    0  0.34621461610E+02  0.23686151024E+02 -0.43534613605E+02  0.60456208119E+02  0.10566000000E+00 0.  1.
         22    1    1    0    0    0 -0.68740294661E+01 -0.15230523832E+02  0.25170051505E+02  0.30211796208E+02  0.00000000000E+00 0.  1.
</event>
<event>
 5    1  0.6924865E-004  0.9118800E+02  0.7818608E-02  0.1130116E+00
         25   -1    0    0    0    0  0.00000000000E+00  0.00000000000E+00  0.99999998245E-14  0.12500000000E+03  0.12500000000E+03 0.  0.
        -13    1    3    3    0    0  0.15400616373E+00 -0.43717157121E+02 -0.12874719889E+02  0.45573930277E+02  0.10566000000E+00 0. -1.
         23    2    1    0    0    0  0.28663559414E+02 -0.19204159346E+02 -0.21760606966E+02  0.84208782931E+02  0.73669503411E+02 0.  0.
         13    1    3    3    0    0  0.28509553250E+02  0.24512997775E+02 -0.88858870768E+01  0.38634852654E+02  0.10566000000E+00 0.  1.
         22    1    1    0    0    0 -0.28663559414E+02  0.19204159346E+02  0.21760606966E+02  0.40791217069E+02  0.00000000000E+00 0.  1.
</event>
<event>
 5    1  0.6924865E-004  0.9118800E+02  0.7818608E-02  0.1130116E+00
         25   -1    0    0    0    0  0.00000000000E+00  0.00000000000E+00  0.99999998245E-14  0.12500000000E+03  0.12500000000E+03 0.  0.
        -13    1    3    3    0    0  0.41739530680E+02 -0.41030387673E+00  0.81302141131E+01  0.42526089829E+02  0.10566000000E+00 0. -1.
         23    2    1    0    0    0 -0.44914846553E+01 -0.83204191640E+01  0.29466237740E+02  0.94053885930E+02  0.88817067518E+02 0.  0.
         13    1    3    3    0    0 -0.46231015335E+02 -0.79101152872E+01  0.21336023627E+02  0.51527796101E+02  0.10566000000E+00 0.  1.
         22    1    1    0    0    0  0.44914846553E+01  0.83204191640E+01 -0.29466237740E+02  0.30946114070E+02  0.00000000000E+00 0.  1.
</event>
<event>
 5    1  0.6924865E-004  0.9118800E+02  0.7818608E-02  0.1130116E+00
         25   -1    0    0    0    0  0.00000000000E+00  0.00000000000E+00  0.99999998245E-14  0.12500000000E+03  0.12500000000E+03 0.  0.
        -13    1    3    3    0    0  0.24988023701E+02  0.14703824473E+02 -0.42237915541E+02  0.51231401073E+02  0.10566000000E+00 0. -1.
         23    2    1    0    0    0  0.30799135919E+02  0.11122332073E+02 -0.18396221119E+01  0.92202480984E+02  0.86172038655E+02 0.  0.
         13    1    3    3    0    0  0.58111122187E+01 -0.35814923999E+01  0.40398293429E+02  0.40971079911E+02  0.10566000000E+00 0.  1.
         22    1    1    0    0    0 -0.30799135919E+02 -0.11122332073E+02  0.18396221119E+01  0.32797519016E+02  0.00000000000E+00 0.  1.
</event>
<event>
 5    1  0.6924865E-004  0.9118800E+02  0.7818608E-02  0.1130116E+00
         25   -1    0    0    0    0  0.00000000000E+00  0.00000000000E+00  0.99999998245E-14  0.12500000000E+03  0.12500000000E+03 0.  0.
        -13    1    3    3    0    0  0.23566031130E+02  0.17360053864E+02  0.13619897133E+02  0.32283773871E+02  0.10566000000E+00 0.  1.
         23    2    1    0    0    0 -0.21635484299E+02 -0.34123129164E+01 -0.22376814444E+02  0.93687703934E+02  0.88300203756E+02 0.  0.
         13    1    3    3    0    0 -0.45201515429E+02 -0.20772366781E+02 -0.35996711577E+02  0.61403930063E+02  0.10566000000E+00 0. -1.
         22    1    1    0    0    0  0.21635484299E+02  0.34123129164E+01  0.22376814444E+02  0.31312296066E+02  0.00000000000E+00 0. -1.
</event>
<event>
 5    1  0.6924865E-004  0.9118800E+02  0.7818608E-02  0.1130116E+00
         25   -1    0    0    0    0  0.00000000000E+00  0.00000000000E+00  0.99999998245E-14  0.12500000000E+03  0.12500000000E+03 0.  0.
        -13    1    3    3    0    0 -0.36258061147E+02 -0.27644337353E+02 -0.20426277103E+02  0.49960988243E+02  0.10566000000E+00 0.  1.
         23    2    1    0    0    0 -0.10962176832E+02  0.10380351298E+02 -0.24932456144E+02  0.95852986717E+02  0.91314000455E+02 0.  0.
         13    1    3    3    0    0  0.25295884316E+02  0.38024688652E+02 -0.45061790413E+01  0.45891998474E+02  0.10566000000E+00 0. -1.
         22    1    1    0    0    0  0.10962176832E+02 -0.10380351298E+02  0.24932456144E+02  0.29147013283E+02  0.00000000000E+00 0.  1.
</event>
<event>
 5    1  0.6924865E-004  0.9118800E+02  0.7818608E-02  0.1130116E+00
         25   -1    0    0    0    0  0.00000000000E+00  0.00000000000E+00  0.99999998245E-14  0.12500000000E+03  0.12500000000E+03 0.  0.
        -13    1    3    3    0    0 -0.14976705549E+02  0.29757123928E+02  0.33198519940E+02  0.47031277080E+02  0.10566000000E+00 0. -1.
         23    2    1    0    0    0 -0.28619764552E+02  0.39067556152E+01 -0.55684890967E+01  0.95582968653E+02  0.90943620794E+02 0.  0.
         13    1    3    3    0    0 -0.13643059003E+02 -0.25850368313E+02 -0.38767009036E+02  0.48551691572E+02  0.10566000000E+00 0.  1.
         22    1    1    0    0    0  0.28619764552E+02 -0.39067556152E+01  0.55684890967E+01  0.29417031347E+02  0.00000000000E+00 0.  1.
</event>
<event>
 5    1  0.6924865E-004  0.9118800E+02  0.7818608E-02  0.1130116E+00
         25   -1    0    0    0    0  0.00000000000E+00  0.00000000000E+00  0.99999998245E-14  0.12500000000E+03  0.12500000000E+03 0.  0.
        -13    1    3    3    0    0 -0.13799686787E+02  0.26316416399E+02  0.15467600683E+02  0.33499894962E+02  0.10566000000E+00 0.  1.
         23    2    1    0    0    0  0.26723452057E+02 -0.16342149435E+02  0.44302511741E+01  0.93364009997E+02  0.87840779250E+02 0.  0.
         13    1    3    3    0    0  0.40523138844E+02 -0.42658565834E+02 -0.11037349509E+02  0.59864115036E+02  0.10566000000E+00 0. -1.
         22    1    1    0    0    0 -0.26723452057E+02  0.16342149435E+02 -0.44302511741E+01  0.31635990003E+02  0.00000000000E+00 0. -1.
</event>
<event>
 5    1  0.6924865E-004  0.9118800E+02  0.7818608E-02  0.1130116E+00
         25   -1    0    0    0    0  0.00000000000E+00  0.00000000000E+00  0.99999998245E-14  0.12500000000E+03  0.12500000000E+03 0.  0.
        -13    1    3    3    0    0  0.33056396867E+02 -0.52403737550E+01 -0.14230553504E+02  0.36369035016E+02  0.10566000000E+00 0. -1.
         23    2    1    0    0    0 -0.25285356714E+02 -0.11010971350E+02  0.24228458293E+01  0.97314969096E+02  0.93293849068E+02 0.  0.
         13    1    3    3    0    0 -0.58341753581E+02 -0.57705975953E+01  0.16653399333E+02  0.60945934080E+02  0.10566000000E+00 0.  1.
         22    1    1    0    0    0  0.25285356714E+02  0.11010971350E+02 -0.24228458293E+01  0.27685030904E+02  0.00000000000E+00 0.  1.
</event>
<event>
 5    1  0.6924865E-004  0.9118800E+02  0.7818608E-02  0.1130116E+00
         25   -1    0    0    0    0  0.00000000000E+00  0.00000000000E+00  0.99999998245E-14  0.12500000000E+03  0.12500000000E+03 0.  0.
        -13    1    3    3    0    0  0.37758837383E+02  0.20336060459E+02 -0.32436682181E+02  0.53772062174E+02  0.10566000000E+00 0.  1.
         23    2    1    0    0    0  0.14455572973E+02 -0.13399170167E+02 -0.20692602002E+02  0.96422296650E+02  0.92090032916E+02 0.  0.
         13    1    3    3    0    0 -0.23303264410E+02 -0.33735230626E+02  0.11744080179E+02  0.42650234476E+02  0.10566000000E+00 0. -1.
         22    1    1    0    0    0 -0.14455572973E+02  0.13399170167E+02  0.20692602002E+02  0.28577703350E+02  0.00000000000E+00 0. -1.
</event>
<event>
 5    1  0.6924865E-004  0.9118800E+02  0.7818608E-02  0.1130116E+00
         25   -1    0    0    0    0  0.00000000000E+00  0.00000000000E+00  0.99999998245E-14  0.12500000000E+03  0.12500000000E+03 0.  0.
        -13    1    3    3    0    0  0.81939656219E+01  0.35524686434E+02 -0.33764183297E+01  0.36613601074E+02  0.10566000000E+00 0.  1.
         23    2    1    0    0    0  0.16741119712E+02 -0.23096101149E+02 -0.57460403344E+01  0.95901684635E+02  0.91380638862E+02 0.  0.
         13    1    3    3    0    0  0.85471540905E+01 -0.58620787583E+02 -0.23696220046E+01  0.59288083562E+02  0.10566000000E+00 0. -1.
         22    1    1    0    0    0 -0.16741119712E+02  0.23096101149E+02  0.57460403344E+01  0.29098315365E+02  0.00000000000E+00 0. -1.
</event>
<event>
 5    1  0.6924865E-004  0.9118800E+02  0.7818608E-02  0.1130116E+00
         25   -1    0    0    0    0  0.00000000000E+00  0.00000000000E+00  0.99999998245E-14  0.12500000000E+03  0.12500000000E+03 0.  0.
        -13    1    3    3    0    0  0.37966655967E+02 -0.24782588807E+02  0.68035823998E+01  0.45846958141E+02  0.10566000000E+00 0.  1.
         23    2    1    0    0    0 -0.11640191524E+02 -0.23110309078E+02 -0.84598446735E+01  0.97775940488E+02  0.93909451718E+02 0.  0.
         13    1    3    3    0    0 -0.49606847491E+02  0.16722797291E+01 -0.15263427073E+02  0.51928982347E+02  0.10566000000E+00 0. -1.
         22    1    1    0    0    0  0.11640191524E+02  0.23110309078E+02  0.84598446735E+01  0.27224059512E+02  0.00000000000E+00 0. -1.
</event>
<event>
 5    1  0.6924865E-004  0.9118800E+02  0.7818608E-02  0.1130116E+00
         25   -1    0    0    0    0  0.00000000000E+00  0.00000000000E+00  0.99999998245E-14  0.12500000000E+03  0.12500000000E+03 0.  0.
        -13    1    3    3    0    0  0.13081790453E+02  0.20570694728E+02  0.37139043820E+02  0.44425290804E+02  0.10566000000E+00 0.  1.
         23    2    1    0    0    0 -0.20702598400E+02 -0.12536719698E+02  0.12467700271E+02  0.97774819168E+02  0.93907959152E+02 0.  0.
         13    1    3    3    0    0 -0.33784388853E+02 -0.33107414426E+02 -0.24671343549E+02  0.53349528364E+02  0.10566000000E+00 0. -1.
         22    1    1    0    0    0  0.20702598400E+02  0.12536719698E+02 -0.12467700271E+02  0.27225180832E+02  0.00000000000E+00 0. -1.
</event>
<event>
 5    1  0.6924865E-004  0.9118800E+02  0.7818608E-02  0.1130116E+00
         25   -1    0    0    0    0  0.00000000000E+00  0.00000000000E+00  0.99999998245E-14  0.12500000000E+03  0.12500000000E+03 0.  0.
        -13    1    3    3    0    0  0.28090283303E+02 -0.47015883472E+02  0.28948051949E+02  0.61948028139E+02  0.10566000000E+00 0.  1.
         23    2    1    0    0    0  0.15508947427E+02 -0.25744582848E+02  0.92436530794E+01  0.93555507341E+02  0.88112864187E+02 0.  0.
         13    1    3    3    0    0 -0.12581335876E+02  0.21271300623E+02 -0.19704398869E+02  0.31607479201E+02  0.10566000000E+00 0. -1.
         22    1    1    0    0    0 -0.15508947427E+02  0.25744582848E+02 -0.92436530794E+01  0.31444492659E+02  0.00000000000E+00 0.  1.
</event>
<event>
 5    1  0.6924865E-004  0.9118800E+02  0.7818608E-02  0.1130116E+00
         25   -1    0    0    0    0  0.00000000000E+00  0.00000000000E+00  0.99999998245E-14  0.12500000000E+03  0.12500000000E+03 0.  0.
        -13    1    3    3    0    0  0.95917505214E+01 -0.24443630325E+02  0.34576748619E+02  0.43417225276E+02  0.10566000000E+00 0. -1.
         23    2    1    0    0    0  0.17604370819E+02 -0.14630297651E+02 -0.16974663454E+02  0.96502654849E+02  0.92199043988E+02 0.  0.
         13    1    3    3    0    0  0.80126202972E+01  0.98133326744E+01 -0.51551412073E+02  0.53085429573E+02  0.10566000000E+00 0.  1.
         22    1    1    0    0    0 -0.17604370819E+02  0.14630297651E+02  0.16974663454E+02  0.28497345151E+02  0.00000000000E+00 0.  1.
</event>
<event>
 5    1  0.6924865E-004  0.9118800E+02  0.7818608E-02  0.1130116E+00
         25   -1    0    0    0    0  0.00000000000E+00  0.00000000000E+00  0.99999998245E-14  0.12500000000E+03  0.12500000000E+03 0.  0.
        -13    1    3    3    0    0  0.39068503996E+02 -0.99206746075E+01 -0.70998293040E+01  0.40929042614E+02  0.10566000000E+00 0.  1.
         23    2    1    0    0    0  0.34011024141E+01  0.26252400927E+02 -0.18132471412E+02  0.92913514191E+02  0.87197354018E+02 0.  0.
         13    1    3    3    0    0 -0.35667401582E+02  0.36173075534E+02 -0.11032642108E+02  0.51984471577E+02  0.10566000000E+00 0. -1.
         22    1    1    0    0    0 -0.34011024141E+01 -0.26252400927E+02  0.18132471412E+02  0.32086485809E+02  0.00000000000E+00 0. -1.
</event>
<event>
 5    1  0.6924865E-004  0.9118800E+02  0.7818608E-02  0.1130116E+00
         25   -1    0    0    0    0  0.00000000000E+00  0.00000000000E+00  0.99999998245E-14  0.12500000000E+03  0.12500000000E+03 0.  0.
        -13    1    3    3    0    0 -0.34413777064E+01  0.11270845770E+02  0.50989386425E+02  0.52333581350E+02  0.10566000000E+00 0.  1.
         23    2    1    0    0    0  0.27243013199E+01  0.26467509074E+02  0.98388176227E+01  0.96631827932E+02  0.92374005991E+02 0.  0.
         13    1    3    3    0    0  0.61656790264E+01  0.15196663305E+02 -0.41150568802E+02  0.44298246582E+02  0.10566000000E+00 0. -1.
         22    1    1    0    0    0 -0.27243013199E+01 -0.26467509074E+02 -0.98388176227E+01  0.28368172068E+02  0.00000000000E+00 0. -1.
</event>
<event>
 5    1  0.6924865E-004  0.9118800E+02  0.7818608E-02  0.1130116E+00
         25   -1    0    0    0    0  0.00000000000E+00  0.00000000000E+00  0.99999998245E-14  0.12500000000E+03  0.12500000000E+03 0.  0.
        -13    1    3    3    0    0  0.28111886220E+02 -0.49459167307E+02  0.95092946030E+01  0.57679504380E+02  0.10566000000E+00 0. -1.
         23    2    1    0    0    0  0.19887096218E+02 -0.12742665343E+02  0.16812194023E+02  0.96008242828E+02  0.91526284242E+02 0.  0.
         13    1    3    3    0    0 -0.82247900026E+01  0.36716501964E+02  0.73028994202E+01  0.38328738448E+02  0.10566000000E+00 0.  1.
         22    1    1    0    0    0 -0.19887096218E+02  0.12742665343E+02 -0.16812194023E+02  0.28991757172E+02  0.00000000000E+00 0. -1.
</event>
<event>
 5    1  0.6924865E-004  0.9118800E+02  0.7818608E-02  0.1130116E+00
         25   -1    0    0    0    0  0.00000000000E+00  0.00000000000E+00  0.99999998245E-14  0.12500000000E+03  0.12500000000E+03 0.  0.
        -13    1    3    3    0    0  0.10388523411E+01  0.55956559943E+02 -0.18609442335E+02  0.58979134640E+02  0.10566000000E+00 0.  1.
         23    2    1    0    0    0 -0.66220650115E+01  0.30089477919E+02  0.36769028081E+01  0.93971818604E+02  0.88701491820E+02 0.  0.
         13    1    3    3    0    0 -0.76609173526E+01 -0.25867082024E+02  0.22286345143E+02  0.34992683964E+02  0.10566000000E+00 0. -1.
         22    1    1    0    0    0  0.66220650115E+01 -0.30089477919E+02 -0.36769028081E+01  0.31028181396E+02  0.00000000000E+00 0.  1.
</event>
<event>
 5    1  0.6924865E-004  0.9118800E+02  0.7818608E-02  0.1130116E+00
         25   -1    0    0    0    0  0.00000000000E+00  0.00000000000E+00  0.99999998245E-14  0.12500000000E+03  0.12500000000E+03 0.  0.
        -13    1    3    3    0    0  0.26000437913E+02  0.20052628777E+02  0.18625915659E+01  0.32887856481E+02  0.10566000000E+00 0. -1.
         23    2    1    0    0    0 -0.24463799488E+02 -0.13270858316E+02 -0.11609274921E+02  0.94844263729E+02  0.89922555193E+02 0.  0.
         13    1    3    3    0    0 -0.50464237400E+02 -0.33323487093E+02 -0.13471866487E+02  0.61956407249E+02  0.10566000000E+00 0.  1.
         22    1    1    0    0    0  0.24463799488E+02  0.13270858316E+02  0.11609274921E+02  0.30155736271E+02  0.00000000000E+00 0.  1.
</event>
<event>
 5    1  0.6924865E-004  0.9118800E+02  0.7818608E-02  0.1130116E+00
         25   -1    0    0    0    0  0.00000000000E+00  0.00000000000E+00  0.99999998245E-14  0.12500000000E+03  0.12500000000E+03 0.  0.
        -13    1    3    3    0    0 -0.45615730120E+01 -0.18512956017E+02 -0.38669972305E+02  0.43115141319E+02  0.10566000000E+00 0.  1.
         23    2    1    0    0    0 -0.17798752411E+02  0.16585814308E+02  0.44492852847E+01  0.10026781524E+03  0.97169716523E+02 0.  0.
         13    1    3    3    0    0 -0.13237179399E+02  0.35098770325E+02  0.43119257590E+02  0.57152673917E+02  0.10566000000E+00 0. -1.
         22    1    1    0    0    0  0.17798752411E+02 -0.16585814308E+02 -0.44492852847E+01  0.24732184764E+02  0.00000000000E+00 0. -1.
</event>
<event>
 5    1  0.6924865E-004  0.9118800E+02  0.7818608E-02  0.1130116E+00
         25   -1    0    0    0    0  0.00000000000E+00  0.00000000000E+00  0.99999998245E-14  0.12500000000E+03  0.12500000000E+03 0.  0.
        -13    1    3    3    0    0 -0.40468427880E+02 -0.28493886363E+02 -0.33771473589E+02  0.59917600148E+02  0.10566000000E+00 0. -1.
         23    2    1    0    0    0 -0.26302603563E+02 -0.84922349274E+01 -0.64580054461E+01  0.96616010806E+02  0.92352599863E+02 0.  0.
         13    1    3    3    0    0  0.14165824317E+02  0.20001651436E+02  0.27313468143E+02  0.36698410657E+02  0.10566000000E+00 0.  1.
         22    1    1    0    0    0  0.26302603563E+02  0.84922349274E+01  0.64580054461E+01  0.28383989194E+02  0.00000000000E+00 0. -1.
</event>
<event>
 5    1  0.6924865E-004  0.9118800E+02  0.7818608E-02  0.1130116E+00
         25   -1    0    0    0    0  0.00000000000E+00  0.00000000000E+00  0.99999998245E-14  0.12500000000E+03  0.12500000000E+03 0.  0.
        -13    1    3    3    0    0  0.47677838004E+02  0.23625589856E+02 -0.23474546722E+01  0.53262242163E+02  0.10566000000E+00 0.  1.
         23    2    1    0    0    0  0.19353429225E+02  0.28847528066E+01 -0.23633198716E+02  0.94317674419E+02  0.89187547363E+02 0.  0.
         13    1    3    3    0    0 -0.28324408779E+02 -0.20740837049E+02 -0.21285744044E+02  0.41055432256E+02  0.10566000000E+00 0. -1.
         22    1    1    0    0    0 -0.19353429225E+02 -0.28847528066E+01  0.23633198716E+02  0.30682325581E+02  0.00000000000E+00 0. -1.
</event>
<event>
 5    1  0.6924865E-004  0.9118800E+02  0.7818608E-02  0.1130116E+00
         25   -1    0    0    0    0  0.00000000000E+00  0.00000000000E+00  0.99999998245E-14  0.12500000000E+03  0.12500000000E+03 0.  0.
        -13    1    3    3    0    0  0.36375224802E+02 -0.11596220292E+02 -0.12253648206E+02  0.40097286228E+02  0.10566000000E+00 0. -1.
         23    2    1    0    0    0 -0.11736811562E+02 -0.25853108752E+02  0.98740101679E+01  0.94939526707E+02  0.90054881471E+02 0.  0.
         13    1    3    3    0    0 -0.48112036364E+02 -0.14256888460E+02  0.22127658374E+02  0.54842240479E+02  0.10566000000E+00 0.  1.
         22    1    1    0    0    0  0.11736811562E+02  0.25853108752E+02 -0.98740101679E+01  0.30060473293E+02  0.00000000000E+00 0.  1.
</event>
<event>
 5    1  0.6924865E-004  0.9118800E+02  0.7818608E-02  0.1130116E+00
         25   -1    0    0    0    0  0.00000000000E+00  0.00000000000E+00  0.99999998245E-14  0.12500000000E+03  0.12500000000E+03 0.  0.
        -13    1    3    3    0    0  0.17101303848E+02 -0.24688679992E+02  0.16184675389E+02  0.34116570674E+02  0.10566000000E+00 0. -1.
         23    2    1    0    0    0 -0.26728558130E+02  0.13765948710E+02 -0.10439397579E+01  0.94916666179E+02  0.90023144495E+02 0.  0.
         13    1    3    3    0    0 -0.43829861978E+02  0.38454628701E+02 -0.17228615147E+02  0.60800095505E+02  0.10566000000E+00 0.  1.
         22    1    1    0    0    0  0.26728558130E+02 -0.13765948710E+02  0.10439397579E+01  0.30083333821E+02  0.00000000000E+00 0.  1.
</event>
<event>
 5    1  0.6924865E-004  0.9118800E+02  0.7818608E-02  0.1130116E+00
         25   -1    0    0    0    0  0.00000000000E+00  0.00000000000E+00  0.99999998245E-14  0.12500000000E+03  0.12500000000E+03 0.  0.
        -13    1    3    3    0    0 -0.75525352648E+01 -0.25224300645E+02 -0.54430495994E+02  0.60464834327E+02  0.10566000000E+00 0.  1.
         23    2    1    0    0    0 -0.14785928163E+02 -0.11379852196E+02 -0.24747925063E+02  0.94006702295E+02  0.88750637034E+02 0.  0.
         13    1    3    3    0    0 -0.72333928987E+01  0.13844448449E+02  0.29682570931E+02  0.33541867968E+02  0.10566000000E+00 0. -1.
         22    1    1    0    0    0  0.14785928163E+02  0.11379852196E+02  0.24747925063E+02  0.30993297705E+02  0.00000000000E+00 0.  1.
</event>
<event>
 5    1  0.6924865E-004  0.9118800E+02  0.7818608E-02  0.1130116E+00
         25   -1    0    0    0    0  0.00000000000E+00  0.00000000000E+00  0.99999998245E-14  0.12500000000E+03  0.12500000000E+03 0.  0.
        -13    1    3    3    0    0  0.40415022820E+02 -0.26284157061E+02  0.23365628444E+02  0.53574198440E+02  0.10566000000E+00 0.  1.
         23    2    1    0    0    0  0.25334949672E+01 -0.36919178176E+01  0.26812958142E+02  0.97815747605E+02  0.93962422815E+02 0.  0.
         13    1    3    3    0    0 -0.37881527852E+02  0.22592239243E+02  0.34473296982E+01  0.44241549165E+02  0.10566000000E+00 0. -1.
         22    1    1    0    0    0 -0.25334949672E+01  0.36919178176E+01 -0.26812958142E+02  0.27184252395E+02  0.00000000000E+00 0.  1.
</event>
<event>
 5    1  0.6924865E-004  0.9118800E+02  0.7818608E-02  0.1130116E+00
         25   -1    0    0    0    0  0.00000000000E+00  0.00000000000E+00  0.99999998245E-14  0.12500000000E+03  0.12500000000E+03 0.  0.
        -13    1    3    3    0    0 -0.34111928830E+02  0.32661917822E+02  0.13918503304E+02  0.49235764060E+02  0.10566000000E+00 0. -1.
         23    2    1    0    0    0 -0.29979076536E+02  0.14004616386E+02 -0.18665052233E+02  0.87009758030E+02  0.78277963103E+02 0.  0.
         13    1    3    3    0    0  0.41328522937E+01 -0.18657301437E+02 -0.32583555537E+02  0.37773993970E+02  0.10566000000E+00 0.  1.
         22    1    1    0    0    0  0.29979076536E+02 -0.14004616386E+02  0.18665052233E+02  0.37990241970E+02  0.00000000000E+00 0. -1.
</event>
<event>
 5    1  0.6924865E-004  0.9118800E+02  0.7818608E-02  0.1130116E+00
         25   -1    0    0    0    0  0.00000000000E+00  0.00000000000E+00  0.99999998245E-14  0.12500000000E+03  0.12500000000E+03 0.  0.
        -13    1    3    3    0    0 -0.29553159985E+02  0.16572037139E+02  0.18816171483E+01  0.33934839431E+02  0.10566000000E+00 0. -1.
         23    2    1    0    0    0  0.15242953354E+02 -0.24748604877E+02 -0.58011493270E+01  0.95360593733E+02  0.90637456018E+02 0.  0.
         13    1    3    3    0    0  0.44796113340E+02 -0.41320642016E+02 -0.76827664753E+01  0.61425754303E+02  0.10566000000E+00 0.  1.
         22    1    1    0    0    0 -0.15242953354E+02  0.24748604877E+02  0.58011493270E+01  0.29639406267E+02  0.00000000000E+00 0.  1.
</event>
<event>
 5    1  0.6924865E-004  0.9118800E+02  0.7818608E-02  0.1130116E+00
         25   -1    0    0    0    0  0.00000000000E+00  0.00000000000E+00  0.99999998245E-14  0.12500000000E+03  0.12500000000E+03 0.  0.
        -13    1    3    3    0    0  0.42399710416E+02  0.24682493694E+02 -0.36046029655E+02  0.60879293329E+02  0.10566000000E+00 0. -1.
         23    2    1    0    0    0  0.25647610249E+02  0.55822395615E+01 -0.11047625313E+02  0.96521739255E+02  0.92224914279E+02 0.  0.
         13    1    3    3    0    0 -0.16752100166E+02 -0.19100254133E+02  0.24998404342E+02  0.35642445926E+02  0.10566000000E+00 0.  1.
         22    1    1    0    0    0 -0.25647610249E+02 -0.55822395615E+01  0.11047625313E+02  0.28478260745E+02  0.00000000000E+00 0. -1.
</event>
<event>
 5    1  0.6924865E-004  0.9118800E+02  0.7818608E-02  0.1130116E+00
         25   -1    0    0    0    0  0.00000000000E+00  0.00000000000E+00  0.99999998245E-14  0.12500000000E+03  0.12500000000E+03 0.  0.
        -13    1    3    3    0    0 -0.24038375976E+02 -0.15791868585E+02  0.51245356810E+02  0.58764992909E+02  0.10566000000E+00 0.  1.
         23    2    1    0    0    0 -0.25479139135E+02 -0.32075867035E+01  0.20096094262E+02  0.92391287237E+02  0.86445484608E+02 0.  0.
         13    1    3    3    0    0 -0.14407631581E+01  0.12584281881E+02 -0.31149262548E+02  0.33626294328E+02  0.10566000000E+00 0. -1.
         22    1    1    0    0    0  0.25479139135E+02  0.32075867035E+01 -0.20096094262E+02  0.32608712763E+02  0.00000000000E+00 0.  1.
</event>
<event>
 5    1  0.6924865E-004  0.9118800E+02  0.7818608E-02  0.1130116E+00
         25   -1    0    0    0    0  0.00000000000E+00  0.00000000000E+00  0.99999998245E-14  0.12500000000E+03  0.12500000000E+03 0.  0.
        -13    1    3    3    0    0  0.12361268897E+02  0.35252090891E+02 -0.21522949075E+02  0.43113331834E+02  0.10566000000E+00 0. -1.
         23    2    1    0    0    0 -0.23586775618E+02  0.88438231041E+01  0.10172548291E+02  0.97833293724E+02  0.93985761853E+02 0.  0.
         13    1    3    3    0    0 -0.35948044514E+02 -0.26408267787E+02  0.31695497366E+02  0.54719961890E+02  0.10566000000E+00 0.  1.
         22    1    1    0    0    0  0.23586775618E+02 -0.88438231041E+01 -0.10172548291E+02  0.27166706276E+02  0.00000000000E+00 0.  1.
</event>
<event>
 5    1  0.6924865E-004  0.9118800E+02  0.7818608E-02  0.1130116E+00
         25   -1    0    0    0    0  0.00000000000E+00  0.00000000000E+00  0.99999998245E-14  0.12500000000E+03  0.12500000000E+03 0.  0.
        -13    1    3    3    0    0  0.14019953768E+02  0.33078032272E+02  0.45318215686E+02  0.57831368302E+02  0.10566000000E+00 0. -1.
         23    2    1    0    0    0  0.19371797498E+02  0.17406325652E+02  0.95257202443E+01  0.97269402149E+02  0.93232776089E+02 0.  0.
         13    1    3    3    0    0  0.53518437303E+01 -0.15671706620E+02 -0.35792495442E+02  0.39438033847E+02  0.10566000000E+00 0.  1.
         22    1    1    0    0    0 -0.19371797498E+02 -0.17406325652E+02 -0.95257202443E+01  0.27730597851E+02  0.00000000000E+00 0. -1.
</event>
<event>
 5    1  0.6924865E-004  0.9118800E+02  0.7818608E-02  0.1130116E+00
         25   -1    0    0    0    0  0.00000000000E+00  0.00000000000E+00  0.99999998245E-14  0.12500000000E+03  0.12500000000E+03 0.  0.
        -13    1    3    3    0    0  0.45980734692E+02  0.23415431818E+01 -0.54806264201E+01  0.46365495977E+02  0.10566000000E+00 0. -1.
         23    2    1    0    0    0  0.57083862470E+01 -0.26686552244E+02 -0.93316539062E+01  0.96158406618E+02  0.91731137867E+02 0.  0.
         13    1    3    3    0    0 -0.40272348445E+02 -0.29028095426E+02 -0.38510274861E+01  0.49792910640E+02  0.10566000000E+00 0.  1.
         22    1    1    0    0    0 -0.57083862470E+01  0.26686552244E+02  0.93316539062E+01  0.28841593382E+02  0.00000000000E+00 0. -1.
</event>
<event>
 5    1  0.6924865E-004  0.9118800E+02  0.7818608E-02  0.1130116E+00
         25   -1    0    0    0    0  0.00000000000E+00  0.00000000000E+00  0.99999998245E-14  0.12500000000E+03  0.12500000000E+03 0.  0.
        -13    1    3    3    0    0  0.32678345768E+01  0.49782748222E+02 -0.36471598308E+02  0.61799590699E+02  0.10566000000E+00 0.  1.
         23    2    1    0    0    0 -0.35901972635E+01  0.22481768096E+02 -0.21514734222E+02  0.93675836775E+02  0.88283402708E+02 0.  0.
         13    1    3    3    0    0 -0.68580318403E+01 -0.27300980126E+02  0.14956864086E+02  0.31876246076E+02  0.10566000000E+00 0. -1.
         22    1    1    0    0    0  0.35901972635E+01 -0.22481768096E+02  0.21514734222E+02  0.31324163225E+02  0.00000000000E+00 0.  1.
</event>
<event>
 5    1  0.6924865E-004  0.9118800E+02  0.7818608E-02  0.1130116E+00
         25   -1    0    0    0    0  0.00000000000E+00  0.00000000000E+00  0.99999998245E-14  0.12500000000E+03  0.12500000000E+03 0.  0.
        -13    1    3    3    0    0  0.56002243479E+02 -0.11541980941E+01 -0.26424685803E+02  0.61934309004E+02  0.10566000000E+00 0.  1.
         23    2    1    0    0    0  0.25558307301E+02 -0.63878859457E+01 -0.13138043811E+02  0.95561244012E+02  0.90913755852E+02 0.  0.
         13    1    3    3    0    0 -0.30443936179E+02 -0.52336878516E+01  0.13286641992E+02  0.33626935008E+02  0.10566000000E+00 0. -1.
         22    1    1    0    0    0 -0.25558307301E+02  0.63878859457E+01  0.13138043811E+02  0.29438755988E+02  0.00000000000E+00 0.  1.
</event>
<event>
 5    1  0.6924865E-004  0.9118800E+02  0.7818608E-02  0.1130116E+00
         25   -1    0    0    0    0  0.00000000000E+00  0.00000000000E+00  0.99999998245E-14  0.12500000000E+03  0.12500000000E+03 0.  0.
        -13    1    3    3    0    0  0.35948702267E+02 -0.41026597649E+02  0.53062130850E+01  0.54805638129E+02  0.10566000000E+00 0. -1.
         23    2    1    0    0    0  0.28769118269E+02 -0.87512152204E+00 -0.15932345700E+01  0.96173512180E+02  0.91751719575E+02 0.  0.
         13    1    3    3    0    0 -0.71795839988E+01  0.40151476127E+02 -0.68994476551E+01  0.41367874051E+02  0.10566000000E+00 0.  1.
         22    1    1    0    0    0 -0.28769118269E+02  0.87512152204E+00  0.15932345700E+01  0.28826487820E+02  0.00000000000E+00 0. -1.
</event>
<event>
 5    1  0.6924865E-004  0.9118800E+02  0.7818608E-02  0.1130116E+00
         25   -1    0    0    0    0  0.00000000000E+00  0.00000000000E+00  0.99999998245E-14  0.12500000000E+03  0.12500000000E+03 0.  0.
        -13    1    3    3    0    0 -0.15746215756E+02  0.14514473587E+01  0.50038220966E+02  0.52477468799E+02  0.10566000000E+00 0. -1.
         23    2    1    0    0    0  0.10122918544E+02 -0.17643267494E+02  0.19528070541E+02  0.96802413104E+02  0.92604553214E+02 0.  0.
         13    1    3    3    0    0  0.25869134299E+02 -0.19094714853E+02 -0.30510150424E+02  0.44324944305E+02  0.10566000000E+00 0.  1.
         22    1    1    0    0    0 -0.10122918544E+02  0.17643267494E+02 -0.19528070541E+02  0.28197586896E+02  0.00000000000E+00 0. -1.
</event>
<event>
 5    1  0.6924865E-004  0.9118800E+02  0.7818608E-02  0.1130116E+00
         25   -1    0    0    0    0  0.00000000000E+00  0.00000000000E+00  0.99999998245E-14  0.12500000000E+03  0.12500000000E+03 0.  0.
        -13    1    3    3    0    0 -0.26512281825E+02 -0.47973292801E+02  0.18573612326E+02  0.57873380311E+02  0.10566000000E+00 0. -1.
         23    2    1    0    0    0 -0.25396670136E+02 -0.11560971211E+02  0.56345473497E+01  0.96532561879E+02  0.92239581904E+02 0.  0.
         13    1    3    3    0    0  0.11156116895E+01  0.36412321590E+02 -0.12939064976E+02  0.38659181568E+02  0.10566000000E+00 0.  1.
         22    1    1    0    0    0  0.25396670136E+02  0.11560971211E+02 -0.56345473497E+01  0.28467438121E+02  0.00000000000E+00 0. -1.
</event>
<event>
 5    1  0.6924865E-004  0.9118800E+02  0.7818608E-02  0.1130116E+00
         25   -1    0    0    0    0  0.00000000000E+00  0.00000000000E+00  0.99999998245E-14  0.12500000000E+03  0.12500000000E+03 0.  0.
        -13    1    3    3    0    0 -0.17800070363E+01  0.23931645526E+02  0.36531182242E+02  0.43708471978E+02  0.10566000000E+00 0.  1.
         23    2    1    0    0    0 -0.32145050338E+02  0.17587434149E+02  0.48661046292E+01  0.88036489946E+02  0.79900703918E+02 0.  0.
         13    1    3    3    0    0 -0.30365043302E+02 -0.63442113766E+01 -0.31665077613E+02  0.44328017968E+02  0.10566000000E+00 0. -1.
         22    1    1    0    0    0  0.32145050338E+02 -0.17587434149E+02 -0.48661046292E+01  0.36963510054E+02  0.00000000000E+00 0. -1.
</event>
<event>
 5    1  0.6924865E-004  0.9118800E+02  0.7818608E-02  0.1130116E+00
         25   -1    0    0    0    0  0.00000000000E+00  0.00000000000E+00  0.99999998245E-14  0.12500000000E+03  0.12500000000E+03 0.  0.
        -13    1    3    3    0    0 -0.29336318563E+02 -0.11003726154E+02  0.22483319832E+02  0.38564393043E+02  0.10566000000E+00 0. -1.
         23    2    1    0    0    0 -0.32858821274E+02 -0.27113241884E+02 -0.15256488020E+02  0.79749691187E+02  0.65669039865E+02 0.  0.
         13    1    3    3    0    0 -0.35225027105E+01 -0.16109515730E+02 -0.37739807852E+02  0.41185298143E+02  0.10566000000E+00 0.  1.
         22    1    1    0    0    0  0.32858821274E+02  0.27113241884E+02  0.15256488020E+02  0.45250308813E+02  0.00000000000E+00 0.  1.
</event>
<event>
 5    1  0.6924865E-004  0.9118800E+02  0.7818608E-02  0.1130116E+00
         25   -1    0    0    0    0  0.00000000000E+00  0.00000000000E+00  0.99999998245E-14  0.12500000000E+03  0.12500000000E+03 0.  0.
        -13    1    3    3    0    0 -0.32093896009E+02  0.26579107595E+02 -0.41629265053E+01  0.41878493797E+02  0.10566000000E+00 0.  1.
         23    2    1    0    0    0  0.15055875796E+02  0.32615510865E+01  0.19992901876E+02  0.99760482634E+02  0.96514872732E+02 0.  0.
         13    1    3    3    0    0  0.47149771805E+02 -0.23317556509E+02  0.24155828381E+02  0.57881988836E+02  0.10566000000E+00 0. -1.
         22    1    1    0    0    0 -0.15055875796E+02 -0.32615510865E+01 -0.19992901876E+02  0.25239517366E+02  0.00000000000E+00 0. -1.
</event>
<event>
 5    1  0.6924865E-004  0.9118800E+02  0.7818608E-02  0.1130116E+00
         25   -1    0    0    0    0  0.00000000000E+00  0.00000000000E+00  0.99999998245E-14  0.12500000000E+03  0.12500000000E+03 0.  0.
        -13    1    3    3    0    0  0.24717263954E+02  0.33232888679E+02 -0.32053010001E+01  0.41540981523E+02  0.10566000000E+00 0.  1.
         23    2    1    0    0    0 -0.92312537555E+01  0.61159913688E+01  0.27904027524E+02  0.94979071493E+02  0.90109754596E+02 0.  0.
         13    1    3    3    0    0 -0.33948517709E+02 -0.27116897311E+02  0.31109328525E+02  0.53438089970E+02  0.10566000000E+00 0. -1.
         22    1    1    0    0    0  0.92312537555E+01 -0.61159913688E+01 -0.27904027524E+02  0.30020928507E+02  0.00000000000E+00 0. -1.
</event>
<event>
 5    1  0.6924865E-004  0.9118800E+02  0.7818608E-02  0.1130116E+00
         25   -1    0    0    0    0  0.00000000000E+00  0.00000000000E+00  0.99999998245E-14  0.12500000000E+03  0.12500000000E+03 0.  0.
        -13    1    3    3    0    0  0.71150669787E+00  0.12776739561E+02 -0.40249473469E+02  0.42234850469E+02  0.10566000000E+00 0.  1.
         23    2    1    0    0    0  0.26578541491E+02 -0.14185766845E+02 -0.33036667515E+02  0.80288969490E+02  0.66687647825E+02 0.  0.
         13    1    3    3    0    0  0.25867034793E+02 -0.26962506406E+02  0.72128059539E+01  0.38054119021E+02  0.10566000000E+00 0. -1.
         22    1    1    0    0    0 -0.26578541491E+02  0.14185766845E+02  0.33036667515E+02  0.44711030510E+02  0.00000000000E+00 0. -1.
</event>
<event>
 5    1  0.6924865E-004  0.9118800E+02  0.7818608E-02  0.1130116E+00
         25   -1    0    0    0    0  0.00000000000E+00  0.00000000000E+00  0.99999998245E-14  0.12500000000E+03  0.12500000000E+03 0.  0.
        -13    1    3    3    0    0 -0.54710427643E+02  0.20696290864E+02 -0.68631850770E+01  0.58895516144E+02  0.10566000000E+00 0.  1.
         23    2    1    0    0    0 -0.18064056738E+02  0.22634300297E+02 -0.47501887585E+01  0.95654029425E+02  0.91041239865E+02 0.  0.
         13    1    3    3    0    0  0.36646370906E+02  0.19380094328E+01  0.21129963185E+01  0.36758513281E+02  0.10566000000E+00 0. -1.
         22    1    1    0    0    0  0.18064056738E+02 -0.22634300297E+02  0.47501887585E+01  0.29345970575E+02  0.00000000000E+00 0.  1.
</event>
<event>
 5    1  0.6924865E-004  0.9118800E+02  0.7818608E-02  0.1130116E+00
         25   -1    0    0    0    0  0.00000000000E+00  0.00000000000E+00  0.99999998245E-14  0.12500000000E+03  0.12500000000E+03 0.  0.
        -13    1    3    3    0    0  0.19233443687E+02  0.24581344211E+01 -0.30582289589E+02  0.36211260423E+02  0.10566000000E+00 0.  1.
         23    2    1    0    0    0 -0.78213732103E+01 -0.17848139200E+02  0.20008879959E+02  0.97069994110E+02  0.92965039276E+02 0.  0.
         13    1    3    3    0    0 -0.27054816897E+02 -0.20306273621E+02  0.50591169548E+02  0.60858733687E+02  0.10566000000E+00 0. -1.
         22    1    1    0    0    0  0.78213732103E+01  0.17848139200E+02 -0.20008879959E+02  0.27930005890E+02  0.00000000000E+00 0. -1.
</event>
<event>
 5    1  0.6924865E-004  0.9118800E+02  0.7818608E-02  0.1130116E+00
         25   -1    0    0    0    0  0.00000000000E+00  0.00000000000E+00  0.99999998245E-14  0.12500000000E+03  0.12500000000E+03 0.  0.
        -13    1    3    3    0    0 -0.31934256194E+02 -0.16881401097E+02  0.30061496210E+02  0.46994501169E+02  0.10566000000E+00 0. -1.
         23    2    1    0    0    0 -0.19781747009E+02 -0.17573396611E+02 -0.15622282318E+02  0.94272203333E+02  0.89123794989E+02 0.  0.
         13    1    3    3    0    0  0.12152509185E+02 -0.69199551430E+00 -0.45683778528E+02  0.47277702164E+02  0.10566000000E+00 0.  1.
         22    1    1    0    0    0  0.19781747009E+02  0.17573396611E+02  0.15622282318E+02  0.30727796667E+02  0.00000000000E+00 0.  1.
</event>
<event>
 5    1  0.6924865E-004  0.9118800E+02  0.7818608E-02  0.1130116E+00
         25   -1    0    0    0    0  0.00000000000E+00  0.00000000000E+00  0.99999998245E-14  0.12500000000E+03  0.12500000000E+03 0.  0.
        -13    1    3    3    0    0  0.24166003584E+02  0.33454631261E+01  0.34177513377E+02  0.41991682956E+02  0.10566000000E+00 0.  1.
         23    2    1    0    0    0 -0.74354301131E+01  0.28164066913E+02 -0.16463033409E+01  0.95824486282E+02  0.91274977789E+02 0.  0.
         13    1    3    3    0    0 -0.31601433698E+02  0.24818603787E+02 -0.35823816718E+02  0.53832803326E+02  0.10566000000E+00 0. -1.
         22    1    1    0    0    0  0.74354301131E+01 -0.28164066913E+02  0.16463033409E+01  0.29175513718E+02  0.00000000000E+00 0. -1.
</event>
<event>
 5    1  0.6924865E-004  0.9118800E+02  0.7818608E-02  0.1130116E+00
         25   -1    0    0    0    0  0.00000000000E+00  0.00000000000E+00  0.99999998245E-14  0.12500000000E+03  0.12500000000E+03 0.  0.
        -13    1    3    3    0    0 -0.14950078947E+02  0.83443050993E+01  0.39739396659E+02  0.43270811166E+02  0.10566000000E+00 0. -1.
         23    2    1    0    0    0 -0.12854823743E+02  0.24506243923E+02 -0.99715553066E+01  0.95585133012E+02  0.90946595610E+02 0.  0.
         13    1    3    3    0    0  0.20952552048E+01  0.16161938824E+02 -0.49710951965E+02  0.52314321846E+02  0.10566000000E+00 0.  1.
         22    1    1    0    0    0  0.12854823743E+02 -0.24506243923E+02  0.99715553066E+01  0.29414866988E+02  0.00000000000E+00 0.  1.
</event>
<event>
 5    1  0.6924865E-004  0.9118800E+02  0.7818608E-02  0.1130116E+00
         25   -1    0    0    0    0  0.00000000000E+00  0.00000000000E+00  0.99999998245E-14  0.12500000000E+03  0.12500000000E+03 0.  0.
        -13    1    3    3    0    0 -0.27852533346E+02  0.53759925473E+02 -0.49606631208E+01  0.60749588832E+02  0.10566000000E+00 0. -1.
         23    2    1    0    0    0 -0.20678002878E+02  0.20415475395E+02  0.30406837768E+01  0.95783271975E+02  0.91218517823E+02 0.  0.
         13    1    3    3    0    0  0.71745304677E+01 -0.33344450077E+02  0.80013468976E+01  0.35033683143E+02  0.10566000000E+00 0.  1.
         22    1    1    0    0    0  0.20678002878E+02 -0.20415475395E+02 -0.30406837768E+01  0.29216728025E+02  0.00000000000E+00 0. -1.
</event>
<event>
 5    1  0.6924865E-004  0.9118800E+02  0.7818608E-02  0.1130116E+00
         25   -1    0    0    0    0  0.00000000000E+00  0.00000000000E+00  0.99999998245E-14  0.12500000000E+03  0.12500000000E+03 0.  0.
        -13    1    3    3    0    0  0.10642986122E+02  0.47000253095E+02 -0.25236401025E+02  0.54398382745E+02  0.10566000000E+00 0.  1.
         23    2    1    0    0    0 -0.80340705086E+01  0.24572889099E+02  0.73286790653E+01  0.98128403389E+02  0.94377438232E+02 0.  0.
         13    1    3    3    0    0 -0.18677056631E+02 -0.22427363996E+02  0.32565080090E+02  0.43730020644E+02  0.10566000000E+00 0. -1.
         22    1    1    0    0    0  0.80340705086E+01 -0.24572889099E+02 -0.73286790653E+01  0.26871596611E+02  0.00000000000E+00 0. -1.
</event>
<event>
 5    1  0.6924865E-004  0.9118800E+02  0.7818608E-02  0.1130116E+00
         25   -1    0    0    0    0  0.00000000000E+00  0.00000000000E+00  0.99999998245E-14  0.12500000000E+03  0.12500000000E+03 0.  0.
        -13    1    3    3    0    0  0.28151653410E+02 -0.26165622553E+02 -0.60968558076E+01  0.38914498687E+02  0.10566000000E+00 0.  1.
         23    2    1    0    0    0 -0.47002801770E+01  0.24716019927E+02 -0.40688289510E+01  0.99514128545E+02  0.96195281258E+02 0.  0.
         13    1    3    3    0    0 -0.32851933587E+02  0.50881642480E+02  0.20280268567E+01  0.60599629858E+02  0.10566000000E+00 0. -1.
         22    1    1    0    0    0  0.47002801770E+01 -0.24716019927E+02  0.40688289510E+01  0.25485871455E+02  0.00000000000E+00 0. -1.
</event>
<event>
 5    1  0.6924865E-004  0.9118800E+02  0.7818608E-02  0.1130116E+00
         25   -1    0    0    0    0  0.00000000000E+00  0.00000000000E+00  0.99999998245E-14  0.12500000000E+03  0.12500000000E+03 0.  0.
        -13    1    3    3    0    0 -0.15380094283E+01 -0.15463109850E+02 -0.14004275882E+02  0.20918990087E+02  0.10566000000E+00 0. -1.
         23    2    1    0    0    0 -0.44865536438E+02 -0.17249380882E+02  0.16767592897E+02  0.74092145280E+02  0.53833412673E+02 0.  0.
         13    1    3    3    0    0 -0.43327527010E+02 -0.17862710314E+01  0.30771868779E+02  0.53173155193E+02  0.10566000000E+00 0.  1.
         22    1    1    0    0    0  0.44865536438E+02  0.17249380882E+02 -0.16767592897E+02  0.50907854720E+02  0.00000000000E+00 0. -1.
</event>
<event>
 5    1  0.6924865E-004  0.9118800E+02  0.7818608E-02  0.1130116E+00
         25   -1    0    0    0    0  0.00000000000E+00  0.00000000000E+00  0.99999998245E-14  0.12500000000E+03  0.12500000000E+03 0.  0.
        -13    1    3    3    0    0  0.29718336660E+02 -0.26865263112E+02 -0.17338809244E+02  0.43652804789E+02  0.10566000000E+00 0.  1.
         23    2    1    0    0    0  0.39250027727E+01 -0.98439073666E+01  0.26023987695E+02  0.96900959188E+02  0.92737477844E+02 0.  0.
         13    1    3    3    0    0 -0.25793333887E+02  0.17021355746E+02  0.43362796939E+02  0.53248154399E+02  0.10566000000E+00 0. -1.
         22    1    1    0    0    0 -0.39250027727E+01  0.98439073666E+01 -0.26023987695E+02  0.28099040812E+02  0.00000000000E+00 0. -1.
</event>
<event>
 5    1  0.6924865E-004  0.9118800E+02  0.7818608E-02  0.1130116E+00
         25   -1    0    0    0    0  0.00000000000E+00  0.00000000000E+00  0.99999998245E-14  0.12500000000E+03  0.12500000000E+03 0.  0.
        -13    1    3    3    0    0 -0.12408421847E+02 -0.32911710764E+02  0.11571742158E+02  0.37027908646E+02  0.10566000000E+00 0.  1.
         23    2    1    0    0    0  0.27109113398E+02  0.98339530551E+01  0.63189523231E+01  0.95478146732E+02  0.90799431071E+02 0.  0.
         13    1    3    3    0    0  0.39517535245E+02  0.42745663819E+02 -0.52527898346E+01  0.58450238085E+02  0.10566000000E+00 0. -1.
         22    1    1    0    0    0 -0.27109113398E+02 -0.98339530551E+01 -0.63189523231E+01  0.29521853268E+02  0.00000000000E+00 0.  1.
</event>
<event>
 5    1  0.6924865E-004  0.9118800E+02  0.7818608E-02  0.1130116E+00
         25   -1    0    0    0    0  0.00000000000E+00  0.00000000000E+00  0.99999998245E-14  0.12500000000E+03  0.12500000000E+03 0.  0.
        -13    1    3    3    0    0  0.29077921954E+02 -0.17336826897E+02 -0.52242068410E+02  0.62252196651E+02  0.10566000000E+00 0.  1.
         23    2    1    0    0    0  0.16280301716E+02 -0.58658730525E+01 -0.22336554462E+02  0.96744410184E+02  0.92526226261E+02 0.  0.
         13    1    3    3    0    0 -0.12797620238E+02  0.11470953845E+02  0.29905513948E+02  0.34492213533E+02  0.10566000000E+00 0. -1.
         22    1    1    0    0    0 -0.16280301716E+02  0.58658730525E+01  0.22336554462E+02  0.28255589816E+02  0.00000000000E+00 0.  1.
</event>
<event>
 5    1  0.6924865E-004  0.9118800E+02  0.7818608E-02  0.1130116E+00
         25   -1    0    0    0    0  0.00000000000E+00  0.00000000000E+00  0.99999998245E-14  0.12500000000E+03  0.12500000000E+03 0.  0.
        -13    1    3    3    0    0 -0.15221727456E+01  0.50147431324E+02  0.35351141227E+02  0.61374230979E+02  0.10566000000E+00 0.  1.
         23    2    1    0    0    0 -0.33606968393E+01  0.17018172149E+02  0.21613714058E+02  0.97286012522E+02  0.93255043458E+02 0.  0.
         13    1    3    3    0    0 -0.18385240937E+01 -0.33129259175E+02 -0.13737427168E+02  0.35911781542E+02  0.10566000000E+00 0. -1.
         22    1    1    0    0    0  0.33606968393E+01 -0.17018172149E+02 -0.21613714058E+02  0.27713987478E+02  0.00000000000E+00 0.  1.
</event>
<event>
 5    1  0.6924865E-004  0.9118800E+02  0.7818608E-02  0.1130116E+00
         25   -1    0    0    0    0  0.00000000000E+00  0.00000000000E+00  0.99999998245E-14  0.12500000000E+03  0.12500000000E+03 0.  0.
        -13    1    3    3    0    0  0.13341092878E+02  0.30947906378E+02  0.82091185772E+01  0.34686574639E+02  0.10566000000E+00 0. -1.
         23    2    1    0    0    0 -0.28045705380E+02 -0.75383889181E+01 -0.10346371600E+02  0.94170853028E+02  0.88981533236E+02 0.  0.
         13    1    3    3    0    0 -0.41386798259E+02 -0.38486295296E+02 -0.18555490177E+02  0.59484278389E+02  0.10566000000E+00 0.  1.
         22    1    1    0    0    0  0.28045705380E+02  0.75383889181E+01  0.10346371600E+02  0.30829146972E+02  0.00000000000E+00 0.  1.
</event>
<event>
 5    1  0.6924865E-004  0.9118800E+02  0.7818608E-02  0.1130116E+00
         25   -1    0    0    0    0  0.00000000000E+00  0.00000000000E+00  0.99999998245E-14  0.12500000000E+03  0.12500000000E+03 0.  0.
        -13    1    3    3    0    0 -0.10263940414E+02 -0.29068304180E+02  0.52385129895E+02  0.60782627278E+02  0.10566000000E+00 0.  1.
         23    2    1    0    0    0 -0.94195410654E+01 -0.20650438046E+02  0.18469826039E+02  0.95737347706E+02  0.91155564429E+02 0.  0.
         13    1    3    3    0    0  0.84439934866E+00  0.84178661336E+01 -0.33915303856E+02  0.34954720428E+02  0.10566000000E+00 0. -1.
         22    1    1    0    0    0  0.94195410654E+01  0.20650438046E+02 -0.18469826039E+02  0.29262652294E+02  0.00000000000E+00 0.  1.
</event>
<event>
 5    1  0.6924865E-004  0.9118800E+02  0.7818608E-02  0.1130116E+00
         25   -1    0    0    0    0  0.00000000000E+00  0.00000000000E+00  0.99999998245E-14  0.12500000000E+03  0.12500000000E+03 0.  0.
        -13    1    3    3    0    0  0.27423343276E+02 -0.59773383102E+01  0.41082557731E+02  0.49754959988E+02  0.10566000000E+00 0. -1.
         23    2    1    0    0    0  0.22369099418E+02  0.18636451636E+02  0.25277107355E+01  0.95775297094E+02  0.91207588903E+02 0.  0.
         13    1    3    3    0    0 -0.50542438576E+01  0.24613789946E+02 -0.38554846995E+02  0.46020337106E+02  0.10566000000E+00 0.  1.
         22    1    1    0    0    0 -0.22369099418E+02 -0.18636451636E+02 -0.25277107355E+01  0.29224702906E+02  0.00000000000E+00 0.  1.
</event>
<event>
 5    1  0.6924865E-004  0.9118800E+02  0.7818608E-02  0.1130116E+00
         25   -1    0    0    0    0  0.00000000000E+00  0.00000000000E+00  0.99999998245E-14  0.12500000000E+03  0.12500000000E+03 0.  0.
        -13    1    3    3    0    0  0.26750718931E+01  0.43444992910E+02  0.14338137270E+02  0.45828121967E+02  0.10566000000E+00 0.  1.
         23    2    1    0    0    0 -0.28148155482E+02  0.58192806131E+01  0.11050708287E+01  0.96235371279E+02  0.91835956029E+02 0.  0.
         13    1    3    3    0    0 -0.30823227376E+02 -0.37625712297E+02 -0.13233066442E+02  0.50407249312E+02  0.10566000000E+00 0. -1.
         22    1    1    0    0    0  0.28148155482E+02 -0.58192806131E+01 -0.11050708287E+01  0.28764628721E+02  0.00000000000E+00 0. -1.
</event>
<event>
 5    1  0.6924865E-004  0.9118800E+02  0.7818608E-02  0.1130116E+00
         25   -1    0    0    0    0  0.00000000000E+00  0.00000000000E+00  0.99999998245E-14  0.12500000000E+03  0.12500000000E+03 0.  0.
        -13    1    3    3    0    0 -0.23646724207E+02 -0.12203651254E+02  0.24529615330E+02  0.36191295388E+02  0.10566000000E+00 0. -1.
         23    2    1    0    0    0  0.29496909570E+02 -0.50903375085E+01  0.21057852925E+00  0.95066347476E+02  0.90230742372E+02 0.  0.
         13    1    3    3    0    0  0.53143633776E+02  0.71133137453E+01 -0.24319036801E+02  0.58875052088E+02  0.10566000000E+00 0.  1.
         22    1    1    0    0    0 -0.29496909570E+02  0.50903375085E+01 -0.21057852925E+00  0.29933652524E+02  0.00000000000E+00 0.  1.
</event>
<event>
 5    1  0.6924865E-004  0.9118800E+02  0.7818608E-02  0.1130116E+00
         25   -1    0    0    0    0  0.00000000000E+00  0.00000000000E+00  0.99999998245E-14  0.12500000000E+03  0.12500000000E+03 0.  0.
        -13    1    3    3    0    0  0.33273635661E+02  0.36525582322E+01 -0.34973770362E+02  0.48411277499E+02  0.10566000000E+00 0.  1.
         23    2    1    0    0    0 -0.70339703878E+01 -0.14559933551E+02 -0.27252405396E+02  0.93311484662E+02  0.87766002333E+02 0.  0.
         13    1    3    3    0    0 -0.40307606049E+02 -0.18212491783E+02  0.77213649660E+01  0.44900207163E+02  0.10566000000E+00 0. -1.
         22    1    1    0    0    0  0.70339703878E+01  0.14559933551E+02  0.27252405396E+02  0.31688515338E+02  0.00000000000E+00 0.  1.
</event>
<event>
 5    1  0.6924865E-004  0.9118800E+02  0.7818608E-02  0.1130116E+00
         25   -1    0    0    0    0  0.00000000000E+00  0.00000000000E+00  0.99999998245E-14  0.12500000000E+03  0.12500000000E+03 0.  0.
        -13    1    3    3    0    0  0.81951600280E-01  0.15339089675E+02  0.31462076214E+02  0.35002396945E+02  0.10566000000E+00 0.  1.
         23    2    1    0    0    0 -0.36831023036E+01  0.39477619025E+01 -0.28418530748E+02  0.96073144718E+02  0.91614879684E+02 0.  0.
         13    1    3    3    0    0 -0.37650539039E+01 -0.11391327773E+02 -0.59880606963E+02  0.61070747773E+02  0.10566000000E+00 0. -1.
         22    1    1    0    0    0  0.36831023036E+01 -0.39477619025E+01  0.28418530748E+02  0.28926855282E+02  0.00000000000E+00 0. -1.
</event>
<event>
 5    1  0.6924865E-004  0.9118800E+02  0.7818608E-02  0.1130116E+00
         25   -1    0    0    0    0  0.00000000000E+00  0.00000000000E+00  0.99999998245E-14  0.12500000000E+03  0.12500000000E+03 0.  0.
        -13    1    3    3    0    0  0.10748863120E+02  0.41960337511E+02  0.14175599775E+02  0.45575945141E+02  0.10566000000E+00 0. -1.
         23    2    1    0    0    0 -0.10025387856E+02  0.15261685514E+02 -0.22864191318E+02  0.95739126961E+02  0.91158004258E+02 0.  0.
         13    1    3    3    0    0 -0.20774250977E+02 -0.26698651998E+02 -0.37039791092E+02  0.50163181820E+02  0.10566000000E+00 0.  1.
         22    1    1    0    0    0  0.10025387856E+02 -0.15261685514E+02  0.22864191318E+02  0.29260873039E+02  0.00000000000E+00 0.  1.
</event>
<event>
 5    1  0.6924865E-004  0.9118800E+02  0.7818608E-02  0.1130116E+00
         25   -1    0    0    0    0  0.00000000000E+00  0.00000000000E+00  0.99999998245E-14  0.12500000000E+03  0.12500000000E+03 0.  0.
        -13    1    3    3    0    0  0.66694661834E+01 -0.36628106260E+02  0.41246319575E+02  0.55564107029E+02  0.10566000000E+00 0.  1.
         23    2    1    0    0    0 -0.55951653991E+01 -0.28583652193E+02  0.39924824032E+01  0.95601514252E+02  0.90969107740E+02 0.  0.
         13    1    3    3    0    0 -0.12264631583E+02  0.80444540666E+01 -0.37253837172E+02  0.40037407223E+02  0.10566000000E+00 0. -1.
         22    1    1    0    0    0  0.55951653991E+01  0.28583652193E+02 -0.39924824032E+01  0.29398485748E+02  0.00000000000E+00 0.  1.
</event>
<event>
 5    1  0.6924865E-004  0.9118800E+02  0.7818608E-02  0.1130116E+00
         25   -1    0    0    0    0  0.00000000000E+00  0.00000000000E+00  0.99999998245E-14  0.12500000000E+03  0.12500000000E+03 0.  0.
        -13    1    3    3    0    0  0.46942262386E+02  0.28919622023E+02  0.19650020448E+02  0.58532512363E+02  0.10566000000E+00 0.  1.
         23    2    1    0    0    0  0.29070853095E+02  0.45906248590E+01 -0.17200458618E+01  0.95518702640E+02  0.90855245638E+02 0.  0.
         13    1    3    3    0    0 -0.17871409291E+02 -0.24328997164E+02 -0.21370066310E+02  0.36986190277E+02  0.10566000000E+00 0. -1.
         22    1    1    0    0    0 -0.29070853095E+02 -0.45906248590E+01  0.17200458618E+01  0.29481297360E+02  0.00000000000E+00 0.  1.
</event>
<event>
 5    1  0.6924865E-004  0.9118800E+02  0.7818608E-02  0.1130116E+00
         25   -1    0    0    0    0  0.00000000000E+00  0.00000000000E+00  0.99999998245E-14  0.12500000000E+03  0.12500000000E+03 0.  0.
        -13    1    3    3    0    0 -0.30370860536E+02 -0.32992190766E+02 -0.35898647144E+02  0.57442126110E+02  0.10566000000E+00 0.  1.
         23    2    1    0    0    0 -0.18053973793E+02 -0.24102665632E+02 -0.17291902519E+01  0.94835872974E+02  0.89910890572E+02 0.  0.
         13    1    3    3    0    0  0.12316886743E+02  0.88895251336E+01  0.34169456893E+02  0.37393746864E+02  0.10566000000E+00 0. -1.
         22    1    1    0    0    0  0.18053973793E+02  0.24102665632E+02  0.17291902519E+01  0.30164127026E+02  0.00000000000E+00 0. -1.
</event>
<event>
 5    1  0.6924865E-004  0.9118800E+02  0.7818608E-02  0.1130116E+00
         25   -1    0    0    0    0  0.00000000000E+00  0.00000000000E+00  0.99999998245E-14  0.12500000000E+03  0.12500000000E+03 0.  0.
        -13    1    3    3    0    0 -0.32907235611E+02  0.62868591519E+01 -0.11963698405E+02  0.35574597638E+02  0.10566000000E+00 0. -1.
         23    2    1    0    0    0  0.25316776105E+02 -0.51217180358E+01 -0.15263486028E+02  0.94997580869E+02  0.90135427093E+02 0.  0.
         13    1    3    3    0    0  0.58224011716E+02 -0.11408577188E+02 -0.32997876235E+01  0.59422983231E+02  0.10566000000E+00 0.  1.
         22    1    1    0    0    0 -0.25316776105E+02  0.51217180358E+01  0.15263486028E+02  0.30002419131E+02  0.00000000000E+00 0.  1.
</event>
<event>
 5    1  0.6924865E-004  0.9118800E+02  0.7818608E-02  0.1130116E+00
         25   -1    0    0    0    0  0.00000000000E+00  0.00000000000E+00  0.99999998245E-14  0.12500000000E+03  0.12500000000E+03 0.  0.
        -13    1    3    3    0    0 -0.24709360575E+02  0.95282560145E+01 -0.24073585958E+02  0.35789507787E+02  0.10566000000E+00 0. -1.
         23    2    1    0    0    0  0.29193766638E+02  0.36461621603E+01  0.10727605357E+01  0.95559868815E+02  0.90911865033E+02 0.  0.
         13    1    3    3    0    0  0.53903127213E+02 -0.58820938542E+01  0.25146346493E+02  0.59770361029E+02  0.10566000000E+00 0.  1.
         22    1    1    0    0    0 -0.29193766638E+02 -0.36461621603E+01 -0.10727605357E+01  0.29440131185E+02  0.00000000000E+00 0.  1.
</event>
<event>
 5    1  0.6924865E-004  0.9118800E+02  0.7818608E-02  0.1130116E+00
         25   -1    0    0    0    0  0.00000000000E+00  0.00000000000E+00  0.99999998245E-14  0.12500000000E+03  0.12500000000E+03 0.  0.
        -13    1    3    3    0    0 -0.27652934468E+02 -0.23131727865E+02  0.12518794689E+02  0.38164027607E+02  0.10566000000E+00 0. -1.
         23    2    1    0    0    0 -0.93553651218E+01  0.24352752546E+02 -0.13834345694E+02  0.95470886673E+02  0.90789435884E+02 0.  0.
         13    1    3    3    0    0  0.18297569346E+02  0.47484480410E+02 -0.26353140383E+02  0.57306859065E+02  0.10566000000E+00 0.  1.
         22    1    1    0    0    0  0.93553651218E+01 -0.24352752546E+02  0.13834345694E+02  0.29529113327E+02  0.00000000000E+00 0.  1.
</event>
<event>
 5    1  0.6924865E-004  0.9118800E+02  0.7818608E-02  0.1130116E+00
         25   -1    0    0    0    0  0.00000000000E+00  0.00000000000E+00  0.99999998245E-14  0.12500000000E+03  0.12500000000E+03 0.  0.
        -13    1    3    3    0    0 -0.23699325600E+02  0.49974768192E+02  0.24914730656E+02  0.60662100667E+02  0.10566000000E+00 0. -1.
         23    2    1    0    0    0 -0.14591464307E+02  0.15431845845E+02  0.18241094405E+02  0.97003746288E+02  0.92875920303E+02 0.  0.
         13    1    3    3    0    0  0.91078612929E+01 -0.34542922347E+02 -0.66736362508E+01  0.36341645621E+02  0.10566000000E+00 0.  1.
         22    1    1    0    0    0  0.14591464307E+02 -0.15431845845E+02 -0.18241094405E+02  0.27996253712E+02  0.00000000000E+00 0. -1.
</event>
<event>
 5    1  0.6924865E-004  0.9118800E+02  0.7818608E-02  0.1130116E+00
         25   -1    0    0    0    0  0.00000000000E+00  0.00000000000E+00  0.99999998245E-14  0.12500000000E+03  0.12500000000E+03 0.  0.
        -13    1    3    3    0    0 -0.26457766934E+02 -0.40738569092E+02 -0.28086329372E+02  0.56111473911E+02  0.10566000000E+00 0. -1.
         23    2    1    0    0    0 -0.20672641990E+02 -0.20203560249E+02  0.51824759016E+01  0.95633351740E+02  0.91012844890E+02 0.  0.
         13    1    3    3    0    0  0.57851249442E+01  0.20535008843E+02  0.33268805273E+02  0.39521877829E+02  0.10566000000E+00 0.  1.
         22    1    1    0    0    0  0.20672641990E+02  0.20203560249E+02 -0.51824759016E+01  0.29366648260E+02  0.00000000000E+00 0. -1.
</event>
<event>
 5    1  0.6924865E-004  0.9118800E+02  0.7818608E-02  0.1130116E+00
         25   -1    0    0    0    0  0.00000000000E+00  0.00000000000E+00  0.99999998245E-14  0.12500000000E+03  0.12500000000E+03 0.  0.
        -13    1    3    3    0    0 -0.57131347964E+02 -0.18038769957E+02  0.23240446892E+01  0.59956655089E+02  0.10566000000E+00 0.  1.
         23    2    1    0    0    0 -0.29657124458E+02 -0.52898253904E+01 -0.10842563386E+02  0.92982997258E+02  0.87296903236E+02 0.  0.
         13    1    3    3    0    0  0.27474223506E+02  0.12748944567E+02 -0.13166608075E+02  0.33026342169E+02  0.10566000000E+00 0. -1.
         22    1    1    0    0    0  0.29657124458E+02  0.52898253904E+01  0.10842563386E+02  0.32017002742E+02  0.00000000000E+00 0.  1.
</event>
<event>
 5    1  0.6924865E-004  0.9118800E+02  0.7818608E-02  0.1130116E+00
         25   -1    0    0    0    0  0.00000000000E+00  0.00000000000E+00  0.99999998245E-14  0.12500000000E+03  0.12500000000E+03 0.  0.
        -13    1    3    3    0    0  0.26690830475E+02 -0.37698881957E+02 -0.44351012884E+01  0.46403528096E+02  0.10566000000E+00 0.  1.
         23    2    1    0    0    0  0.26660087476E+02  0.94013500799E+01  0.89134489437E+01  0.95358893077E+02  0.90635110576E+02 0.  0.
         13    1    3    3    0    0 -0.30742998466E-01  0.47100232037E+02  0.13348550232E+02  0.48955364981E+02  0.10566000000E+00 0. -1.
         22    1    1    0    0    0 -0.26660087476E+02 -0.94013500799E+01 -0.89134489437E+01  0.29641106923E+02  0.00000000000E+00 0. -1.
</event>
<event>
 5    1  0.6924865E-004  0.9118800E+02  0.7818608E-02  0.1130116E+00
         25   -1    0    0    0    0  0.00000000000E+00  0.00000000000E+00  0.99999998245E-14  0.12500000000E+03  0.12500000000E+03 0.  0.
        -13    1    3    3    0    0 -0.54412428484E+02 -0.93061191574E+01 -0.59479124572E+01  0.55522113198E+02  0.10566000000E+00 0.  1.
         23    2    1    0    0    0 -0.24581416198E+02 -0.25200420359E+02 -0.28162077407E+00  0.89795078202E+02  0.82606110855E+02 0.  0.
         13    1    3    3    0    0  0.29831012287E+02 -0.15894301201E+02  0.56662916832E+01  0.34272965004E+02  0.10566000000E+00 0. -1.
         22    1    1    0    0    0  0.24581416198E+02  0.25200420359E+02  0.28162077407E+00  0.35204921798E+02  0.00000000000E+00 0.  1.
</event>
<event>
 5    1  0.6924865E-004  0.9118800E+02  0.7818608E-02  0.1130116E+00
         25   -1    0    0    0    0  0.00000000000E+00  0.00000000000E+00  0.99999998245E-14  0.12500000000E+03  0.12500000000E+03 0.  0.
        -13    1    3    3    0    0  0.11902597830E+02 -0.38880916165E+02  0.47399839006E+01  0.40937465583E+02  0.10566000000E+00 0.  1.
         23    2    1    0    0    0 -0.33452262315E+00  0.40675065392E+01 -0.28248424619E+02  0.96458276011E+02  0.92138857181E+02 0.  0.
         13    1    3    3    0    0 -0.12237120453E+02  0.42948422705E+02 -0.32988408520E+02  0.55520810427E+02  0.10566000000E+00 0. -1.
         22    1    1    0    0    0  0.33452262315E+00 -0.40675065392E+01  0.28248424619E+02  0.28541723989E+02  0.00000000000E+00 0. -1.
</event>
<event>
 5    1  0.6924865E-004  0.9118800E+02  0.7818608E-02  0.1130116E+00
         25   -1    0    0    0    0  0.00000000000E+00  0.00000000000E+00  0.99999998245E-14  0.12500000000E+03  0.12500000000E+03 0.  0.
        -13    1    3    3    0    0  0.20004250180E+02 -0.37368417202E+02  0.29645117604E+02  0.51724392613E+02  0.10566000000E+00 0. -1.
         23    2    1    0    0    0  0.10312844900E+01 -0.28219822956E+02 -0.86807933521E+01  0.95457181438E+02  0.90770564389E+02 0.  0.
         13    1    3    3    0    0 -0.18972965690E+02  0.91485942463E+01 -0.38325910956E+02  0.43732788825E+02  0.10566000000E+00 0.  1.
         22    1    1    0    0    0 -0.10312844900E+01  0.28219822956E+02  0.86807933521E+01  0.29542818562E+02  0.00000000000E+00 0. -1.
</event>
<event>
 5    1  0.6924865E-004  0.9118800E+02  0.7818608E-02  0.1130116E+00
         25   -1    0    0    0    0  0.00000000000E+00  0.00000000000E+00  0.99999998245E-14  0.12500000000E+03  0.12500000000E+03 0.  0.
        -13    1    3    3    0    0  0.26545413192E+02 -0.69917296903E+01  0.31835021125E+02  0.42035972448E+02  0.10566000000E+00 0. -1.
         23    2    1    0    0    0  0.19672127184E+02  0.11056321832E+02 -0.18417612001E+02  0.95871950422E+02  0.91339956238E+02 0.  0.
         13    1    3    3    0    0 -0.68732860077E+01  0.18048051522E+02 -0.50252633126E+02  0.53835977974E+02  0.10566000000E+00 0.  1.
         22    1    1    0    0    0 -0.19672127184E+02 -0.11056321832E+02  0.18417612001E+02  0.29128049578E+02  0.00000000000E+00 0.  1.
</event>
<event>
 5    1  0.6924865E-004  0.9118800E+02  0.7818608E-02  0.1130116E+00
         25   -1    0    0    0    0  0.00000000000E+00  0.00000000000E+00  0.99999998245E-14  0.12500000000E+03  0.12500000000E+03 0.  0.
        -13    1    3    3    0    0 -0.31129076082E+02  0.68398664441E+01  0.49510954909E+02  0.58882501396E+02  0.10566000000E+00 0.  1.
         23    2    1    0    0    0 -0.16625637209E+01 -0.15008669422E+01  0.29388450420E+02  0.95526321271E+02  0.90865726860E+02 0.  0.
         13    1    3    3    0    0  0.29466512361E+02 -0.83407333863E+01 -0.20122504488E+02  0.36643819875E+02  0.10566000000E+00 0. -1.
         22    1    1    0    0    0  0.16625637209E+01  0.15008669422E+01 -0.29388450420E+02  0.29473678729E+02  0.00000000000E+00 0.  1.
</event>
<event>
 5    1  0.6924865E-004  0.9118800E+02  0.7818608E-02  0.1130116E+00
         25   -1    0    0    0    0  0.00000000000E+00  0.00000000000E+00  0.99999998245E-14  0.12500000000E+03  0.12500000000E+03 0.  0.
        -13    1    3    3    0    0  0.54365275812E+02  0.83377197371E+01  0.26498549241E+02  0.61051495154E+02  0.10566000000E+00 0.  1.
         23    2    1    0    0    0  0.31560559594E+02 -0.24109027850E+01  0.79112661670E+01  0.92373791111E+02  0.86420181542E+02 0.  0.
         13    1    3    3    0    0 -0.22804716219E+02 -0.10748622522E+02 -0.18587283074E+02  0.31322295957E+02  0.10566000000E+00 0. -1.
         22    1    1    0    0    0 -0.31560559594E+02  0.24109027850E+01 -0.79112661670E+01  0.32626208889E+02  0.00000000000E+00 0.  1.
</event>
<event>
 5    1  0.6924865E-004  0.9118800E+02  0.7818608E-02  0.1130116E+00
         25   -1    0    0    0    0  0.00000000000E+00  0.00000000000E+00  0.99999998245E-14  0.12500000000E+03  0.12500000000E+03 0.  0.
        -13    1    3    3    0    0 -0.56188354434E+02 -0.17241798005E+02  0.18755935307E+02  0.61694465276E+02  0.10566000000E+00 0. -1.
         23    2    1    0    0    0 -0.25322746797E+02 -0.39021134957E+01  0.14423646316E+02  0.95597456434E+02  0.90963531751E+02 0.  0.
         13    1    3    3    0    0  0.30865607636E+02  0.13339684509E+02 -0.43322889914E+01  0.33902991159E+02  0.10566000000E+00 0.  1.
         22    1    1    0    0    0  0.25322746797E+02  0.39021134957E+01 -0.14423646316E+02  0.29402543566E+02  0.00000000000E+00 0. -1.
</event>
<event>
 5    1  0.6924865E-004  0.9118800E+02  0.7818608E-02  0.1130116E+00
         25   -1    0    0    0    0  0.00000000000E+00  0.00000000000E+00  0.99999998245E-14  0.12500000000E+03  0.12500000000E+03 0.  0.
        -13    1    3    3    0    0  0.32291726536E+01 -0.29046541335E+02 -0.25722247370E+02  0.38932946117E+02  0.10566000000E+00 0.  1.
         23    2    1    0    0    0  0.25203772639E+01 -0.12865771197E+02  0.27483676732E+02  0.94549501535E+02  0.89511872865E+02 0.  0.
         13    1    3    3    0    0 -0.70879538974E+00  0.16180770137E+02  0.53205924101E+02  0.55616555419E+02  0.10566000000E+00 0. -1.
         22    1    1    0    0    0 -0.25203772639E+01  0.12865771197E+02 -0.27483676732E+02  0.30450498465E+02  0.00000000000E+00 0. -1.
</event>
<event>
 5    1  0.6924865E-004  0.9118800E+02  0.7818608E-02  0.1130116E+00
         25   -1    0    0    0    0  0.00000000000E+00  0.00000000000E+00  0.99999998245E-14  0.12500000000E+03  0.12500000000E+03 0.  0.
        -13    1    3    3    0    0 -0.33286454178E+02 -0.38767278919E+02 -0.26107864988E+02  0.57380499517E+02  0.10566000000E+00 0.  1.
         23    2    1    0    0    0  0.10662825381E+01 -0.25495257594E+02 -0.11736214166E+02  0.96912923947E+02  0.92753603632E+02 0.  0.
         13    1    3    3    0    0  0.34352736716E+02  0.13272021325E+02  0.14371650822E+02  0.39532424430E+02  0.10566000000E+00 0. -1.
         22    1    1    0    0    0 -0.10662825381E+01  0.25495257594E+02  0.11736214166E+02  0.28087076053E+02  0.00000000000E+00 0.  1.
</event>
<event>
 5    1  0.6924865E-004  0.9118800E+02  0.7818608E-02  0.1130116E+00
         25   -1    0    0    0    0  0.00000000000E+00  0.00000000000E+00  0.99999998245E-14  0.12500000000E+03  0.12500000000E+03 0.  0.
        -13    1    3    3    0    0 -0.37533105220E+02 -0.41025714326E+02 -0.26754014085E+02  0.61706009895E+02  0.10566000000E+00 0. -1.
         23    2    1    0    0    0 -0.23001212767E+02 -0.15246257451E+02 -0.10458955735E+02  0.95489088288E+02  0.90814492632E+02 0.  0.
         13    1    3    3    0    0  0.14531892454E+02  0.25779456875E+02  0.16295058350E+02  0.33783078393E+02  0.10566000000E+00 0.  1.
         22    1    1    0    0    0  0.23001212767E+02  0.15246257451E+02  0.10458955735E+02  0.29510911712E+02  0.00000000000E+00 0. -1.
</event>
<event>
 5    1  0.6924865E-004  0.9118800E+02  0.7818608E-02  0.1130116E+00
         25   -1    0    0    0    0  0.00000000000E+00  0.00000000000E+00  0.99999998245E-14  0.12500000000E+03  0.12500000000E+03 0.  0.
        -13    1    3    3    0    0 -0.22797168624E+02 -0.29733937036E+02 -0.21533088606E+02  0.43214615328E+02  0.10566000000E+00 0. -1.
         23    2    1    0    0    0 -0.23741499549E+02  0.16951665483E+02  0.24801407647E+01  0.95722553703E+02  0.91135275419E+02 0.  0.
         13    1    3    3    0    0 -0.94433092451E+00  0.46685602520E+02  0.24013229371E+02  0.52507938375E+02  0.10566000000E+00 0.  1.
         22    1    1    0    0    0  0.23741499549E+02 -0.16951665483E+02 -0.24801407647E+01  0.29277446297E+02  0.00000000000E+00 0.  1.
</event>
<event>
 5    1  0.6924865E-004  0.9118800E+02  0.7818608E-02  0.1130116E+00
         25   -1    0    0    0    0  0.00000000000E+00  0.00000000000E+00  0.99999998245E-14  0.12500000000E+03  0.12500000000E+03 0.  0.
        -13    1    3    3    0    0  0.33112824772E+02 -0.21040131189E+02  0.11740765865E+02  0.40951227478E+02  0.10566000000E+00 0.  1.
         23    2    1    0    0    0  0.16025437378E+02  0.27452228306E+02  0.35405132537E+01  0.93016024071E+02  0.87344181362E+02 0.  0.
         13    1    3    3    0    0 -0.17087387394E+02  0.48492359495E+02 -0.82002526113E+01  0.52064796593E+02  0.10566000000E+00 0. -1.
         22    1    1    0    0    0 -0.16025437378E+02 -0.27452228306E+02 -0.35405132537E+01  0.31983975929E+02  0.00000000000E+00 0. -1.
</event>
<event>
 5    1  0.6924865E-004  0.9118800E+02  0.7818608E-02  0.1130116E+00
         25   -1    0    0    0    0  0.00000000000E+00  0.00000000000E+00  0.99999998245E-14  0.12500000000E+03  0.12500000000E+03 0.  0.
        -13    1    3    3    0    0  0.34742364557E+02 -0.32704445897E+02  0.13421387736E+02  0.49565688628E+02  0.10566000000E+00 0. -1.
         23    2    1    0    0    0  0.69257218504E+01  0.27405660547E+01  0.27292483681E+02  0.96709436363E+02  0.92478965666E+02 0.  0.
         13    1    3    3    0    0 -0.27816642706E+02  0.35445011951E+02  0.13871095945E+02  0.47143747734E+02  0.10566000000E+00 0.  1.
         22    1    1    0    0    0 -0.69257218504E+01 -0.27405660547E+01 -0.27292483681E+02  0.28290563637E+02  0.00000000000E+00 0.  1.
</event>
<event>
 5    1  0.6924865E-004  0.9118800E+02  0.7818608E-02  0.1130116E+00
         25   -1    0    0    0    0  0.00000000000E+00  0.00000000000E+00  0.99999998245E-14  0.12500000000E+03  0.12500000000E+03 0.  0.
        -13    1    3    3    0    0 -0.34281986860E+02  0.20005003725E+02 -0.45163247499E+01  0.39948255912E+02  0.10566000000E+00 0. -1.
         23    2    1    0    0    0  0.84947346069E+01 -0.10625383870E+02 -0.25105304498E+02  0.96445917764E+02  0.92122089864E+02 0.  0.
         13    1    3    3    0    0  0.42776721467E+02 -0.30630387594E+02 -0.20588979748E+02  0.56497661852E+02  0.10566000000E+00 0.  1.
         22    1    1    0    0    0 -0.84947346069E+01  0.10625383870E+02  0.25105304498E+02  0.28554082236E+02  0.00000000000E+00 0.  1.
</event>
<event>
 5    1  0.6924865E-004  0.9118800E+02  0.7818608E-02  0.1130116E+00
         25   -1    0    0    0    0  0.00000000000E+00  0.00000000000E+00  0.99999998245E-14  0.12500000000E+03  0.12500000000E+03 0.  0.
        -13    1    3    3    0    0 -0.18201418506E+02 -0.57060949826E+01  0.41406105410E+02  0.45588681543E+02  0.10566000000E+00 0.  1.
         23    2    1    0    0    0  0.23328920526E+02 -0.11165955697E+02  0.16495534168E+02  0.94323954834E+02  0.89196349189E+02 0.  0.
         13    1    3    3    0    0  0.41530339032E+02 -0.54598607142E+01 -0.24910571242E+02  0.48735273291E+02  0.10566000000E+00 0. -1.
         22    1    1    0    0    0 -0.23328920526E+02  0.11165955697E+02 -0.16495534168E+02  0.30676045166E+02  0.00000000000E+00 0.  1.
</event>
<event>
 5    1  0.6924865E-004  0.9118800E+02  0.7818608E-02  0.1130116E+00
         25   -1    0    0    0    0  0.00000000000E+00  0.00000000000E+00  0.99999998245E-14  0.12500000000E+03  0.12500000000E+03 0.  0.
        -13    1    3    3    0    0 -0.31829094472E+02  0.28116970479E+02  0.15157870369E+02  0.45093541466E+02  0.10566000000E+00 0.  1.
         23    2    1    0    0    0  0.16514102329E+02  0.12378469670E+02  0.20121679204E+02  0.96175981177E+02  0.91755083207E+02 0.  0.
         13    1    3    3    0    0  0.48343196801E+02 -0.15738500809E+02  0.49638088349E+01  0.51082439711E+02  0.10566000000E+00 0. -1.
         22    1    1    0    0    0 -0.16514102329E+02 -0.12378469670E+02 -0.20121679204E+02  0.28824018823E+02  0.00000000000E+00 0.  1.
</event>
<event>
 5    1  0.6924865E-004  0.9118800E+02  0.7818608E-02  0.1130116E+00
         25   -1    0    0    0    0  0.00000000000E+00  0.00000000000E+00  0.99999998245E-14  0.12500000000E+03  0.12500000000E+03 0.  0.
        -13    1    3    3    0    0 -0.47227325413E+02  0.22560610225E+02  0.29366871863E+02  0.60015212458E+02  0.10566000000E+00 0.  1.
         23    2    1    0    0    0 -0.21540676441E+02  0.79708625272E-01  0.20455121356E+02  0.95294460370E+02  0.90546204186E+02 0.  0.
         13    1    3    3    0    0  0.25686648971E+02 -0.22480901600E+02 -0.89117505068E+01  0.35279247912E+02  0.10566000000E+00 0. -1.
         22    1    1    0    0    0  0.21540676441E+02 -0.79708625272E-01 -0.20455121356E+02  0.29705539630E+02  0.00000000000E+00 0.  1.
</event>
<event>
 5    1  0.6924865E-004  0.9118800E+02  0.7818608E-02  0.1130116E+00
         25   -1    0    0    0    0  0.00000000000E+00  0.00000000000E+00  0.99999998245E-14  0.12500000000E+03  0.12500000000E+03 0.  0.
        -13    1    3    3    0    0 -0.54087085010E+02 -0.11293740604E+02  0.20700168748E+02  0.59003978611E+02  0.10566000000E+00 0.  1.
         23    2    1    0    0    0 -0.25799788454E+02  0.95525063148E+01  0.98113534350E+01  0.95791403365E+02  0.91229659877E+02 0.  0.
         13    1    3    3    0    0  0.28287296556E+02  0.20846246919E+02 -0.10888815313E+02  0.36787424754E+02  0.10566000000E+00 0. -1.
         22    1    1    0    0    0  0.25799788454E+02 -0.95525063148E+01 -0.98113534350E+01  0.29208596635E+02  0.00000000000E+00 0.  1.
</event>
<event>
 5    1  0.6924865E-004  0.9118800E+02  0.7818608E-02  0.1130116E+00
         25   -1    0    0    0    0  0.00000000000E+00  0.00000000000E+00  0.99999998245E-14  0.12500000000E+03  0.12500000000E+03 0.  0.
        -13    1    3    3    0    0  0.43508883996E+02 -0.80481485209E+01 -0.20721547658E+02  0.48858872097E+02  0.10566000000E+00 0. -1.
         23    2    1    0    0    0 -0.16283720592E+01  0.17975782829E+02 -0.15475784082E+02  0.10122437684E+03  0.98392551594E+02 0.  0.
         13    1    3    3    0    0 -0.45137256055E+02  0.26023931350E+02  0.52457635760E+01  0.52365504740E+02  0.10566000000E+00 0.  1.
         22    1    1    0    0    0  0.16283720592E+01 -0.17975782829E+02  0.15475784082E+02  0.23775623164E+02  0.00000000000E+00 0.  1.
</event>
<event>
 5    1  0.6924865E-004  0.9118800E+02  0.7818608E-02  0.1130116E+00
         25   -1    0    0    0    0  0.00000000000E+00  0.00000000000E+00  0.99999998245E-14  0.12500000000E+03  0.12500000000E+03 0.  0.
        -13    1    3    3    0    0 -0.29187388109E+02 -0.13926126925E+02 -0.11268909228E+02  0.34246753349E+02  0.10566000000E+00 0.  1.
         23    2    1    0    0    0  0.29726189863E+02 -0.50548748520E+01 -0.18692625205E+00  0.94846508246E+02  0.89925675207E+02 0.  0.
         13    1    3    3    0    0  0.58913577972E+02  0.88712520734E+01  0.11081982976E+02  0.60599754896E+02  0.10566000000E+00 0. -1.
         22    1    1    0    0    0 -0.29726189863E+02  0.50548748520E+01  0.18692625205E+00  0.30153491754E+02  0.00000000000E+00 0. -1.
</event>
<event>
 5    1  0.6924865E-004  0.9118800E+02  0.7818608E-02  0.1130116E+00
         25   -1    0    0    0    0  0.00000000000E+00  0.00000000000E+00  0.99999998245E-14  0.12500000000E+03  0.12500000000E+03 0.  0.
        -13    1    3    3    0    0  0.23413646616E+02 -0.26655373162E+02 -0.32821319566E+02  0.48331748865E+02  0.10566000000E+00 0.  1.
         23    2    1    0    0    0  0.77452090294E+01  0.14251788881E+02 -0.28314795205E+02  0.92368276528E+02  0.86412204764E+02 0.  0.
         13    1    3    3    0    0 -0.15668437586E+02  0.40907162043E+02  0.45065243609E+01  0.44036527664E+02  0.10566000000E+00 0. -1.
         22    1    1    0    0    0 -0.77452090294E+01 -0.14251788881E+02  0.28314795205E+02  0.32631723472E+02  0.00000000000E+00 0. -1.
</event>
<event>
 5    1  0.6924865E-004  0.9118800E+02  0.7818608E-02  0.1130116E+00
         25   -1    0    0    0    0  0.00000000000E+00  0.00000000000E+00  0.99999998245E-14  0.12500000000E+03  0.12500000000E+03 0.  0.
        -13    1    3    3    0    0  0.20947395890E+02 -0.38927682506E+02  0.30716908138E+02  0.53830265367E+02  0.10566000000E+00 0.  1.
         23    2    1    0    0    0  0.18974788978E+02 -0.20013568679E+02 -0.74155988135E+01  0.96441697288E+02  0.92116362943E+02 0.  0.
         13    1    3    3    0    0 -0.19726069119E+01  0.18914113827E+02 -0.38132506952E+02  0.42611431921E+02  0.10566000000E+00 0. -1.
         22    1    1    0    0    0 -0.18974788978E+02  0.20013568679E+02  0.74155988135E+01  0.28558302712E+02  0.00000000000E+00 0.  1.
</event>
<event>
 5    1  0.6924865E-004  0.9118800E+02  0.7818608E-02  0.1130116E+00
         25   -1    0    0    0    0  0.00000000000E+00  0.00000000000E+00  0.99999998245E-14  0.12500000000E+03  0.12500000000E+03 0.  0.
        -13    1    3    3    0    0  0.12913183083E+02 -0.17593225050E+02 -0.39837975143E+02  0.45424082738E+02  0.10566000000E+00 0.  1.
         23    2    1    0    0    0  0.26322337455E+02 -0.93486559701E+01  0.81290599151E+01  0.95908000539E+02  0.91389278008E+02 0.  0.
         13    1    3    3    0    0  0.13409154371E+02  0.82445690800E+01  0.47967035058E+02  0.50483917802E+02  0.10566000000E+00 0. -1.
         22    1    1    0    0    0 -0.26322337455E+02  0.93486559701E+01 -0.81290599151E+01  0.29091999461E+02  0.00000000000E+00 0.  1.
</event>
<event>
 5    1  0.6924865E-004  0.9118800E+02  0.7818608E-02  0.1130116E+00
         25   -1    0    0    0    0  0.00000000000E+00  0.00000000000E+00  0.99999998245E-14  0.12500000000E+03  0.12500000000E+03 0.  0.
        -13    1    3    3    0    0 -0.24074916796E+02 -0.13460122401E+02 -0.30386611008E+02  0.41038199356E+02  0.10566000000E+00 0.  1.
         23    2    1    0    0    0 -0.90502026152E+01  0.26039197962E+02  0.59797558247E+01  0.96791783509E+02  0.92590204003E+02 0.  0.
         13    1    3    3    0    0  0.15024714181E+02  0.39499320363E+02  0.36366366832E+02  0.55753584153E+02  0.10566000000E+00 0. -1.
         22    1    1    0    0    0  0.90502026152E+01 -0.26039197962E+02 -0.59797558247E+01  0.28208216491E+02  0.00000000000E+00 0. -1.
</event>
<event>
 5    1  0.6924865E-004  0.9118800E+02  0.7818608E-02  0.1130116E+00
         25   -1    0    0    0    0  0.00000000000E+00  0.00000000000E+00  0.99999998245E-14  0.12500000000E+03  0.12500000000E+03 0.  0.
        -13    1    3    3    0    0  0.38468314927E+02 -0.39006806317E+01 -0.22466956676E+01  0.38730935544E+02  0.10566000000E+00 0. -1.
         23    2    1    0    0    0 -0.79746783610E+01  0.28064823132E+02  0.43714046471E+01  0.95498492055E+02  0.90827435359E+02 0.  0.
         13    1    3    3    0    0 -0.46442993288E+02  0.31965503764E+02  0.66181003147E+01  0.56767556511E+02  0.10566000000E+00 0.  1.
         22    1    1    0    0    0  0.79746783610E+01 -0.28064823132E+02 -0.43714046471E+01  0.29501507945E+02  0.00000000000E+00 0.  1.
</event>
<event>
 5    1  0.6924865E-004  0.9118800E+02  0.7818608E-02  0.1130116E+00
         25   -1    0    0    0    0  0.00000000000E+00  0.00000000000E+00  0.99999998245E-14  0.12500000000E+03  0.12500000000E+03 0.  0.
        -13    1    3    3    0    0 -0.17351272261E+02  0.19582349943E+02 -0.23678009311E+02  0.35287311704E+02  0.10566000000E+00 0.  1.
         23    2    1    0    0    0 -0.11816375709E+02 -0.24873571239E+02  0.14257270443E+02  0.93990468537E+02  0.88727769803E+02 0.  0.
         13    1    3    3    0    0  0.55348965521E+01 -0.44455921182E+02  0.37935279754E+02  0.58703156832E+02  0.10566000000E+00 0. -1.
         22    1    1    0    0    0  0.11816375709E+02  0.24873571239E+02 -0.14257270443E+02  0.31009531463E+02  0.00000000000E+00 0. -1.
</event>
<event>
 5    1  0.6924865E-004  0.9118800E+02  0.7818608E-02  0.1130116E+00
         25   -1    0    0    0    0  0.00000000000E+00  0.00000000000E+00  0.99999998245E-14  0.12500000000E+03  0.12500000000E+03 0.  0.
        -13    1    3    3    0    0 -0.44499391716E+02 -0.26085490853E+01 -0.40624170435E+01  0.44760638821E+02  0.10566000000E+00 0. -1.
         23    2    1    0    0    0 -0.57809660304E+01 -0.18974280980E+02  0.22903042875E+02  0.94701612586E+02  0.89724038845E+02 0.  0.
         13    1    3    3    0    0  0.38718425685E+02 -0.16365731895E+02  0.26965459918E+02  0.49940973765E+02  0.10566000000E+00 0.  1.
         22    1    1    0    0    0  0.57809660304E+01  0.18974280980E+02 -0.22903042875E+02  0.30298387414E+02  0.00000000000E+00 0.  1.
</event>
<event>
 5    1  0.6924865E-004  0.9118800E+02  0.7818608E-02  0.1130116E+00
         25   -1    0    0    0    0  0.00000000000E+00  0.00000000000E+00  0.99999998245E-14  0.12500000000E+03  0.12500000000E+03 0.  0.
        -13    1    3    3    0    0 -0.27915864900E+02  0.30201879449E+02  0.11246588555E+02  0.42637377423E+02  0.10566000000E+00 0. -1.
         23    2    1    0    0    0 -0.48154772493E+01 -0.14991020277E+02  0.25209177273E+02  0.95277582049E+02  0.90522900485E+02 0.  0.
         13    1    3    3    0    0  0.23100387651E+02 -0.45192899726E+02  0.13962588718E+02  0.52640204625E+02  0.10566000000E+00 0.  1.
         22    1    1    0    0    0  0.48154772493E+01  0.14991020277E+02 -0.25209177273E+02  0.29722417951E+02  0.00000000000E+00 0.  1.
</event>
<event>
 5    1  0.6924865E-004  0.9118800E+02  0.7818608E-02  0.1130116E+00
         25   -1    0    0    0    0  0.00000000000E+00  0.00000000000E+00  0.99999998245E-14  0.12500000000E+03  0.12500000000E+03 0.  0.
        -13    1    3    3    0    0  0.41170709347E+02 -0.31637952261E+02  0.22929369646E+01  0.51973609220E+02  0.10566000000E+00 0. -1.
         23    2    1    0    0    0 -0.18371097954E+01 -0.28781582901E+02 -0.51193687010E+01  0.95709004411E+02  0.91116689486E+02 0.  0.
         13    1    3    3    0    0 -0.43007819142E+02  0.28563693602E+01 -0.74123056655E+01  0.43735395192E+02  0.10566000000E+00 0.  1.
         22    1    1    0    0    0  0.18371097954E+01  0.28781582901E+02  0.51193687010E+01  0.29290995589E+02  0.00000000000E+00 0. -1.
</event>
<event>
 5    1  0.6924865E-004  0.9118800E+02  0.7818608E-02  0.1130116E+00
         25   -1    0    0    0    0  0.00000000000E+00  0.00000000000E+00  0.99999998245E-14  0.12500000000E+03  0.12500000000E+03 0.  0.
        -13    1    3    3    0    0  0.39469961331E+02 -0.35635011940E+02 -0.18177896460E+02  0.56197677952E+02  0.10566000000E+00 0. -1.
         23    2    1    0    0    0  0.68468299911E+01 -0.29879962500E+02  0.72225523414E+00  0.94337108868E+02  0.89214781382E+02 0.  0.
         13    1    3    3    0    0 -0.32623131340E+02  0.57550494400E+01  0.18900151694E+02  0.38139430916E+02  0.10566000000E+00 0.  1.
         22    1    1    0    0    0 -0.68468299911E+01  0.29879962500E+02 -0.72225523414E+00  0.30662891132E+02  0.00000000000E+00 0. -1.
</event>
<event>
 5    1  0.6924865E-004  0.9118800E+02  0.7818608E-02  0.1130116E+00
         25   -1    0    0    0    0  0.00000000000E+00  0.00000000000E+00  0.99999998245E-14  0.12500000000E+03  0.12500000000E+03 0.  0.
        -13    1    3    3    0    0  0.48222723708E+02 -0.28055610113E+02  0.23591049004E+02  0.60573072381E+02  0.10566000000E+00 0.  1.
         23    2    1    0    0    0  0.28103950290E+02 -0.48468655511E+01  0.63999736127E+01  0.95771866467E+02  0.91202887108E+02 0.  0.
         13    1    3    3    0    0 -0.20118773418E+02  0.23208744562E+02 -0.17191075391E+02  0.35198794086E+02  0.10566000000E+00 0. -1.
         22    1    1    0    0    0 -0.28103950290E+02  0.48468655511E+01 -0.63999736127E+01  0.29228133533E+02  0.00000000000E+00 0.  1.
</event>
<event>
 5    1  0.6924865E-004  0.9118800E+02  0.7818608E-02  0.1130116E+00
         25   -1    0    0    0    0  0.00000000000E+00  0.00000000000E+00  0.99999998245E-14  0.12500000000E+03  0.12500000000E+03 0.  0.
        -13    1    3    3    0    0  0.55616774876E+02  0.31488377022E+01  0.13910031010E+02  0.57416382272E+02  0.10566000000E+00 0. -1.
         23    2    1    0    0    0  0.20963733956E+02  0.83370484243E+01  0.22119630762E+02  0.93404706318E+02  0.87898672229E+02 0.  0.
         13    1    3    3    0    0 -0.34653040920E+02  0.51882107221E+01  0.82095997514E+01  0.35988324046E+02  0.10566000000E+00 0.  1.
         22    1    1    0    0    0 -0.20963733956E+02 -0.83370484243E+01 -0.22119630762E+02  0.31595293682E+02  0.00000000000E+00 0. -1.
</event>
<event>
 5    1  0.6924865E-004  0.9118800E+02  0.7818608E-02  0.1130116E+00
         25   -1    0    0    0    0  0.00000000000E+00  0.00000000000E+00  0.99999998245E-14  0.12500000000E+03  0.12500000000E+03 0.  0.
        -13    1    3    3    0    0  0.24795635020E+02 -0.54452906129E+02 -0.17133651571E+02  0.62237574520E+02  0.10566000000E+00 0.  1.
         23    2    1    0    0    0  0.95085401602E+01 -0.24188574758E+02 -0.11375025965E+02  0.96629404298E+02  0.92370726285E+02 0.  0.
         13    1    3    3    0    0 -0.15287094860E+02  0.30264331371E+02  0.57586256057E+01  0.34391829778E+02  0.10566000000E+00 0. -1.
         22    1    1    0    0    0 -0.95085401602E+01  0.24188574758E+02  0.11375025965E+02  0.28370595702E+02  0.00000000000E+00 0.  1.
</event>
<event>
 5    1  0.6924865E-004  0.9118800E+02  0.7818608E-02  0.1130116E+00
         25   -1    0    0    0    0  0.00000000000E+00  0.00000000000E+00  0.99999998245E-14  0.12500000000E+03  0.12500000000E+03 0.  0.
        -13    1    3    3    0    0  0.16218888105E+02 -0.48328543685E+02 -0.48879583983E+01  0.51211363655E+02  0.10566000000E+00 0. -1.
         23    2    1    0    0    0  0.20622073382E+02 -0.14090315115E+02  0.19361862773E+02  0.93397964929E+02  0.87889084830E+02 0.  0.
         13    1    3    3    0    0  0.44031852765E+01  0.34238228570E+02  0.24249821171E+02  0.42186601274E+02  0.10566000000E+00 0.  1.
         22    1    1    0    0    0 -0.20622073382E+02  0.14090315115E+02 -0.19361862773E+02  0.31602035071E+02  0.00000000000E+00 0. -1.
</event>
<event>
 5    1  0.6924865E-004  0.9118800E+02  0.7818608E-02  0.1130116E+00
         25   -1    0    0    0    0  0.00000000000E+00  0.00000000000E+00  0.99999998245E-14  0.12500000000E+03  0.12500000000E+03 0.  0.
        -13    1    3    3    0    0  0.18471151810E+01 -0.29360143618E+02 -0.42224212930E+02  0.51461880934E+02  0.10566000000E+00 0.  1.
         23    2    1    0    0    0  0.68626867485E+01  0.12170062927E+02 -0.24294433039E+02  0.96974540544E+02  0.92836604505E+02 0.  0.
         13    1    3    3    0    0  0.50155715675E+01  0.41530206544E+02  0.17929779891E+02  0.45512659609E+02  0.10566000000E+00 0. -1.
         22    1    1    0    0    0 -0.68626867485E+01 -0.12170062927E+02  0.24294433039E+02  0.28025459456E+02  0.00000000000E+00 0.  1.
</event>
<event>
 5    1  0.6924865E-004  0.9118800E+02  0.7818608E-02  0.1130116E+00
         25   -1    0    0    0    0  0.00000000000E+00  0.00000000000E+00  0.99999998245E-14  0.12500000000E+03  0.12500000000E+03 0.  0.
        -13    1    3    3    0    0  0.52806578680E+02  0.25353200617E+02 -0.15880297356E+02  0.60691964390E+02  0.10566000000E+00 0.  1.
         23    2    1    0    0    0  0.21762895177E+02  0.21551623711E+02 -0.41656436165E+01  0.94089667135E+02  0.88867411259E+02 0.  0.
         13    1    3    3    0    0 -0.31043683503E+02 -0.38015769056E+01  0.11714653739E+02  0.33397702745E+02  0.10566000000E+00 0. -1.
         22    1    1    0    0    0 -0.21762895177E+02 -0.21551623711E+02  0.41656436165E+01  0.30910332865E+02  0.00000000000E+00 0.  1.
</event>
<event>
 5    1  0.6924865E-004  0.9118800E+02  0.7818608E-02  0.1130116E+00
         25   -1    0    0    0    0  0.00000000000E+00  0.00000000000E+00  0.99999998245E-14  0.12500000000E+03  0.12500000000E+03 0.  0.
        -13    1    3    3    0    0 -0.34975926577E+02  0.26008156128E+02 -0.12080069740E+02  0.45229181665E+02  0.10566000000E+00 0.  1.
         23    2    1    0    0    0  0.86200734535E+01  0.24083605576E+02  0.13769859283E+02  0.95949444952E+02  0.91445947084E+02 0.  0.
         13    1    3    3    0    0  0.43596000030E+02 -0.19245505519E+01  0.25849929023E+02  0.50720263288E+02  0.10566000000E+00 0. -1.
         22    1    1    0    0    0 -0.86200734535E+01 -0.24083605576E+02 -0.13769859283E+02  0.29050555048E+02  0.00000000000E+00 0. -1.
</event>
<event>
 5    1  0.6924865E-004  0.9118800E+02  0.7818608E-02  0.1130116E+00
         25   -1    0    0    0    0  0.00000000000E+00  0.00000000000E+00  0.99999998245E-14  0.12500000000E+03  0.12500000000E+03 0.  0.
        -13    1    3    3    0    0  0.26393943127E+02  0.66584645182E+01 -0.55374735532E+02  0.61703710446E+02  0.10566000000E+00 0.  1.
         23    2    1    0    0    0  0.14345931554E+02 -0.36496551852E+01 -0.26461195635E+02  0.94679699712E+02  0.89693505496E+02 0.  0.
         13    1    3    3    0    0 -0.12048011573E+02 -0.10308119703E+02  0.28913539897E+02  0.32975989267E+02  0.10566000000E+00 0. -1.
         22    1    1    0    0    0 -0.14345931554E+02  0.36496551852E+01  0.26461195635E+02  0.30320300288E+02  0.00000000000E+00 0.  1.
</event>
<event>
 5    1  0.6924865E-004  0.9118800E+02  0.7818608E-02  0.1130116E+00
         25   -1    0    0    0    0  0.00000000000E+00  0.00000000000E+00  0.99999998245E-14  0.12500000000E+03  0.12500000000E+03 0.  0.
        -13    1    3    3    0    0  0.33287895547E+02  0.37715658960E+01  0.49968821102E+02  0.60159811715E+02  0.10566000000E+00 0.  1.
         23    2    1    0    0    0  0.99007246494E+01 -0.88937114974E+01  0.25189560374E+02  0.96510766865E+02  0.92210041299E+02 0.  0.
         13    1    3    3    0    0 -0.23387170897E+02 -0.12665277393E+02 -0.24779260728E+02  0.36350955150E+02  0.10566000000E+00 0. -1.
         22    1    1    0    0    0 -0.99007246494E+01  0.88937114974E+01 -0.25189560374E+02  0.28489233135E+02  0.00000000000E+00 0.  1.
</event>
<event>
 5    1  0.6924865E-004  0.9118800E+02  0.7818608E-02  0.1130116E+00
         25   -1    0    0    0    0  0.00000000000E+00  0.00000000000E+00  0.99999998245E-14  0.12500000000E+03  0.12500000000E+03 0.  0.
        -13    1    3    3    0    0 -0.57516009763E+02  0.54398846490E+01  0.10048116461E+02  0.58640084690E+02  0.10566000000E+00 0.  1.
         23    2    1    0    0    0 -0.26606788641E+02 -0.12105497051E+02 -0.66396147869E+00  0.95761239673E+02  0.91188321172E+02 0.  0.
         13    1    3    3    0    0  0.30909221122E+02 -0.17545381700E+02 -0.10712077939E+02  0.37121154982E+02  0.10566000000E+00 0. -1.
         22    1    1    0    0    0  0.26606788641E+02  0.12105497051E+02  0.66396147869E+00  0.29238760327E+02  0.00000000000E+00 0.  1.
</event>
<event>
 5    1  0.6924865E-004  0.9118800E+02  0.7818608E-02  0.1130116E+00
         25   -1    0    0    0    0  0.00000000000E+00  0.00000000000E+00  0.99999998245E-14  0.12500000000E+03  0.12500000000E+03 0.  0.
        -13    1    3    3    0    0 -0.24906924023E+02 -0.24710818152E+02 -0.39014784154E+02  0.52470410182E+02  0.10566000000E+00 0. -1.
         23    2    1    0    0    0  0.13256992268E+02 -0.12657495766E+02 -0.23029061432E+02  0.95567064137E+02  0.90921757761E+02 0.  0.
         13    1    3    3    0    0  0.38163916291E+02  0.12053322386E+02  0.15985722722E+02  0.43096653956E+02  0.10566000000E+00 0.  1.
         22    1    1    0    0    0 -0.13256992268E+02  0.12657495766E+02  0.23029061432E+02  0.29432935863E+02  0.00000000000E+00 0. -1.
</event>
<event>
 5    1  0.6924865E-004  0.9118800E+02  0.7818608E-02  0.1130116E+00
         25   -1    0    0    0    0  0.00000000000E+00  0.00000000000E+00  0.99999998245E-14  0.12500000000E+03  0.12500000000E+03 0.  0.
        -13    1    3    3    0    0 -0.17189382813E+02  0.53111904634E+02 -0.92305642883E-01  0.55824447867E+02  0.10566000000E+00 0.  1.
         23    2    1    0    0    0  0.26878761731E+01  0.23234711100E+02 -0.17576245824E+02  0.95742507020E+02  0.91162639030E+02 0.  0.
         13    1    3    3    0    0  0.19877258986E+02 -0.29877193533E+02 -0.17483940181E+02  0.39918059153E+02  0.10566000000E+00 0. -1.
         22    1    1    0    0    0 -0.26878761731E+01 -0.23234711100E+02  0.17576245824E+02  0.29257492980E+02  0.00000000000E+00 0.  1.
</event>
<event>
 5    1  0.6924865E-004  0.9118800E+02  0.7818608E-02  0.1130116E+00
         25   -1    0    0    0    0  0.00000000000E+00  0.00000000000E+00  0.99999998245E-14  0.12500000000E+03  0.12500000000E+03 0.  0.
        -13    1    3    3    0    0  0.50055474087E+02 -0.18491398921E+02 -0.29493779069E+02  0.60970291847E+02  0.10566000000E+00 0.  1.
         23    2    1    0    0    0  0.21479469247E+02  0.27438110621E+00 -0.17800979206E+02  0.97101653368E+02  0.93007598302E+02 0.  0.
         13    1    3    3    0    0 -0.28576004840E+02  0.18765780027E+02  0.11692799863E+02  0.36131361521E+02  0.10566000000E+00 0. -1.
         22    1    1    0    0    0 -0.21479469247E+02 -0.27438110621E+00  0.17800979206E+02  0.27898346632E+02  0.00000000000E+00 0.  1.
</event>
<event>
 5    1  0.6924865E-004  0.9118800E+02  0.7818608E-02  0.1130116E+00
         25   -1    0    0    0    0  0.00000000000E+00  0.00000000000E+00  0.99999998245E-14  0.12500000000E+03  0.12500000000E+03 0.  0.
        -13    1    3    3    0    0 -0.51948140167E+02  0.18005836930E+02  0.15694330490E+02  0.57176416501E+02  0.10566000000E+00 0. -1.
         23    2    1    0    0    0 -0.17313733816E+02  0.16558778372E+01  0.22997326780E+02  0.96166263699E+02  0.91741843914E+02 0.  0.
         13    1    3    3    0    0  0.34634406352E+02 -0.16349959093E+02  0.73029962899E+01  0.38989847198E+02  0.10566000000E+00 0.  1.
         22    1    1    0    0    0  0.17313733816E+02 -0.16558778372E+01 -0.22997326780E+02  0.28833736301E+02  0.00000000000E+00 0. -1.
</event>
<event>
 5    1  0.6924865E-004  0.9118800E+02  0.7818608E-02  0.1130116E+00
         25   -1    0    0    0    0  0.00000000000E+00  0.00000000000E+00  0.99999998245E-14  0.12500000000E+03  0.12500000000E+03 0.  0.
        -13    1    3    3    0    0  0.49061762631E+02  0.51170931045E+01  0.21388042691E+02  0.53765237175E+02  0.10566000000E+00 0.  1.
         23    2    1    0    0    0  0.12253122766E+02  0.20393026267E+02  0.20448004585E+02  0.93629067126E+02  0.88217156957E+02 0.  0.
         13    1    3    3    0    0 -0.36808639865E+02  0.15275933162E+02 -0.94003810586E+00  0.39863829951E+02  0.10566000000E+00 0. -1.
         22    1    1    0    0    0 -0.12253122766E+02 -0.20393026267E+02 -0.20448004585E+02  0.31370932874E+02  0.00000000000E+00 0.  1.
</event>
<event>
 5    1  0.6924865E-004  0.9118800E+02  0.7818608E-02  0.1130116E+00
         25   -1    0    0    0    0  0.00000000000E+00  0.00000000000E+00  0.99999998245E-14  0.12500000000E+03  0.12500000000E+03 0.  0.
        -13    1    3    3    0    0 -0.49058171998E+02  0.79116640394E+01 -0.23773724433E+02  0.55086294167E+02  0.10566000000E+00 0. -1.
         23    2    1    0    0    0 -0.25954476092E+02  0.93449717900E+01  0.96777223343E+01  0.95766087560E+02  0.91194966363E+02 0.  0.
         13    1    3    3    0    0  0.23103695905E+02  0.14333077506E+01  0.33451446767E+02  0.40679793392E+02  0.10566000000E+00 0.  1.
         22    1    1    0    0    0  0.25954476092E+02 -0.93449717900E+01 -0.96777223343E+01  0.29233912440E+02  0.00000000000E+00 0. -1.
</event>
<event>
 5    1  0.6924865E-004  0.9118800E+02  0.7818608E-02  0.1130116E+00
         25   -1    0    0    0    0  0.00000000000E+00  0.00000000000E+00  0.99999998245E-14  0.12500000000E+03  0.12500000000E+03 0.  0.
        -13    1    3    3    0    0  0.26116110620E+02  0.31178275882E+02  0.17892659768E+02  0.44433034541E+02  0.10566000000E+00 0. -1.
         23    2    1    0    0    0 -0.12702985168E+02  0.16284243530E+02 -0.16636759669E+02  0.98479739975E+02  0.94841631121E+02 0.  0.
         13    1    3    3    0    0 -0.38819095788E+02 -0.14894032352E+02 -0.34529419438E+02  0.54046705434E+02  0.10566000000E+00 0.  1.
         22    1    1    0    0    0  0.12702985168E+02 -0.16284243530E+02  0.16636759669E+02  0.26520260025E+02  0.00000000000E+00 0.  1.
</event>
<event>
 5    1  0.6924865E-004  0.9118800E+02  0.7818608E-02  0.1130116E+00
         25   -1    0    0    0    0  0.00000000000E+00  0.00000000000E+00  0.99999998245E-14  0.12500000000E+03  0.12500000000E+03 0.  0.
        -13    1    3    3    0    0  0.21518701811E+01 -0.26629296157E+02 -0.19515102263E+02  0.33084744815E+02  0.10566000000E+00 0.  1.
         23    2    1    0    0    0  0.68293085041E+01  0.23700195081E+02  0.16654335533E+02  0.95239193667E+02  0.90469875742E+02 0.  0.
         13    1    3    3    0    0  0.46774383231E+01  0.50329491238E+02  0.36169437796E+02  0.62154448852E+02  0.10566000000E+00 0. -1.
         22    1    1    0    0    0 -0.68293085041E+01 -0.23700195081E+02 -0.16654335533E+02  0.29760806333E+02  0.00000000000E+00 0. -1.
</event>
<event>
 5    1  0.6924865E-004  0.9118800E+02  0.7818608E-02  0.1130116E+00
         25   -1    0    0    0    0  0.00000000000E+00  0.00000000000E+00  0.99999998245E-14  0.12500000000E+03  0.12500000000E+03 0.  0.
        -13    1    3    3    0    0  0.96091433872E+01 -0.42038136502E+02  0.56376757471E+01  0.43489482741E+02  0.10566000000E+00 0. -1.
         23    2    1    0    0    0 -0.59718271714E+01 -0.15277706906E+00 -0.26050317048E+02  0.98273513533E+02  0.94569436835E+02 0.  0.
         13    1    3    3    0    0 -0.15580970559E+02  0.41885359433E+02 -0.31687992795E+02  0.54784030792E+02  0.10566000000E+00 0.  1.
         22    1    1    0    0    0  0.59718271714E+01  0.15277706906E+00  0.26050317048E+02  0.26726486467E+02  0.00000000000E+00 0.  1.
</event>
<event>
 5    1  0.6924865E-004  0.9118800E+02  0.7818608E-02  0.1130116E+00
         25   -1    0    0    0    0  0.00000000000E+00  0.00000000000E+00  0.99999998245E-14  0.12500000000E+03  0.12500000000E+03 0.  0.
        -13    1    3    3    0    0 -0.42610390271E+02 -0.45042675842E+02  0.19944270476E+01  0.62036093602E+02  0.10566000000E+00 0.  1.
         23    2    1    0    0    0 -0.21959308168E+02 -0.18567875462E+02 -0.33969065370E+01  0.96042856004E+02  0.91573544220E+02 0.  0.
         13    1    3    3    0    0  0.20651082103E+02  0.26474800380E+02 -0.53913335846E+01  0.34006762402E+02  0.10566000000E+00 0. -1.
         22    1    1    0    0    0  0.21959308168E+02  0.18567875462E+02  0.33969065370E+01  0.28957143996E+02  0.00000000000E+00 0.  1.
</event>
<event>
 5    1  0.6924865E-004  0.9118800E+02  0.7818608E-02  0.1130116E+00
         25   -1    0    0    0    0  0.00000000000E+00  0.00000000000E+00  0.99999998245E-14  0.12500000000E+03  0.12500000000E+03 0.  0.
        -13    1    3    3    0    0 -0.16098809553E+02 -0.27165988664E+02 -0.49247107708E+02  0.58501721263E+02  0.10566000000E+00 0. -1.
         23    2    1    0    0    0  0.79550594407E+01 -0.10450691839E+02 -0.25902451538E+02  0.95958014422E+02  0.91457660180E+02 0.  0.
         13    1    3    3    0    0  0.24053868994E+02  0.16715296826E+02  0.23344656170E+02  0.37456293159E+02  0.10566000000E+00 0.  1.
         22    1    1    0    0    0 -0.79550594407E+01  0.10450691839E+02  0.25902451538E+02  0.29041985578E+02  0.00000000000E+00 0. -1.
</event>
<event>
 5    1  0.6924865E-004  0.9118800E+02  0.7818608E-02  0.1130116E+00
         25   -1    0    0    0    0  0.00000000000E+00  0.00000000000E+00  0.99999998245E-14  0.12500000000E+03  0.12500000000E+03 0.  0.
        -13    1    3    3    0    0  0.61854893102E+01  0.33231619370E+02  0.64705777823E+01  0.34416280229E+02  0.10566000000E+00 0. -1.
         23    2    1    0    0    0  0.12665338592E+02 -0.26467057053E+02 -0.40503840965E+01  0.95380386194E+02  0.90664748103E+02 0.  0.
         13    1    3    3    0    0  0.64798492818E+01 -0.59698676422E+02 -0.10520961879E+02  0.60964105965E+02  0.10566000000E+00 0.  1.
         22    1    1    0    0    0 -0.12665338592E+02  0.26467057053E+02  0.40503840965E+01  0.29619613806E+02  0.00000000000E+00 0.  1.
</event>
<event>
 5    1  0.6924865E-004  0.9118800E+02  0.7818608E-02  0.1130116E+00
         25   -1    0    0    0    0  0.00000000000E+00  0.00000000000E+00  0.99999998245E-14  0.12500000000E+03  0.12500000000E+03 0.  0.
        -13    1    3    3    0    0  0.28588989195E+02  0.47548618107E+02 -0.20518350072E+01  0.55519569324E+02  0.10566000000E+00 0.  1.
         23    2    1    0    0    0  0.28352056618E+02  0.87860479621E+01 -0.67303105171E+01  0.94564316453E+02  0.89532558957E+02 0.  0.
         13    1    3    3    0    0 -0.23693257610E+00 -0.38762570145E+02 -0.46784755098E+01  0.39044747129E+02  0.10566000000E+00 0. -1.
         22    1    1    0    0    0 -0.28352056618E+02 -0.87860479621E+01  0.67303105171E+01  0.30435683547E+02  0.00000000000E+00 0.  1.
</event>
<event>
 5    1  0.6924865E-004  0.9118800E+02  0.7818608E-02  0.1130116E+00
         25   -1    0    0    0    0  0.00000000000E+00  0.00000000000E+00  0.99999998245E-14  0.12500000000E+03  0.12500000000E+03 0.  0.
        -13    1    3    3    0    0  0.17430814721E+02 -0.34720076323E+02 -0.15154349794E+02  0.41701108899E+02  0.10566000000E+00 0. -1.
         23    2    1    0    0    0  0.97832619197E+01 -0.22488900266E+01  0.27426780594E+02  0.95793870268E+02  0.91233039887E+02 0.  0.
         13    1    3    3    0    0 -0.76475528010E+01  0.32471186296E+02  0.42581130388E+02  0.54092761369E+02  0.10566000000E+00 0.  1.
         22    1    1    0    0    0 -0.97832619197E+01  0.22488900266E+01 -0.27426780594E+02  0.29206129732E+02  0.00000000000E+00 0.  1.
</event>
<event>
 5    1  0.6924865E-004  0.9118800E+02  0.7818608E-02  0.1130116E+00
         25   -1    0    0    0    0  0.00000000000E+00  0.00000000000E+00  0.99999998245E-14  0.12500000000E+03  0.12500000000E+03 0.  0.
        -13    1    3    3    0    0 -0.29447291093E+02  0.18476493522E+02  0.23200455970E+02  0.41794689697E+02  0.10566000000E+00 0.  1.
         23    2    1    0    0    0 -0.10174857629E+02  0.22364187689E+01 -0.25953798404E+02  0.97033431597E+02  0.92915864626E+02 0.  0.
         13    1    3    3    0    0  0.19272433464E+02 -0.16240074753E+02 -0.49154254374E+02  0.55238741900E+02  0.10566000000E+00 0. -1.
         22    1    1    0    0    0  0.10174857629E+02 -0.22364187689E+01  0.25953798404E+02  0.27966568403E+02  0.00000000000E+00 0. -1.
</event>
<event>
 5    1  0.6924865E-004  0.9118800E+02  0.7818608E-02  0.1130116E+00
         25   -1    0    0    0    0  0.00000000000E+00  0.00000000000E+00  0.99999998245E-14  0.12500000000E+03  0.12500000000E+03 0.  0.
        -13    1    3    3    0    0 -0.22690580316E+02 -0.17857593285E+02  0.55200026627E+02  0.62296148972E+02  0.10566000000E+00 0. -1.
         23    2    1    0    0    0 -0.12908912262E+02 -0.11265286086E+02  0.25246011470E+02  0.94489218602E+02  0.89427650368E+02 0.  0.
         13    1    3    3    0    0  0.97816680545E+01  0.65923071990E+01 -0.29954015157E+02  0.32193069630E+02  0.10566000000E+00 0.  1.
         22    1    1    0    0    0  0.12908912262E+02  0.11265286086E+02 -0.25246011470E+02  0.30510781398E+02  0.00000000000E+00 0. -1.
</event>
<event>
 5    1  0.6924865E-004  0.9118800E+02  0.7818608E-02  0.1130116E+00
         25   -1    0    0    0    0  0.00000000000E+00  0.00000000000E+00  0.99999998245E-14  0.12500000000E+03  0.12500000000E+03 0.  0.
        -13    1    3    3    0    0 -0.73595376529E+01  0.11205099450E+02  0.38294387665E+02  0.40573246589E+02  0.10566000000E+00 0. -1.
         23    2    1    0    0    0 -0.23244228330E+02 -0.16674396847E+02 -0.64902869411E+01  0.95666512559E+02  0.91058377648E+02 0.  0.
         13    1    3    3    0    0 -0.15884690677E+02 -0.27879496297E+02 -0.44784674606E+02  0.55093265970E+02  0.10566000000E+00 0.  1.
         22    1    1    0    0    0  0.23244228330E+02  0.16674396847E+02  0.64902869411E+01  0.29333487441E+02  0.00000000000E+00 0.  1.
</event>
<event>
 5    1  0.6924865E-004  0.9118800E+02  0.7818608E-02  0.1130116E+00
         25   -1    0    0    0    0  0.00000000000E+00  0.00000000000E+00  0.99999998245E-14  0.12500000000E+03  0.12500000000E+03 0.  0.
        -13    1    3    3    0    0 -0.20178837594E+02  0.39951276757E+02  0.71405239222E+01  0.45324256719E+02  0.10566000000E+00 0. -1.
         23    2    1    0    0    0 -0.98813966217E+01 -0.48806779572E+01  0.27309031210E+02  0.95550955837E+02  0.90899609236E+02 0.  0.
         13    1    3    3    0    0  0.10297440972E+02 -0.44831954714E+02  0.20168507287E+02  0.50226699118E+02  0.10566000000E+00 0.  1.
         22    1    1    0    0    0  0.98813966217E+01  0.48806779572E+01 -0.27309031210E+02  0.29449044163E+02  0.00000000000E+00 0.  1.
</event>
<event>
 5    1  0.6924865E-004  0.9118800E+02  0.7818608E-02  0.1130116E+00
         25   -1    0    0    0    0  0.00000000000E+00  0.00000000000E+00  0.99999998245E-14  0.12500000000E+03  0.12500000000E+03 0.  0.
        -13    1    3    3    0    0 -0.15839656880E+02 -0.30515480789E+02  0.41191398206E+02  0.53654745811E+02  0.10566000000E+00 0. -1.
         23    2    1    0    0    0 -0.16764949426E+01 -0.29083094882E+02  0.14908134948E+01  0.95830502780E+02  0.91283216940E+02 0.  0.
         13    1    3    3    0    0  0.14163161938E+02  0.14323859071E+01 -0.39700584711E+02  0.42175756969E+02  0.10566000000E+00 0.  1.
         22    1    1    0    0    0  0.16764949426E+01  0.29083094882E+02 -0.14908134948E+01  0.29169497220E+02  0.00000000000E+00 0. -1.
</event>
<event>
 5    1  0.6924865E-004  0.9118800E+02  0.7818608E-02  0.1130116E+00
         25   -1    0    0    0    0  0.00000000000E+00  0.00000000000E+00  0.99999998245E-14  0.12500000000E+03  0.12500000000E+03 0.  0.
        -13    1    3    3    0    0  0.38192945695E+01  0.24083004317E+01  0.61791996634E+02  0.61956831214E+02  0.10566000000E+00 0.  1.
         23    2    1    0    0    0  0.18152963945E+01 -0.41789562040E+01  0.38077243168E+02  0.86651135307E+02  0.77703177714E+02 0.  0.
         13    1    3    3    0    0 -0.20039981750E+01 -0.65872566356E+01 -0.23714753466E+02  0.24694304094E+02  0.10566000000E+00 0. -1.
         22    1    1    0    0    0 -0.18152963945E+01  0.41789562040E+01 -0.38077243168E+02  0.38348864693E+02  0.00000000000E+00 0.  1.
</event>
<event>
 5    1  0.6924865E-004  0.9118800E+02  0.7818608E-02  0.1130116E+00
         25   -1    0    0    0    0  0.00000000000E+00  0.00000000000E+00  0.99999998245E-14  0.12500000000E+03  0.12500000000E+03 0.  0.
        -13    1    3    3    0    0  0.21173579904E+02 -0.37755781026E+01  0.27960134601E+02  0.35275427239E+02  0.10566000000E+00 0.  1.
         23    2    1    0    0    0 -0.29016047659E+02 -0.14818698329E+01 -0.52144147429E+01  0.95481919421E+02  0.90804624636E+02 0.  0.
         13    1    3    3    0    0 -0.50189627563E+02  0.22937082698E+01 -0.33174549344E+02  0.60206492182E+02  0.10566000000E+00 0. -1.
         22    1    1    0    0    0  0.29016047659E+02  0.14818698329E+01  0.52144147429E+01  0.29518080579E+02  0.00000000000E+00 0. -1.
</event>
<event>
 5    1  0.6924865E-004  0.9118800E+02  0.7818608E-02  0.1130116E+00
         25   -1    0    0    0    0  0.00000000000E+00  0.00000000000E+00  0.99999998245E-14  0.12500000000E+03  0.12500000000E+03 0.  0.
        -13    1    3    3    0    0 -0.43933606185E+02  0.50091101930E+01  0.34412795930E+02  0.56031282558E+02  0.10566000000E+00 0. -1.
         23    2    1    0    0    0 -0.27572350195E+02 -0.91174116403E+01  0.85721588307E+00  0.95946660960E+02  0.91442141489E+02 0.  0.
         13    1    3    3    0    0  0.16361255990E+02 -0.14126521833E+02 -0.33555580047E+02  0.39915378403E+02  0.10566000000E+00 0.  1.
         22    1    1    0    0    0  0.27572350195E+02  0.91174116403E+01 -0.85721588307E+00  0.29053339040E+02  0.00000000000E+00 0. -1.
</event>
<event>
 5    1  0.6924865E-004  0.9118800E+02  0.7818608E-02  0.1130116E+00
         25   -1    0    0    0    0  0.00000000000E+00  0.00000000000E+00  0.99999998245E-14  0.12500000000E+03  0.12500000000E+03 0.  0.
        -13    1    3    3    0    0  0.39447363253E+02  0.32675763472E+02  0.16466841526E+02  0.53804907025E+02  0.10566000000E+00 0. -1.
         23    2    1    0    0    0  0.38765640860E+01  0.28487567450E+02 -0.53688743483E+01  0.95752879456E+02  0.91176860354E+02 0.  0.
         13    1    3    3    0    0 -0.35570799167E+02 -0.41881960217E+01 -0.21835715874E+02  0.41947972431E+02  0.10566000000E+00 0.  1.
         22    1    1    0    0    0 -0.38765640860E+01 -0.28487567450E+02  0.53688743483E+01  0.29247120544E+02  0.00000000000E+00 0. -1.
</event>
<event>
 5    1  0.6924865E-004  0.9118800E+02  0.7818608E-02  0.1130116E+00
         25   -1    0    0    0    0  0.00000000000E+00  0.00000000000E+00  0.99999998245E-14  0.12500000000E+03  0.12500000000E+03 0.  0.
        -13    1    3    3    0    0 -0.20781810636E+02 -0.27704063598E+02 -0.39778005374E+02  0.52741820870E+02  0.10566000000E+00 0. -1.
         23    2    1    0    0    0  0.12596535815E+02 -0.53885870625E+01 -0.26736083075E+02  0.94957900817E+02  0.90080381906E+02 0.  0.
         13    1    3    3    0    0  0.33378346451E+02  0.22315476536E+02  0.13041922299E+02  0.42216079947E+02  0.10566000000E+00 0.  1.
         22    1    1    0    0    0 -0.12596535815E+02  0.53885870625E+01  0.26736083075E+02  0.30042099183E+02  0.00000000000E+00 0.  1.
</event>
<event>
 5    1  0.6924865E-004  0.9118800E+02  0.7818608E-02  0.1130116E+00
         25   -1    0    0    0    0  0.00000000000E+00  0.00000000000E+00  0.99999998245E-14  0.12500000000E+03  0.12500000000E+03 0.  0.
        -13    1    3    3    0    0 -0.17572204656E+02 -0.22513502913E+02 -0.20201280703E+02  0.34982039620E+02  0.10566000000E+00 0.  1.
         23    2    1    0    0    0  0.22593112598E+02 -0.30663319490E+01  0.19717404786E+02  0.94856556601E+02  0.89939641706E+02 0.  0.
         13    1    3    3    0    0  0.40165317254E+02  0.19447170964E+02  0.39918685488E+02  0.59874516981E+02  0.10566000000E+00 0. -1.
         22    1    1    0    0    0 -0.22593112598E+02  0.30663319490E+01 -0.19717404786E+02  0.30143443399E+02  0.00000000000E+00 0. -1.
</event>
<event>
 5    1  0.6924865E-004  0.9118800E+02  0.7818608E-02  0.1130116E+00
         25   -1    0    0    0    0  0.00000000000E+00  0.00000000000E+00  0.99999998245E-14  0.12500000000E+03  0.12500000000E+03 0.  0.
        -13    1    3    3    0    0 -0.33309941426E+02  0.29440490592E+01 -0.51033491204E+02  0.61013506793E+02  0.10566000000E+00 0. -1.
         23    2    1    0    0    0 -0.20810113921E+02  0.69656551683E+01 -0.17811748081E+02  0.96736250019E+02  0.92515201479E+02 0.  0.
         13    1    3    3    0    0  0.12499827505E+02  0.40216061091E+01  0.33221743124E+02  0.35722743225E+02  0.10566000000E+00 0.  1.
         22    1    1    0    0    0  0.20810113921E+02 -0.69656551683E+01  0.17811748081E+02  0.28263749981E+02  0.00000000000E+00 0. -1.
</event>
<event>
 5    1  0.6924865E-004  0.9118800E+02  0.7818608E-02  0.1130116E+00
         25   -1    0    0    0    0  0.00000000000E+00  0.00000000000E+00  0.99999998245E-14  0.12500000000E+03  0.12500000000E+03 0.  0.
        -13    1    3    3    0    0 -0.43573099313E+02 -0.14213691209E+02  0.26670801768E+02  0.53028170178E+02  0.10566000000E+00 0. -1.
         23    2    1    0    0    0 -0.52997944972E+01 -0.26087940747E+02  0.82687128390E+01  0.97124561239E+02  0.93038380842E+02 0.  0.
         13    1    3    3    0    0  0.38273304815E+02 -0.11874249538E+02 -0.18402088929E+02  0.44096391060E+02  0.10566000000E+00 0.  1.
         22    1    1    0    0    0  0.52997944972E+01  0.26087940747E+02 -0.82687128390E+01  0.27875438761E+02  0.00000000000E+00 0. -1.
</event>
<event>
 5    1  0.6924865E-004  0.9118800E+02  0.7818608E-02  0.1130116E+00
         25   -1    0    0    0    0  0.00000000000E+00  0.00000000000E+00  0.99999998245E-14  0.12500000000E+03  0.12500000000E+03 0.  0.
        -13    1    3    3    0    0  0.94363619257E+01  0.19851982340E+02  0.22063565061E+02  0.31144151882E+02  0.10566000000E+00 0.  1.
         23    2    1    0    0    0 -0.20704762985E+02 -0.22174677127E+02  0.28640473521E+02  0.83278539821E+02  0.72073816017E+02 0.  0.
         13    1    3    3    0    0 -0.30141124911E+02 -0.42026659467E+02  0.65769084602E+01  0.52134387939E+02  0.10566000000E+00 0. -1.
         22    1    1    0    0    0  0.20704762985E+02  0.22174677127E+02 -0.28640473521E+02  0.41721460179E+02  0.00000000000E+00 0. -1.
</event>
<event>
 5    1  0.6924865E-004  0.9118800E+02  0.7818608E-02  0.1130116E+00
         25   -1    0    0    0    0  0.00000000000E+00  0.00000000000E+00  0.99999998245E-14  0.12500000000E+03  0.12500000000E+03 0.  0.
        -13    1    3    3    0    0 -0.42318292089E+02  0.17111449150E+02  0.40639593583E+02  0.61116505692E+02  0.10566000000E+00 0. -1.
         23    2    1    0    0    0 -0.14142205579E+02  0.54935485405E+01  0.25928921109E+02  0.94958528597E+02  0.90081253039E+02 0.  0.
         13    1    3    3    0    0  0.28176086510E+02 -0.11617900610E+02 -0.14710672474E+02  0.33842022905E+02  0.10566000000E+00 0.  1.
         22    1    1    0    0    0  0.14142205579E+02 -0.54935485405E+01 -0.25928921109E+02  0.30041471403E+02  0.00000000000E+00 0. -1.
</event>
<event>
 5    1  0.6924865E-004  0.9118800E+02  0.7818608E-02  0.1130116E+00
         25   -1    0    0    0    0  0.00000000000E+00  0.00000000000E+00  0.99999998245E-14  0.12500000000E+03  0.12500000000E+03 0.  0.
        -13    1    3    3    0    0  0.88589155871E+01 -0.34033778137E+02  0.28730694904E+01  0.35285182896E+02  0.10566000000E+00 0. -1.
         23    2    1    0    0    0 -0.36454095521E+01  0.27024815655E+02  0.25444382555E+01  0.97611976376E+02  0.93690949905E+02 0.  0.
         13    1    3    3    0    0 -0.12504325139E+02  0.61058593792E+02 -0.32863123492E+00  0.62326793480E+02  0.10566000000E+00 0.  1.
         22    1    1    0    0    0  0.36454095521E+01 -0.27024815655E+02 -0.25444382555E+01  0.27388023624E+02  0.00000000000E+00 0.  1.
</event>
<event>
 5    1  0.6924865E-004  0.9118800E+02  0.7818608E-02  0.1130116E+00
         25   -1    0    0    0    0  0.00000000000E+00  0.00000000000E+00  0.99999998245E-14  0.12500000000E+03  0.12500000000E+03 0.  0.
        -13    1    3    3    0    0 -0.35650267792E+02  0.74306424644E+01  0.10077523147E+02  0.37785230950E+02  0.10566000000E+00 0. -1.
         23    2    1    0    0    0  0.89567089406E+01  0.33682917377E+02  0.31756334319E+01  0.90002197129E+02  0.82918931990E+02 0.  0.
         13    1    3    3    0    0  0.44606976733E+02  0.26252274913E+02 -0.69018897154E+01  0.52216966180E+02  0.10566000000E+00 0.  1.
         22    1    1    0    0    0 -0.89567089406E+01 -0.33682917377E+02 -0.31756334319E+01  0.34997802871E+02  0.00000000000E+00 0.  1.
</event>
<event>
 5    1  0.6924865E-004  0.9118800E+02  0.7818608E-02  0.1130116E+00
         25   -1    0    0    0    0  0.00000000000E+00  0.00000000000E+00  0.99999998245E-14  0.12500000000E+03  0.12500000000E+03 0.  0.
        -13    1    3    3    0    0  0.13939872765E+02 -0.46605019596E+02  0.78429149166E+01  0.49273424710E+02  0.10566000000E+00 0. -1.
         23    2    1    0    0    0 -0.20244387369E+02 -0.18476369516E+02 -0.82495402514E+01  0.96377170566E+02  0.92028759860E+02 0.  0.
         13    1    3    3    0    0 -0.34184260135E+02  0.28128650080E+02 -0.16092455168E+02  0.47103745856E+02  0.10566000000E+00 0.  1.
         22    1    1    0    0    0  0.20244387369E+02  0.18476369516E+02  0.82495402514E+01  0.28622829434E+02  0.00000000000E+00 0.  1.
</event>
<event>
 5    1  0.6924865E-004  0.9118800E+02  0.7818608E-02  0.1130116E+00
         25   -1    0    0    0    0  0.00000000000E+00  0.00000000000E+00  0.99999998245E-14  0.12500000000E+03  0.12500000000E+03 0.  0.
        -13    1    3    3    0    0  0.43930592000E+02 -0.21626633515E+01  0.23475289342E+01  0.44046521797E+02  0.10566000000E+00 0.  1.
         23    2    1    0    0    0  0.15617328244E+01  0.17609302186E+01  0.30074564466E+02  0.94833473642E+02  0.89907554803E+02 0.  0.
         13    1    3    3    0    0 -0.42368859176E+02  0.39235935701E+01  0.27727035532E+02  0.50786951846E+02  0.10566000000E+00 0. -1.
         22    1    1    0    0    0 -0.15617328244E+01 -0.17609302186E+01 -0.30074564466E+02  0.30166526358E+02  0.00000000000E+00 0. -1.
</event>
<event>
 5    1  0.6924865E-004  0.9118800E+02  0.7818608E-02  0.1130116E+00
         25   -1    0    0    0    0  0.00000000000E+00  0.00000000000E+00  0.99999998245E-14  0.12500000000E+03  0.12500000000E+03 0.  0.
        -13    1    3    3    0    0 -0.37916306039E+02  0.12250304000E+02  0.42111427321E+02  0.57974991908E+02  0.10566000000E+00 0. -1.
         23    2    1    0    0    0 -0.13326132051E+01  0.10705298623E+02  0.23701186824E+02  0.98959156438E+02  0.95471404669E+02 0.  0.
         13    1    3    3    0    0  0.36583692834E+02 -0.15450053776E+01 -0.18410240497E+02  0.40984164530E+02  0.10566000000E+00 0.  1.
         22    1    1    0    0    0  0.13326132051E+01 -0.10705298623E+02 -0.23701186824E+02  0.26040843562E+02  0.00000000000E+00 0. -1.
</event>
<event>
 5    1  0.6924865E-004  0.9118800E+02  0.7818608E-02  0.1130116E+00
         25   -1    0    0    0    0  0.00000000000E+00  0.00000000000E+00  0.99999998245E-14  0.12500000000E+03  0.12500000000E+03 0.  0.
        -13    1    3    3    0    0  0.52224565173E+02  0.86696971656E+01 -0.19847861104E+02  0.56537753855E+02  0.10566000000E+00 0.  1.
         23    2    1    0    0    0  0.19367397202E+02 -0.86679695725E+01 -0.22859275536E+02  0.93810638850E+02  0.88474062372E+02 0.  0.
         13    1    3    3    0    0 -0.32857167971E+02 -0.17337666738E+02 -0.30114144318E+01  0.37272884996E+02  0.10566000000E+00 0. -1.
         22    1    1    0    0    0 -0.19367397202E+02  0.86679695725E+01  0.22859275536E+02  0.31189361150E+02  0.00000000000E+00 0.  1.
</event>
<event>
 5    1  0.6924865E-004  0.9118800E+02  0.7818608E-02  0.1130116E+00
         25   -1    0    0    0    0  0.00000000000E+00  0.00000000000E+00  0.99999998245E-14  0.12500000000E+03  0.12500000000E+03 0.  0.
        -13    1    3    3    0    0 -0.38948943676E+02 -0.14357402709E+02  0.44047468419E+01  0.41744079638E+02  0.10566000000E+00 0.  1.
         23    2    1    0    0    0 -0.95105164701E+01  0.29089722859E+02  0.18801608760E+00  0.94394489882E+02  0.89295142479E+02 0.  0.
         13    1    3    3    0    0  0.29438427206E+02  0.43447125568E+02 -0.42167307543E+01  0.52650410244E+02  0.10566000000E+00 0. -1.
         22    1    1    0    0    0  0.95105164701E+01 -0.29089722859E+02 -0.18801608760E+00  0.30605510118E+02  0.00000000000E+00 0. -1.
</event>
<event>
 5    1  0.6924865E-004  0.9118800E+02  0.7818608E-02  0.1130116E+00
         25   -1    0    0    0    0  0.00000000000E+00  0.00000000000E+00  0.99999998245E-14  0.12500000000E+03  0.12500000000E+03 0.  0.
        -13    1    3    3    0    0 -0.57731067854E+01  0.35652671046E+02  0.58070393673E+01  0.36581068669E+02  0.10566000000E+00 0.  1.
         23    2    1    0    0    0  0.19314514302E+01 -0.10918839239E+02 -0.28159469553E+02  0.94736039908E+02  0.89771988821E+02 0.  0.
         13    1    3    3    0    0  0.77045582156E+01 -0.46571510285E+02 -0.33966508921E+02  0.58154971239E+02  0.10566000000E+00 0. -1.
         22    1    1    0    0    0 -0.19314514302E+01  0.10918839239E+02  0.28159469553E+02  0.30263960092E+02  0.00000000000E+00 0.  1.
</event>
<event>
 5    1  0.6924865E-004  0.9118800E+02  0.7818608E-02  0.1130116E+00
         25   -1    0    0    0    0  0.00000000000E+00  0.00000000000E+00  0.99999998245E-14  0.12500000000E+03  0.12500000000E+03 0.  0.
        -13    1    3    3    0    0  0.15887925190E+02  0.70929168083E+01  0.50904306292E+02  0.53795866001E+02  0.10566000000E+00 0.  1.
         23    2    1    0    0    0 -0.15857984748E+02  0.75678977276E+00  0.25567338257E+02  0.94904531960E+02  0.90006294168E+02 0.  0.
         13    1    3    3    0    0 -0.31745909939E+02 -0.63361270355E+01 -0.25336968035E+02  0.41108665959E+02  0.10566000000E+00 0. -1.
         22    1    1    0    0    0  0.15857984748E+02 -0.75678977276E+00 -0.25567338257E+02  0.30095468040E+02  0.00000000000E+00 0. -1.
</event>
<event>
 5    1  0.6924865E-004  0.9118800E+02  0.7818608E-02  0.1130116E+00
         25   -1    0    0    0    0  0.00000000000E+00  0.00000000000E+00  0.99999998245E-14  0.12500000000E+03  0.12500000000E+03 0.  0.
        -13    1    3    3    0    0 -0.28234160973E+02 -0.18434407175E+02 -0.63986558519E+01  0.34321264174E+02  0.10566000000E+00 0.  1.
         23    2    1    0    0    0  0.16232824326E+02  0.22551431656E+02 -0.11321680855E+02  0.94995798415E+02  0.90132955149E+02 0.  0.
         13    1    3    3    0    0  0.44466985298E+02  0.40985838831E+02 -0.49230250032E+01  0.60674534242E+02  0.10566000000E+00 0. -1.
         22    1    1    0    0    0 -0.16232824326E+02 -0.22551431656E+02  0.11321680855E+02  0.30004201585E+02  0.00000000000E+00 0. -1.
</event>
<event>
 5    1  0.6924865E-004  0.9118800E+02  0.7818608E-02  0.1130116E+00
         25   -1    0    0    0    0  0.00000000000E+00  0.00000000000E+00  0.99999998245E-14  0.12500000000E+03  0.12500000000E+03 0.  0.
        -13    1    3    3    0    0  0.45725222738E+00 -0.16901934502E+02 -0.41057838967E+02  0.44403173020E+02  0.10566000000E+00 0.  1.
         23    2    1    0    0    0 -0.24809445446E+02  0.13634104194E+02 -0.92639233052E+01  0.95213800922E+02  0.90434784405E+02 0.  0.
         13    1    3    3    0    0 -0.25266697674E+02  0.30536038696E+02  0.31793915662E+02  0.50810627902E+02  0.10566000000E+00 0. -1.
         22    1    1    0    0    0  0.24809445446E+02 -0.13634104194E+02  0.92639233052E+01  0.29786199078E+02  0.00000000000E+00 0. -1.
</event>
<event>
 5    1  0.6924865E-004  0.9118800E+02  0.7818608E-02  0.1130116E+00
         25   -1    0    0    0    0  0.00000000000E+00  0.00000000000E+00  0.99999998245E-14  0.12500000000E+03  0.12500000000E+03 0.  0.
        -13    1    3    3    0    0  0.25275150196E+02 -0.12537952689E+02  0.28149555925E+02  0.39855264870E+02  0.10566000000E+00 0. -1.
         23    2    1    0    0    0 -0.21675663221E+02 -0.15655724843E+02 -0.54981279762E+01  0.97702280174E+02  0.93811353490E+02 0.  0.
         13    1    3    3    0    0 -0.46950813417E+02 -0.31177721540E+01 -0.33647683901E+02  0.57847015304E+02  0.10566000000E+00 0.  1.
         22    1    1    0    0    0  0.21675663221E+02  0.15655724843E+02  0.54981279762E+01  0.27297719826E+02  0.00000000000E+00 0.  1.
</event>
<event>
 5    1  0.6924865E-004  0.9118800E+02  0.7818608E-02  0.1130116E+00
         25   -1    0    0    0    0  0.00000000000E+00  0.00000000000E+00  0.99999998245E-14  0.12500000000E+03  0.12500000000E+03 0.  0.
        -13    1    3    3    0    0 -0.22131808451E+01  0.50211326966E+02 -0.28169103909E+01  0.50339067069E+02  0.10566000000E+00 0. -1.
         23    2    1    0    0    0 -0.47092531984E+01  0.64742844883E+01 -0.24503824503E+02  0.99221504300E+02  0.95814279076E+02 0.  0.
         13    1    3    3    0    0 -0.24960723533E+01 -0.43737042478E+02 -0.21686914112E+02  0.48882437231E+02  0.10566000000E+00 0.  1.
         22    1    1    0    0    0  0.47092531984E+01 -0.64742844883E+01  0.24503824503E+02  0.25778495700E+02  0.00000000000E+00 0. -1.
</event>
<event>
 5    1  0.6924865E-004  0.9118800E+02  0.7818608E-02  0.1130116E+00
         25   -1    0    0    0    0  0.00000000000E+00  0.00000000000E+00  0.99999998245E-14  0.12500000000E+03  0.12500000000E+03 0.  0.
        -13    1    3    3    0    0 -0.32806430623E+02  0.48852913964E+02  0.27065844526E+01  0.58908453183E+02  0.10566000000E+00 0.  1.
         23    2    1    0    0    0 -0.10276678603E+02  0.31840507081E+02 -0.10300679417E+02  0.89992400671E+02  0.82904162548E+02 0.  0.
         13    1    3    3    0    0  0.22529752020E+02 -0.17012406882E+02 -0.13007263870E+02  0.31083947488E+02  0.10566000000E+00 0. -1.
         22    1    1    0    0    0  0.10276678603E+02 -0.31840507081E+02  0.10300679417E+02  0.35007599329E+02  0.00000000000E+00 0.  1.
</event>
<event>
 5    1  0.6924865E-004  0.9118800E+02  0.7818608E-02  0.1130116E+00
         25   -1    0    0    0    0  0.00000000000E+00  0.00000000000E+00  0.99999998245E-14  0.12500000000E+03  0.12500000000E+03 0.  0.
        -13    1    3    3    0    0 -0.45682481229E+02 -0.15472881240E+02  0.40497432501E+00  0.48233539299E+02  0.10566000000E+00 0.  1.
         23    2    1    0    0    0 -0.17388190073E+02 -0.18087795522E+02  0.27694162600E+02  0.87630438282E+02  0.79262914220E+02 0.  0.
         13    1    3    3    0    0  0.28294291156E+02 -0.26149142821E+01  0.27289188275E+02  0.39396898983E+02  0.10566000000E+00 0. -1.
         22    1    1    0    0    0  0.17388190073E+02  0.18087795522E+02 -0.27694162600E+02  0.37369561718E+02  0.00000000000E+00 0.  1.
</event>
<event>
 5    1  0.6924865E-004  0.9118800E+02  0.7818608E-02  0.1130116E+00
         25   -1    0    0    0    0  0.00000000000E+00  0.00000000000E+00  0.99999998245E-14  0.12500000000E+03  0.12500000000E+03 0.  0.
        -13    1    3    3    0    0 -0.50354238747E+02  0.19542313439E+02  0.17935034753E+02  0.56913337716E+02  0.10566000000E+00 0.  1.
         23    2    1    0    0    0 -0.15686684620E+02  0.16763077605E+01  0.23895251537E+02  0.96366712936E+02  0.92014554468E+02 0.  0.
         13    1    3    3    0    0  0.34667554127E+02 -0.17866005678E+02  0.59602167844E+01  0.39453375220E+02  0.10566000000E+00 0. -1.
         22    1    1    0    0    0  0.15686684620E+02 -0.16763077605E+01 -0.23895251537E+02  0.28633287064E+02  0.00000000000E+00 0. -1.
</event>
<event>
 5    1  0.6924865E-004  0.9118800E+02  0.7818608E-02  0.1130116E+00
         25   -1    0    0    0    0  0.00000000000E+00  0.00000000000E+00  0.99999998245E-14  0.12500000000E+03  0.12500000000E+03 0.  0.
        -13    1    3    3    0    0  0.24144474982E+02  0.41443189392E+02  0.91665477788E+01  0.48831653478E+02  0.10566000000E+00 0. -1.
         23    2    1    0    0    0 -0.69205498943E+01  0.22255829421E+02 -0.18986771792E+02  0.94938172758E+02  0.90053002112E+02 0.  0.
         13    1    3    3    0    0 -0.31065024876E+02 -0.19187359971E+02 -0.28153319571E+02  0.46106519280E+02  0.10566000000E+00 0.  1.
         22    1    1    0    0    0  0.69205498943E+01 -0.22255829421E+02  0.18986771792E+02  0.30061827242E+02  0.00000000000E+00 0.  1.
</event>
<event>
 5    1  0.6924865E-004  0.9118800E+02  0.7818608E-02  0.1130116E+00
         25   -1    0    0    0    0  0.00000000000E+00  0.00000000000E+00  0.99999998245E-14  0.12500000000E+03  0.12500000000E+03 0.  0.
        -13    1    3    3    0    0 -0.27960442354E+02 -0.40655676180E+02  0.37209831651E+02  0.61800105808E+02  0.10566000000E+00 0. -1.
         23    2    1    0    0    0 -0.17643092664E+02 -0.18637156244E+02  0.12550330548E+02  0.96431956517E+02  0.92103143970E+02 0.  0.
         13    1    3    3    0    0  0.10317349690E+02  0.22018519937E+02 -0.24659501103E+02  0.34631850709E+02  0.10566000000E+00 0.  1.
         22    1    1    0    0    0  0.17643092664E+02  0.18637156244E+02 -0.12550330548E+02  0.28568043483E+02  0.00000000000E+00 0. -1.
</event>
<event>
 5    1  0.6924865E-004  0.9118800E+02  0.7818608E-02  0.1130116E+00
         25   -1    0    0    0    0  0.00000000000E+00  0.00000000000E+00  0.99999998245E-14  0.12500000000E+03  0.12500000000E+03 0.  0.
        -13    1    3    3    0    0  0.91322674765E+01  0.33589716542E+02 -0.10260504784E+02  0.36289895138E+02  0.10566000000E+00 0. -1.
         23    2    1    0    0    0  0.20331576113E+02 -0.22842348091E+02 -0.32871966166E+01  0.94243675200E+02  0.89083774056E+02 0.  0.
         13    1    3    3    0    0  0.11199308637E+02 -0.56432064634E+02  0.69733081669E+01  0.57953780063E+02  0.10566000000E+00 0.  1.
         22    1    1    0    0    0 -0.20331576113E+02  0.22842348091E+02  0.32871966166E+01  0.30756324800E+02  0.00000000000E+00 0.  1.
</event>
<event>
 5    1  0.6924865E-004  0.9118800E+02  0.7818608E-02  0.1130116E+00
         25   -1    0    0    0    0  0.00000000000E+00  0.00000000000E+00  0.99999998245E-14  0.12500000000E+03  0.12500000000E+03 0.  0.
        -13    1    3    3    0    0 -0.15759722308E+02 -0.18651746020E+02  0.24003387068E+02  0.34240768560E+02  0.10566000000E+00 0. -1.
         23    2    1    0    0    0 -0.15839589611E+00  0.16352193120E+02 -0.24181855419E+02  0.95807853100E+02  0.91252196001E+02 0.  0.
         13    1    3    3    0    0  0.15601326412E+02  0.35003939140E+02 -0.48185242488E+02  0.61567084540E+02  0.10566000000E+00 0.  1.
         22    1    1    0    0    0  0.15839589611E+00 -0.16352193120E+02  0.24181855419E+02  0.29192146900E+02  0.00000000000E+00 0.  1.
</event>
<event>
 5    1  0.6924865E-004  0.9118800E+02  0.7818608E-02  0.1130116E+00
         25   -1    0    0    0    0  0.00000000000E+00  0.00000000000E+00  0.99999998245E-14  0.12500000000E+03  0.12500000000E+03 0.  0.
        -13    1    3    3    0    0 -0.26658550128E+02 -0.29825509219E+01  0.21203611583E+02  0.34193248063E+02  0.10566000000E+00 0. -1.
         23    2    1    0    0    0  0.26579951826E+02  0.82156385598E+01 -0.81493861234E+01  0.96010294065E+02  0.91529085629E+02 0.  0.
         13    1    3    3    0    0  0.53238501954E+02  0.11198189482E+02 -0.29352997707E+02  0.61817046001E+02  0.10566000000E+00 0.  1.
         22    1    1    0    0    0 -0.26579951826E+02 -0.82156385598E+01  0.81493861234E+01  0.28989705935E+02  0.00000000000E+00 0.  1.
</event>
<event>
 5    1  0.6924865E-004  0.9118800E+02  0.7818608E-02  0.1130116E+00
         25   -1    0    0    0    0  0.00000000000E+00  0.00000000000E+00  0.99999998245E-14  0.12500000000E+03  0.12500000000E+03 0.  0.
        -13    1    3    3    0    0 -0.36460473208E+01 -0.24053701786E+02 -0.49815594019E+02  0.55438964656E+02  0.10566000000E+00 0. -1.
         23    2    1    0    0    0 -0.10090211885E+02  0.71324604854E+01 -0.28982587401E+02  0.93493258802E+02  0.88024511930E+02 0.  0.
         13    1    3    3    0    0 -0.64441645645E+01  0.31186162271E+02  0.20833006618E+02  0.38054294146E+02  0.10566000000E+00 0.  1.
         22    1    1    0    0    0  0.10090211885E+02 -0.71324604854E+01  0.28982587401E+02  0.31506741198E+02  0.00000000000E+00 0. -1.
</event>
<event>
 5    1  0.6924865E-004  0.9118800E+02  0.7818608E-02  0.1130116E+00
         25   -1    0    0    0    0  0.00000000000E+00  0.00000000000E+00  0.99999998245E-14  0.12500000000E+03  0.12500000000E+03 0.  0.
        -13    1    3    3    0    0 -0.17818745116E+02  0.27578405482E+02 -0.21061325275E+02  0.39008546664E+02  0.10566000000E+00 0.  1.
         23    2    1    0    0    0  0.19666302461E+02 -0.13786583531E+02 -0.18129197442E+02  0.94908454047E+02  0.90011740967E+02 0.  0.
         13    1    3    3    0    0  0.37485047577E+02 -0.41364989013E+02  0.29321278331E+01  0.55899907384E+02  0.10566000000E+00 0. -1.
         22    1    1    0    0    0 -0.19666302461E+02  0.13786583531E+02  0.18129197442E+02  0.30091545953E+02  0.00000000000E+00 0. -1.
</event>
<event>
 5    1  0.6924865E-004  0.9118800E+02  0.7818608E-02  0.1130116E+00
         25   -1    0    0    0    0  0.00000000000E+00  0.00000000000E+00  0.99999998245E-14  0.12500000000E+03  0.12500000000E+03 0.  0.
        -13    1    3    3    0    0 -0.42221797659E+01  0.38887316491E+02  0.25247806542E+02  0.46556557916E+02  0.10566000000E+00 0. -1.
         23    2    1    0    0    0 -0.27947682258E+02  0.10843520662E+00  0.38970788283E+01  0.96781709386E+02  0.92576602586E+02 0.  0.
         13    1    3    3    0    0 -0.23725502492E+02 -0.38778881284E+02 -0.21350727714E+02  0.50225151469E+02  0.10566000000E+00 0.  1.
         22    1    1    0    0    0  0.27947682258E+02 -0.10843520662E+00 -0.38970788283E+01  0.28218290614E+02  0.00000000000E+00 0. -1.
</event>
<event>
 5    1  0.6924865E-004  0.9118800E+02  0.7818608E-02  0.1130116E+00
         25   -1    0    0    0    0  0.00000000000E+00  0.00000000000E+00  0.99999998245E-14  0.12500000000E+03  0.12500000000E+03 0.  0.
        -13    1    3    3    0    0  0.77227227091E+01 -0.50148832414E+02  0.22263609670E+01  0.50788913020E+02  0.10566000000E+00 0. -1.
         23    2    1    0    0    0 -0.22840196319E+02 -0.13793535324E+02  0.72356648095E+00  0.98308058649E+02  0.94615086864E+02 0.  0.
         13    1    3    3    0    0 -0.30562919028E+02  0.36355297090E+02 -0.15027944860E+01  0.47519145629E+02  0.10566000000E+00 0.  1.
         22    1    1    0    0    0  0.22840196319E+02  0.13793535324E+02 -0.72356648095E+00  0.26691941351E+02  0.00000000000E+00 0.  1.
</event>
<event>
 5    1  0.6924865E-004  0.9118800E+02  0.7818608E-02  0.1130116E+00
         25   -1    0    0    0    0  0.00000000000E+00  0.00000000000E+00  0.99999998245E-14  0.12500000000E+03  0.12500000000E+03 0.  0.
        -13    1    3    3    0    0 -0.29148351961E+02  0.28022208978E+02 -0.15871678073E+02  0.43437218453E+02  0.10566000000E+00 0. -1.
         23    2    1    0    0    0  0.15173694528E+02  0.26218702623E+02  0.78027745113E+01  0.93718301470E+02  0.88343507783E+02 0.  0.
         13    1    3    3    0    0  0.44322046489E+02 -0.18035063551E+01  0.23674452585E+02  0.50281083017E+02  0.10566000000E+00 0.  1.
         22    1    1    0    0    0 -0.15173694528E+02 -0.26218702623E+02 -0.78027745113E+01  0.31281698530E+02  0.00000000000E+00 0. -1.
</event>
<event>
 5    1  0.6924865E-004  0.9118800E+02  0.7818608E-02  0.1130116E+00
         25   -1    0    0    0    0  0.00000000000E+00  0.00000000000E+00  0.99999998245E-14  0.12500000000E+03  0.12500000000E+03 0.  0.
        -13    1    3    3    0    0 -0.33920197116E+02  0.10017604360E+02  0.29611786954E+02  0.46128096212E+02  0.10566000000E+00 0.  1.
         23    2    1    0    0    0  0.13000897752E+02  0.86881680024E+01  0.27801225020E+02  0.93103045314E+02  0.87468630540E+02 0.  0.
         13    1    3    3    0    0  0.46921094868E+02 -0.13294363572E+01 -0.18105619341E+01  0.46974949103E+02  0.10566000000E+00 0. -1.
         22    1    1    0    0    0 -0.13000897752E+02 -0.86881680024E+01 -0.27801225020E+02  0.31896954686E+02  0.00000000000E+00 0. -1.
</event>
<event>
 5    1  0.6924865E-004  0.9118800E+02  0.7818608E-02  0.1130116E+00
         25   -1    0    0    0    0  0.00000000000E+00  0.00000000000E+00  0.99999998245E-14  0.12500000000E+03  0.12500000000E+03 0.  0.
        -13    1    3    3    0    0  0.32093268837E+02 -0.46695583728E+02  0.85338516886E+01  0.57300028211E+02  0.10566000000E+00 0.  1.
         23    2    1    0    0    0  0.19952187720E+02 -0.17171907604E+02 -0.12833683930E+02  0.95714036659E+02  0.91123592800E+02 0.  0.
         13    1    3    3    0    0 -0.12141081116E+02  0.29523676124E+02 -0.21367535619E+02  0.38414008448E+02  0.10566000000E+00 0. -1.
         22    1    1    0    0    0 -0.19952187720E+02  0.17171907604E+02  0.12833683930E+02  0.29285963341E+02  0.00000000000E+00 0.  1.
</event>
<event>
 5    1  0.6924865E-004  0.9118800E+02  0.7818608E-02  0.1130116E+00
         25   -1    0    0    0    0  0.00000000000E+00  0.00000000000E+00  0.99999998245E-14  0.12500000000E+03  0.12500000000E+03 0.  0.
        -13    1    3    3    0    0 -0.28163243590E+02  0.78729208727E+01  0.22164101425E+02  0.36693456209E+02  0.10566000000E+00 0. -1.
         23    2    1    0    0    0  0.28413105541E+02  0.11894093414E+01  0.56785349895E+01  0.96000603098E+02  0.91515849854E+02 0.  0.
         13    1    3    3    0    0  0.56576349131E+02 -0.66835115313E+01 -0.16485566436E+02  0.59307146889E+02  0.10566000000E+00 0.  1.
         22    1    1    0    0    0 -0.28413105541E+02 -0.11894093414E+01 -0.56785349895E+01  0.28999396902E+02  0.00000000000E+00 0.  1.
</event>
<event>
 5    1  0.6924865E-004  0.9118800E+02  0.7818608E-02  0.1130116E+00
         25   -1    0    0    0    0  0.00000000000E+00  0.00000000000E+00  0.99999998245E-14  0.12500000000E+03  0.12500000000E+03 0.  0.
        -13    1    3    3    0    0  0.12525917418E+02  0.18441548038E+02 -0.57627716082E+02  0.61789595613E+02  0.10566000000E+00 0.  1.
         23    2    1    0    0    0  0.98769965584E+01  0.32579605777E+01 -0.26716855469E+02  0.96330159849E+02  0.91964884397E+02 0.  0.
         13    1    3    3    0    0 -0.26489208596E+01 -0.15183587460E+02  0.30910860612E+02  0.34540564236E+02  0.10566000000E+00 0. -1.
         22    1    1    0    0    0 -0.98769965584E+01 -0.32579605777E+01  0.26716855469E+02  0.28669840151E+02  0.00000000000E+00 0.  1.
</event>
<event>
 5    1  0.6924865E-004  0.9118800E+02  0.7818608E-02  0.1130116E+00
         25   -1    0    0    0    0  0.00000000000E+00  0.00000000000E+00  0.99999998245E-14  0.12500000000E+03  0.12500000000E+03 0.  0.
        -13    1    3    3    0    0 -0.49711611983E+02  0.27070234153E+02  0.55583404005E+01  0.56876605517E+02  0.10566000000E+00 0. -1.
         23    2    1    0    0    0 -0.25765567120E+02 -0.10735811491E+01  0.15199199511E+02  0.95066194841E+02  0.90230530921E+02 0.  0.
         13    1    3    3    0    0  0.23946044863E+02 -0.28143815302E+02  0.96408591108E+01  0.38189589324E+02  0.10566000000E+00 0.  1.
         22    1    1    0    0    0  0.25765567120E+02  0.10735811491E+01 -0.15199199511E+02  0.29933805159E+02  0.00000000000E+00 0. -1.
</event>
<event>
 5    1  0.6924865E-004  0.9118800E+02  0.7818608E-02  0.1130116E+00
         25   -1    0    0    0    0  0.00000000000E+00  0.00000000000E+00  0.99999998245E-14  0.12500000000E+03  0.12500000000E+03 0.  0.
        -13    1    3    3    0    0  0.37601500536E+02 -0.10995196764E+02 -0.24634630991E+01  0.39253624150E+02  0.10566000000E+00 0.  1.
         23    2    1    0    0    0 -0.98948957866E+01  0.23822752919E+02 -0.68553133411E+01  0.98308656080E+02  0.94615876152E+02 0.  0.
         13    1    3    3    0    0 -0.47496396322E+02  0.34817949683E+02 -0.43918502420E+01  0.59055031930E+02  0.10566000000E+00 0. -1.
         22    1    1    0    0    0  0.98948957866E+01 -0.23822752919E+02  0.68553133411E+01  0.26691343920E+02  0.00000000000E+00 0. -1.
</event>
<event>
 5    1  0.6924865E-004  0.9118800E+02  0.7818608E-02  0.1130116E+00
         25   -1    0    0    0    0  0.00000000000E+00  0.00000000000E+00  0.99999998245E-14  0.12500000000E+03  0.12500000000E+03 0.  0.
        -13    1    3    3    0    0 -0.23076108173E+02  0.27547257258E+02 -0.39792978406E+02  0.53617631851E+02  0.10566000000E+00 0.  1.
         23    2    1    0    0    0 -0.13520811350E+02 -0.20598916254E+01 -0.37810648583E+02  0.84791783932E+02  0.74652166633E+02 0.  0.
         13    1    3    3    0    0  0.95552968223E+01 -0.29607148884E+02  0.19823298230E+01  0.31174152081E+02  0.10566000000E+00 0. -1.
         22    1    1    0    0    0  0.13520811350E+02  0.20598916254E+01  0.37810648583E+02  0.40208216068E+02  0.00000000000E+00 0.  1.
</event>
<event>
 5    1  0.6924865E-004  0.9118800E+02  0.7818608E-02  0.1130116E+00
         25   -1    0    0    0    0  0.00000000000E+00  0.00000000000E+00  0.99999998245E-14  0.12500000000E+03  0.12500000000E+03 0.  0.
        -13    1    3    3    0    0  0.38297594960E+02  0.18213858145E+02  0.44191065703E+01  0.42637894826E+02  0.10566000000E+00 0.  1.
         23    2    1    0    0    0  0.10707897443E+02 -0.26648389617E+02 -0.41000297152E+01  0.95989553942E+02  0.91500756748E+02 0.  0.
         13    1    3    3    0    0 -0.27589697517E+02 -0.44862247762E+02 -0.85191362855E+01  0.53351659116E+02  0.10566000000E+00 0. -1.
         22    1    1    0    0    0 -0.10707897443E+02  0.26648389617E+02  0.41000297152E+01  0.29010446058E+02  0.00000000000E+00 0. -1.
</event>
<event>
 5    1  0.6924865E-004  0.9118800E+02  0.7818608E-02  0.1130116E+00
         25   -1    0    0    0    0  0.00000000000E+00  0.00000000000E+00  0.99999998245E-14  0.12500000000E+03  0.12500000000E+03 0.  0.
        -13    1    3    3    0    0  0.32184725654E+01 -0.12941554249E+02 -0.56680015553E+02  0.58227808813E+02  0.10566000000E+00 0.  1.
         23    2    1    0    0    0 -0.10824146613E+02 -0.16335849243E+02 -0.23603669487E+02  0.94321744938E+02  0.89193252181E+02 0.  0.
         13    1    3    3    0    0 -0.14042619178E+02 -0.33942949935E+01  0.33076346066E+02  0.36093936125E+02  0.10566000000E+00 0. -1.
         22    1    1    0    0    0  0.10824146613E+02  0.16335849243E+02  0.23603669487E+02  0.30678255062E+02  0.00000000000E+00 0.  1.
</event>
<event>
 5    1  0.6924865E-004  0.9118800E+02  0.7818608E-02  0.1130116E+00
         25   -1    0    0    0    0  0.00000000000E+00  0.00000000000E+00  0.99999998245E-14  0.12500000000E+03  0.12500000000E+03 0.  0.
        -13    1    3    3    0    0 -0.36288588179E+01  0.79521174014E+01  0.34980635143E+02  0.36056355702E+02  0.10566000000E+00 0.  1.
         23    2    1    0    0    0  0.94444755587E+01  0.20120551151E+02 -0.20758459125E+02  0.94587036934E+02  0.89564274315E+02 0.  0.
         13    1    3    3    0    0  0.13073334377E+02  0.12168433749E+02 -0.55739094268E+02  0.58530681232E+02  0.10566000000E+00 0. -1.
         22    1    1    0    0    0 -0.94444755587E+01 -0.20120551151E+02  0.20758459125E+02  0.30412963066E+02  0.00000000000E+00 0. -1.
</event>
<event>
 5    1  0.6924865E-004  0.9118800E+02  0.7818608E-02  0.1130116E+00
         25   -1    0    0    0    0  0.00000000000E+00  0.00000000000E+00  0.99999998245E-14  0.12500000000E+03  0.12500000000E+03 0.  0.
        -13    1    3    3    0    0  0.28411007730E+02 -0.26786924989E+02  0.54528859102E-01  0.39047904528E+02  0.10566000000E+00 0. -1.
         23    2    1    0    0    0 -0.17970988251E+02 -0.27789603213E+01 -0.22613191291E+02  0.95982152740E+02  0.91490645342E+02 0.  0.
         13    1    3    3    0    0 -0.46381995981E+02  0.24007964668E+02 -0.22667720150E+02  0.56934248213E+02  0.10566000000E+00 0.  1.
         22    1    1    0    0    0  0.17970988251E+02  0.27789603213E+01  0.22613191291E+02  0.29017847260E+02  0.00000000000E+00 0.  1.
</event>
<event>
 5    1  0.6924865E-004  0.9118800E+02  0.7818608E-02  0.1130116E+00
         25   -1    0    0    0    0  0.00000000000E+00  0.00000000000E+00  0.99999998245E-14  0.12500000000E+03  0.12500000000E+03 0.  0.
        -13    1    3    3    0    0  0.18312690949E+01 -0.22763751723E+02 -0.30337315947E+02  0.37972435290E+02  0.10566000000E+00 0. -1.
         23    2    1    0    0    0 -0.89235369703E+01  0.27522700660E+02 -0.38656673372E+01  0.95809728544E+02  0.91254765005E+02 0.  0.
         13    1    3    3    0    0 -0.10754806065E+02  0.50286452383E+02  0.26471648609E+02  0.57837293254E+02  0.10566000000E+00 0.  1.
         22    1    1    0    0    0  0.89235369703E+01 -0.27522700660E+02  0.38656673372E+01  0.29190271456E+02  0.00000000000E+00 0.  1.
</event>
<event>
 5    1  0.6924865E-004  0.9118800E+02  0.7818608E-02  0.1130116E+00
         25   -1    0    0    0    0  0.00000000000E+00  0.00000000000E+00  0.99999998245E-14  0.12500000000E+03  0.12500000000E+03 0.  0.
        -13    1    3    3    0    0  0.26206648026E+02 -0.24291858996E+02 -0.47617987690E+02  0.59534584318E+02  0.10566000000E+00 0.  1.
         23    2    1    0    0    0  0.11294253001E+02 -0.33630680313E+01 -0.34813168903E+02  0.88246400087E+02  0.80228424027E+02 0.  0.
         13    1    3    3    0    0 -0.14912395025E+02  0.20928790964E+02  0.12804818786E+02  0.28711815770E+02  0.10566000000E+00 0. -1.
         22    1    1    0    0    0 -0.11294253001E+02  0.33630680313E+01  0.34813168903E+02  0.36753599913E+02  0.00000000000E+00 0.  1.
</event>
<event>
 5    1  0.6924865E-004  0.9118800E+02  0.7818608E-02  0.1130116E+00
         25   -1    0    0    0    0  0.00000000000E+00  0.00000000000E+00  0.99999998245E-14  0.12500000000E+03  0.12500000000E+03 0.  0.
        -13    1    3    3    0    0  0.23079579872E+02  0.17855450589E+02 -0.16856194564E+02  0.33699059068E+02  0.10566000000E+00 0.  1.
         23    2    1    0    0    0 -0.15454952451E+02 -0.15638068774E+02  0.18880305031E+02  0.96019477777E+02  0.91541626838E+02 0.  0.
         13    1    3    3    0    0 -0.38534532324E+02 -0.33493519363E+02  0.35736499596E+02  0.62320418709E+02  0.10566000000E+00 0. -1.
         22    1    1    0    0    0  0.15454952451E+02  0.15638068774E+02 -0.18880305031E+02  0.28980522223E+02  0.00000000000E+00 0. -1.
</event>
<event>
 5    1  0.6924865E-004  0.9118800E+02  0.7818608E-02  0.1130116E+00
         25   -1    0    0    0    0  0.00000000000E+00  0.00000000000E+00  0.99999998245E-14  0.12500000000E+03  0.12500000000E+03 0.  0.
        -13    1    3    3    0    0 -0.40496611185E+01 -0.24122416677E+02  0.32612391177E+02  0.40766039345E+02  0.10566000000E+00 0.  1.
         23    2    1    0    0    0  0.60172179599E+01 -0.22858200556E+02 -0.19808825639E+02  0.94160191022E+02  0.88966554139E+02 0.  0.
         13    1    3    3    0    0  0.10066879078E+02  0.12642161209E+01 -0.52421216816E+02  0.53394151677E+02  0.10566000000E+00 0. -1.
         22    1    1    0    0    0 -0.60172179599E+01  0.22858200556E+02  0.19808825639E+02  0.30839808978E+02  0.00000000000E+00 0. -1.
</event>
<event>
 5    1  0.6924865E-004  0.9118800E+02  0.7818608E-02  0.1130116E+00
         25   -1    0    0    0    0  0.00000000000E+00  0.00000000000E+00  0.99999998245E-14  0.12500000000E+03  0.12500000000E+03 0.  0.
        -13    1    3    3    0    0  0.29244177259E+02 -0.24829658158E+02 -0.21832427543E+02  0.44140682870E+02  0.10566000000E+00 0.  1.
         23    2    1    0    0    0  0.15715402810E+02  0.23016630001E+02 -0.11054262380E+02  0.95017740931E+02  0.90163380775E+02 0.  0.
         13    1    3    3    0    0 -0.13528774449E+02  0.47846288159E+02  0.10778165162E+02  0.50877058061E+02  0.10566000000E+00 0. -1.
         22    1    1    0    0    0 -0.15715402810E+02 -0.23016630001E+02  0.11054262380E+02  0.29982259069E+02  0.00000000000E+00 0. -1.
</event>
<event>
 5    1  0.6924865E-004  0.9118800E+02  0.7818608E-02  0.1130116E+00
         25   -1    0    0    0    0  0.00000000000E+00  0.00000000000E+00  0.99999998245E-14  0.12500000000E+03  0.12500000000E+03 0.  0.
        -13    1    3    3    0    0 -0.11607395569E+02 -0.36072114984E+02  0.27276798011E+02  0.46690084441E+02  0.10566000000E+00 0.  1.
         23    2    1    0    0    0  0.23249168219E+02 -0.18109362200E+02 -0.17511867378E+01  0.95478152545E+02  0.90799439074E+02 0.  0.
         13    1    3    3    0    0  0.34856563788E+02  0.17962752784E+02 -0.29027984749E+02  0.48788068104E+02  0.10566000000E+00 0. -1.
         22    1    1    0    0    0 -0.23249168219E+02  0.18109362200E+02  0.17511867378E+01  0.29521847455E+02  0.00000000000E+00 0.  1.
</event>
<event>
 5    1  0.6924865E-004  0.9118800E+02  0.7818608E-02  0.1130116E+00
         25   -1    0    0    0    0  0.00000000000E+00  0.00000000000E+00  0.99999998245E-14  0.12500000000E+03  0.12500000000E+03 0.  0.
        -13    1    3    3    0    0 -0.35927748427E+02  0.38087667532E+01 -0.30035291995E+02  0.46983398562E+02  0.10566000000E+00 0.  1.
         23    2    1    0    0    0  0.10953517689E+02  0.17348983711E+02 -0.19050337085E+02  0.97002104926E+02  0.92873711197E+02 0.  0.
         13    1    3    3    0    0  0.46881266116E+02  0.13540216958E+02  0.10984954910E+02  0.50018706364E+02  0.10566000000E+00 0. -1.
         22    1    1    0    0    0 -0.10953517689E+02 -0.17348983711E+02  0.19050337085E+02  0.27997895074E+02  0.00000000000E+00 0. -1.
</event>
<event>
 5    1  0.6924865E-004  0.9118800E+02  0.7818608E-02  0.1130116E+00
         25   -1    0    0    0    0  0.00000000000E+00  0.00000000000E+00  0.99999998245E-14  0.12500000000E+03  0.12500000000E+03 0.  0.
        -13    1    3    3    0    0 -0.46026018188E+01  0.33483840940E+02 -0.18717135350E+02  0.38635396560E+02  0.10566000000E+00 0.  1.
         23    2    1    0    0    0  0.27226951878E+02 -0.81309784712E+01  0.50045776141E+01  0.96147521483E+02  0.91716303734E+02 0.  0.
         13    1    3    3    0    0  0.31829553697E+02 -0.41614819411E+02  0.23721712965E+02  0.57512124923E+02  0.10566000000E+00 0. -1.
         22    1    1    0    0    0 -0.27226951878E+02  0.81309784712E+01 -0.50045776141E+01  0.28852478517E+02  0.00000000000E+00 0. -1.
</event>
<event>
 5    1  0.6924865E-004  0.9118800E+02  0.7818608E-02  0.1130116E+00
         25   -1    0    0    0    0  0.00000000000E+00  0.00000000000E+00  0.99999998245E-14  0.12500000000E+03  0.12500000000E+03 0.  0.
        -13    1    3    3    0    0 -0.12930308862E+02  0.20732029246E+01 -0.53320977588E+02  0.54905636073E+02  0.10566000000E+00 0.  1.
         23    2    1    0    0    0 -0.98676272211E+01  0.21244817545E+02 -0.17113679654E+02  0.95989822979E+02  0.91501124281E+02 0.  0.
         13    1    3    3    0    0  0.30626816408E+01  0.19171614620E+02  0.36207297934E+02  0.41084186906E+02  0.10566000000E+00 0. -1.
         22    1    1    0    0    0  0.98676272211E+01 -0.21244817545E+02  0.17113679654E+02  0.29010177021E+02  0.00000000000E+00 0. -1.
</event>
<event>
 5    1  0.6924865E-004  0.9118800E+02  0.7818608E-02  0.1130116E+00
         25   -1    0    0    0    0  0.00000000000E+00  0.00000000000E+00  0.99999998245E-14  0.12500000000E+03  0.12500000000E+03 0.  0.
        -13    1    3    3    0    0 -0.46843628084E+02  0.21608118462E+02  0.34235736200E+02  0.61913916632E+02  0.10566000000E+00 0.  1.
         23    2    1    0    0    0 -0.24854910129E+02  0.58515767636E+01  0.12752889061E+02  0.96458036376E+02  0.92138532080E+02 0.  0.
         13    1    3    3    0    0  0.21988717956E+02 -0.15756541699E+02 -0.21482847139E+02  0.34544119743E+02  0.10566000000E+00 0. -1.
         22    1    1    0    0    0  0.24854910129E+02 -0.58515767636E+01 -0.12752889061E+02  0.28541963624E+02  0.00000000000E+00 0.  1.
</event>
<event>
 5    1  0.6924865E-004  0.9118800E+02  0.7818608E-02  0.1130116E+00
         25   -1    0    0    0    0  0.00000000000E+00  0.00000000000E+00  0.99999998245E-14  0.12500000000E+03  0.12500000000E+03 0.  0.
        -13    1    3    3    0    0  0.19099463784E+02 -0.10739491909E+01  0.25366593201E+02  0.31771340833E+02  0.10566000000E+00 0.  1.
         23    2    1    0    0    0 -0.24213907869E+02  0.27183361950E+02  0.19439718390E+01  0.88544170183E+02  0.80691031383E+02 0.  0.
         13    1    3    3    0    0 -0.43313371653E+02  0.28257311141E+02 -0.23422621362E+02  0.56772829349E+02  0.10566000000E+00 0. -1.
         22    1    1    0    0    0  0.24213907869E+02 -0.27183361950E+02 -0.19439718390E+01  0.36455829817E+02  0.00000000000E+00 0. -1.
</event>
<event>
 5    1  0.6924865E-004  0.9118800E+02  0.7818608E-02  0.1130116E+00
         25   -1    0    0    0    0  0.00000000000E+00  0.00000000000E+00  0.99999998245E-14  0.12500000000E+03  0.12500000000E+03 0.  0.
        -13    1    3    3    0    0 -0.67645139831E+01  0.85709879575E+01  0.43162347748E+02  0.44522128331E+02  0.10566000000E+00 0.  1.
         23    2    1    0    0    0  0.21236381131E+02 -0.19066555119E+02  0.19533668528E+02  0.90415587126E+02  0.83539791606E+02 0.  0.
         13    1    3    3    0    0  0.28000895114E+02 -0.27637543076E+02 -0.23628679220E+02  0.45893458795E+02  0.10566000000E+00 0. -1.
         22    1    1    0    0    0 -0.21236381131E+02  0.19066555119E+02 -0.19533668528E+02  0.34584412874E+02  0.00000000000E+00 0.  1.
</event>
<event>
 5    1  0.6924865E-004  0.9118800E+02  0.7818608E-02  0.1130116E+00
         25   -1    0    0    0    0  0.00000000000E+00  0.00000000000E+00  0.99999998245E-14  0.12500000000E+03  0.12500000000E+03 0.  0.
        -13    1    3    3    0    0  0.44687390187E+02  0.43210160384E+01  0.32214134345E+02  0.55257539186E+02  0.10566000000E+00 0.  1.
         23    2    1    0    0    0  0.38878636580E+02 -0.42615941432E+01  0.35618676591E+01  0.85726644297E+02  0.76201450604E+02 0.  0.
         13    1    3    3    0    0 -0.58087536066E+01 -0.85826101817E+01 -0.28652266686E+02  0.30469105111E+02  0.10566000000E+00 0. -1.
         22    1    1    0    0    0 -0.38878636580E+02  0.42615941432E+01 -0.35618676591E+01  0.39273355703E+02  0.00000000000E+00 0.  1.
</event>
<event>
 5    1  0.6924865E-004  0.9118800E+02  0.7818608E-02  0.1130116E+00
         25   -1    0    0    0    0  0.00000000000E+00  0.00000000000E+00  0.99999998245E-14  0.12500000000E+03  0.12500000000E+03 0.  0.
        -13    1    3    3    0    0  0.41133181618E+02 -0.14595395276E+02 -0.37316229313E+02  0.57423656514E+02  0.10566000000E+00 0.  1.
         23    2    1    0    0    0  0.11942193830E+02  0.68652724897E+01 -0.26331185659E+02  0.95283349818E+02  0.90530864651E+02 0.  0.
         13    1    3    3    0    0 -0.29190987788E+02  0.21460667765E+02  0.10985043653E+02  0.37859693304E+02  0.10566000000E+00 0. -1.
         22    1    1    0    0    0 -0.11942193830E+02 -0.68652724897E+01  0.26331185659E+02  0.29716650182E+02  0.00000000000E+00 0.  1.
</event>
<event>
 5    1  0.6924865E-004  0.9118800E+02  0.7818608E-02  0.1130116E+00
         25   -1    0    0    0    0  0.00000000000E+00  0.00000000000E+00  0.99999998245E-14  0.12500000000E+03  0.12500000000E+03 0.  0.
        -13    1    3    3    0    0 -0.96891881307E+01 -0.41185523904E+02 -0.31424293030E+02  0.52703179243E+02  0.10566000000E+00 0.  1.
         23    2    1    0    0    0 -0.19248116468E+02 -0.23398165805E+01 -0.25222737390E+02  0.93185676014E+02  0.87586637129E+02 0.  0.
         13    1    3    3    0    0 -0.95589283378E+01  0.38845707323E+02  0.62015556400E+01  0.40482496771E+02  0.10566000000E+00 0. -1.
         22    1    1    0    0    0  0.19248116468E+02  0.23398165805E+01  0.25222737390E+02  0.31814323986E+02  0.00000000000E+00 0.  1.
</event>
<event>
 5    1  0.6924865E-004  0.9118800E+02  0.7818608E-02  0.1130116E+00
         25   -1    0    0    0    0  0.00000000000E+00  0.00000000000E+00  0.99999998245E-14  0.12500000000E+03  0.12500000000E+03 0.  0.
        -13    1    3    3    0    0  0.16902529380E+02 -0.95798892940E+01 -0.30373362556E+02  0.36055819160E+02  0.10566000000E+00 0.  1.
         23    2    1    0    0    0 -0.22181895919E+02  0.15287966520E+02  0.87327160529E+01  0.96680064326E+02  0.92439256172E+02 0.  0.
         13    1    3    3    0    0 -0.39084425300E+02  0.24867855814E+02  0.39106078609E+02  0.60624245166E+02  0.10566000000E+00 0. -1.
         22    1    1    0    0    0  0.22181895919E+02 -0.15287966520E+02 -0.87327160529E+01  0.28319935674E+02  0.00000000000E+00 0. -1.
</event>
<event>
 5    1  0.6924865E-004  0.9118800E+02  0.7818608E-02  0.1130116E+00
         25   -1    0    0    0    0  0.00000000000E+00  0.00000000000E+00  0.99999998245E-14  0.12500000000E+03  0.12500000000E+03 0.  0.
        -13    1    3    3    0    0 -0.19860929630E+02  0.54016037415E+02 -0.20829530734E+02  0.61205141438E+02  0.10566000000E+00 0.  1.
         23    2    1    0    0    0 -0.51535087081E+01  0.29153904835E+02 -0.27878535235E+01  0.95263138256E+02  0.90502953344E+02 0.  0.
         13    1    3    3    0    0  0.14707420922E+02 -0.24862132580E+02  0.18041677211E+02  0.34057996818E+02  0.10566000000E+00 0. -1.
         22    1    1    0    0    0  0.51535087081E+01 -0.29153904835E+02  0.27878535235E+01  0.29736861744E+02  0.00000000000E+00 0.  1.
</event>
<event>
 5    1  0.6924865E-004  0.9118800E+02  0.7818608E-02  0.1130116E+00
         25   -1    0    0    0    0  0.00000000000E+00  0.00000000000E+00  0.99999998245E-14  0.12500000000E+03  0.12500000000E+03 0.  0.
        -13    1    3    3    0    0 -0.19877982899E+02  0.42800703963E+02 -0.40089554863E+02  0.61921062951E+02  0.10566000000E+00 0.  1.
         23    2    1    0    0    0 -0.61405026268E+01  0.26182094253E+02 -0.19076391784E+02  0.92028549388E+02  0.85919365378E+02 0.  0.
         13    1    3    3    0    0  0.13737480272E+02 -0.16618609710E+02  0.21013163079E+02  0.30107486437E+02  0.10566000000E+00 0. -1.
         22    1    1    0    0    0  0.61405026268E+01 -0.26182094253E+02  0.19076391784E+02  0.32971450612E+02  0.00000000000E+00 0.  1.
</event>
<event>
 5    1  0.6924865E-004  0.9118800E+02  0.7818608E-02  0.1130116E+00
         25   -1    0    0    0    0  0.00000000000E+00  0.00000000000E+00  0.99999998245E-14  0.12500000000E+03  0.12500000000E+03 0.  0.
        -13    1    3    3    0    0 -0.19913735050E+02 -0.16294374189E+02 -0.52747059982E+02  0.58688388755E+02  0.10566000000E+00 0. -1.
         23    2    1    0    0    0 -0.65761498184E+01 -0.22052598435E+02 -0.20008159058E+02  0.94505914130E+02  0.89450983966E+02 0.  0.
         13    1    3    3    0    0  0.13337585231E+02 -0.57582242459E+01  0.32738900924E+02  0.35817525375E+02  0.10566000000E+00 0.  1.
         22    1    1    0    0    0  0.65761498184E+01  0.22052598435E+02  0.20008159058E+02  0.30494085870E+02  0.00000000000E+00 0. -1.
</event>
<event>
 5    1  0.6924865E-004  0.9118800E+02  0.7818608E-02  0.1130116E+00
         25   -1    0    0    0    0  0.00000000000E+00  0.00000000000E+00  0.99999998245E-14  0.12500000000E+03  0.12500000000E+03 0.  0.
        -13    1    3    3    0    0 -0.17858117045E+02 -0.89781781031E+01 -0.40164355240E+02  0.44863198975E+02  0.10566000000E+00 0. -1.
         23    2    1    0    0    0 -0.23748037413E+02 -0.13492828972E+02  0.10254207644E+02  0.95825105158E+02  0.91275825329E+02 0.  0.
         13    1    3    3    0    0 -0.58899203685E+01 -0.45146508685E+01  0.50418562884E+02  0.50961906182E+02  0.10566000000E+00 0.  1.
         22    1    1    0    0    0  0.23748037413E+02  0.13492828972E+02 -0.10254207644E+02  0.29174894842E+02  0.00000000000E+00 0. -1.
</event>
<event>
 5    1  0.6924865E-004  0.9118800E+02  0.7818608E-02  0.1130116E+00
         25   -1    0    0    0    0  0.00000000000E+00  0.00000000000E+00  0.99999998245E-14  0.12500000000E+03  0.12500000000E+03 0.  0.
        -13    1    3    3    0    0  0.33767176941E+02 -0.56255903352E+01  0.43000820162E+02  0.54963180437E+02  0.10566000000E+00 0. -1.
         23    2    1    0    0    0 -0.37613430944E+01 -0.38119495041E+01  0.29700928741E+02  0.94820141999E+02  0.89889017682E+02 0.  0.
         13    1    3    3    0    0 -0.37528520035E+02  0.18136408311E+01 -0.13299891421E+02  0.39856961562E+02  0.10566000000E+00 0.  1.
         22    1    1    0    0    0  0.37613430944E+01  0.38119495041E+01 -0.29700928741E+02  0.30179858001E+02  0.00000000000E+00 0.  1.
</event>
<event>
 5    1  0.6924865E-004  0.9118800E+02  0.7818608E-02  0.1130116E+00
         25   -1    0    0    0    0  0.00000000000E+00  0.00000000000E+00  0.99999998245E-14  0.12500000000E+03  0.12500000000E+03 0.  0.
        -13    1    3    3    0    0  0.17328339809E+02  0.11203585294E+02  0.32799592952E+02  0.38750692198E+02  0.10566000000E+00 0. -1.
         23    2    1    0    0    0  0.62957624574E+01  0.29506015888E+02 -0.15144509513E+02  0.91242071051E+02  0.84767433386E+02 0.  0.
         13    1    3    3    0    0 -0.11032577352E+02  0.18302430594E+02 -0.47944102465E+02  0.52491378853E+02  0.10566000000E+00 0.  1.
         22    1    1    0    0    0 -0.62957624574E+01 -0.29506015888E+02  0.15144509513E+02  0.33757928949E+02  0.00000000000E+00 0.  1.
</event>
<event>
 5    1  0.6924865E-004  0.9118800E+02  0.7818608E-02  0.1130116E+00
         25   -1    0    0    0    0  0.00000000000E+00  0.00000000000E+00  0.99999998245E-14  0.12500000000E+03  0.12500000000E+03 0.  0.
        -13    1    3    3    0    0 -0.52529771254E+02 -0.85935082834E+01 -0.13546702570E+02  0.54924944853E+02  0.10566000000E+00 0. -1.
         23    2    1    0    0    0 -0.15521475275E+02  0.34763160858E+01 -0.24881754777E+02  0.95468615187E+02  0.90786308421E+02 0.  0.
         13    1    3    3    0    0  0.37008295979E+02  0.12069824369E+02 -0.11335052206E+02  0.40543670333E+02  0.10566000000E+00 0.  1.
         22    1    1    0    0    0  0.15521475275E+02 -0.34763160858E+01  0.24881754777E+02  0.29531384813E+02  0.00000000000E+00 0. -1.
</event>
<event>
 5    1  0.6924865E-004  0.9118800E+02  0.7818608E-02  0.1130116E+00
         25   -1    0    0    0    0  0.00000000000E+00  0.00000000000E+00  0.99999998245E-14  0.12500000000E+03  0.12500000000E+03 0.  0.
        -13    1    3    3    0    0  0.54565009841E+02 -0.25570037707E+02  0.15055644858E+02  0.62111599025E+02  0.10566000000E+00 0.  1.
         23    2    1    0    0    0  0.22674908144E+02 -0.16033365406E+02  0.71623589804E+01  0.96320396590E+02  0.91951613077E+02 0.  0.
         13    1    3    3    0    0 -0.31890101697E+02  0.95366723012E+01 -0.78932858773E+01  0.34208797565E+02  0.10566000000E+00 0. -1.
         22    1    1    0    0    0 -0.22674908144E+02  0.16033365406E+02 -0.71623589804E+01  0.28679603410E+02  0.00000000000E+00 0.  1.
</event>
<event>
 5    1  0.6924865E-004  0.9118800E+02  0.7818608E-02  0.1130116E+00
         25   -1    0    0    0    0  0.00000000000E+00  0.00000000000E+00  0.99999998245E-14  0.12500000000E+03  0.12500000000E+03 0.  0.
        -13    1    3    3    0    0 -0.50784637417E+01  0.18295198973E+02 -0.26674901630E+02  0.32742428750E+02  0.10566000000E+00 0. -1.
         23    2    1    0    0    0 -0.33490372028E+01 -0.13677397715E+02  0.26602012656E+02  0.94900924669E+02  0.90001284253E+02 0.  0.
         13    1    3    3    0    0  0.17294265389E+01 -0.31972596688E+02  0.53276914286E+02  0.62158495919E+02  0.10566000000E+00 0.  1.
         22    1    1    0    0    0  0.33490372028E+01  0.13677397715E+02 -0.26602012656E+02  0.30099075331E+02  0.00000000000E+00 0.  1.
</event>
<event>
 5    1  0.6924865E-004  0.9118800E+02  0.7818608E-02  0.1130116E+00
         25   -1    0    0    0    0  0.00000000000E+00  0.00000000000E+00  0.99999998245E-14  0.12500000000E+03  0.12500000000E+03 0.  0.
        -13    1    3    3    0    0  0.41967008841E+02 -0.14885449461E+02 -0.17822009665E+02  0.47962919316E+02  0.10566000000E+00 0.  1.
         23    2    1    0    0    0 -0.16803003307E+01 -0.25365083336E+01 -0.29933142094E+02  0.94912622591E+02  0.90017529670E+02 0.  0.
         13    1    3    3    0    0 -0.43647309172E+02  0.12348941127E+02 -0.12111132429E+02  0.46949703276E+02  0.10566000000E+00 0. -1.
         22    1    1    0    0    0  0.16803003307E+01  0.25365083336E+01  0.29933142094E+02  0.30087377409E+02  0.00000000000E+00 0.  1.
</event>
<event>
 5    1  0.6924865E-004  0.9118800E+02  0.7818608E-02  0.1130116E+00
         25   -1    0    0    0    0  0.00000000000E+00  0.00000000000E+00  0.99999998245E-14  0.12500000000E+03  0.12500000000E+03 0.  0.
        -13    1    3    3    0    0 -0.34197192256E+02  0.25523331205E+02 -0.24795853933E+02  0.49353155221E+02  0.10566000000E+00 0.  1.
         23    2    1    0    0    0  0.52679339732E+01  0.15476103777E+01 -0.28779006805E+02  0.95701920559E+02  0.91106970863E+02 0.  0.
         13    1    3    3    0    0  0.39465126230E+02 -0.23975720827E+02 -0.39831528727E+01  0.46348765338E+02  0.10566000000E+00 0. -1.
         22    1    1    0    0    0 -0.52679339732E+01 -0.15476103777E+01  0.28779006805E+02  0.29298079441E+02  0.00000000000E+00 0.  1.
</event>
<event>
 5    1  0.6924865E-004  0.9118800E+02  0.7818608E-02  0.1130116E+00
         25   -1    0    0    0    0  0.00000000000E+00  0.00000000000E+00  0.99999998245E-14  0.12500000000E+03  0.12500000000E+03 0.  0.
        -13    1    3    3    0    0  0.33158538220E+02 -0.24144361071E+02  0.12873536869E+02  0.42990440146E+02  0.10566000000E+00 0.  1.
         23    2    1    0    0    0 -0.19352438855E+02  0.25072277975E+01  0.12399387692E+02  0.10187970813E+03  0.99221605678E+02 0.  0.
         13    1    3    3    0    0 -0.52510977075E+02  0.26651588869E+02 -0.47414917748E+00  0.58889267987E+02  0.10566000000E+00 0. -1.
         22    1    1    0    0    0  0.19352438855E+02 -0.25072277975E+01 -0.12399387692E+02  0.23120291867E+02  0.00000000000E+00 0. -1.
</event>
<event>
 5    1  0.6924865E-004  0.9118800E+02  0.7818608E-02  0.1130116E+00
         25   -1    0    0    0    0  0.00000000000E+00  0.00000000000E+00  0.99999998245E-14  0.12500000000E+03  0.12500000000E+03 0.  0.
        -13    1    3    3    0    0 -0.63455332345E+01  0.43728896437E+02  0.10496328868E+02  0.45416585730E+02  0.10566000000E+00 0.  1.
         23    2    1    0    0    0 -0.31849916184E+02  0.54531651044E+01 -0.39896833647E+00  0.92684162608E+02  0.86867949510E+02 0.  0.
         13    1    3    3    0    0 -0.25504382950E+02 -0.38275731333E+02 -0.10895297205E+02  0.47267576878E+02  0.10566000000E+00 0. -1.
         22    1    1    0    0    0  0.31849916184E+02 -0.54531651044E+01  0.39896833647E+00  0.32315837392E+02  0.00000000000E+00 0.  1.
</event>
<event>
 5    1  0.6924865E-004  0.9118800E+02  0.7818608E-02  0.1130116E+00
         25   -1    0    0    0    0  0.00000000000E+00  0.00000000000E+00  0.99999998245E-14  0.12500000000E+03  0.12500000000E+03 0.  0.
        -13    1    3    3    0    0 -0.45946850247E+02  0.12799477003E+02  0.38231111521E+02  0.61127479183E+02  0.10566000000E+00 0.  1.
         23    2    1    0    0    0 -0.15418669915E+02  0.13606740479E+02  0.16961509430E+02  0.98343451639E+02  0.94661834494E+02 0.  0.
         13    1    3    3    0    0  0.30528180332E+02  0.80726347588E+00 -0.21269602090E+02  0.37215972456E+02  0.10566000000E+00 0. -1.
         22    1    1    0    0    0  0.15418669915E+02 -0.13606740479E+02 -0.16961509430E+02  0.26656548361E+02  0.00000000000E+00 0.  1.
</event>
<event>
 5    1  0.6924865E-004  0.9118800E+02  0.7818608E-02  0.1130116E+00
         25   -1    0    0    0    0  0.00000000000E+00  0.00000000000E+00  0.99999998245E-14  0.12500000000E+03  0.12500000000E+03 0.  0.
        -13    1    3    3    0    0  0.49676258378E+02  0.20422714874E+02 -0.10430257259E+02  0.54713977737E+02  0.10566000000E+00 0. -1.
         23    2    1    0    0    0  0.18166562923E+02 -0.17810185913E+01 -0.23343923524E+02  0.95366660648E+02  0.90645822640E+02 0.  0.
         13    1    3    3    0    0 -0.31509695455E+02 -0.22203733465E+02 -0.12913666264E+02  0.40652682912E+02  0.10566000000E+00 0.  1.
         22    1    1    0    0    0 -0.18166562923E+02  0.17810185913E+01  0.23343923524E+02  0.29633339352E+02  0.00000000000E+00 0.  1.
</event>
<event>
 5    1  0.6924865E-004  0.9118800E+02  0.7818608E-02  0.1130116E+00
         25   -1    0    0    0    0  0.00000000000E+00  0.00000000000E+00  0.99999998245E-14  0.12500000000E+03  0.12500000000E+03 0.  0.
        -13    1    3    3    0    0  0.46932484573E+02  0.17900880644E+02 -0.27223332148E+02  0.57133358148E+02  0.10566000000E+00 0.  1.
         23    2    1    0    0    0  0.18638657256E+02  0.23473496229E+02 -0.28498692207E+01  0.94891424409E+02  0.89988088669E+02 0.  0.
         13    1    3    3    0    0 -0.28293827316E+02  0.55726155846E+01  0.24373462927E+02  0.37758066261E+02  0.10566000000E+00 0. -1.
         22    1    1    0    0    0 -0.18638657256E+02 -0.23473496229E+02  0.28498692207E+01  0.30108575591E+02  0.00000000000E+00 0.  1.
</event>
<event>
 5    1  0.6924865E-004  0.9118800E+02  0.7818608E-02  0.1130116E+00
         25   -1    0    0    0    0  0.00000000000E+00  0.00000000000E+00  0.99999998245E-14  0.12500000000E+03  0.12500000000E+03 0.  0.
        -13    1    3    3    0    0  0.11015885173E+02 -0.39016543306E+02 -0.84337681540E+01  0.41409902040E+02  0.10566000000E+00 0. -1.
         23    2    1    0    0    0 -0.23046584092E+02 -0.15042362211E+01  0.15231739465E+02  0.97333889828E+02  0.93319196616E+02 0.  0.
         13    1    3    3    0    0 -0.34062469265E+02  0.37512307084E+02  0.23665507619E+02  0.55923987788E+02  0.10566000000E+00 0.  1.
         22    1    1    0    0    0  0.23046584092E+02  0.15042362211E+01 -0.15231739465E+02  0.27666110172E+02  0.00000000000E+00 0.  1.
</event>
<event>
 5    1  0.6924865E-004  0.9118800E+02  0.7818608E-02  0.1130116E+00
         25   -1    0    0    0    0  0.00000000000E+00  0.00000000000E+00  0.99999998245E-14  0.12500000000E+03  0.12500000000E+03 0.  0.
        -13    1    3    3    0    0 -0.20880995485E+02  0.41198536368E+02  0.14207261598E+02  0.48323832810E+02  0.10566000000E+00 0.  1.
         23    2    1    0    0    0 -0.39486196066E+02  0.17559774263E+02 -0.44085793038E+00  0.81783108538E+02  0.69431816442E+02 0.  0.
         13    1    3    3    0    0 -0.18605200581E+02 -0.23638762105E+02 -0.14648119528E+02  0.33459275728E+02  0.10566000000E+00 0. -1.
         22    1    1    0    0    0  0.39486196066E+02 -0.17559774263E+02  0.44085793038E+00  0.43216891462E+02  0.00000000000E+00 0.  1.
</event>
<event>
 5    1  0.6924865E-004  0.9118800E+02  0.7818608E-02  0.1130116E+00
         25   -1    0    0    0    0  0.00000000000E+00  0.00000000000E+00  0.99999998245E-14  0.12500000000E+03  0.12500000000E+03 0.  0.
        -13    1    3    3    0    0  0.25853832721E+02 -0.29105571130E+02  0.30219505899E+02  0.49282701204E+02  0.10566000000E+00 0.  1.
         23    2    1    0    0    0  0.29215460820E+02  0.50129651985E+01 -0.55435905599E+00  0.95352398326E+02  0.90626152857E+02 0.  0.
         13    1    3    3    0    0  0.33616280997E+01  0.34118536328E+02 -0.30773864955E+02  0.46069697123E+02  0.10566000000E+00 0. -1.
         22    1    1    0    0    0 -0.29215460820E+02 -0.50129651985E+01  0.55435905599E+00  0.29647601674E+02  0.00000000000E+00 0. -1.
</event>
<event>
 5    1  0.6924865E-004  0.9118800E+02  0.7818608E-02  0.1130116E+00
         25   -1    0    0    0    0  0.00000000000E+00  0.00000000000E+00  0.99999998245E-14  0.12500000000E+03  0.12500000000E+03 0.  0.
        -13    1    3    3    0    0  0.24806759444E+02 -0.26152234658E+01  0.28410659257E+02  0.37807293362E+02  0.10566000000E+00 0. -1.
         23    2    1    0    0    0 -0.28311951709E+02 -0.67390204939E+01  0.85526174469E+01  0.94666383797E+02  0.89674946051E+02 0.  0.
         13    1    3    3    0    0 -0.53118711153E+02 -0.41237970281E+01 -0.19858041811E+02  0.56859090435E+02  0.10566000000E+00 0.  1.
         22    1    1    0    0    0  0.28311951709E+02  0.67390204939E+01 -0.85526174469E+01  0.30333616203E+02  0.00000000000E+00 0.  1.
</event>
<event>
 5    1  0.6924865E-004  0.9118800E+02  0.7818608E-02  0.1130116E+00
         25   -1    0    0    0    0  0.00000000000E+00  0.00000000000E+00  0.99999998245E-14  0.12500000000E+03  0.12500000000E+03 0.  0.
        -13    1    3    3    0    0 -0.90274544517E+01  0.29503219588E+02 -0.13399640947E+02  0.33637723488E+02  0.10566000000E+00 0.  1.
         23    2    1    0    0    0  0.16300559023E+02 -0.23375655845E+02  0.68901187745E+01  0.95681008759E+02  0.91078275070E+02 0.  0.
         13    1    3    3    0    0  0.25328013475E+02 -0.52878875433E+02  0.20289759721E+02  0.62043285271E+02  0.10566000000E+00 0. -1.
         22    1    1    0    0    0 -0.16300559023E+02  0.23375655845E+02 -0.68901187745E+01  0.29318991241E+02  0.00000000000E+00 0. -1.
</event>
<event>
 5    1  0.6924865E-004  0.9118800E+02  0.7818608E-02  0.1130116E+00
         25   -1    0    0    0    0  0.00000000000E+00  0.00000000000E+00  0.99999998245E-14  0.12500000000E+03  0.12500000000E+03 0.  0.
        -13    1    3    3    0    0  0.12731990902E+02 -0.23642656169E+01  0.37854714937E+02  0.40008548477E+02  0.10566000000E+00 0. -1.
         23    2    1    0    0    0 -0.55938844821E+01  0.28668510894E+02 -0.43073536104E+01  0.95474953758E+02  0.90795035324E+02 0.  0.
         13    1    3    3    0    0 -0.18325875384E+02  0.31032776510E+02 -0.42162068548E+02  0.55466405281E+02  0.10566000000E+00 0.  1.
         22    1    1    0    0    0  0.55938844821E+01 -0.28668510894E+02  0.43073536104E+01  0.29525046242E+02  0.00000000000E+00 0.  1.
</event>
<event>
 5    1  0.6924865E-004  0.9118800E+02  0.7818608E-02  0.1130116E+00
         25   -1    0    0    0    0  0.00000000000E+00  0.00000000000E+00  0.99999998245E-14  0.12500000000E+03  0.12500000000E+03 0.  0.
        -13    1    3    3    0    0 -0.80684345781E+01 -0.40143360081E+02 -0.47153629312E+02  0.62450499730E+02  0.10566000000E+00 0.  1.
         23    2    1    0    0    0 -0.28236699799E+01 -0.19433727549E+02 -0.20458317202E+02  0.96641833251E+02  0.92387544143E+02 0.  0.
         13    1    3    3    0    0  0.52447645982E+01  0.20709632532E+02  0.26695312109E+02  0.34191333521E+02  0.10566000000E+00 0. -1.
         22    1    1    0    0    0  0.28236699799E+01  0.19433727549E+02  0.20458317202E+02  0.28358166749E+02  0.00000000000E+00 0.  1.
</event>
<event>
 5    1  0.6924865E-004  0.9118800E+02  0.7818608E-02  0.1130116E+00
         25   -1    0    0    0    0  0.00000000000E+00  0.00000000000E+00  0.99999998245E-14  0.12500000000E+03  0.12500000000E+03 0.  0.
        -13    1    3    3    0    0 -0.10685797374E+02  0.10204409398E+02  0.30968789592E+02  0.34313165542E+02  0.10566000000E+00 0. -1.
         23    2    1    0    0    0  0.80525536699E+01 -0.21398167083E+02 -0.18259495206E+02  0.95740226585E+02  0.91159512100E+02 0.  0.
         13    1    3    3    0    0  0.18738351044E+02 -0.31602576481E+02 -0.49228284798E+02  0.61427061043E+02  0.10566000000E+00 0.  1.
         22    1    1    0    0    0 -0.80525536699E+01  0.21398167083E+02  0.18259495206E+02  0.29259773415E+02  0.00000000000E+00 0.  1.
</event>
<event>
 5    1  0.6924865E-004  0.9118800E+02  0.7818608E-02  0.1130116E+00
         25   -1    0    0    0    0  0.00000000000E+00  0.00000000000E+00  0.99999998245E-14  0.12500000000E+03  0.12500000000E+03 0.  0.
        -13    1    3    3    0    0  0.42111545992E+02 -0.87290912659E+01 -0.42938379823E+02  0.60772485271E+02  0.10566000000E+00 0.  1.
         23    2    1    0    0    0  0.27807410968E+02 -0.11516121675E+02 -0.17243128603E+02  0.90312846078E+02  0.83385919192E+02 0.  0.
         13    1    3    3    0    0 -0.14304135023E+02 -0.27870304086E+01  0.25695251221E+02  0.29540360807E+02  0.10566000000E+00 0. -1.
         22    1    1    0    0    0 -0.27807410968E+02  0.11516121675E+02  0.17243128603E+02  0.34687153922E+02  0.00000000000E+00 0.  1.
</event>
<event>
 5    1  0.6924865E-004  0.9118800E+02  0.7818608E-02  0.1130116E+00
         25   -1    0    0    0    0  0.00000000000E+00  0.00000000000E+00  0.99999998245E-14  0.12500000000E+03  0.12500000000E+03 0.  0.
        -13    1    3    3    0    0 -0.36064131234E+02  0.39380067407E+02  0.25569476108E+02  0.59204903033E+02  0.10566000000E+00 0.  1.
         23    2    1    0    0    0 -0.38799613842E+01  0.24005236156E+02  0.15093781465E+02  0.96379592907E+02  0.92032049997E+02 0.  0.
         13    1    3    3    0    0  0.32184169850E+02 -0.15374831251E+02 -0.10475694643E+02  0.37174689874E+02  0.10566000000E+00 0. -1.
         22    1    1    0    0    0  0.38799613842E+01 -0.24005236156E+02 -0.15093781465E+02  0.28620407093E+02  0.00000000000E+00 0.  1.
</event>
<event>
 5    1  0.6924865E-004  0.9118800E+02  0.7818608E-02  0.1130116E+00
         25   -1    0    0    0    0  0.00000000000E+00  0.00000000000E+00  0.99999998245E-14  0.12500000000E+03  0.12500000000E+03 0.  0.
        -13    1    3    3    0    0 -0.51136824537E+02  0.91061922622E+01  0.14571713347E+02  0.53946673254E+02  0.10566000000E+00 0. -1.
         23    2    1    0    0    0 -0.18480716236E+02 -0.16591894632E+02  0.15877927697E+02  0.95522272339E+02  0.90860156751E+02 0.  0.
         13    1    3    3    0    0  0.32656108301E+02 -0.25698086894E+02  0.13062143499E+01  0.41575599086E+02  0.10566000000E+00 0.  1.
         22    1    1    0    0    0  0.18480716236E+02  0.16591894632E+02 -0.15877927697E+02  0.29477727661E+02  0.00000000000E+00 0. -1.
</event>
<event>
 5    1  0.6924865E-004  0.9118800E+02  0.7818608E-02  0.1130116E+00
         25   -1    0    0    0    0  0.00000000000E+00  0.00000000000E+00  0.99999998245E-14  0.12500000000E+03  0.12500000000E+03 0.  0.
        -13    1    3    3    0    0  0.21414802219E+02 -0.47336412930E+02  0.24845450598E+02  0.57590253712E+02  0.10566000000E+00 0. -1.
         23    2    1    0    0    0  0.90455322999E+01 -0.25141307773E+02 -0.60623790534E+01  0.97601834898E+02  0.93677418435E+02 0.  0.
         13    1    3    3    0    0 -0.12369269920E+02  0.22195105156E+02 -0.30907829652E+02  0.40011581186E+02  0.10566000000E+00 0.  1.
         22    1    1    0    0    0 -0.90455322999E+01  0.25141307773E+02  0.60623790534E+01  0.27398165102E+02  0.00000000000E+00 0. -1.
</event>
<event>
 5    1  0.6924865E-004  0.9118800E+02  0.7818608E-02  0.1130116E+00
         25   -1    0    0    0    0  0.00000000000E+00  0.00000000000E+00  0.99999998245E-14  0.12500000000E+03  0.12500000000E+03 0.  0.
        -13    1    3    3    0    0 -0.30710679973E+02 -0.41556176728E+02  0.21347436559E+02  0.55908728302E+02  0.10566000000E+00 0.  1.
         23    2    1    0    0    0 -0.22195565011E+02 -0.17883564970E+02 -0.87948286841E+01  0.95170249519E+02  0.90374567106E+02 0.  0.
         13    1    3    3    0    0  0.85151149618E+01  0.23672611758E+02 -0.30142265243E+02  0.39261521217E+02  0.10566000000E+00 0. -1.
         22    1    1    0    0    0  0.22195565011E+02  0.17883564970E+02  0.87948286841E+01  0.29829750481E+02  0.00000000000E+00 0.  1.
</event>
<event>
 5    1  0.6924865E-004  0.9118800E+02  0.7818608E-02  0.1130116E+00
         25   -1    0    0    0    0  0.00000000000E+00  0.00000000000E+00  0.99999998245E-14  0.12500000000E+03  0.12500000000E+03 0.  0.
        -13    1    3    3    0    0  0.11803693971E+02  0.43582871047E+02 -0.19500811739E+02  0.49184211517E+02  0.10566000000E+00 0. -1.
         23    2    1    0    0    0 -0.66369225760E+01  0.25095504450E+01 -0.28954145991E+02  0.95189110131E+02  0.90400650068E+02 0.  0.
         13    1    3    3    0    0 -0.18440616547E+02 -0.41073320602E+02 -0.94533342519E+01  0.46004898613E+02  0.10566000000E+00 0.  1.
         22    1    1    0    0    0  0.66369225760E+01 -0.25095504450E+01  0.28954145991E+02  0.29810889869E+02  0.00000000000E+00 0. -1.
</event>
<event>
 5    1  0.6924865E-004  0.9118800E+02  0.7818608E-02  0.1130116E+00
         25   -1    0    0    0    0  0.00000000000E+00  0.00000000000E+00  0.99999998245E-14  0.12500000000E+03  0.12500000000E+03 0.  0.
        -13    1    3    3    0    0 -0.37554878559E+02  0.16751337122E+02 -0.34228563194E+02  0.53503101792E+02  0.10566000000E+00 0.  1.
         23    2    1    0    0    0 -0.17705635489E+02 -0.13006614020E+02 -0.27332701296E+02  0.89932378232E+02  0.82813613362E+02 0.  0.
         13    1    3    3    0    0  0.19849243070E+02 -0.29757951142E+02  0.68958618984E+01  0.36429276440E+02  0.10566000000E+00 0. -1.
         22    1    1    0    0    0  0.17705635489E+02  0.13006614020E+02  0.27332701296E+02  0.35067621768E+02  0.00000000000E+00 0.  1.
</event>
<event>
 5    1  0.6924865E-004  0.9118800E+02  0.7818608E-02  0.1130116E+00
         25   -1    0    0    0    0  0.00000000000E+00  0.00000000000E+00  0.99999998245E-14  0.12500000000E+03  0.12500000000E+03 0.  0.
        -13    1    3    3    0    0  0.31779702713E+02 -0.36524670040E+02 -0.32963941756E+02  0.58571611265E+02  0.10566000000E+00 0. -1.
         23    2    1    0    0    0  0.10541018284E+01 -0.18979223475E+02 -0.22658293641E+02  0.95424328831E+02  0.90725311836E+02 0.  0.
         13    1    3    3    0    0 -0.30725600884E+02  0.17545446566E+02  0.10305648115E+02  0.36852717566E+02  0.10566000000E+00 0.  1.
         22    1    1    0    0    0 -0.10541018284E+01  0.18979223475E+02  0.22658293641E+02  0.29575671169E+02  0.00000000000E+00 0. -1.
</event>
<event>
 5    1  0.6924865E-004  0.9118800E+02  0.7818608E-02  0.1130116E+00
         25   -1    0    0    0    0  0.00000000000E+00  0.00000000000E+00  0.99999998245E-14  0.12500000000E+03  0.12500000000E+03 0.  0.
        -13    1    3    3    0    0  0.41295987438E+02 -0.14697679828E+02  0.17599336575E+02  0.47234819601E+02  0.10566000000E+00 0.  1.
         23    2    1    0    0    0  0.11096902020E+02  0.22157656657E+02  0.17111513747E+02  0.94885105252E+02  0.89979310472E+02 0.  0.
         13    1    3    3    0    0 -0.30199085418E+02  0.36855336485E+02 -0.48782282885E+00  0.47650285651E+02  0.10566000000E+00 0. -1.
         22    1    1    0    0    0 -0.11096902020E+02 -0.22157656657E+02 -0.17111513747E+02  0.30114894748E+02  0.00000000000E+00 0.  1.
</event>
<event>
 5    1  0.6924865E-004  0.9118800E+02  0.7818608E-02  0.1130116E+00
         25   -1    0    0    0    0  0.00000000000E+00  0.00000000000E+00  0.99999998245E-14  0.12500000000E+03  0.12500000000E+03 0.  0.
        -13    1    3    3    0    0 -0.31574693542E+02  0.18856480545E+02 -0.43596306866E+02  0.57036630925E+02  0.10566000000E+00 0. -1.
         23    2    1    0    0    0 -0.23899746991E+00 -0.94866502294E+01 -0.49527817947E+01  0.11429562240E+03  0.11379325814E+03 0.  0.
         13    1    3    3    0    0  0.31335696072E+02 -0.28343130774E+02  0.38643525072E+02  0.57258991472E+02  0.10566000000E+00 0.  1.
         22    1    1    0    0    0  0.23899746991E+00  0.94866502294E+01  0.49527817947E+01  0.10704377603E+02  0.00000000000E+00 0. -1.
</event>
<event>
 5    1  0.6924865E-004  0.9118800E+02  0.7818608E-02  0.1130116E+00
         25   -1    0    0    0    0  0.00000000000E+00  0.00000000000E+00  0.99999998245E-14  0.12500000000E+03  0.12500000000E+03 0.  0.
        -13    1    3    3    0    0  0.30000145523E+02 -0.71115045877E+01  0.25860823619E+02  0.40241466067E+02  0.10566000000E+00 0.  1.
         23    2    1    0    0    0 -0.23761759116E+02  0.43570445306E+01  0.15821304364E+02  0.96122349384E+02  0.91681990303E+02 0.  0.
         13    1    3    3    0    0 -0.53761904640E+02  0.11468549118E+02 -0.10039519255E+02  0.55880883317E+02  0.10566000000E+00 0. -1.
         22    1    1    0    0    0  0.23761759116E+02 -0.43570445306E+01 -0.15821304364E+02  0.28877650616E+02  0.00000000000E+00 0. -1.
</event>
<event>
 5    1  0.6924865E-004  0.9118800E+02  0.7818608E-02  0.1130116E+00
         25   -1    0    0    0    0  0.00000000000E+00  0.00000000000E+00  0.99999998245E-14  0.12500000000E+03  0.12500000000E+03 0.  0.
        -13    1    3    3    0    0 -0.57797489649E+02 -0.22724581047E+02  0.66694057719E-01  0.62104524841E+02  0.10566000000E+00 0.  1.
         23    2    1    0    0    0 -0.28488839207E+02 -0.65466986832E+01  0.24470479021E+01  0.95666379929E+02  0.91058195580E+02 0.  0.
         13    1    3    3    0    0  0.29308650442E+02  0.16177882364E+02  0.23803538444E+01  0.33561855089E+02  0.10566000000E+00 0. -1.
         22    1    1    0    0    0  0.28488839207E+02  0.65466986832E+01 -0.24470479021E+01  0.29333620071E+02  0.00000000000E+00 0.  1.
</event>
<event>
 5    1  0.6924865E-004  0.9118800E+02  0.7818608E-02  0.1130116E+00
         25   -1    0    0    0    0  0.00000000000E+00  0.00000000000E+00  0.99999998245E-14  0.12500000000E+03  0.12500000000E+03 0.  0.
        -13    1    3    3    0    0 -0.42092501885E+01  0.35377312996E+02 -0.34798368000E+01  0.35796542992E+02  0.10566000000E+00 0.  1.
         23    2    1    0    0    0  0.12434618631E+01 -0.21005685361E+02 -0.21180382439E+02  0.95143784313E+02  0.90337954804E+02 0.  0.
         13    1    3    3    0    0  0.54527120516E+01 -0.56382998357E+02 -0.17700545639E+02  0.59347241321E+02  0.10566000000E+00 0. -1.
         22    1    1    0    0    0 -0.12434618631E+01  0.21005685361E+02  0.21180382439E+02  0.29856215687E+02  0.00000000000E+00 0. -1.
</event>
<event>
 5    1  0.6924865E-004  0.9118800E+02  0.7818608E-02  0.1130116E+00
         25   -1    0    0    0    0  0.00000000000E+00  0.00000000000E+00  0.99999998245E-14  0.12500000000E+03  0.12500000000E+03 0.  0.
        -13    1    3    3    0    0  0.35257290200E+02  0.54213368704E+00  0.43055901778E+02  0.55652423695E+02  0.10566000000E+00 0. -1.
         23    2    1    0    0    0 -0.20857115645E+01  0.14319475003E+02  0.13259815015E+02  0.10537297141E+03  0.10352894693E+03 0.  0.
         13    1    3    3    0    0 -0.37343001764E+02  0.13777341316E+02 -0.29796086763E+02  0.49720547713E+02  0.10566000000E+00 0.  1.
         22    1    1    0    0    0  0.20857115645E+01 -0.14319475003E+02 -0.13259815015E+02  0.19627028591E+02  0.00000000000E+00 0.  1.
</event>
<event>
 5    1  0.6924865E-004  0.9118800E+02  0.7818608E-02  0.1130116E+00
         25   -1    0    0    0    0  0.00000000000E+00  0.00000000000E+00  0.99999998245E-14  0.12500000000E+03  0.12500000000E+03 0.  0.
        -13    1    3    3    0    0 -0.29664634736E+02  0.49828539778E+02 -0.79343029955E+01  0.58530660841E+02  0.10566000000E+00 0.  1.
         23    2    1    0    0    0 -0.20136567209E+02  0.22252085026E+02 -0.18711703550E+02  0.89633851259E+02  0.82361780061E+02 0.  0.
         13    1    3    3    0    0  0.95280675268E+01 -0.27576454752E+02 -0.10777400555E+02  0.31103190419E+02  0.10566000000E+00 0. -1.
         22    1    1    0    0    0  0.20136567209E+02 -0.22252085026E+02  0.18711703550E+02  0.35366148741E+02  0.00000000000E+00 0.  1.
</event>
<event>
 5    1  0.6924865E-004  0.9118800E+02  0.7818608E-02  0.1130116E+00
         25   -1    0    0    0    0  0.00000000000E+00  0.00000000000E+00  0.99999998245E-14  0.12500000000E+03  0.12500000000E+03 0.  0.
        -13    1    3    3    0    0 -0.28979660008E+02 -0.11943204880E+02  0.51236226391E+02  0.60063490540E+02  0.10566000000E+00 0. -1.
         23    2    1    0    0    0 -0.23415618663E+02 -0.38868602931E+01  0.16656437179E+02  0.96002831521E+02  0.91518893570E+02 0.  0.
         13    1    3    3    0    0  0.55640413452E+01  0.80563445868E+01 -0.34579789212E+02  0.35939340981E+02  0.10566000000E+00 0.  1.
         22    1    1    0    0    0  0.23415618663E+02  0.38868602931E+01 -0.16656437179E+02  0.28997168479E+02  0.00000000000E+00 0. -1.
</event>
<event>
 5    1  0.6924865E-004  0.9118800E+02  0.7818608E-02  0.1130116E+00
         25   -1    0    0    0    0  0.00000000000E+00  0.00000000000E+00  0.99999998245E-14  0.12500000000E+03  0.12500000000E+03 0.  0.
        -13    1    3    3    0    0 -0.46315766175E+02 -0.15456092924E+02  0.17426335454E+02  0.51843315251E+02  0.10566000000E+00 0.  1.
         23    2    1    0    0    0 -0.81110018008E+01  0.10130558702E+02  0.23430988090E+02  0.98215157781E+02  0.94492271881E+02 0.  0.
         13    1    3    3    0    0  0.38204764374E+02  0.25586651626E+02  0.60046526361E+01  0.46371842530E+02  0.10566000000E+00 0. -1.
         22    1    1    0    0    0  0.81110018008E+01 -0.10130558702E+02 -0.23430988090E+02  0.26784842219E+02  0.00000000000E+00 0. -1.
</event>
<event>
 5    1  0.6924865E-004  0.9118800E+02  0.7818608E-02  0.1130116E+00
         25   -1    0    0    0    0  0.00000000000E+00  0.00000000000E+00  0.99999998245E-14  0.12500000000E+03  0.12500000000E+03 0.  0.
        -13    1    3    3    0    0 -0.35686265530E+02  0.23685532157E+02 -0.13775989350E+02  0.44992255196E+02  0.10566000000E+00 0. -1.
         23    2    1    0    0    0  0.11921924115E+02  0.97519515643E+01 -0.24798537937E+02  0.95807529777E+02  0.91251753103E+02 0.  0.
         13    1    3    3    0    0  0.47608189645E+02 -0.13933580593E+02 -0.11022548586E+02  0.50815274581E+02  0.10566000000E+00 0.  1.
         22    1    1    0    0    0 -0.11921924115E+02 -0.97519515643E+01  0.24798537937E+02  0.29192470223E+02  0.00000000000E+00 0.  1.
</event>
<event>
 5    1  0.6924865E-004  0.9118800E+02  0.7818608E-02  0.1130116E+00
         25   -1    0    0    0    0  0.00000000000E+00  0.00000000000E+00  0.99999998245E-14  0.12500000000E+03  0.12500000000E+03 0.  0.
        -13    1    3    3    0    0 -0.22675289101E+02  0.37822301354E+02  0.40831485485E+01  0.44287452870E+02  0.10566000000E+00 0.  1.
         23    2    1    0    0    0  0.71151782506E+01  0.12805269703E+02 -0.27132878091E+02  0.94165056069E+02  0.88973389377E+02 0.  0.
         13    1    3    3    0    0  0.29790467352E+02 -0.25017031652E+02 -0.31216026640E+02  0.49877603200E+02  0.10566000000E+00 0. -1.
         22    1    1    0    0    0 -0.71151782506E+01 -0.12805269703E+02  0.27132878091E+02  0.30834943931E+02  0.00000000000E+00 0.  1.
</event>
<event>
 5    1  0.6924865E-004  0.9118800E+02  0.7818608E-02  0.1130116E+00
         25   -1    0    0    0    0  0.00000000000E+00  0.00000000000E+00  0.99999998245E-14  0.12500000000E+03  0.12500000000E+03 0.  0.
        -13    1    3    3    0    0  0.14876656081E+02  0.53931433394E+02  0.45298456265E+01  0.56128825656E+02  0.10566000000E+00 0. -1.
         23    2    1    0    0    0  0.24045511692E+02  0.14637454589E+02 -0.85777710781E+00  0.96836593052E+02  0.92650678697E+02 0.  0.
         13    1    3    3    0    0  0.91688556103E+01 -0.39293978806E+02 -0.53876227343E+01  0.40707767396E+02  0.10566000000E+00 0.  1.
         22    1    1    0    0    0 -0.24045511692E+02 -0.14637454589E+02  0.85777710781E+00  0.28163406948E+02  0.00000000000E+00 0. -1.
</event>
<event>
 5    1  0.6924865E-004  0.9118800E+02  0.7818608E-02  0.1130116E+00
         25   -1    0    0    0    0  0.00000000000E+00  0.00000000000E+00  0.99999998245E-14  0.12500000000E+03  0.12500000000E+03 0.  0.
        -13    1    3    3    0    0  0.32312239211E+02  0.96893079552E+01 -0.21346429173E+02  0.39920479631E+02  0.10566000000E+00 0. -1.
         23    2    1    0    0    0  0.42269620793E+01 -0.28204451036E+02  0.78844109782E+01  0.95410775557E+02  0.90706636412E+02 0.  0.
         13    1    3    3    0    0 -0.28085277131E+02 -0.37893758991E+02  0.29230840151E+02  0.55490295926E+02  0.10566000000E+00 0.  1.
         22    1    1    0    0    0 -0.42269620793E+01  0.28204451036E+02 -0.78844109782E+01  0.29589224443E+02  0.00000000000E+00 0.  1.
</event>
<event>
 5    1  0.6924865E-004  0.9118800E+02  0.7818608E-02  0.1130116E+00
         25   -1    0    0    0    0  0.00000000000E+00  0.00000000000E+00  0.99999998245E-14  0.12500000000E+03  0.12500000000E+03 0.  0.
        -13    1    3    3    0    0 -0.33646238420E+01 -0.18919709728E+02  0.26974931050E+02  0.33119996663E+02  0.10566000000E+00 0.  1.
         23    2    1    0    0    0 -0.32408210517E+02 -0.20938703503E+02 -0.14489815515E+02  0.83785000704E+02  0.72946899702E+02 0.  0.
         13    1    3    3    0    0 -0.29043586675E+02 -0.20189937747E+01 -0.41464746565E+02  0.50665004042E+02  0.10566000000E+00 0. -1.
         22    1    1    0    0    0  0.32408210517E+02  0.20938703503E+02  0.14489815515E+02  0.41214999296E+02  0.00000000000E+00 0. -1.
</event>
<event>
 5    1  0.6924865E-004  0.9118800E+02  0.7818608E-02  0.1130116E+00
         25   -1    0    0    0    0  0.00000000000E+00  0.00000000000E+00  0.99999998245E-14  0.12500000000E+03  0.12500000000E+03 0.  0.
        -13    1    3    3    0    0 -0.50401312817E+02 -0.14854552611E+02  0.24119358902E+02  0.57816128414E+02  0.10566000000E+00 0.  1.
         23    2    1    0    0    0 -0.12664279259E+02 -0.15636201729E+02  0.21349230150E+02  0.95662917636E+02  0.91053442599E+02 0.  0.
         13    1    3    3    0    0  0.37737033558E+02 -0.78164911739E+00 -0.27701287520E+01  0.37846789222E+02  0.10566000000E+00 0. -1.
         22    1    1    0    0    0  0.12664279259E+02  0.15636201729E+02 -0.21349230150E+02  0.29337082364E+02  0.00000000000E+00 0.  1.
</event>
<event>
 5    1  0.6924865E-004  0.9118800E+02  0.7818608E-02  0.1130116E+00
         25   -1    0    0    0    0  0.00000000000E+00  0.00000000000E+00  0.99999998245E-14  0.12500000000E+03  0.12500000000E+03 0.  0.
        -13    1    3    3    0    0 -0.12179544393E+02 -0.51308352257E+02 -0.28407058259E+02  0.59898751539E+02  0.10566000000E+00 0.  1.
         23    2    1    0    0    0  0.38907017492E+01 -0.19866177588E+02 -0.20711088878E+02  0.96038788447E+02  0.91567991743E+02 0.  0.
         13    1    3    3    0    0  0.16070246143E+02  0.31442174669E+02  0.76959693809E+01  0.36140036908E+02  0.10566000000E+00 0. -1.
         22    1    1    0    0    0 -0.38907017492E+01  0.19866177588E+02  0.20711088878E+02  0.28961211553E+02  0.00000000000E+00 0.  1.
</event>
<event>
 5    1  0.6924865E-004  0.9118800E+02  0.7818608E-02  0.1130116E+00
         25   -1    0    0    0    0  0.00000000000E+00  0.00000000000E+00  0.99999998245E-14  0.12500000000E+03  0.12500000000E+03 0.  0.
        -13    1    3    3    0    0 -0.26186496881E+02 -0.54722062518E+02  0.87103343175E+01  0.61287175111E+02  0.10566000000E+00 0.  1.
         23    2    1    0    0    0 -0.19005979046E+02 -0.32386147352E+02 -0.26512715355E+01  0.87355358674E+02  0.78827911734E+02 0.  0.
         13    1    3    3    0    0  0.71805178345E+01  0.22335915166E+02 -0.11361605853E+02  0.26068183563E+02  0.10566000000E+00 0. -1.
         22    1    1    0    0    0  0.19005979046E+02  0.32386147352E+02  0.26512715355E+01  0.37644641326E+02  0.00000000000E+00 0.  1.
</event>
<event>
 5    1  0.6924865E-004  0.9118800E+02  0.7818608E-02  0.1130116E+00
         25   -1    0    0    0    0  0.00000000000E+00  0.00000000000E+00  0.99999998245E-14  0.12500000000E+03  0.12500000000E+03 0.  0.
        -13    1    3    3    0    0 -0.71377091928E+01 -0.54655971238E+02  0.88682463521E+01  0.55829016128E+02  0.10566000000E+00 0.  1.
         23    2    1    0    0    0  0.19227193974E+01 -0.23696140628E+02 -0.15813741362E+02  0.96446920544E+02  0.92123450522E+02 0.  0.
         13    1    3    3    0    0  0.90604285902E+01  0.30959830610E+02 -0.24681987714E+02  0.40617904416E+02  0.10566000000E+00 0. -1.
         22    1    1    0    0    0 -0.19227193974E+01  0.23696140628E+02  0.15813741362E+02  0.28553079456E+02  0.00000000000E+00 0.  1.
</event>
<event>
 5    1  0.6924865E-004  0.9118800E+02  0.7818608E-02  0.1130116E+00
         25   -1    0    0    0    0  0.00000000000E+00  0.00000000000E+00  0.99999998245E-14  0.12500000000E+03  0.12500000000E+03 0.  0.
        -13    1    3    3    0    0 -0.41347118131E+02 -0.34557054019E+02  0.18852966075E+02  0.57089575704E+02  0.10566000000E+00 0. -1.
         23    2    1    0    0    0 -0.86691517582E+01 -0.17775547036E+02  0.23687843908E+02  0.94141642726E+02  0.88940489551E+02 0.  0.
         13    1    3    3    0    0  0.32677966373E+02  0.16781506983E+02  0.48348778331E+01  0.37052067022E+02  0.10566000000E+00 0.  1.
         22    1    1    0    0    0  0.86691517582E+01  0.17775547036E+02 -0.23687843908E+02  0.30858357274E+02  0.00000000000E+00 0. -1.
</event>
<event>
 5    1  0.6924865E-004  0.9118800E+02  0.7818608E-02  0.1130116E+00
         25   -1    0    0    0    0  0.00000000000E+00  0.00000000000E+00  0.99999998245E-14  0.12500000000E+03  0.12500000000E+03 0.  0.
        -13    1    3    3    0    0 -0.14991129452E+01 -0.21443876776E+02 -0.49415000336E+02  0.53888223324E+02  0.10566000000E+00 0.  1.
         23    2    1    0    0    0 -0.22299951034E+02 -0.12011036563E+02 -0.13916208577E+02  0.96099936392E+02  0.91651427146E+02 0.  0.
         13    1    3    3    0    0 -0.20800838088E+02  0.94328402132E+01  0.35498791759E+02  0.42211713067E+02  0.10566000000E+00 0. -1.
         22    1    1    0    0    0  0.22299951034E+02  0.12011036563E+02  0.13916208577E+02  0.28900063608E+02  0.00000000000E+00 0.  1.
</event>
<event>
 5    1  0.6924865E-004  0.9118800E+02  0.7818608E-02  0.1130116E+00
         25   -1    0    0    0    0  0.00000000000E+00  0.00000000000E+00  0.99999998245E-14  0.12500000000E+03  0.12500000000E+03 0.  0.
        -13    1    3    3    0    0  0.13264980010E+02 -0.57687527225E+02  0.22952629308E+01  0.59237571591E+02  0.10566000000E+00 0.  1.
         23    2    1    0    0    0 -0.64738640737E+01 -0.27558268049E+02  0.77065423009E+01  0.95661290960E+02  0.91051209438E+02 0.  0.
         13    1    3    3    0    0 -0.19738844083E+02  0.30129259176E+02  0.54112793701E+01  0.36423719370E+02  0.10566000000E+00 0. -1.
         22    1    1    0    0    0  0.64738640737E+01  0.27558268049E+02 -0.77065423009E+01  0.29338709040E+02  0.00000000000E+00 0.  1.
</event>
<event>
 5    1  0.6924865E-004  0.9118800E+02  0.7818608E-02  0.1130116E+00
         25   -1    0    0    0    0  0.00000000000E+00  0.00000000000E+00  0.99999998245E-14  0.12500000000E+03  0.12500000000E+03 0.  0.
        -13    1    3    3    0    0  0.30421065134E+02 -0.14080043180E+02 -0.21329362499E+02  0.39732124138E+02  0.10566000000E+00 0.  1.
         23    2    1    0    0    0 -0.22642454077E+02 -0.12983778715E+02 -0.18736429529E+02  0.92870371495E+02  0.87135485733E+02 0.  0.
         13    1    3    3    0    0 -0.53063519211E+02  0.10962644652E+01  0.25929329695E+01  0.53138247358E+02  0.10566000000E+00 0. -1.
         22    1    1    0    0    0  0.22642454077E+02  0.12983778715E+02  0.18736429529E+02  0.32129628505E+02  0.00000000000E+00 0. -1.
</event>
<event>
 5    1  0.6924865E-004  0.9118800E+02  0.7818608E-02  0.1130116E+00
         25   -1    0    0    0    0  0.00000000000E+00  0.00000000000E+00  0.99999998245E-14  0.12500000000E+03  0.12500000000E+03 0.  0.
        -13    1    3    3    0    0  0.20903824768E+02  0.36444132237E+02  0.35001937410E+02  0.54683557409E+02  0.10566000000E+00 0. -1.
         23    2    1    0    0    0  0.27072191074E+02  0.52887908864E+01  0.82513990907E+01  0.96208327150E+02  0.91799138272E+02 0.  0.
         13    1    3    3    0    0  0.61683663059E+01 -0.31155341351E+02 -0.26750538320E+02  0.41524769740E+02  0.10566000000E+00 0.  1.
         22    1    1    0    0    0 -0.27072191074E+02 -0.52887908864E+01 -0.82513990907E+01  0.28791672850E+02  0.00000000000E+00 0.  1.
</event>
<event>
 5    1  0.6924865E-004  0.9118800E+02  0.7818608E-02  0.1130116E+00
         25   -1    0    0    0    0  0.00000000000E+00  0.00000000000E+00  0.99999998245E-14  0.12500000000E+03  0.12500000000E+03 0.  0.
        -13    1    3    3    0    0  0.22035513607E+02  0.30066715599E+02 -0.18581128356E+02  0.41651419446E+02  0.10566000000E+00 0.  1.
         23    2    1    0    0    0 -0.71073454176E+01  0.15778255889E+02  0.24136443501E+02  0.95300915458E+02  0.90555115065E+02 0.  0.
         13    1    3    3    0    0 -0.29142859024E+02 -0.14288459711E+02  0.42717571857E+02  0.53649496012E+02  0.10566000000E+00 0. -1.
         22    1    1    0    0    0  0.71073454176E+01 -0.15778255889E+02 -0.24136443501E+02  0.29699084542E+02  0.00000000000E+00 0. -1.
</event>
<event>
 5    1  0.6924865E-004  0.9118800E+02  0.7818608E-02  0.1130116E+00
         25   -1    0    0    0    0  0.00000000000E+00  0.00000000000E+00  0.99999998245E-14  0.12500000000E+03  0.12500000000E+03 0.  0.
        -13    1    3    3    0    0  0.45809900462E+02 -0.39683711252E+02 -0.13411487069E+01  0.60623046467E+02  0.10566000000E+00 0.  1.
         23    2    1    0    0    0  0.19975625349E+02 -0.13425342548E+02 -0.10747403987E+02  0.98641469633E+02  0.95054549646E+02 0.  0.
         13    1    3    3    0    0 -0.25834275113E+02  0.26258368704E+02 -0.94062552798E+01  0.38018423166E+02  0.10566000000E+00 0. -1.
         22    1    1    0    0    0 -0.19975625349E+02  0.13425342548E+02  0.10747403987E+02  0.26358530367E+02  0.00000000000E+00 0.  1.
</event>
<event>
 5    1  0.6924865E-004  0.9118800E+02  0.7818608E-02  0.1130116E+00
         25   -1    0    0    0    0  0.00000000000E+00  0.00000000000E+00  0.99999998245E-14  0.12500000000E+03  0.12500000000E+03 0.  0.
        -13    1    3    3    0    0  0.19088808117E+02  0.20445565766E+02 -0.55657855885E+02  0.62291346434E+02  0.10566000000E+00 0.  1.
         23    2    1    0    0    0  0.60624059709E+01  0.11750704436E+02 -0.24918756942E+02  0.96790493297E+02  0.92588462155E+02 0.  0.
         13    1    3    3    0    0 -0.13026402146E+02 -0.86948613300E+01  0.30739098943E+02  0.34499146863E+02  0.10566000000E+00 0. -1.
         22    1    1    0    0    0 -0.60624059709E+01 -0.11750704436E+02  0.24918756942E+02  0.28209506703E+02  0.00000000000E+00 0.  1.
</event>
<event>
 5    1  0.6924865E-004  0.9118800E+02  0.7818608E-02  0.1130116E+00
         25   -1    0    0    0    0  0.00000000000E+00  0.00000000000E+00  0.99999998245E-14  0.12500000000E+03  0.12500000000E+03 0.  0.
        -13    1    3    3    0    0 -0.46672352351E+02  0.10705722991E+02  0.26124051746E+02  0.54547210949E+02  0.10566000000E+00 0. -1.
         23    2    1    0    0    0 -0.24097417994E+02 -0.13616495879E+02 -0.84509466692E+00  0.97308689107E+02  0.93285434430E+02 0.  0.
         13    1    3    3    0    0  0.22574934357E+02 -0.24322218870E+02 -0.26969146413E+02  0.42761478158E+02  0.10566000000E+00 0.  1.
         22    1    1    0    0    0  0.24097417994E+02  0.13616495879E+02  0.84509466692E+00  0.27691310893E+02  0.00000000000E+00 0. -1.
</event>
<event>
 5    1  0.6924865E-004  0.9118800E+02  0.7818608E-02  0.1130116E+00
         25   -1    0    0    0    0  0.00000000000E+00  0.00000000000E+00  0.99999998245E-14  0.12500000000E+03  0.12500000000E+03 0.  0.
        -13    1    3    3    0    0  0.18164896389E+02 -0.87854416641E+01 -0.44199839774E+02  0.48587904319E+02  0.10566000000E+00 0.  1.
         23    2    1    0    0    0  0.15106714301E+02  0.23245170572E+02 -0.10041255563E+02  0.95514790399E+02  0.90849862960E+02 0.  0.
         13    1    3    3    0    0 -0.30581820871E+01  0.32030612236E+02  0.34158584210E+02  0.46926886080E+02  0.10566000000E+00 0. -1.
         22    1    1    0    0    0 -0.15106714301E+02 -0.23245170572E+02  0.10041255563E+02  0.29485209601E+02  0.00000000000E+00 0.  1.
</event>
<event>
 5    1  0.6924865E-004  0.9118800E+02  0.7818608E-02  0.1130116E+00
         25   -1    0    0    0    0  0.00000000000E+00  0.00000000000E+00  0.99999998245E-14  0.12500000000E+03  0.12500000000E+03 0.  0.
        -13    1    3    3    0    0 -0.29280947175E+02 -0.80038630684E+01 -0.36787569896E+02  0.47694571539E+02  0.10566000000E+00 0. -1.
         23    2    1    0    0    0  0.17652455559E+02 -0.12590249011E+01 -0.20702311036E+02  0.97764361340E+02  0.93894037803E+02 0.  0.
         13    1    3    3    0    0  0.46933402734E+02  0.67448381673E+01  0.16085258859E+02  0.50069789801E+02  0.10566000000E+00 0.  1.
         22    1    1    0    0    0 -0.17652455559E+02  0.12590249011E+01  0.20702311036E+02  0.27235638660E+02  0.00000000000E+00 0.  1.
</event>
<event>
 5    1  0.6924865E-004  0.9118800E+02  0.7818608E-02  0.1130116E+00
         25   -1    0    0    0    0  0.00000000000E+00  0.00000000000E+00  0.99999998245E-14  0.12500000000E+03  0.12500000000E+03 0.  0.
        -13    1    3    3    0    0  0.26561106327E+02  0.33429769751E+02  0.29184847440E+02  0.51718549468E+02  0.10566000000E+00 0.  1.
         23    2    1    0    0    0  0.90743506781E+01 -0.63133061739E+01  0.27712927307E+02  0.95163646084E+02  0.90365433220E+02 0.  0.
         13    1    3    3    0    0 -0.17486755649E+02 -0.39743075925E+02 -0.14719201336E+01  0.43445096616E+02  0.10566000000E+00 0. -1.
         22    1    1    0    0    0 -0.90743506781E+01  0.63133061739E+01 -0.27712927307E+02  0.29836353916E+02  0.00000000000E+00 0.  1.
</event>
<event>
 5    1  0.6924865E-004  0.9118800E+02  0.7818608E-02  0.1130116E+00
         25   -1    0    0    0    0  0.00000000000E+00  0.00000000000E+00  0.99999998245E-14  0.12500000000E+03  0.12500000000E+03 0.  0.
        -13    1    3    3    0    0  0.30723939279E+02  0.40541466628E+01 -0.18673521596E+02  0.36181599230E+02  0.10566000000E+00 0. -1.
         23    2    1    0    0    0 -0.41369227279E+01  0.77450537726E+01  0.28627081172E+02  0.95056557245E+02  0.90217178582E+02 0.  0.
         13    1    3    3    0    0 -0.34860862007E+02  0.36909071098E+01  0.47300602768E+02  0.58874958016E+02  0.10566000000E+00 0.  1.
         22    1    1    0    0    0  0.41369227279E+01 -0.77450537726E+01 -0.28627081172E+02  0.29943442755E+02  0.00000000000E+00 0.  1.
</event>
<event>
 5    1  0.6924865E-004  0.9118800E+02  0.7818608E-02  0.1130116E+00
         25   -1    0    0    0    0  0.00000000000E+00  0.00000000000E+00  0.99999998245E-14  0.12500000000E+03  0.12500000000E+03 0.  0.
        -13    1    3    3    0    0  0.44807593663E+02 -0.37240209558E+02 -0.11117713516E+02  0.59314149877E+02  0.10566000000E+00 0. -1.
         23    2    1    0    0    0  0.10931742022E+02 -0.23732607657E+02 -0.12965765673E+02  0.95830654287E+02  0.91283424408E+02 0.  0.
         13    1    3    3    0    0 -0.33875851641E+02  0.13507601901E+02 -0.18480521570E+01  0.36516504410E+02  0.10566000000E+00 0.  1.
         22    1    1    0    0    0 -0.10931742022E+02  0.23732607657E+02  0.12965765673E+02  0.29169345713E+02  0.00000000000E+00 0. -1.
</event>
<event>
 5    1  0.6924865E-004  0.9118800E+02  0.7818608E-02  0.1130116E+00
         25   -1    0    0    0    0  0.00000000000E+00  0.00000000000E+00  0.99999998245E-14  0.12500000000E+03  0.12500000000E+03 0.  0.
        -13    1    3    3    0    0 -0.16717735923E+02 -0.40517756613E+02  0.12364252485E+02  0.45541818133E+02  0.10566000000E+00 0.  1.
         23    2    1    0    0    0 -0.14997792831E+01  0.37786005181E+01  0.29354115066E+02  0.95365708527E+02  0.90644509661E+02 0.  0.
         13    1    3    3    0    0  0.15217956640E+02  0.44296357131E+02  0.16989862582E+02  0.49823890394E+02  0.10566000000E+00 0. -1.
         22    1    1    0    0    0  0.14997792831E+01 -0.37786005181E+01 -0.29354115066E+02  0.29634291473E+02  0.00000000000E+00 0.  1.
</event>
<event>
 5    1  0.6924865E-004  0.9118800E+02  0.7818608E-02  0.1130116E+00
         25   -1    0    0    0    0  0.00000000000E+00  0.00000000000E+00  0.99999998245E-14  0.12500000000E+03  0.12500000000E+03 0.  0.
        -13    1    3    3    0    0  0.48899523452E+01 -0.18713276402E+02 -0.55680348696E+02  0.58944132384E+02  0.10566000000E+00 0. -1.
         23    2    1    0    0    0 -0.25626703308E+01 -0.21576722951E+02 -0.20130021478E+02  0.95380073983E+02  0.90664317655E+02 0.  0.
         13    1    3    3    0    0 -0.74526226760E+01 -0.28634465491E+01  0.35550327218E+02  0.36435941599E+02  0.10566000000E+00 0.  1.
         22    1    1    0    0    0  0.25626703308E+01  0.21576722951E+02  0.20130021478E+02  0.29619926017E+02  0.00000000000E+00 0. -1.
</event>
<event>
 5    1  0.6924865E-004  0.9118800E+02  0.7818608E-02  0.1130116E+00
         25   -1    0    0    0    0  0.00000000000E+00  0.00000000000E+00  0.99999998245E-14  0.12500000000E+03  0.12500000000E+03 0.  0.
        -13    1    3    3    0    0  0.42465568941E+02  0.10085966974E+02  0.34343968333E+02  0.55538910686E+02  0.10566000000E+00 0. -1.
         23    2    1    0    0    0  0.23568140107E+02  0.15940584436E+02 -0.15296232595E+01  0.96506154918E+02  0.92203789127E+02 0.  0.
         13    1    3    3    0    0 -0.18897428834E+02  0.58546174625E+01 -0.35873591593E+02  0.40967244232E+02  0.10566000000E+00 0.  1.
         22    1    1    0    0    0 -0.23568140107E+02 -0.15940584436E+02  0.15296232595E+01  0.28493845082E+02  0.00000000000E+00 0. -1.
</event>
<event>
 5    1  0.6924865E-004  0.9118800E+02  0.7818608E-02  0.1130116E+00
         25   -1    0    0    0    0  0.00000000000E+00  0.00000000000E+00  0.99999998245E-14  0.12500000000E+03  0.12500000000E+03 0.  0.
        -13    1    3    3    0    0 -0.72294822734E+01 -0.10440177056E+02 -0.35090364900E+02  0.37317657801E+02  0.10566000000E+00 0.  1.
         23    2    1    0    0    0 -0.13787138028E+02 -0.17502875420E+02  0.21091097785E+02  0.94319872413E+02  0.89190627890E+02 0.  0.
         13    1    3    3    0    0 -0.65576557549E+01 -0.70626983640E+01  0.56181462685E+02  0.57002214612E+02  0.10566000000E+00 0. -1.
         22    1    1    0    0    0  0.13787138028E+02  0.17502875420E+02 -0.21091097785E+02  0.30680127587E+02  0.00000000000E+00 0. -1.
</event>
<event>
 5    1  0.6924865E-004  0.9118800E+02  0.7818608E-02  0.1130116E+00
         25   -1    0    0    0    0  0.00000000000E+00  0.00000000000E+00  0.99999998245E-14  0.12500000000E+03  0.12500000000E+03 0.  0.
        -13    1    3    3    0    0 -0.14945975601E+02  0.58781993126E+02  0.74027759694E+01  0.61102513521E+02  0.10566000000E+00 0.  1.
         23    2    1    0    0    0 -0.63428007284E+01  0.28037831409E+02 -0.58416359977E+01  0.95666131821E+02  0.91057854989E+02 0.  0.
         13    1    3    3    0    0  0.86031748722E+01 -0.30744161717E+02 -0.13244411967E+02  0.34563618299E+02  0.10566000000E+00 0. -1.
         22    1    1    0    0    0  0.63428007284E+01 -0.28037831409E+02  0.58416359977E+01  0.29333868179E+02  0.00000000000E+00 0.  1.
</event>
<event>
 5    1  0.6924865E-004  0.9118800E+02  0.7818608E-02  0.1130116E+00
         25   -1    0    0    0    0  0.00000000000E+00  0.00000000000E+00  0.99999998245E-14  0.12500000000E+03  0.12500000000E+03 0.  0.
        -13    1    3    3    0    0 -0.15657842986E+02  0.15858775346E+02  0.34545135639E+02  0.41110173470E+02  0.10566000000E+00 0.  1.
         23    2    1    0    0    0  0.12511807767E+01 -0.27638683877E+02  0.36152044004E+01  0.97097813659E+02  0.93002437681E+02 0.  0.
         13    1    3    3    0    0  0.16909023763E+02 -0.43497459222E+02 -0.30929931238E+02  0.55987640188E+02  0.10566000000E+00 0. -1.
         22    1    1    0    0    0 -0.12511807767E+01  0.27638683877E+02 -0.36152044004E+01  0.27902186341E+02  0.00000000000E+00 0. -1.
</event>
<event>
 5    1  0.6924865E-004  0.9118800E+02  0.7818608E-02  0.1130116E+00
         25   -1    0    0    0    0  0.00000000000E+00  0.00000000000E+00  0.99999998245E-14  0.12500000000E+03  0.12500000000E+03 0.  0.
        -13    1    3    3    0    0  0.12475732807E+02 -0.29528462001E+02  0.19381202652E+02  0.37459526925E+02  0.10566000000E+00 0. -1.
         23    2    1    0    0    0  0.13982274408E+02  0.21452912295E+01 -0.27510058533E+02  0.94066044667E+02  0.88834177920E+02 0.  0.
         13    1    3    3    0    0  0.15065416006E+01  0.31673753230E+02 -0.46891261185E+02  0.56606517741E+02  0.10566000000E+00 0.  1.
         22    1    1    0    0    0 -0.13982274408E+02 -0.21452912295E+01  0.27510058533E+02  0.30933955333E+02  0.00000000000E+00 0.  1.
</event>
<event>
 5    1  0.6924865E-004  0.9118800E+02  0.7818608E-02  0.1130116E+00
         25   -1    0    0    0    0  0.00000000000E+00  0.00000000000E+00  0.99999998245E-14  0.12500000000E+03  0.12500000000E+03 0.  0.
        -13    1    3    3    0    0  0.29745157140E+02 -0.35742988534E+02  0.24634329485E+02  0.52623159880E+02  0.10566000000E+00 0. -1.
         23    2    1    0    0    0  0.23007339308E+02 -0.13356993922E+02 -0.11787207720E+02  0.95902144160E+02  0.91381267446E+02 0.  0.
         13    1    3    3    0    0 -0.67378178317E+01  0.22385994612E+02 -0.36421537204E+02  0.43278984280E+02  0.10566000000E+00 0.  1.
         22    1    1    0    0    0 -0.23007339308E+02  0.13356993922E+02  0.11787207720E+02  0.29097855840E+02  0.00000000000E+00 0. -1.
</event>
<event>
 5    1  0.6924865E-004  0.9118800E+02  0.7818608E-02  0.1130116E+00
         25   -1    0    0    0    0  0.00000000000E+00  0.00000000000E+00  0.99999998245E-14  0.12500000000E+03  0.12500000000E+03 0.  0.
        -13    1    3    3    0    0 -0.60883421420E+02 -0.82042032491E+01  0.10960498720E+01  0.61443571219E+02  0.10566000000E+00 0. -1.
         23    2    1    0    0    0 -0.29736809812E+02 -0.70003688556E+01 -0.70225496622E+01  0.93653561196E+02  0.88251857199E+02 0.  0.
         13    1    3    3    0    0  0.31146611608E+02  0.12038343935E+01 -0.81185995342E+01  0.32209989977E+02  0.10566000000E+00 0.  1.
         22    1    1    0    0    0  0.29736809812E+02  0.70003688556E+01  0.70225496622E+01  0.31346438804E+02  0.00000000000E+00 0. -1.
</event>
<event>
 5    1  0.6924865E-004  0.9118800E+02  0.7818608E-02  0.1130116E+00
         25   -1    0    0    0    0  0.00000000000E+00  0.00000000000E+00  0.99999998245E-14  0.12500000000E+03  0.12500000000E+03 0.  0.
        -13    1    3    3    0    0  0.94155929968E+01 -0.32447172360E+02 -0.94661897831E+01  0.35086924896E+02  0.10566000000E+00 0.  1.
         23    2    1    0    0    0  0.13857581993E+02  0.94142424726E+01  0.28608090099E+02  0.91847573858E+02  0.85655668023E+02 0.  0.
         13    1    3    3    0    0  0.44419889966E+01  0.41861414832E+02  0.38074279882E+02  0.56760648962E+02  0.10566000000E+00 0. -1.
         22    1    1    0    0    0 -0.13857581993E+02 -0.94142424726E+01 -0.28608090099E+02  0.33152426142E+02  0.00000000000E+00 0. -1.
</event>
<event>
 5    1  0.6924865E-004  0.9118800E+02  0.7818608E-02  0.1130116E+00
         25   -1    0    0    0    0  0.00000000000E+00  0.00000000000E+00  0.99999998245E-14  0.12500000000E+03  0.12500000000E+03 0.  0.
        -13    1    3    3    0    0  0.49212274444E+02  0.14865692583E+02 -0.12288011332E+02  0.52856817521E+02  0.10566000000E+00 0. -1.
         23    2    1    0    0    0  0.15118345894E+02  0.93194031372E+01 -0.28816771994E+02  0.91150007303E+02  0.84631565186E+02 0.  0.
         13    1    3    3    0    0 -0.34093928550E+02 -0.55462894455E+01 -0.16528760662E+02  0.38293189782E+02  0.10566000000E+00 0.  1.
         22    1    1    0    0    0 -0.15118345894E+02 -0.93194031372E+01  0.28816771994E+02  0.33849992697E+02  0.00000000000E+00 0. -1.
</event>
<event>
 5    1  0.6924865E-004  0.9118800E+02  0.7818608E-02  0.1130116E+00
         25   -1    0    0    0    0  0.00000000000E+00  0.00000000000E+00  0.99999998245E-14  0.12500000000E+03  0.12500000000E+03 0.  0.
        -13    1    3    3    0    0  0.23819001842E+01 -0.10984800397E+02 -0.30853331388E+02  0.32837151369E+02  0.10566000000E+00 0. -1.
         23    2    1    0    0    0 -0.12248439725E+02  0.17292190760E+01  0.27779537965E+02  0.94590836844E+02  0.89569577485E+02 0.  0.
         13    1    3    3    0    0 -0.14630339910E+02  0.12714019473E+02  0.58632869353E+02  0.61753685474E+02  0.10566000000E+00 0.  1.
         22    1    1    0    0    0  0.12248439725E+02 -0.17292190760E+01 -0.27779537965E+02  0.30409163156E+02  0.00000000000E+00 0.  1.
</event>
<event>
 5    1  0.6924865E-004  0.9118800E+02  0.7818608E-02  0.1130116E+00
         25   -1    0    0    0    0  0.00000000000E+00  0.00000000000E+00  0.99999998245E-14  0.12500000000E+03  0.12500000000E+03 0.  0.
        -13    1    3    3    0    0 -0.24353281008E+02 -0.32327698392E+01  0.35958019717E+02  0.43549092329E+02  0.10566000000E+00 0.  1.
         23    2    1    0    0    0 -0.23067205534E+02  0.19201187209E+02 -0.88783453021E+01  0.93701332669E+02  0.88319494832E+02 0.  0.
         13    1    3    3    0    0  0.12860754744E+01  0.22433957048E+02 -0.44836365019E+02  0.50152240340E+02  0.10566000000E+00 0. -1.
         22    1    1    0    0    0  0.23067205534E+02 -0.19201187209E+02  0.88783453021E+01  0.31298667331E+02  0.00000000000E+00 0.  1.
</event>
<event>
 5    1  0.6924865E-004  0.9118800E+02  0.7818608E-02  0.1130116E+00
         25   -1    0    0    0    0  0.00000000000E+00  0.00000000000E+00  0.99999998245E-14  0.12500000000E+03  0.12500000000E+03 0.  0.
        -13    1    3    3    0    0 -0.51369809492E+02 -0.25962554212E+02 -0.19075691874E+02  0.60636661625E+02  0.10566000000E+00 0. -1.
         23    2    1    0    0    0 -0.18863148854E+02 -0.64935077974E+00  0.20378137203E+00  0.10612457767E+03  0.10443248737E+03 0.  0.
         13    1    3    3    0    0  0.32506660638E+02  0.25313203432E+02  0.19279473246E+02  0.45487916049E+02  0.10566000000E+00 0.  1.
         22    1    1    0    0    0  0.18863148854E+02  0.64935077974E+00 -0.20378137203E+00  0.18875422326E+02  0.00000000000E+00 0. -1.
</event>
<event>
 5    1  0.6924865E-004  0.9118800E+02  0.7818608E-02  0.1130116E+00
         25   -1    0    0    0    0  0.00000000000E+00  0.00000000000E+00  0.99999998245E-14  0.12500000000E+03  0.12500000000E+03 0.  0.
        -13    1    3    3    0    0 -0.90673789946E+01 -0.31976987338E+02  0.35501071676E+01  0.33426927858E+02  0.10566000000E+00 0. -1.
         23    2    1    0    0    0  0.29191358998E+02  0.12747811314E+02 -0.44970011039E+01  0.92830679952E+02  0.87078527709E+02 0.  0.
         13    1    3    3    0    0  0.38258737992E+02  0.44724798653E+02 -0.80471082715E+01  0.59403752094E+02  0.10566000000E+00 0.  1.
         22    1    1    0    0    0 -0.29191358998E+02 -0.12747811314E+02  0.44970011039E+01  0.32169320048E+02  0.00000000000E+00 0.  1.
</event>
<event>
 5    1  0.6924865E-004  0.9118800E+02  0.7818608E-02  0.1130116E+00
         25   -1    0    0    0    0  0.00000000000E+00  0.00000000000E+00  0.99999998245E-14  0.12500000000E+03  0.12500000000E+03 0.  0.
        -13    1    3    3    0    0  0.57580931287E+02 -0.10775152034E+02  0.45677855381E+01  0.58758347305E+02  0.10566000000E+00 0.  1.
         23    2    1    0    0    0  0.27103757909E+02 -0.95611128521E+01 -0.12441498833E+02  0.93681962626E+02  0.88292075842E+02 0.  0.
         13    1    3    3    0    0 -0.30477173378E+02  0.12140391817E+01 -0.17009284371E+02  0.34923615321E+02  0.10566000000E+00 0. -1.
         22    1    1    0    0    0 -0.27103757909E+02  0.95611128521E+01  0.12441498833E+02  0.31318037374E+02  0.00000000000E+00 0.  1.
</event>
<event>
 5    1  0.6924865E-004  0.9118800E+02  0.7818608E-02  0.1130116E+00
         25   -1    0    0    0    0  0.00000000000E+00  0.00000000000E+00  0.99999998245E-14  0.12500000000E+03  0.12500000000E+03 0.  0.
        -13    1    3    3    0    0 -0.32264527862E+02 -0.32252510379E+02  0.53426248945E+01  0.45932330538E+02  0.10566000000E+00 0.  1.
         23    2    1    0    0    0 -0.15256827378E+02  0.57384807497E+01 -0.23375569075E+02  0.96502312856E+02  0.92198580325E+02 0.  0.
         13    1    3    3    0    0  0.17007700484E+02  0.37990991129E+02 -0.28718193970E+02  0.50569982318E+02  0.10566000000E+00 0. -1.
         22    1    1    0    0    0  0.15256827378E+02 -0.57384807497E+01  0.23375569075E+02  0.28497687144E+02  0.00000000000E+00 0. -1.
</event>
<event>
 5    1  0.6924865E-004  0.9118800E+02  0.7818608E-02  0.1130116E+00
         25   -1    0    0    0    0  0.00000000000E+00  0.00000000000E+00  0.99999998245E-14  0.12500000000E+03  0.12500000000E+03 0.  0.
        -13    1    3    3    0    0  0.21510570722E+02 -0.14488982670E+02 -0.22473897949E+02  0.34317962128E+02  0.10566000000E+00 0. -1.
         23    2    1    0    0    0 -0.63786278091E+01  0.16709513735E+02  0.22834503780E+02  0.95994667648E+02  0.91507742361E+02 0.  0.
         13    1    3    3    0    0 -0.27889198531E+02  0.31198496404E+02  0.45308401729E+02  0.61676705520E+02  0.10566000000E+00 0.  1.
         22    1    1    0    0    0  0.63786278091E+01 -0.16709513735E+02 -0.22834503780E+02  0.29005332352E+02  0.00000000000E+00 0.  1.
</event>
<event>
 5    1  0.6924865E-004  0.9118800E+02  0.7818608E-02  0.1130116E+00
         25   -1    0    0    0    0  0.00000000000E+00  0.00000000000E+00  0.99999998245E-14  0.12500000000E+03  0.12500000000E+03 0.  0.
        -13    1    3    3    0    0 -0.17259381812E+02 -0.46014168253E+02  0.22304386112E+02  0.53969312988E+02  0.10566000000E+00 0.  1.
         23    2    1    0    0    0  0.67361492664E+01 -0.12058021597E+02  0.25841875882E+02  0.95698564184E+02  0.91102365754E+02 0.  0.
         13    1    3    3    0    0  0.23995531078E+02  0.33956146656E+02  0.35374897702E+01  0.41729251196E+02  0.10566000000E+00 0. -1.
         22    1    1    0    0    0 -0.67361492664E+01  0.12058021597E+02 -0.25841875882E+02  0.29301435816E+02  0.00000000000E+00 0.  1.
</event>
<event>
 5    1  0.6924865E-004  0.9118800E+02  0.7818608E-02  0.1130116E+00
         25   -1    0    0    0    0  0.00000000000E+00  0.00000000000E+00  0.99999998245E-14  0.12500000000E+03  0.12500000000E+03 0.  0.
        -13    1    3    3    0    0 -0.36905836940E+01  0.27504258090E+02  0.30257908901E+02  0.41056751407E+02  0.10566000000E+00 0.  1.
         23    2    1    0    0    0  0.82216372029E+01  0.23218809528E+02 -0.20241281533E+02  0.93118690236E+02  0.87490985587E+02 0.  0.
         13    1    3    3    0    0  0.11912220897E+02 -0.42854485620E+01 -0.50499190434E+02  0.52061938828E+02  0.10566000000E+00 0. -1.
         22    1    1    0    0    0 -0.82216372029E+01 -0.23218809528E+02  0.20241281533E+02  0.31881309764E+02  0.00000000000E+00 0. -1.
</event>
<event>
 5    1  0.6924865E-004  0.9118800E+02  0.7818608E-02  0.1130116E+00
         25   -1    0    0    0    0  0.00000000000E+00  0.00000000000E+00  0.99999998245E-14  0.12500000000E+03  0.12500000000E+03 0.  0.
        -13    1    3    3    0    0 -0.27414464045E+02  0.27536946087E+02 -0.83627454562E+01  0.39746483043E+02  0.10566000000E+00 0.  1.
         23    2    1    0    0    0  0.24789115736E+02  0.12315318886E+02  0.73730429328E+01  0.96355120871E+02  0.91998805524E+02 0.  0.
         13    1    3    3    0    0  0.52203579780E+02 -0.15221627201E+02  0.15735788389E+02  0.56608637828E+02  0.10566000000E+00 0. -1.
         22    1    1    0    0    0 -0.24789115736E+02 -0.12315318886E+02 -0.73730429328E+01  0.28644879129E+02  0.00000000000E+00 0.  1.
</event>
<event>
 5    1  0.6924865E-004  0.9118800E+02  0.7818608E-02  0.1130116E+00
         25   -1    0    0    0    0  0.00000000000E+00  0.00000000000E+00  0.99999998245E-14  0.12500000000E+03  0.12500000000E+03 0.  0.
        -13    1    3    3    0    0  0.31397685620E+02  0.16117930416E+02 -0.22813056570E+02  0.42024386460E+02  0.10566000000E+00 0. -1.
         23    2    1    0    0    0 -0.22098535461E+02  0.13935832237E+02 -0.95504998539E+01  0.97183373009E+02  0.93117362786E+02 0.  0.
         13    1    3    3    0    0 -0.53496221082E+02 -0.21820981790E+01  0.13262556717E+02  0.55158986549E+02  0.10566000000E+00 0.  1.
         22    1    1    0    0    0  0.22098535461E+02 -0.13935832237E+02  0.95504998539E+01  0.27816626991E+02  0.00000000000E+00 0.  1.
</event>
<event>
 5    1  0.6924865E-004  0.9118800E+02  0.7818608E-02  0.1130116E+00
         25   -1    0    0    0    0  0.00000000000E+00  0.00000000000E+00  0.99999998245E-14  0.12500000000E+03  0.12500000000E+03 0.  0.
        -13    1    3    3    0    0 -0.14900750323E+00  0.55356998054E+00  0.48173413397E+02  0.48176940182E+02  0.10566000000E+00 0.  1.
         23    2    1    0    0    0 -0.23051353792E+02 -0.14242628067E+02  0.79675628209E+01  0.96756426869E+02  0.92542458997E+02 0.  0.
         13    1    3    3    0    0 -0.22902346289E+02 -0.14796198047E+02 -0.40205850576E+02  0.48579486687E+02  0.10566000000E+00 0. -1.
         22    1    1    0    0    0  0.23051353792E+02  0.14242628067E+02 -0.79675628209E+01  0.28243573131E+02  0.00000000000E+00 0. -1.
</event>
<event>
 5    1  0.6924865E-004  0.9118800E+02  0.7818608E-02  0.1130116E+00
         25   -1    0    0    0    0  0.00000000000E+00  0.00000000000E+00  0.99999998245E-14  0.12500000000E+03  0.12500000000E+03 0.  0.
        -13    1    3    3    0    0  0.23008483424E+02 -0.56560781582E+01  0.41756607632E+02  0.48010488173E+02  0.10566000000E+00 0.  1.
         23    2    1    0    0    0  0.17262330894E+02  0.23634812258E+02  0.50861743142E+01  0.95293744977E+02  0.90545216572E+02 0.  0.
         13    1    3    3    0    0 -0.57461525296E+01  0.29290890416E+02 -0.36670433318E+02  0.47283256804E+02  0.10566000000E+00 0. -1.
         22    1    1    0    0    0 -0.17262330894E+02 -0.23634812258E+02 -0.50861743142E+01  0.29706255023E+02  0.00000000000E+00 0. -1.
</event>
<event>
 5    1  0.6924865E-004  0.9118800E+02  0.7818608E-02  0.1130116E+00
         25   -1    0    0    0    0  0.00000000000E+00  0.00000000000E+00  0.99999998245E-14  0.12500000000E+03  0.12500000000E+03 0.  0.
        -13    1    3    3    0    0 -0.61221006484E+02 -0.34738356005E+01 -0.60335209309E+01  0.61615693679E+02  0.10566000000E+00 0.  1.
         23    2    1    0    0    0 -0.25447558422E+02 -0.70373615754E+01 -0.73594858887E+01  0.97590791326E+02  0.93662681104E+02 0.  0.
         13    1    3    3    0    0  0.35773448062E+02 -0.35635259748E+01 -0.13259649578E+01  0.35975097647E+02  0.10566000000E+00 0. -1.
         22    1    1    0    0    0  0.25447558422E+02  0.70373615754E+01  0.73594858887E+01  0.27409208674E+02  0.00000000000E+00 0.  1.
</event>
<event>
 5    1  0.6924865E-004  0.9118800E+02  0.7818608E-02  0.1130116E+00
         25   -1    0    0    0    0  0.00000000000E+00  0.00000000000E+00  0.99999998245E-14  0.12500000000E+03  0.12500000000E+03 0.  0.
        -13    1    3    3    0    0 -0.40112604270E+02  0.33545387173E+02  0.29730092424E+02  0.60151505230E+02  0.10566000000E+00 0. -1.
         23    2    1    0    0    0 -0.20898773803E+02  0.53698187543E+01  0.19908714421E+02  0.95641004618E+02  0.91023354995E+02 0.  0.
         13    1    3    3    0    0  0.19213830467E+02 -0.28175568418E+02 -0.98213780029E+01  0.35489499388E+02  0.10566000000E+00 0.  1.
         22    1    1    0    0    0  0.20898773803E+02 -0.53698187543E+01 -0.19908714421E+02  0.29358995382E+02  0.00000000000E+00 0. -1.
</event>
<event>
 5    1  0.6924865E-004  0.9118800E+02  0.7818608E-02  0.1130116E+00
         25   -1    0    0    0    0  0.00000000000E+00  0.00000000000E+00  0.99999998245E-14  0.12500000000E+03  0.12500000000E+03 0.  0.
        -13    1    3    3    0    0  0.32850357791E+02 -0.21449933326E+02 -0.72517685182E+01  0.39897931743E+02  0.10566000000E+00 0. -1.
         23    2    1    0    0    0 -0.19810639400E+02 -0.12475362848E+02 -0.19298531024E+02  0.94659772392E+02  0.89665729786E+02 0.  0.
         13    1    3    3    0    0 -0.52660997191E+02  0.89745704778E+01 -0.12046762506E+02  0.54761840649E+02  0.10566000000E+00 0.  1.
         22    1    1    0    0    0  0.19810639400E+02  0.12475362848E+02  0.19298531024E+02  0.30340227608E+02  0.00000000000E+00 0.  1.
</event>
<event>
 5    1  0.6924865E-004  0.9118800E+02  0.7818608E-02  0.1130116E+00
         25   -1    0    0    0    0  0.00000000000E+00  0.00000000000E+00  0.99999998245E-14  0.12500000000E+03  0.12500000000E+03 0.  0.
        -13    1    3    3    0    0 -0.23039230323E+02 -0.53768497233E+02  0.15789314289E+02  0.60590189291E+02  0.10566000000E+00 0. -1.
         23    2    1    0    0    0 -0.10134676690E+02 -0.23089927200E+02  0.18111663428E+02  0.93953442029E+02  0.88675591384E+02 0.  0.
         13    1    3    3    0    0  0.12904553633E+02  0.30678570033E+02  0.23223491390E+01  0.33363252738E+02  0.10566000000E+00 0.  1.
         22    1    1    0    0    0  0.10134676690E+02  0.23089927200E+02 -0.18111663428E+02  0.31046557971E+02  0.00000000000E+00 0. -1.
</event>
<event>
 5    1  0.6924865E-004  0.9118800E+02  0.7818608E-02  0.1130116E+00
         25   -1    0    0    0    0  0.00000000000E+00  0.00000000000E+00  0.99999998245E-14  0.12500000000E+03  0.12500000000E+03 0.  0.
        -13    1    3    3    0    0  0.28723038186E+02  0.15946571310E+02  0.47448753580E+01  0.33193840775E+02  0.10566000000E+00 0.  1.
         23    2    1    0    0    0 -0.22629194823E+02 -0.17418834976E+02 -0.71117833240E+01  0.95570869325E+02  0.90926989014E+02 0.  0.
         13    1    3    3    0    0 -0.51352233009E+02 -0.33365406286E+02 -0.11856658682E+02  0.62377028550E+02  0.10566000000E+00 0. -1.
         22    1    1    0    0    0  0.22629194823E+02  0.17418834976E+02  0.71117833240E+01  0.29429130675E+02  0.00000000000E+00 0. -1.
</event>
<event>
 5    1  0.6924865E-004  0.9118800E+02  0.7818608E-02  0.1130116E+00
         25   -1    0    0    0    0  0.00000000000E+00  0.00000000000E+00  0.99999998245E-14  0.12500000000E+03  0.12500000000E+03 0.  0.
        -13    1    3    3    0    0 -0.13075178931E+02  0.29751262852E+02  0.19944981520E+02  0.38130190102E+02  0.10566000000E+00 0. -1.
         23    2    1    0    0    0  0.51162569922E+01  0.58569308681E+01 -0.28681571455E+02  0.95282795119E+02  0.90530098750E+02 0.  0.
         13    1    3    3    0    0  0.18191435924E+02 -0.23894331984E+02 -0.48626552975E+02  0.57152605017E+02  0.10566000000E+00 0.  1.
         22    1    1    0    0    0 -0.51162569922E+01 -0.58569308681E+01  0.28681571455E+02  0.29717204881E+02  0.00000000000E+00 0.  1.
</event>
<event>
 5    1  0.6924865E-004  0.9118800E+02  0.7818608E-02  0.1130116E+00
         25   -1    0    0    0    0  0.00000000000E+00  0.00000000000E+00  0.99999998245E-14  0.12500000000E+03  0.12500000000E+03 0.  0.
        -13    1    3    3    0    0  0.48410814250E+00  0.35215579277E+02 -0.93329939913E+01  0.36434699469E+02  0.10566000000E+00 0.  1.
         23    2    1    0    0    0 -0.30831930988E+01 -0.11545084465E+02  0.26812989256E+02  0.95644737306E+02  0.91028480853E+02 0.  0.
         13    1    3    3    0    0 -0.35673012413E+01 -0.46760663742E+02  0.36145983248E+02  0.59210037837E+02  0.10566000000E+00 0. -1.
         22    1    1    0    0    0  0.30831930988E+01  0.11545084465E+02 -0.26812989256E+02  0.29355262694E+02  0.00000000000E+00 0. -1.
</event>
<event>
 5    1  0.6924865E-004  0.9118800E+02  0.7818608E-02  0.1130116E+00
         25   -1    0    0    0    0  0.00000000000E+00  0.00000000000E+00  0.99999998245E-14  0.12500000000E+03  0.12500000000E+03 0.  0.
        -13    1    3    3    0    0  0.41619332260E+02  0.82622644435E-01  0.95651816698E+01  0.42704560748E+02  0.10566000000E+00 0.  1.
         23    2    1    0    0    0  0.74833077722E+01 -0.94530458248E+01 -0.28099377410E+02  0.94423293483E+02  0.89335454165E+02 0.  0.
         13    1    3    3    0    0 -0.34136024488E+02 -0.95356684692E+01 -0.37664559080E+02  0.51718732735E+02  0.10566000000E+00 0. -1.
         22    1    1    0    0    0 -0.74833077722E+01  0.94530458248E+01  0.28099377410E+02  0.30576706517E+02  0.00000000000E+00 0. -1.
</event>
<event>
 5    1  0.6924865E-004  0.9118800E+02  0.7818608E-02  0.1130116E+00
         25   -1    0    0    0    0  0.00000000000E+00  0.00000000000E+00  0.99999998245E-14  0.12500000000E+03  0.12500000000E+03 0.  0.
        -13    1    3    3    0    0  0.38833404389E+02  0.17203573707E+02  0.29660071877E+02  0.51804703189E+02  0.10566000000E+00 0. -1.
         23    2    1    0    0    0  0.92443729094E+00 -0.89356777903E+01  0.25411128366E+02  0.98047702014E+02  0.94270491160E+02 0.  0.
         13    1    3    3    0    0 -0.37908967098E+02 -0.26139251497E+02 -0.42489435107E+01  0.46242998825E+02  0.10566000000E+00 0.  1.
         22    1    1    0    0    0 -0.92443729094E+00  0.89356777903E+01 -0.25411128366E+02  0.26952297986E+02  0.00000000000E+00 0.  1.
</event>
<event>
 5    1  0.6924865E-004  0.9118800E+02  0.7818608E-02  0.1130116E+00
         25   -1    0    0    0    0  0.00000000000E+00  0.00000000000E+00  0.99999998245E-14  0.12500000000E+03  0.12500000000E+03 0.  0.
        -13    1    3    3    0    0  0.13694332069E+02 -0.20413799292E+02 -0.28744028392E+02  0.37821796158E+02  0.10566000000E+00 0.  1.
         23    2    1    0    0    0  0.23788455369E+02 -0.23950268615E+02  0.18668001539E+02  0.86425393624E+02  0.77339177692E+02 0.  0.
         13    1    3    3    0    0  0.10094123300E+02 -0.35364693236E+01  0.47412029931E+02  0.48603597467E+02  0.10566000000E+00 0. -1.
         22    1    1    0    0    0 -0.23788455369E+02  0.23950268615E+02 -0.18668001539E+02  0.38574606376E+02  0.00000000000E+00 0. -1.
</event>
<event>
 5    1  0.6924865E-004  0.9118800E+02  0.7818608E-02  0.1130116E+00
         25   -1    0    0    0    0  0.00000000000E+00  0.00000000000E+00  0.99999998245E-14  0.12500000000E+03  0.12500000000E+03 0.  0.
        -13    1    3    3    0    0  0.23718824896E+02  0.40196756816E+01 -0.33666856995E+02  0.41378845694E+02  0.10566000000E+00 0.  1.
         23    2    1    0    0    0  0.90438690286E+01 -0.31544571307E+02 -0.49051942791E+00  0.92180917818E+02  0.86140753737E+02 0.  0.
         13    1    3    3    0    0 -0.14674955867E+02 -0.35564246989E+02  0.33176337567E+02  0.50802072123E+02  0.10566000000E+00 0. -1.
         22    1    1    0    0    0 -0.90438690286E+01  0.31544571307E+02  0.49051942791E+00  0.32819082182E+02  0.00000000000E+00 0. -1.
</event>
<event>
 5    1  0.6924865E-004  0.9118800E+02  0.7818608E-02  0.1130116E+00
         25   -1    0    0    0    0  0.00000000000E+00  0.00000000000E+00  0.99999998245E-14  0.12500000000E+03  0.12500000000E+03 0.  0.
        -13    1    3    3    0    0 -0.24969019447E+02 -0.55624917444E+02 -0.68815846349E+01  0.61359194453E+02  0.10566000000E+00 0.  1.
         23    2    1    0    0    0 -0.18955982853E+02 -0.22082189897E+02 -0.15017426755E+01  0.95858832768E+02  0.91322002782E+02 0.  0.
         13    1    3    3    0    0  0.60130365940E+01  0.33542727547E+02  0.53798419593E+01  0.34499638316E+02  0.10566000000E+00 0. -1.
         22    1    1    0    0    0  0.18955982853E+02  0.22082189897E+02  0.15017426755E+01  0.29141167232E+02  0.00000000000E+00 0.  1.
</event>
<event>
 5    1  0.6924865E-004  0.9118800E+02  0.7818608E-02  0.1130116E+00
         25   -1    0    0    0    0  0.00000000000E+00  0.00000000000E+00  0.99999998245E-14  0.12500000000E+03  0.12500000000E+03 0.  0.
        -13    1    3    3    0    0 -0.41632915762E+01  0.62175457188E+02 -0.14573522508E+01  0.62331817821E+02  0.10566000000E+00 0.  1.
         23    2    1    0    0    0 -0.39496995632E+01  0.28784982824E+02  0.18495652530E+01  0.95886493607E+02  0.91359856621E+02 0.  0.
         13    1    3    3    0    0  0.21359201305E+00 -0.33390474363E+02  0.33069175037E+01  0.33554675787E+02  0.10566000000E+00 0. -1.
         22    1    1    0    0    0  0.39496995632E+01 -0.28784982824E+02 -0.18495652530E+01  0.29113506393E+02  0.00000000000E+00 0.  1.
</event>
<event>
 5    1  0.6924865E-004  0.9118800E+02  0.7818608E-02  0.1130116E+00
         25   -1    0    0    0    0  0.00000000000E+00  0.00000000000E+00  0.99999998245E-14  0.12500000000E+03  0.12500000000E+03 0.  0.
        -13    1    3    3    0    0 -0.43751123195E+02 -0.34214539829E+02 -0.24933689797E+02  0.60880995126E+02  0.10566000000E+00 0.  1.
         23    2    1    0    0    0 -0.13815873641E+02 -0.14752288723E+02 -0.19346787662E+02  0.97021319191E+02  0.92899568339E+02 0.  0.
         13    1    3    3    0    0  0.29935249554E+02  0.19462251107E+02  0.55869021355E+01  0.36140324065E+02  0.10566000000E+00 0. -1.
         22    1    1    0    0    0  0.13815873641E+02  0.14752288723E+02  0.19346787662E+02  0.27978680809E+02  0.00000000000E+00 0.  1.
</event>
<event>
 5    1  0.6924865E-004  0.9118800E+02  0.7818608E-02  0.1130116E+00
         25   -1    0    0    0    0  0.00000000000E+00  0.00000000000E+00  0.99999998245E-14  0.12500000000E+03  0.12500000000E+03 0.  0.
        -13    1    3    3    0    0 -0.49221394996E+02 -0.23539753876E+02  0.22176856923E+02  0.58895584597E+02  0.10566000000E+00 0.  1.
         23    2    1    0    0    0 -0.13840339413E+02 -0.22992157084E+02  0.10899289855E+02  0.96034696587E+02  0.91562405750E+02 0.  0.
         13    1    3    3    0    0  0.35381055583E+02  0.54759679208E+00 -0.11277567068E+02  0.37139111991E+02  0.10566000000E+00 0. -1.
         22    1    1    0    0    0  0.13840339413E+02  0.22992157084E+02 -0.10899289855E+02  0.28965303413E+02  0.00000000000E+00 0.  1.
</event>
<event>
 5    1  0.6924865E-004  0.9118800E+02  0.7818608E-02  0.1130116E+00
         25   -1    0    0    0    0  0.00000000000E+00  0.00000000000E+00  0.99999998245E-14  0.12500000000E+03  0.12500000000E+03 0.  0.
        -13    1    3    3    0    0 -0.15206485219E+01  0.37780695413E+01 -0.35979019250E+02  0.36208937731E+02  0.10566000000E+00 0.  1.
         23    2    1    0    0    0  0.11011285000E+02 -0.37587949879E+01  0.24204733237E+02  0.98143975570E+02  0.94398060851E+02 0.  0.
         13    1    3    3    0    0  0.12531933522E+02 -0.75368645292E+01  0.60183752487E+02  0.61935037839E+02  0.10566000000E+00 0. -1.
         22    1    1    0    0    0 -0.11011285000E+02  0.37587949879E+01 -0.24204733237E+02  0.26856024430E+02  0.00000000000E+00 0. -1.
</event>
<event>
 5    1  0.6924865E-004  0.9118800E+02  0.7818608E-02  0.1130116E+00
         25   -1    0    0    0    0  0.00000000000E+00  0.00000000000E+00  0.99999998245E-14  0.12500000000E+03  0.12500000000E+03 0.  0.
        -13    1    3    3    0    0  0.17044497779E+02  0.21018997356E+01 -0.29981543007E+02  0.34551945997E+02  0.10566000000E+00 0.  1.
         23    2    1    0    0    0 -0.50496995547E+01  0.62918355673E+01  0.27534436050E+02  0.96307983184E+02  0.91934736612E+02 0.  0.
         13    1    3    3    0    0 -0.22094197334E+02  0.41899358317E+01  0.57515979057E+02  0.61756037187E+02  0.10566000000E+00 0. -1.
         22    1    1    0    0    0  0.50496995547E+01 -0.62918355673E+01 -0.27534436050E+02  0.28692016816E+02  0.00000000000E+00 0. -1.
</event>
<event>
 4    1  0.6924865E-004  0.9118800E+02  0.7818608E-02  0.1130116E+00
         25   -1    0    0    0    0  0.00000000000E+00  0.00000000000E+00  0.99999998245E-14  0.12500000000E+03  0.12500000000E+03 0.  0.
        -13    1    1    0    0    0 -0.48729207379E+02  0.12113467712E+02  0.18440287500E+02  0.53491374247E+02  0.10566000000E+00 0.  1.
         13    1    1    0    0    0 -0.24402644057E+00 -0.15603986325E+02  0.59308123477E+01  0.16695198030E+02  0.10566000000E+00 0. -1.
         22    1    1    0    0    0  0.48973233819E+02  0.34905186126E+01 -0.24371099848E+02  0.54813427722E+02  0.00000000000E+00 0.  1.
</event>
<event>
 5    1  0.6924865E-004  0.9118800E+02  0.7818608E-02  0.1130116E+00
         25   -1    0    0    0    0  0.00000000000E+00  0.00000000000E+00  0.99999998245E-14  0.12500000000E+03  0.12500000000E+03 0.  0.
        -13    1    3    3    0    0  0.27882027053E+02  0.46999701919E+02  0.18720160958E+01  0.54679932529E+02  0.10566000000E+00 0.  1.
         23    2    1    0    0    0  0.19955314697E+02  0.10494470826E+02  0.18753663759E+02  0.95673418082E+02  0.91067856681E+02 0.  0.
         13    1    3    3    0    0 -0.79267123558E+01 -0.36505231093E+02  0.16881647663E+02  0.40993485553E+02  0.10566000000E+00 0. -1.
         22    1    1    0    0    0 -0.19955314697E+02 -0.10494470826E+02 -0.18753663759E+02  0.29326581918E+02  0.00000000000E+00 0.  1.
</event>
<event>
 5    1  0.6924865E-004  0.9118800E+02  0.7818608E-02  0.1130116E+00
         25   -1    0    0    0    0  0.00000000000E+00  0.00000000000E+00  0.99999998245E-14  0.12500000000E+03  0.12500000000E+03 0.  0.
        -13    1    3    3    0    0  0.15957563414E+02  0.68575052243E+01  0.49442587130E+02  0.52404673400E+02  0.10566000000E+00 0.  1.
         23    2    1    0    0    0  0.42636551767E+01  0.26176776887E+02  0.12553665084E+02  0.95657251139E+02  0.91045663185E+02 0.  0.
         13    1    3    3    0    0 -0.11693908237E+02  0.19319271663E+02 -0.36888922045E+02  0.43252577740E+02  0.10566000000E+00 0. -1.
         22    1    1    0    0    0 -0.42636551767E+01 -0.26176776887E+02 -0.12553665084E+02  0.29342748861E+02  0.00000000000E+00 0.  1.
</event>
<event>
 5    1  0.6924865E-004  0.9118800E+02  0.7818608E-02  0.1130116E+00
         25   -1    0    0    0    0  0.00000000000E+00  0.00000000000E+00  0.99999998245E-14  0.12500000000E+03  0.12500000000E+03 0.  0.
        -13    1    3    3    0    0  0.40009811878E+02  0.11421677251E+02  0.25782362751E+02  0.48948760463E+02  0.10566000000E+00 0.  1.
         23    2    1    0    0    0  0.27356443638E+02 -0.14248231819E+01 -0.15163769155E+02  0.93689538097E+02  0.88302800206E+02 0.  0.
         13    1    3    3    0    0 -0.12653368241E+02 -0.12846500433E+02 -0.40946131906E+02  0.44740777634E+02  0.10566000000E+00 0. -1.
         22    1    1    0    0    0 -0.27356443638E+02  0.14248231819E+01  0.15163769155E+02  0.31310461903E+02  0.00000000000E+00 0.  1.
</event>
<event>
 5    1  0.6924865E-004  0.9118800E+02  0.7818608E-02  0.1130116E+00
         25   -1    0    0    0    0  0.00000000000E+00  0.00000000000E+00  0.99999998245E-14  0.12500000000E+03  0.12500000000E+03 0.  0.
        -13    1    3    3    0    0 -0.32889102047E+02 -0.95485619520E+01 -0.13760397668E+02  0.36908370011E+02  0.10566000000E+00 0.  1.
         23    2    1    0    0    0  0.21599588302E+02 -0.22215556699E+02 -0.30610701179E+01  0.93864115164E+02  0.88549583799E+02 0.  0.
         13    1    3    3    0    0  0.54488690349E+02 -0.12666994747E+02  0.10699327550E+02  0.56955745153E+02  0.10566000000E+00 0. -1.
         22    1    1    0    0    0 -0.21599588302E+02  0.22215556699E+02  0.30610701179E+01  0.31135884836E+02  0.00000000000E+00 0. -1.
</event>
<event>
 5    1  0.6924865E-004  0.9118800E+02  0.7818608E-02  0.1130116E+00
         25   -1    0    0    0    0  0.00000000000E+00  0.00000000000E+00  0.99999998245E-14  0.12500000000E+03  0.12500000000E+03 0.  0.
        -13    1    3    3    0    0  0.36379966638E+02 -0.15805481206E+02 -0.36302510553E+02  0.53769867447E+02  0.10566000000E+00 0.  1.
         23    2    1    0    0    0  0.48015292399E+01 -0.12168087991E+02  0.90070423716E+01  0.10911781310E+03  0.10795579315E+03 0.  0.
         13    1    3    3    0    0 -0.31578437398E+02  0.36373932151E+01  0.45309552925E+02  0.55347945655E+02  0.10566000000E+00 0. -1.
         22    1    1    0    0    0 -0.48015292399E+01  0.12168087991E+02 -0.90070423716E+01  0.15882186899E+02  0.00000000000E+00 0. -1.
</event>
<event>
 5    1  0.6924865E-004  0.9118800E+02  0.7818608E-02  0.1130116E+00
         25   -1    0    0    0    0  0.00000000000E+00  0.00000000000E+00  0.99999998245E-14  0.12500000000E+03  0.12500000000E+03 0.  0.
        -13    1    3    3    0    0  0.39405574674E+02  0.20954790249E+02  0.64100026812E+01  0.45088821766E+02  0.10566000000E+00 0. -1.
         23    2    1    0    0    0  0.16797588259E+02 -0.19771349957E+02 -0.13509517373E+02  0.95749832307E+02  0.91172682733E+02 0.  0.
         13    1    3    3    0    0 -0.22607986415E+02 -0.40726140206E+02 -0.19919520054E+02  0.50661010541E+02  0.10566000000E+00 0.  1.
         22    1    1    0    0    0 -0.16797588259E+02  0.19771349957E+02  0.13509517373E+02  0.29250167693E+02  0.00000000000E+00 0. -1.
</event>
<event>
 5    1  0.6924865E-004  0.9118800E+02  0.7818608E-02  0.1130116E+00
         25   -1    0    0    0    0  0.00000000000E+00  0.00000000000E+00  0.99999998245E-14  0.12500000000E+03  0.12500000000E+03 0.  0.
        -13    1    3    3    0    0 -0.16867027935E+02  0.17968448972E+02 -0.31456039629E+02  0.39960672954E+02  0.10566000000E+00 0.  1.
         23    2    1    0    0    0  0.60907241467E+01 -0.26819955586E+01  0.22176008000E+02  0.10184691486E+03  0.99180283899E+02 0.  0.
         13    1    3    3    0    0  0.22957752082E+02 -0.20650444531E+02  0.53632047629E+02  0.61886241903E+02  0.10566000000E+00 0. -1.
         22    1    1    0    0    0 -0.60907241467E+01  0.26819955586E+01 -0.22176008000E+02  0.23153085143E+02  0.00000000000E+00 0. -1.
</event>
<event>
 5    1  0.6924865E-004  0.9118800E+02  0.7818608E-02  0.1130116E+00
         25   -1    0    0    0    0  0.00000000000E+00  0.00000000000E+00  0.99999998245E-14  0.12500000000E+03  0.12500000000E+03 0.  0.
        -13    1    3    3    0    0  0.26004995734E+02  0.14248710908E+02 -0.21404475667E+02  0.36571140374E+02  0.10566000000E+00 0.  1.
         23    2    1    0    0    0 -0.51594488923E+01  0.61632430074E+00  0.27982559445E+02  0.96539089937E+02  0.92248428085E+02 0.  0.
         13    1    3    3    0    0 -0.31164444626E+02 -0.13632386608E+02  0.49387035112E+02  0.59967949562E+02  0.10566000000E+00 0. -1.
         22    1    1    0    0    0  0.51594488923E+01 -0.61632430074E+00 -0.27982559445E+02  0.28460910063E+02  0.00000000000E+00 0. -1.
</event>
<event>
 5    1  0.6924865E-004  0.9118800E+02  0.7818608E-02  0.1130116E+00
         25   -1    0    0    0    0  0.00000000000E+00  0.00000000000E+00  0.99999998245E-14  0.12500000000E+03  0.12500000000E+03 0.  0.
        -13    1    3    3    0    0 -0.22709114734E+02 -0.41987736661E+02  0.40218328534E+02  0.62419540499E+02  0.10566000000E+00 0.  1.
         23    2    1    0    0    0 -0.95764010563E+01 -0.18109299776E+02  0.20169847163E+02  0.96251488210E+02  0.91857890530E+02 0.  0.
         13    1    3    3    0    0  0.13132713677E+02  0.23878436885E+02 -0.20048481372E+02  0.33831947712E+02  0.10566000000E+00 0. -1.
         22    1    1    0    0    0  0.95764010563E+01  0.18109299776E+02 -0.20169847163E+02  0.28748511790E+02  0.00000000000E+00 0.  1.
</event>
<event>
 5    1  0.6924865E-004  0.9118800E+02  0.7818608E-02  0.1130116E+00
         25   -1    0    0    0    0  0.00000000000E+00  0.00000000000E+00  0.99999998245E-14  0.12500000000E+03  0.12500000000E+03 0.  0.
        -13    1    3    3    0    0 -0.15046415167E+02 -0.16583023516E+02 -0.36891651819E+02  0.43155491149E+02  0.10566000000E+00 0. -1.
         23    2    1    0    0    0 -0.14894838455E+02 -0.20032368165E+02  0.15470755967E+02  0.95631713072E+02  0.91010594262E+02 0.  0.
         13    1    3    3    0    0  0.15157671164E+00 -0.34493446490E+01  0.52362407787E+02  0.52476221922E+02  0.10566000000E+00 0.  1.
         22    1    1    0    0    0  0.14894838455E+02  0.20032368165E+02 -0.15470755967E+02  0.29368286928E+02  0.00000000000E+00 0.  1.
</event>
<event>
 5    1  0.6924865E-004  0.9118800E+02  0.7818608E-02  0.1130116E+00
         25   -1    0    0    0    0  0.00000000000E+00  0.00000000000E+00  0.99999998245E-14  0.12500000000E+03  0.12500000000E+03 0.  0.
        -13    1    3    3    0    0 -0.11988208981E+02  0.37677112449E+02  0.46018656444E+02  0.60671326523E+02  0.10566000000E+00 0.  1.
         23    2    1    0    0    0 -0.15069114203E+02  0.16308114639E+02  0.16071797292E+02  0.97589500659E+02  0.93660958594E+02 0.  0.
         13    1    3    3    0    0 -0.30809052221E+01 -0.21368997810E+02 -0.29946859152E+02  0.36918174136E+02  0.10566000000E+00 0. -1.
         22    1    1    0    0    0  0.15069114203E+02 -0.16308114639E+02 -0.16071797292E+02  0.27410499341E+02  0.00000000000E+00 0.  1.
</event>
<event>
 5    1  0.6924865E-004  0.9118800E+02  0.7818608E-02  0.1130116E+00
         25   -1    0    0    0    0  0.00000000000E+00  0.00000000000E+00  0.99999998245E-14  0.12500000000E+03  0.12500000000E+03 0.  0.
        -13    1    3    3    0    0  0.75463623131E+01 -0.40559621210E+02 -0.16817212960E+02  0.44551770701E+02  0.10566000000E+00 0. -1.
         23    2    1    0    0    0  0.27248945445E+02  0.54057364837E+01 -0.30191268759E+00  0.97218384387E+02  0.93164349924E+02 0.  0.
         13    1    3    3    0    0  0.19702583132E+02  0.45965357694E+02  0.16515300272E+02  0.52666613685E+02  0.10566000000E+00 0.  1.
         22    1    1    0    0    0 -0.27248945445E+02 -0.54057364837E+01  0.30191268759E+00  0.27781615613E+02  0.00000000000E+00 0.  1.
</event>
<event>
 5    1  0.6924865E-004  0.9118800E+02  0.7818608E-02  0.1130116E+00
         25   -1    0    0    0    0  0.00000000000E+00  0.00000000000E+00  0.99999998245E-14  0.12500000000E+03  0.12500000000E+03 0.  0.
        -13    1    3    3    0    0  0.37650108861E+02  0.20078409272E+02 -0.58000164855E+01  0.43061869112E+02  0.10566000000E+00 0. -1.
         23    2    1    0    0    0 -0.11781585069E+02  0.14349140398E+02 -0.22753212443E+02  0.95633143625E+02  0.91012559057E+02 0.  0.
         13    1    3    3    0    0 -0.49431693930E+02 -0.57292688738E+01 -0.16953195957E+02  0.52571274512E+02  0.10566000000E+00 0.  1.
         22    1    1    0    0    0  0.11781585069E+02 -0.14349140398E+02  0.22753212443E+02  0.29366856375E+02  0.00000000000E+00 0.  1.
</event>
<event>
 5    1  0.6924865E-004  0.9118800E+02  0.7818608E-02  0.1130116E+00
         25   -1    0    0    0    0  0.00000000000E+00  0.00000000000E+00  0.99999998245E-14  0.12500000000E+03  0.12500000000E+03 0.  0.
        -13    1    3    3    0    0 -0.18506133234E+02  0.28734030971E+02  0.45493207363E+02  0.56901358361E+02  0.10566000000E+00 0. -1.
         23    2    1    0    0    0  0.68527512286E+01  0.73305670506E+01  0.29697001929E+02  0.93653399925E+02  0.88251628774E+02 0.  0.
         13    1    3    3    0    0  0.25358884463E+02 -0.21403463920E+02 -0.15796205434E+02  0.36752041564E+02  0.10566000000E+00 0.  1.
         22    1    1    0    0    0 -0.68527512286E+01 -0.73305670506E+01 -0.29697001929E+02  0.31346600075E+02  0.00000000000E+00 0. -1.
</event>
<event>
 5    1  0.6924865E-004  0.9118800E+02  0.7818608E-02  0.1130116E+00
         25   -1    0    0    0    0  0.00000000000E+00  0.00000000000E+00  0.99999998245E-14  0.12500000000E+03  0.12500000000E+03 0.  0.
        -13    1    3    3    0    0 -0.31331798785E+02 -0.38869288193E+02 -0.35297786108E+02  0.61142849524E+02  0.10566000000E+00 0.  1.
         23    2    1    0    0    0 -0.71073691491E+01 -0.23380573904E+02 -0.15248456745E+02  0.96195809934E+02  0.91782092389E+02 0.  0.
         13    1    3    3    0    0  0.24224429636E+02  0.15488714289E+02  0.20049329363E+02  0.35052960410E+02  0.10566000000E+00 0. -1.
         22    1    1    0    0    0  0.71073691491E+01  0.23380573904E+02  0.15248456745E+02  0.28804190066E+02  0.00000000000E+00 0.  1.
</event>
<event>
 5    1  0.6924865E-004  0.9118800E+02  0.7818608E-02  0.1130116E+00
         25   -1    0    0    0    0  0.00000000000E+00  0.00000000000E+00  0.99999998245E-14  0.12500000000E+03  0.12500000000E+03 0.  0.
        -13    1    3    3    0    0 -0.12733785787E+02 -0.31595114693E+02  0.42405240292E+02  0.54393162633E+02  0.10566000000E+00 0.  1.
         23    2    1    0    0    0 -0.20451292705E+02 -0.20235962485E+02  0.30590403254E+01  0.96067193729E+02  0.91606759752E+02 0.  0.
         13    1    3    3    0    0 -0.77175069176E+01  0.11359152208E+02 -0.39346199967E+02  0.41674031096E+02  0.10566000000E+00 0. -1.
         22    1    1    0    0    0  0.20451292705E+02  0.20235962485E+02 -0.30590403254E+01  0.28932806271E+02  0.00000000000E+00 0.  1.
</event>
<event>
 5    1  0.6924865E-004  0.9118800E+02  0.7818608E-02  0.1130116E+00
         25   -1    0    0    0    0  0.00000000000E+00  0.00000000000E+00  0.99999998245E-14  0.12500000000E+03  0.12500000000E+03 0.  0.
        -13    1    3    3    0    0 -0.11797685786E+01 -0.45603864645E+02 -0.27888093325E+02  0.53468319946E+02  0.10566000000E+00 0. -1.
         23    2    1    0    0    0 -0.31885053762E+01 -0.35063747446E+01 -0.28986955609E+02  0.95628162709E+02  0.91005717827E+02 0.  0.
         13    1    3    3    0    0 -0.20087367976E+01  0.42097489901E+02 -0.10988622838E+01  0.42159842763E+02  0.10566000000E+00 0.  1.
         22    1    1    0    0    0  0.31885053762E+01  0.35063747446E+01  0.28986955609E+02  0.29371837291E+02  0.00000000000E+00 0. -1.
</event>
<event>
 5    1  0.6924865E-004  0.9118800E+02  0.7818608E-02  0.1130116E+00
         25   -1    0    0    0    0  0.00000000000E+00  0.00000000000E+00  0.99999998245E-14  0.12500000000E+03  0.12500000000E+03 0.  0.
        -13    1    3    3    0    0  0.18050651434E+02 -0.23473331033E+02  0.50986374135E+02  0.58961383959E+02  0.10566000000E+00 0. -1.
         23    2    1    0    0    0  0.19546961519E+02 -0.11469633159E+01  0.22981535982E+02  0.94808109937E+02  0.89872284294E+02 0.  0.
         13    1    3    3    0    0  0.14963100853E+01  0.22326367717E+02 -0.28004838153E+02  0.35846725977E+02  0.10566000000E+00 0.  1.
         22    1    1    0    0    0 -0.19546961519E+02  0.11469633159E+01 -0.22981535982E+02  0.30191890063E+02  0.00000000000E+00 0. -1.
</event>
<event>
 5    1  0.6924865E-004  0.9118800E+02  0.7818608E-02  0.1130116E+00
         25   -1    0    0    0    0  0.00000000000E+00  0.00000000000E+00  0.99999998245E-14  0.12500000000E+03  0.12500000000E+03 0.  0.
        -13    1    3    3    0    0 -0.30690913227E+02 -0.27188747475E+02 -0.96731565463E+01  0.42127678141E+02  0.10566000000E+00 0. -1.
         23    2    1    0    0    0  0.94415840423E+01  0.19462099197E+01 -0.28299765770E+02  0.95103378369E+02  0.90282028069E+02 0.  0.
         13    1    3    3    0    0  0.40132497269E+02  0.29134957395E+02 -0.18626609224E+02  0.52975700228E+02  0.10566000000E+00 0.  1.
         22    1    1    0    0    0 -0.94415840423E+01 -0.19462099197E+01  0.28299765770E+02  0.29896621631E+02  0.00000000000E+00 0.  1.
</event>
<event>
 5    1  0.6924865E-004  0.9118800E+02  0.7818608E-02  0.1130116E+00
         25   -1    0    0    0    0  0.00000000000E+00  0.00000000000E+00  0.99999998245E-14  0.12500000000E+03  0.12500000000E+03 0.  0.
        -13    1    3    3    0    0  0.36741265754E+02 -0.13942546388E+02  0.17303135664E+02  0.42938617547E+02  0.10566000000E+00 0.  1.
         23    2    1    0    0    0 -0.87575391948E+01  0.76629328545E+01 -0.17373494050E+02  0.10408939675E+03  0.10196739277E+03 0.  0.
         13    1    3    3    0    0 -0.45498804949E+02  0.21605479242E+02 -0.34676629714E+02  0.61150779205E+02  0.10566000000E+00 0. -1.
         22    1    1    0    0    0  0.87575391948E+01 -0.76629328545E+01  0.17373494050E+02  0.20910603247E+02  0.00000000000E+00 0. -1.
</event>
<event>
 5    1  0.6924865E-004  0.9118800E+02  0.7818608E-02  0.1130116E+00
         25   -1    0    0    0    0  0.00000000000E+00  0.00000000000E+00  0.99999998245E-14  0.12500000000E+03  0.12500000000E+03 0.  0.
        -13    1    3    3    0    0 -0.29234317463E+02 -0.90292886584E+00  0.52961845934E+02  0.60501478386E+02  0.10566000000E+00 0.  1.
         23    2    1    0    0    0 -0.85818315033E+01 -0.99710480469E+01  0.27487002298E+02  0.94526980352E+02  0.89480417344E+02 0.  0.
         13    1    3    3    0    0  0.20652485959E+02 -0.90681191811E+01 -0.25474843636E+02  0.34025501967E+02  0.10566000000E+00 0. -1.
         22    1    1    0    0    0  0.85818315033E+01  0.99710480469E+01 -0.27487002298E+02  0.30473019648E+02  0.00000000000E+00 0.  1.
</event>
<event>
 5    1  0.6924865E-004  0.9118800E+02  0.7818608E-02  0.1130116E+00
         25   -1    0    0    0    0  0.00000000000E+00  0.00000000000E+00  0.99999998245E-14  0.12500000000E+03  0.12500000000E+03 0.  0.
        -13    1    3    3    0    0  0.26695261217E+02 -0.47783686010E+02  0.25044974816E+02  0.60192852962E+02  0.10566000000E+00 0.  1.
         23    2    1    0    0    0  0.50570530480E+01 -0.20753049372E+02  0.20987179586E+02  0.95054640581E+02  0.90214522917E+02 0.  0.
         13    1    3    3    0    0 -0.21638208169E+02  0.27030636638E+02 -0.40577952296E+01  0.34861787619E+02  0.10566000000E+00 0. -1.
         22    1    1    0    0    0 -0.50570530480E+01  0.20753049372E+02 -0.20987179586E+02  0.29945359419E+02  0.00000000000E+00 0.  1.
</event>
<event>
 5    1  0.6924865E-004  0.9118800E+02  0.7818608E-02  0.1130116E+00
         25   -1    0    0    0    0  0.00000000000E+00  0.00000000000E+00  0.99999998245E-14  0.12500000000E+03  0.12500000000E+03 0.  0.
        -13    1    3    3    0    0 -0.28201200496E+01  0.53175878309E+02 -0.24356491906E+02  0.58556613401E+02  0.10566000000E+00 0. -1.
         23    2    1    0    0    0 -0.15714331432E+02  0.18962570333E+02 -0.14485320533E+02  0.96428269269E+02  0.92098139597E+02 0.  0.
         13    1    3    3    0    0 -0.12894211383E+02 -0.34213307976E+02  0.98711713727E+01  0.37871655868E+02  0.10566000000E+00 0.  1.
         22    1    1    0    0    0  0.15714331432E+02 -0.18962570333E+02  0.14485320533E+02  0.28571730731E+02  0.00000000000E+00 0. -1.
</event>
<event>
 5    1  0.6924865E-004  0.9118800E+02  0.7818608E-02  0.1130116E+00
         25   -1    0    0    0    0  0.00000000000E+00  0.00000000000E+00  0.99999998245E-14  0.12500000000E+03  0.12500000000E+03 0.  0.
        -13    1    3    3    0    0 -0.42717178909E+01 -0.11686670467E+02 -0.52056054047E+02  0.53522609870E+02  0.10566000000E+00 0.  1.
         23    2    1    0    0    0 -0.22282219208E+02 -0.13017290294E+02 -0.14012777740E+02  0.95634968425E+02  0.91015065271E+02 0.  0.
         13    1    3    3    0    0 -0.18010501317E+02 -0.13306198272E+01  0.38043276307E+02  0.42112358555E+02  0.10566000000E+00 0. -1.
         22    1    1    0    0    0  0.22282219208E+02  0.13017290294E+02  0.14012777740E+02  0.29365031575E+02  0.00000000000E+00 0.  1.
</event>
<event>
 5    1  0.6924865E-004  0.9118800E+02  0.7818608E-02  0.1130116E+00
         25   -1    0    0    0    0  0.00000000000E+00  0.00000000000E+00  0.99999998245E-14  0.12500000000E+03  0.12500000000E+03 0.  0.
        -13    1    3    3    0    0 -0.32423243495E+02 -0.87767559470E+00  0.10187948621E+02  0.33997683661E+02  0.10566000000E+00 0. -1.
         23    2    1    0    0    0  0.20630587286E+02 -0.11724392291E+02 -0.18158855736E+02  0.95119796721E+02  0.90304757240E+02 0.  0.
         13    1    3    3    0    0  0.53053830781E+02 -0.10846716696E+02 -0.28346804357E+02  0.61122113060E+02  0.10566000000E+00 0.  1.
         22    1    1    0    0    0 -0.20630587286E+02  0.11724392291E+02  0.18158855736E+02  0.29880203279E+02  0.00000000000E+00 0.  1.
</event>
<event>
 5    1  0.6924865E-004  0.9118800E+02  0.7818608E-02  0.1130116E+00
         25   -1    0    0    0    0  0.00000000000E+00  0.00000000000E+00  0.99999998245E-14  0.12500000000E+03  0.12500000000E+03 0.  0.
        -13    1    3    3    0    0 -0.48503988637E+02 -0.26739768784E+01  0.33200790701E+02  0.58839533761E+02  0.10566000000E+00 0. -1.
         23    2    1    0    0    0 -0.15002477745E+02  0.70293056255E+01  0.25551937921E+02  0.94546970470E+02  0.89508338256E+02 0.  0.
         13    1    3    3    0    0  0.33501510892E+02  0.97032825038E+01 -0.76488527799E+01  0.35707436709E+02  0.10566000000E+00 0.  1.
         22    1    1    0    0    0  0.15002477745E+02 -0.70293056255E+01 -0.25551937921E+02  0.30453029530E+02  0.00000000000E+00 0. -1.
</event>
<event>
 5    1  0.6924865E-004  0.9118800E+02  0.7818608E-02  0.1130116E+00
         25   -1    0    0    0    0  0.00000000000E+00  0.00000000000E+00  0.99999998245E-14  0.12500000000E+03  0.12500000000E+03 0.  0.
        -13    1    3    3    0    0 -0.16927060058E+02  0.11604436558E+02  0.37262194329E+02  0.42540223322E+02  0.10566000000E+00 0. -1.
         23    2    1    0    0    0  0.20856034375E+01  0.24964997008E+02 -0.12159886600E+02  0.97152851862E+02  0.93076382426E+02 0.  0.
         13    1    3    3    0    0  0.19012663495E+02  0.13360560450E+02 -0.49422080929E+02  0.54612628540E+02  0.10566000000E+00 0.  1.
         22    1    1    0    0    0 -0.20856034375E+01 -0.24964997008E+02  0.12159886600E+02  0.27847148138E+02  0.00000000000E+00 0. -1.
</event>
<event>
 5    1  0.6924865E-004  0.9118800E+02  0.7818608E-02  0.1130116E+00
         25   -1    0    0    0    0  0.00000000000E+00  0.00000000000E+00  0.99999998245E-14  0.12500000000E+03  0.12500000000E+03 0.  0.
        -13    1    3    3    0    0  0.32148143818E+02  0.36132508426E+01 -0.12210259678E+02  0.34578321793E+02  0.10566000000E+00 0.  1.
         23    2    1    0    0    0 -0.16864646298E+02 -0.91599316651E+01  0.22080859802E+02  0.95744487486E+02  0.91165354557E+02 0.  0.
         13    1    3    3    0    0 -0.49012790116E+02 -0.12773182508E+02  0.34291119480E+02  0.61166165693E+02  0.10566000000E+00 0. -1.
         22    1    1    0    0    0  0.16864646298E+02  0.91599316651E+01 -0.22080859802E+02  0.29255512514E+02  0.00000000000E+00 0. -1.
</event>
<event>
 5    1  0.6924865E-004  0.9118800E+02  0.7818608E-02  0.1130116E+00
         25   -1    0    0    0    0  0.00000000000E+00  0.00000000000E+00  0.99999998245E-14  0.12500000000E+03  0.12500000000E+03 0.  0.
        -13    1    3    3    0    0 -0.40482766337E+02 -0.25825002579E+02 -0.25277725272E+02  0.54265640026E+02  0.10566000000E+00 0.  1.
         23    2    1    0    0    0 -0.48742827517E+01 -0.28950292622E+02 -0.54546381003E+01  0.95139806564E+02  0.90332450653E+02 0.  0.
         13    1    3    3    0    0  0.35608483585E+02 -0.31252900433E+01  0.19823087172E+02  0.40874166538E+02  0.10566000000E+00 0. -1.
         22    1    1    0    0    0  0.48742827517E+01  0.28950292622E+02  0.54546381003E+01  0.29860193436E+02  0.00000000000E+00 0.  1.
</event>
<event>
 5    1  0.6924865E-004  0.9118800E+02  0.7818608E-02  0.1130116E+00
         25   -1    0    0    0    0  0.00000000000E+00  0.00000000000E+00  0.99999998245E-14  0.12500000000E+03  0.12500000000E+03 0.  0.
        -13    1    3    3    0    0  0.15831954583E+02 -0.20784493996E+02  0.53717788490E+02  0.59734897178E+02  0.10566000000E+00 0.  1.
         23    2    1    0    0    0  0.80169833027E+01  0.19057248292E+01  0.31503313525E+02  0.92436791137E+02  0.86511258135E+02 0.  0.
         13    1    3    3    0    0 -0.78149712800E+01  0.22690218826E+02 -0.22214474965E+02  0.32701893958E+02  0.10566000000E+00 0. -1.
         22    1    1    0    0    0 -0.80169833027E+01 -0.19057248292E+01 -0.31503313525E+02  0.32563208863E+02  0.00000000000E+00 0.  1.
</event>
<event>
 5    1  0.6924865E-004  0.9118800E+02  0.7818608E-02  0.1130116E+00
         25   -1    0    0    0    0  0.00000000000E+00  0.00000000000E+00  0.99999998245E-14  0.12500000000E+03  0.12500000000E+03 0.  0.
        -13    1    3    3    0    0  0.20338212211E+02  0.27740437109E+02  0.29308140910E+02  0.45190187149E+02  0.10566000000E+00 0. -1.
         23    2    1    0    0    0  0.27170660731E+02 -0.56008468428E+01 -0.84271169968E+01  0.96006369824E+02  0.91523726192E+02 0.  0.
         13    1    3    3    0    0  0.68324485203E+01 -0.33341283952E+02 -0.37735257907E+02  0.50816182675E+02  0.10566000000E+00 0.  1.
         22    1    1    0    0    0 -0.27170660731E+02  0.56008468428E+01  0.84271169968E+01  0.28993630176E+02  0.00000000000E+00 0.  1.
</event>
<event>
 5    1  0.6924865E-004  0.9118800E+02  0.7818608E-02  0.1130116E+00
         25   -1    0    0    0    0  0.00000000000E+00  0.00000000000E+00  0.99999998245E-14  0.12500000000E+03  0.12500000000E+03 0.  0.
        -13    1    3    3    0    0  0.33901921551E+02 -0.89268429518E+00  0.89064530038E+01  0.35063845187E+02  0.10566000000E+00 0.  1.
         23    2    1    0    0    0 -0.19044695780E+02  0.20112399168E+02 -0.10702485929E+02  0.95305686694E+02  0.90561700920E+02 0.  0.
         13    1    3    3    0    0 -0.52946617331E+02  0.21005083463E+02 -0.19608938933E+02  0.60241841508E+02  0.10566000000E+00 0. -1.
         22    1    1    0    0    0  0.19044695780E+02 -0.20112399168E+02  0.10702485929E+02  0.29694313306E+02  0.00000000000E+00 0. -1.
</event>
<event>
 5    1  0.6924865E-004  0.9118800E+02  0.7818608E-02  0.1130116E+00
         25   -1    0    0    0    0  0.00000000000E+00  0.00000000000E+00  0.99999998245E-14  0.12500000000E+03  0.12500000000E+03 0.  0.
        -13    1    3    3    0    0  0.29492046800E+02 -0.22814222324E+02 -0.35107285783E+02  0.51213301434E+02  0.10566000000E+00 0. -1.
         23    2    1    0    0    0  0.73707918229E+00 -0.28725611160E+02 -0.95442019291E+00  0.96249088012E+02  0.91854624287E+02 0.  0.
         13    1    3    3    0    0 -0.28754967617E+02 -0.59113888361E+01  0.34152865590E+02  0.45035786578E+02  0.10566000000E+00 0.  1.
         22    1    1    0    0    0 -0.73707918229E+00  0.28725611160E+02  0.95442019291E+00  0.28750911988E+02  0.00000000000E+00 0.  1.
</event>
<event>
 5    1  0.6924865E-004  0.9118800E+02  0.7818608E-02  0.1130116E+00
         25   -1    0    0    0    0  0.00000000000E+00  0.00000000000E+00  0.99999998245E-14  0.12500000000E+03  0.12500000000E+03 0.  0.
        -13    1    3    3    0    0  0.30829652908E+02  0.28853598806E+02  0.15967775758E+02  0.45143977330E+02  0.10566000000E+00 0.  1.
         23    2    1    0    0    0 -0.73853089392E+01 -0.47299594563E+01  0.26490346943E+02  0.97095631422E+02  0.92999504598E+02 0.  0.
         13    1    3    3    0    0 -0.38214961847E+02 -0.33583558263E+02  0.10522571185E+02  0.51951654092E+02  0.10566000000E+00 0. -1.
         22    1    1    0    0    0  0.73853089392E+01  0.47299594563E+01 -0.26490346943E+02  0.27904368578E+02  0.00000000000E+00 0. -1.
</event>
<event>
 5    1  0.6924865E-004  0.9118800E+02  0.7818608E-02  0.1130116E+00
         25   -1    0    0    0    0  0.00000000000E+00  0.00000000000E+00  0.99999998245E-14  0.12500000000E+03  0.12500000000E+03 0.  0.
        -13    1    3    3    0    0  0.15606954953E+02  0.45525930317E+02  0.17943615328E+02  0.51363137261E+02  0.10566000000E+00 0.  1.
         23    2    1    0    0    0  0.22308307954E+02 -0.63863010923E+00  0.15011335836E+02  0.98103742718E+02  0.94344770281E+02 0.  0.
         13    1    3    3    0    0  0.67013530014E+01 -0.46164560427E+02 -0.29322794920E+01  0.46740605457E+02  0.10566000000E+00 0. -1.
         22    1    1    0    0    0 -0.22308307954E+02  0.63863010923E+00 -0.15011335836E+02  0.26896257282E+02  0.00000000000E+00 0.  1.
</event>
<event>
 5    1  0.6924865E-004  0.9118800E+02  0.7818608E-02  0.1130116E+00
         25   -1    0    0    0    0  0.00000000000E+00  0.00000000000E+00  0.99999998245E-14  0.12500000000E+03  0.12500000000E+03 0.  0.
        -13    1    3    3    0    0  0.16110266066E+02 -0.58459817913E+01  0.22799410469E+02  0.28522630622E+02  0.10566000000E+00 0. -1.
         23    2    1    0    0    0 -0.23673801749E+02  0.29107032504E+02 -0.28662295813E+01  0.87371772531E+02  0.78853935430E+02 0.  0.
         13    1    3    3    0    0 -0.39784067815E+02  0.34953014295E+02 -0.25665640050E+02  0.58849141909E+02  0.10566000000E+00 0.  1.
         22    1    1    0    0    0  0.23673801749E+02 -0.29107032504E+02  0.28662295813E+01  0.37628227469E+02  0.00000000000E+00 0.  1.
</event>
<event>
 5    1  0.6924865E-004  0.9118800E+02  0.7818608E-02  0.1130116E+00
         25   -1    0    0    0    0  0.00000000000E+00  0.00000000000E+00  0.99999998245E-14  0.12500000000E+03  0.12500000000E+03 0.  0.
        -13    1    3    3    0    0  0.14464539061E+01  0.22658557351E+02 -0.36990577504E+02  0.43402954257E+02  0.10566000000E+00 0.  1.
         23    2    1    0    0    0  0.25993795954E+02 -0.82027197407E+01  0.39252008545E+00  0.97739843888E+02  0.93861392340E+02 0.  0.
         13    1    3    3    0    0  0.24547342048E+02 -0.30861277092E+02  0.37383097589E+02  0.54336889631E+02  0.10566000000E+00 0. -1.
         22    1    1    0    0    0 -0.25993795954E+02  0.82027197407E+01 -0.39252008545E+00  0.27260156112E+02  0.00000000000E+00 0. -1.
</event>
<event>
 5    1  0.6924865E-004  0.9118800E+02  0.7818608E-02  0.1130116E+00
         25   -1    0    0    0    0  0.00000000000E+00  0.00000000000E+00  0.99999998245E-14  0.12500000000E+03  0.12500000000E+03 0.  0.
        -13    1    3    3    0    0  0.36951159813E+02 -0.24025767942E+02 -0.18524399804E+02  0.47809939227E+02  0.10566000000E+00 0. -1.
         23    2    1    0    0    0  0.13881388215E+02 -0.16431574844E+02  0.21474413395E+02  0.94605263264E+02  0.89589708203E+02 0.  0.
         13    1    3    3    0    0 -0.23069771598E+02  0.75941930981E+01  0.39998813199E+02  0.46795324037E+02  0.10566000000E+00 0.  1.
         22    1    1    0    0    0 -0.13881388215E+02  0.16431574844E+02 -0.21474413395E+02  0.30394736736E+02  0.00000000000E+00 0.  1.
</event>
<event>
 5    1  0.6924865E-004  0.9118800E+02  0.7818608E-02  0.1130116E+00
         25   -1    0    0    0    0  0.00000000000E+00  0.00000000000E+00  0.99999998245E-14  0.12500000000E+03  0.12500000000E+03 0.  0.
        -13    1    3    3    0    0  0.31992294980E+02  0.26388505643E+02 -0.23887173351E+02  0.47858838086E+02  0.10566000000E+00 0. -1.
         23    2    1    0    0    0 -0.14033966146E+02  0.19173843725E+02 -0.18754702929E+02  0.94729100262E+02  0.89762325424E+02 0.  0.
         13    1    3    3    0    0 -0.46026261126E+02 -0.72146619183E+01  0.51324704222E+01  0.46870262177E+02  0.10566000000E+00 0.  1.
         22    1    1    0    0    0  0.14033966146E+02 -0.19173843725E+02  0.18754702929E+02  0.30270899738E+02  0.00000000000E+00 0.  1.
</event>
<event>
 5    1  0.6924865E-004  0.9118800E+02  0.7818608E-02  0.1130116E+00
         25   -1    0    0    0    0  0.00000000000E+00  0.00000000000E+00  0.99999998245E-14  0.12500000000E+03  0.12500000000E+03 0.  0.
        -13    1    3    3    0    0 -0.11983478081E+02  0.26206715164E+02 -0.19810731107E+02  0.34969585323E+02  0.10566000000E+00 0.  1.
         23    2    1    0    0    0  0.34131343336E+02  0.65960279799E+01 -0.19622223214E+02  0.85081485162E+02  0.75135685865E+02 0.  0.
         13    1    3    3    0    0  0.46114821417E+02 -0.19610687184E+02  0.18850789364E+00  0.50111899839E+02  0.10566000000E+00 0. -1.
         22    1    1    0    0    0 -0.34131343336E+02 -0.65960279799E+01  0.19622223214E+02  0.39918514838E+02  0.00000000000E+00 0. -1.
</event>
<event>
 5    1  0.6924865E-004  0.9118800E+02  0.7818608E-02  0.1130116E+00
         25   -1    0    0    0    0  0.00000000000E+00  0.00000000000E+00  0.99999998245E-14  0.12500000000E+03  0.12500000000E+03 0.  0.
        -13    1    3    3    0    0 -0.16413305178E+01 -0.48837292447E+02 -0.51005323830E+01  0.49130455870E+02  0.10566000000E+00 0. -1.
         23    2    1    0    0    0  0.12024400350E+02 -0.86103907185E+01 -0.24928540598E+02  0.96014535221E+02  0.91534877535E+02 0.  0.
         13    1    3    3    0    0  0.13665730868E+02  0.40226901728E+02 -0.19828008215E+02  0.46884079351E+02  0.10566000000E+00 0.  1.
         22    1    1    0    0    0 -0.12024400350E+02  0.86103907185E+01  0.24928540598E+02  0.28985464779E+02  0.00000000000E+00 0. -1.
</event>
<event>
 5    1  0.6924865E-004  0.9118800E+02  0.7818608E-02  0.1130116E+00
         25   -1    0    0    0    0  0.00000000000E+00  0.00000000000E+00  0.99999998245E-14  0.12500000000E+03  0.12500000000E+03 0.  0.
        -13    1    3    3    0    0 -0.46124312127E+02  0.29758395407E+02  0.35079550505E+01  0.55003010636E+02  0.10566000000E+00 0.  1.
         23    2    1    0    0    0 -0.27223718550E+02 -0.53401582043E+01 -0.73131157586E+01  0.96309761182E+02  0.91937154054E+02 0.  0.
         13    1    3    3    0    0  0.18900593577E+02 -0.35098553611E+02 -0.10821070809E+02  0.41306750546E+02  0.10566000000E+00 0. -1.
         22    1    1    0    0    0  0.27223718550E+02  0.53401582043E+01  0.73131157586E+01  0.28690238818E+02  0.00000000000E+00 0. -1.
</event>
<event>
 5    1  0.6924865E-004  0.9118800E+02  0.7818608E-02  0.1130116E+00
         25   -1    0    0    0    0  0.00000000000E+00  0.00000000000E+00  0.99999998245E-14  0.12500000000E+03  0.12500000000E+03 0.  0.
        -13    1    3    3    0    0  0.26788602077E+02 -0.31135000673E+02  0.40446668651E+02  0.57645135416E+02  0.10566000000E+00 0. -1.
         23    2    1    0    0    0  0.15410079994E+02 -0.24531889093E+02  0.48096045846E+01  0.95633072273E+02  0.91012461060E+02 0.  0.
         13    1    3    3    0    0 -0.11378522083E+02  0.66031115805E+01 -0.35637064066E+02  0.37987936857E+02  0.10566000000E+00 0.  1.
         22    1    1    0    0    0 -0.15410079994E+02  0.24531889093E+02 -0.48096045846E+01  0.29366927727E+02  0.00000000000E+00 0. -1.
</event>
<event>
 5    1  0.6924865E-004  0.9118800E+02  0.7818608E-02  0.1130116E+00
         25   -1    0    0    0    0  0.00000000000E+00  0.00000000000E+00  0.99999998245E-14  0.12500000000E+03  0.12500000000E+03 0.  0.
        -13    1    3    3    0    0 -0.17992652219E+02  0.38508455073E+02 -0.47505266592E+01  0.42769326784E+02  0.10566000000E+00 0. -1.
         23    2    1    0    0    0 -0.25759333648E+01 -0.59160286959E+01 -0.28730131413E+02  0.95554197596E+02  0.90904067010E+02 0.  0.
         13    1    3    3    0    0  0.15416718855E+02 -0.44424483769E+02 -0.23979604754E+02  0.52784870811E+02  0.10566000000E+00 0.  1.
         22    1    1    0    0    0  0.25759333648E+01  0.59160286959E+01  0.28730131413E+02  0.29445802404E+02  0.00000000000E+00 0.  1.
</event>
<event>
 5    1  0.6924865E-004  0.9118800E+02  0.7818608E-02  0.1130116E+00
         25   -1    0    0    0    0  0.00000000000E+00  0.00000000000E+00  0.99999998245E-14  0.12500000000E+03  0.12500000000E+03 0.  0.
        -13    1    3    3    0    0  0.77554920704E+01 -0.22795916329E+02  0.43584051462E+02  0.49793394787E+02  0.10566000000E+00 0. -1.
         23    2    1    0    0    0  0.93132391106E+01 -0.25046654722E+02 -0.44537881970E+01  0.97909271609E+02  0.94086757316E+02 0.  0.
         13    1    3    3    0    0  0.15577470402E+01 -0.22507383930E+01 -0.48037839659E+02  0.48115876822E+02  0.10566000000E+00 0.  1.
         22    1    1    0    0    0 -0.93132391106E+01  0.25046654722E+02  0.44537881970E+01  0.27090728391E+02  0.00000000000E+00 0. -1.
</event>
<event>
 5    1  0.6924865E-004  0.9118800E+02  0.7818608E-02  0.1130116E+00
         25   -1    0    0    0    0  0.00000000000E+00  0.00000000000E+00  0.99999998245E-14  0.12500000000E+03  0.12500000000E+03 0.  0.
        -13    1    3    3    0    0 -0.10999634438E+02  0.12269930041E+02 -0.39222925094E+02  0.42544002609E+02  0.10566000000E+00 0. -1.
         23    2    1    0    0    0  0.20063525420E+02 -0.19087146433E+02 -0.96462232377E+01  0.95675712558E+02  0.91071006031E+02 0.  0.
         13    1    3    3    0    0  0.31063159859E+02 -0.31357076474E+02  0.29576701856E+02  0.53131709949E+02  0.10566000000E+00 0.  1.
         22    1    1    0    0    0 -0.20063525420E+02  0.19087146433E+02  0.96462232377E+01  0.29324287442E+02  0.00000000000E+00 0.  1.
</event>
<event>
 5    1  0.6924865E-004  0.9118800E+02  0.7818608E-02  0.1130116E+00
         25   -1    0    0    0    0  0.00000000000E+00  0.00000000000E+00  0.99999998245E-14  0.12500000000E+03  0.12500000000E+03 0.  0.
        -13    1    3    3    0    0 -0.12230255696E+02 -0.34820205282E+02  0.14387687392E+02  0.39611141902E+02  0.10566000000E+00 0.  1.
         23    2    1    0    0    0 -0.17111375574E+02  0.68870755340E+01 -0.22779431763E+02  0.95689020916E+02  0.91089270657E+02 0.  0.
         13    1    3    3    0    0 -0.48811198772E+01  0.41707280816E+02 -0.37167119155E+02  0.56077879013E+02  0.10566000000E+00 0. -1.
         22    1    1    0    0    0  0.17111375574E+02 -0.68870755340E+01  0.22779431763E+02  0.29310979084E+02  0.00000000000E+00 0. -1.
</event>
<event>
 5    1  0.6924865E-004  0.9118800E+02  0.7818608E-02  0.1130116E+00
         25   -1    0    0    0    0  0.00000000000E+00  0.00000000000E+00  0.99999998245E-14  0.12500000000E+03  0.12500000000E+03 0.  0.
        -13    1    3    3    0    0 -0.85694463376E+01 -0.32780435154E+02 -0.17839984101E+02  0.38291886036E+02  0.10566000000E+00 0. -1.
         23    2    1    0    0    0  0.82578773624E+01 -0.34179111472E+01  0.28191773088E+02  0.95425505499E+02  0.90726933017E+02 0.  0.
         13    1    3    3    0    0  0.16827323700E+02  0.29362524007E+02  0.46031757189E+02  0.57133619463E+02  0.10566000000E+00 0.  1.
         22    1    1    0    0    0 -0.82578773624E+01  0.34179111472E+01 -0.28191773088E+02  0.29574494501E+02  0.00000000000E+00 0.  1.
</event>
<event>
 5    1  0.6924865E-004  0.9118800E+02  0.7818608E-02  0.1130116E+00
         25   -1    0    0    0    0  0.00000000000E+00  0.00000000000E+00  0.99999998245E-14  0.12500000000E+03  0.12500000000E+03 0.  0.
        -13    1    3    3    0    0 -0.29156873433E+02  0.27554846634E+02  0.97710664983E+01  0.41290165245E+02  0.10566000000E+00 0.  1.
         23    2    1    0    0    0 -0.33343206170E+01  0.42847847544E+02 -0.14240102354E+02  0.79724882682E+02  0.65621800268E+02 0.  0.
         13    1    3    3    0    0  0.25822552816E+02  0.15293000910E+02 -0.24011168852E+02  0.38434717437E+02  0.10566000000E+00 0. -1.
         22    1    1    0    0    0  0.33343206170E+01 -0.42847847544E+02  0.14240102354E+02  0.45275117318E+02  0.00000000000E+00 0. -1.
</event>
<event>
 5    1  0.6924865E-004  0.9118800E+02  0.7818608E-02  0.1130116E+00
         25   -1    0    0    0    0  0.00000000000E+00  0.00000000000E+00  0.99999998245E-14  0.12500000000E+03  0.12500000000E+03 0.  0.
        -13    1    3    3    0    0 -0.14507024171E+02  0.51553460000E+02 -0.17058716655E+02  0.56206974355E+02  0.10566000000E+00 0. -1.
         23    2    1    0    0    0 -0.85793231275E+01  0.25821811676E+02  0.11816199750E+02  0.95335318641E+02  0.90602591907E+02 0.  0.
         13    1    3    3    0    0  0.59277010435E+01 -0.25731648323E+02  0.28874916405E+02  0.39128344286E+02  0.10566000000E+00 0.  1.
         22    1    1    0    0    0  0.85793231275E+01 -0.25821811676E+02 -0.11816199750E+02  0.29664681359E+02  0.00000000000E+00 0. -1.
</event>
<event>
 5    1  0.6924865E-004  0.9118800E+02  0.7818608E-02  0.1130116E+00
         25   -1    0    0    0    0  0.00000000000E+00  0.00000000000E+00  0.99999998245E-14  0.12500000000E+03  0.12500000000E+03 0.  0.
        -13    1    3    3    0    0  0.55495301435E+02  0.16618883602E+02 -0.11364053630E+02  0.59034470036E+02  0.10566000000E+00 0. -1.
         23    2    1    0    0    0  0.25478784180E+02  0.11642553196E+02  0.89187806534E+01  0.95601664391E+02  0.90969314045E+02 0.  0.
         13    1    3    3    0    0 -0.30016517254E+02 -0.49763304056E+01  0.20282834284E+02  0.36567194355E+02  0.10566000000E+00 0.  1.
         22    1    1    0    0    0 -0.25478784180E+02 -0.11642553196E+02 -0.89187806534E+01  0.29398335609E+02  0.00000000000E+00 0. -1.
</event>
<event>
 5    1  0.6924865E-004  0.9118800E+02  0.7818608E-02  0.1130116E+00
         25   -1    0    0    0    0  0.00000000000E+00  0.00000000000E+00  0.99999998245E-14  0.12500000000E+03  0.12500000000E+03 0.  0.
        -13    1    3    3    0    0 -0.23291047538E+02  0.35659178718E+01 -0.24718518450E+02  0.34149743543E+02  0.10566000000E+00 0.  1.
         23    2    1    0    0    0  0.23448162166E+02  0.90284463675E+01  0.15007102474E+02  0.95733256460E+02  0.91149954004E+02 0.  0.
         13    1    3    3    0    0  0.46739209704E+02  0.54625284957E+01  0.39725620924E+02  0.61583512917E+02  0.10566000000E+00 0. -1.
         22    1    1    0    0    0 -0.23448162166E+02 -0.90284463675E+01 -0.15007102474E+02  0.29266743540E+02  0.00000000000E+00 0. -1.
</event>
<event>
 5    1  0.6924865E-004  0.9118800E+02  0.7818608E-02  0.1130116E+00
         25   -1    0    0    0    0  0.00000000000E+00  0.00000000000E+00  0.99999998245E-14  0.12500000000E+03  0.12500000000E+03 0.  0.
        -13    1    3    3    0    0  0.39659836697E+02 -0.26174768125E+02 -0.11611952596E+01  0.47532943015E+02  0.10566000000E+00 0.  1.
         23    2    1    0    0    0  0.12255484663E+02  0.54534672452E+01 -0.25674115730E+02  0.96032821542E+02  0.91559845923E+02 0.  0.
         13    1    3    3    0    0 -0.27404352034E+02  0.31628235371E+02 -0.24512920470E+02  0.48499878526E+02  0.10566000000E+00 0. -1.
         22    1    1    0    0    0 -0.12255484663E+02 -0.54534672452E+01  0.25674115730E+02  0.28967178458E+02  0.00000000000E+00 0. -1.
</event>
<event>
 5    1  0.6924865E-004  0.9118800E+02  0.7818608E-02  0.1130116E+00
         25   -1    0    0    0    0  0.00000000000E+00  0.00000000000E+00  0.99999998245E-14  0.12500000000E+03  0.12500000000E+03 0.  0.
        -13    1    3    3    0    0  0.43578641005E+02  0.17116968212E+02 -0.31380546215E+01  0.46924909200E+02  0.10566000000E+00 0.  1.
         23    2    1    0    0    0 -0.19039546797E+01  0.29135115523E+02  0.68332302972E+01  0.95013785897E+02  0.90157897458E+02 0.  0.
         13    1    3    3    0    0 -0.45482595684E+02  0.12018147311E+02  0.99712849187E+01  0.48088876697E+02  0.10566000000E+00 0. -1.
         22    1    1    0    0    0  0.19039546797E+01 -0.29135115523E+02 -0.68332302972E+01  0.29986214103E+02  0.00000000000E+00 0.  1.
</event>
<event>
 5    1  0.6924865E-004  0.9118800E+02  0.7818608E-02  0.1130116E+00
         25   -1    0    0    0    0  0.00000000000E+00  0.00000000000E+00  0.99999998245E-14  0.12500000000E+03  0.12500000000E+03 0.  0.
        -13    1    3    3    0    0 -0.26713268460E+00 -0.36121738174E+02 -0.28991761193E+01  0.36239035787E+02  0.10566000000E+00 0. -1.
         23    2    1    0    0    0  0.18213720913E+02  0.19309470395E+02  0.10945344674E+02  0.96287705657E+02  0.91907161931E+02 0.  0.
         13    1    3    3    0    0  0.18480853598E+02  0.55431208569E+02  0.13844520794E+02  0.60048669870E+02  0.10566000000E+00 0.  1.
         22    1    1    0    0    0 -0.18213720913E+02 -0.19309470395E+02 -0.10945344674E+02  0.28712294343E+02  0.00000000000E+00 0.  1.
</event>
<event>
 5    1  0.6924865E-004  0.9118800E+02  0.7818608E-02  0.1130116E+00
         25   -1    0    0    0    0  0.00000000000E+00  0.00000000000E+00  0.99999998245E-14  0.12500000000E+03  0.12500000000E+03 0.  0.
        -13    1    3    3    0    0 -0.34764941404E+02  0.33630267113E+02 -0.21668081553E+02  0.53001065453E+02  0.10566000000E+00 0. -1.
         23    2    1    0    0    0  0.27018823640E+01  0.12506688952E+02 -0.25790888118E+02  0.96209596272E+02  0.91800866380E+02 0.  0.
         13    1    3    3    0    0  0.37466823768E+02 -0.21123578161E+02 -0.41228065653E+01  0.43208530819E+02  0.10566000000E+00 0.  1.
         22    1    1    0    0    0 -0.27018823640E+01 -0.12506688952E+02  0.25790888118E+02  0.28790403728E+02  0.00000000000E+00 0. -1.
</event>
<event>
 5    1  0.6924865E-004  0.9118800E+02  0.7818608E-02  0.1130116E+00
         25   -1    0    0    0    0  0.00000000000E+00  0.00000000000E+00  0.99999998245E-14  0.12500000000E+03  0.12500000000E+03 0.  0.
        -13    1    3    3    0    0  0.21126267825E+01 -0.50219845252E+02  0.32580404863E+02  0.59899833006E+02  0.10566000000E+00 0. -1.
         23    2    1    0    0    0  0.99927522240E+01 -0.27789074896E+02  0.73483003795E+01  0.94568350373E+02  0.89538190696E+02 0.  0.
         13    1    3    3    0    0  0.78801254416E+01  0.22430770356E+02 -0.25232104483E+02  0.34668517367E+02  0.10566000000E+00 0.  1.
         22    1    1    0    0    0 -0.99927522240E+01  0.27789074896E+02 -0.73483003795E+01  0.30431649627E+02  0.00000000000E+00 0. -1.
</event>
<event>
 5    1  0.6924865E-004  0.9118800E+02  0.7818608E-02  0.1130116E+00
         25   -1    0    0    0    0  0.00000000000E+00  0.00000000000E+00  0.99999998245E-14  0.12500000000E+03  0.12500000000E+03 0.  0.
        -13    1    3    3    0    0 -0.32451288993E+02  0.10669143313E+02 -0.19196417987E+01  0.34214221678E+02  0.10566000000E+00 0.  1.
         23    2    1    0    0    0  0.24662657095E+02 -0.41816407335E+01  0.15286096869E+02  0.95684517201E+02  0.91083090090E+02 0.  0.
         13    1    3    3    0    0  0.57113946088E+02 -0.14850784046E+02  0.17205738668E+02  0.61470295523E+02  0.10566000000E+00 0. -1.
         22    1    1    0    0    0 -0.24662657095E+02  0.41816407335E+01 -0.15286096869E+02  0.29315482799E+02  0.00000000000E+00 0. -1.
</event>
<event>
 5    1  0.6924865E-004  0.9118800E+02  0.7818608E-02  0.1130116E+00
         25   -1    0    0    0    0  0.00000000000E+00  0.00000000000E+00  0.99999998245E-14  0.12500000000E+03  0.12500000000E+03 0.  0.
        -13    1    3    3    0    0  0.36617086803E+02  0.13493800090E+01 -0.32253267136E+01  0.36783770454E+02  0.10566000000E+00 0. -1.
         23    2    1    0    0    0 -0.18321972750E+02 -0.16047245886E+02  0.13969817377E+02  0.96922169180E+02  0.92766062195E+02 0.  0.
         13    1    3    3    0    0 -0.54939059553E+02 -0.17396625895E+02  0.17195144090E+02  0.60138398727E+02  0.10566000000E+00 0.  1.
         22    1    1    0    0    0  0.18321972750E+02  0.16047245886E+02 -0.13969817377E+02  0.28077830820E+02  0.00000000000E+00 0.  1.
</event>
<event>
 5    1  0.6924865E-004  0.9118800E+02  0.7818608E-02  0.1130116E+00
         25   -1    0    0    0    0  0.00000000000E+00  0.00000000000E+00  0.99999998245E-14  0.12500000000E+03  0.12500000000E+03 0.  0.
        -13    1    3    3    0    0 -0.23943015938E+02  0.41957815113E+02  0.35692534510E+02  0.60064086150E+02  0.10566000000E+00 0.  1.
         23    2    1    0    0    0 -0.20773271834E+02  0.15029483227E+02  0.98142919520E+01  0.97545774182E+02  0.93602583006E+02 0.  0.
         13    1    3    3    0    0  0.31697441040E+01 -0.26928331886E+02 -0.25878242558E+02  0.37481688032E+02  0.10566000000E+00 0. -1.
         22    1    1    0    0    0  0.20773271834E+02 -0.15029483227E+02 -0.98142919520E+01  0.27454225818E+02  0.00000000000E+00 0.  1.
</event>
<event>
 5    1  0.6924865E-004  0.9118800E+02  0.7818608E-02  0.1130116E+00
         25   -1    0    0    0    0  0.00000000000E+00  0.00000000000E+00  0.99999998245E-14  0.12500000000E+03  0.12500000000E+03 0.  0.
        -13    1    3    3    0    0 -0.61856202019E+01  0.27945322272E+02  0.45547676599E+02  0.53794097648E+02  0.10566000000E+00 0. -1.
         23    2    1    0    0    0 -0.17544887131E+02 -0.54178498825E+01  0.22729724504E+02  0.95779860750E+02  0.91213843179E+02 0.  0.
         13    1    3    3    0    0 -0.11359266929E+02 -0.33363172155E+02 -0.22817952095E+02  0.41985763102E+02  0.10566000000E+00 0.  1.
         22    1    1    0    0    0  0.17544887131E+02  0.54178498825E+01 -0.22729724504E+02  0.29220139250E+02  0.00000000000E+00 0. -1.
</event>
<event>
 5    1  0.6924865E-004  0.9118800E+02  0.7818608E-02  0.1130116E+00
         25   -1    0    0    0    0  0.00000000000E+00  0.00000000000E+00  0.99999998245E-14  0.12500000000E+03  0.12500000000E+03 0.  0.
        -13    1    3    3    0    0  0.56845326038E+02 -0.16908259524E+02  0.83404785118E+01  0.59890358810E+02  0.10566000000E+00 0.  1.
         23    2    1    0    0    0  0.23816316894E+02 -0.16449371471E+02 -0.52029046512E+01  0.95591344999E+02  0.90955133169E+02 0.  0.
         13    1    3    3    0    0 -0.33029009145E+02  0.45888805314E+00 -0.13543383163E+02  0.35700986189E+02  0.10566000000E+00 0. -1.
         22    1    1    0    0    0 -0.23816316894E+02  0.16449371471E+02  0.52029046512E+01  0.29408655001E+02  0.00000000000E+00 0.  1.
</event>
<event>
 5    1  0.6924865E-004  0.9118800E+02  0.7818608E-02  0.1130116E+00
         25   -1    0    0    0    0  0.00000000000E+00  0.00000000000E+00  0.99999998245E-14  0.12500000000E+03  0.12500000000E+03 0.  0.
        -13    1    3    3    0    0 -0.42029182445E+02  0.28927326538E+02  0.32293147649E+02  0.60382952451E+02  0.10566000000E+00 0.  1.
         23    2    1    0    0    0 -0.17401811435E+02  0.24138905344E+02  0.11050505288E+02  0.93256914776E+02  0.87688247183E+02 0.  0.
         13    1    3    3    0    0  0.24627371010E+02 -0.47884211940E+01 -0.21242642362E+02  0.32873962324E+02  0.10566000000E+00 0. -1.
         22    1    1    0    0    0  0.17401811435E+02 -0.24138905344E+02 -0.11050505288E+02  0.31743085224E+02  0.00000000000E+00 0.  1.
</event>
<event>
 5    1  0.6924865E-004  0.9118800E+02  0.7818608E-02  0.1130116E+00
         25   -1    0    0    0    0  0.00000000000E+00  0.00000000000E+00  0.99999998245E-14  0.12500000000E+03  0.12500000000E+03 0.  0.
        -13    1    3    3    0    0 -0.20437973587E+02 -0.93622181121E+01  0.32144077703E+02  0.39225180531E+02  0.10566000000E+00 0. -1.
         23    2    1    0    0    0 -0.35890197648E+02 -0.14329300654E+02 -0.10583609630E+02  0.84931958654E+02  0.74886511893E+02 0.  0.
         13    1    3    3    0    0 -0.15452224062E+02 -0.49670825424E+01 -0.42727687334E+02  0.45706778123E+02  0.10566000000E+00 0.  1.
         22    1    1    0    0    0  0.35890197648E+02  0.14329300654E+02  0.10583609630E+02  0.40068041346E+02  0.00000000000E+00 0. -1.
</event>
<event>
 5    1  0.6924865E-004  0.9118800E+02  0.7818608E-02  0.1130116E+00
         25   -1    0    0    0    0  0.00000000000E+00  0.00000000000E+00  0.99999998245E-14  0.12500000000E+03  0.12500000000E+03 0.  0.
        -13    1    3    3    0    0  0.15151646842E+02 -0.14208704875E+02 -0.56813103436E+02  0.60491318239E+02  0.10566000000E+00 0.  1.
         23    2    1    0    0    0  0.13802238923E+02  0.22987673921E+01 -0.25871268643E+02  0.95587270238E+02  0.90949533037E+02 0.  0.
         13    1    3    3    0    0 -0.13494079191E+01  0.16507472267E+02  0.30941834792E+02  0.35095951999E+02  0.10566000000E+00 0. -1.
         22    1    1    0    0    0 -0.13802238923E+02 -0.22987673921E+01  0.25871268643E+02  0.29412729762E+02  0.00000000000E+00 0.  1.
</event>
<event>
 5    1  0.6924865E-004  0.9118800E+02  0.7818608E-02  0.1130116E+00
         25   -1    0    0    0    0  0.00000000000E+00  0.00000000000E+00  0.99999998245E-14  0.12500000000E+03  0.12500000000E+03 0.  0.
        -13    1    3    3    0    0 -0.30764756166E+02 -0.22984511176E+02  0.32747199613E+02  0.50469279988E+02  0.10566000000E+00 0.  1.
         23    2    1    0    0    0 -0.25957262670E+02 -0.81987834998E+01 -0.10034052748E+02  0.95988248058E+02  0.91498972752E+02 0.  0.
         13    1    3    3    0    0  0.48074934962E+01  0.14785727677E+02 -0.42781252361E+02  0.45518968071E+02  0.10566000000E+00 0. -1.
         22    1    1    0    0    0  0.25957262670E+02  0.81987834998E+01  0.10034052748E+02  0.29011751942E+02  0.00000000000E+00 0.  1.
</event>
<event>
 5    1  0.6924865E-004  0.9118800E+02  0.7818608E-02  0.1130116E+00
         25   -1    0    0    0    0  0.00000000000E+00  0.00000000000E+00  0.99999998245E-14  0.12500000000E+03  0.12500000000E+03 0.  0.
        -13    1    3    3    0    0  0.27789013034E+02  0.22010875034E+02  0.87364500785E+01  0.36510883161E+02  0.10566000000E+00 0.  1.
         23    2    1    0    0    0 -0.13939861736E+02 -0.19634519904E+02  0.16261258756E+02  0.95943801807E+02  0.91438232987E+02 0.  0.
         13    1    3    3    0    0 -0.41728874770E+02 -0.41645394938E+02  0.75248086779E+01  0.59432918646E+02  0.10566000000E+00 0. -1.
         22    1    1    0    0    0  0.13939861736E+02  0.19634519904E+02 -0.16261258756E+02  0.29056198193E+02  0.00000000000E+00 0. -1.
</event>
<event>
 5    1  0.6924865E-004  0.9118800E+02  0.7818608E-02  0.1130116E+00
         25   -1    0    0    0    0  0.00000000000E+00  0.00000000000E+00  0.99999998245E-14  0.12500000000E+03  0.12500000000E+03 0.  0.
        -13    1    3    3    0    0  0.15693915531E+02  0.51044198246E+01  0.47402869916E+02  0.50193598464E+02  0.10566000000E+00 0. -1.
         23    2    1    0    0    0 -0.20633133313E+02 -0.11944228821E+01  0.20952536387E+02  0.95569376198E+02  0.90924936346E+02 0.  0.
         13    1    3    3    0    0 -0.36327048843E+02 -0.62988427068E+01 -0.26450333530E+02  0.45375777734E+02  0.10566000000E+00 0.  1.
         22    1    1    0    0    0  0.20633133313E+02  0.11944228821E+01 -0.20952536387E+02  0.29430623802E+02  0.00000000000E+00 0.  1.
</event>
<event>
 5    1  0.6924865E-004  0.9118800E+02  0.7818608E-02  0.1130116E+00
         25   -1    0    0    0    0  0.00000000000E+00  0.00000000000E+00  0.99999998245E-14  0.12500000000E+03  0.12500000000E+03 0.  0.
        -13    1    3    3    0    0 -0.43221060952E+01  0.18017303903E+02 -0.55907773958E+02  0.58898168002E+02  0.10566000000E+00 0.  1.
         23    2    1    0    0    0 -0.34128503801E+01  0.21821164691E+02 -0.19435234065E+02  0.95579954124E+02  0.90939477297E+02 0.  0.
         13    1    3    3    0    0  0.90925571507E+00  0.38038607878E+01  0.36472539893E+02  0.36681786122E+02  0.10566000000E+00 0. -1.
         22    1    1    0    0    0  0.34128503801E+01 -0.21821164691E+02  0.19435234065E+02  0.29420045876E+02  0.00000000000E+00 0.  1.
</event>
<event>
 5    1  0.6924865E-004  0.9118800E+02  0.7818608E-02  0.1130116E+00
         25   -1    0    0    0    0  0.00000000000E+00  0.00000000000E+00  0.99999998245E-14  0.12500000000E+03  0.12500000000E+03 0.  0.
        -13    1    3    3    0    0  0.10308108323E+02  0.34514738502E+02 -0.47367050553E+02  0.59507755067E+02  0.10566000000E+00 0. -1.
         23    2    1    0    0    0  0.16031558778E+02  0.81929231781E+01 -0.15422040208E+02  0.10129400516E+03  0.98480969180E+02 0.  0.
         13    1    3    3    0    0  0.57234504552E+01 -0.26321815324E+02  0.31945010345E+02  0.41786250095E+02  0.10566000000E+00 0.  1.
         22    1    1    0    0    0 -0.16031558778E+02 -0.81929231781E+01  0.15422040208E+02  0.23705994837E+02  0.00000000000E+00 0. -1.
</event>
<event>
 5    1  0.6924865E-004  0.9118800E+02  0.7818608E-02  0.1130116E+00
         25   -1    0    0    0    0  0.00000000000E+00  0.00000000000E+00  0.99999998245E-14  0.12500000000E+03  0.12500000000E+03 0.  0.
        -13    1    3    3    0    0  0.10186703606E+02 -0.34596329000E+02 -0.30921501975E+02  0.47506056025E+02  0.10566000000E+00 0. -1.
         23    2    1    0    0    0 -0.90882546967E+01  0.11632527029E+02 -0.22190919430E+02  0.98347627429E+02  0.94667348422E+02 0.  0.
         13    1    3    3    0    0 -0.19274958303E+02  0.46228856028E+02  0.87305825451E+01  0.50841571404E+02  0.10566000000E+00 0.  1.
         22    1    1    0    0    0  0.90882546967E+01 -0.11632527029E+02  0.22190919430E+02  0.26652372571E+02  0.00000000000E+00 0.  1.
</event>
<event>
 5    1  0.6924865E-004  0.9118800E+02  0.7818608E-02  0.1130116E+00
         25   -1    0    0    0    0  0.00000000000E+00  0.00000000000E+00  0.99999998245E-14  0.12500000000E+03  0.12500000000E+03 0.  0.
        -13    1    3    3    0    0 -0.50984501611E+02 -0.21495794897E+02  0.12080413669E+02  0.56634231355E+02  0.10566000000E+00 0.  1.
         23    2    1    0    0    0 -0.24570886536E+02 -0.55037268376E+01 -0.13226654241E+02  0.96557710066E+02  0.92273655593E+02 0.  0.
         13    1    3    3    0    0  0.26413615075E+02  0.15992068059E+02 -0.25307067910E+02  0.39923478711E+02  0.10566000000E+00 0. -1.
         22    1    1    0    0    0  0.24570886536E+02  0.55037268376E+01  0.13226654241E+02  0.28442289934E+02  0.00000000000E+00 0.  1.
</event>
<event>
 5    1  0.6924865E-004  0.9118800E+02  0.7818608E-02  0.1130116E+00
         25   -1    0    0    0    0  0.00000000000E+00  0.00000000000E+00  0.99999998245E-14  0.12500000000E+03  0.12500000000E+03 0.  0.
        -13    1    3    3    0    0  0.28510009305E+02  0.38533473810E+02  0.40189766433E+01  0.48102105689E+02  0.10566000000E+00 0.  1.
         23    2    1    0    0    0 -0.11692923971E+02  0.29679678833E+02  0.13524076869E+02  0.90351645613E+02  0.83444061522E+02 0.  0.
         13    1    3    3    0    0 -0.40202933275E+02 -0.88537949774E+01  0.95051002254E+01  0.42249539924E+02  0.10566000000E+00 0. -1.
         22    1    1    0    0    0  0.11692923971E+02 -0.29679678833E+02 -0.13524076869E+02  0.34648354387E+02  0.00000000000E+00 0. -1.
</event>
<event>
 5    1  0.6924865E-004  0.9118800E+02  0.7818608E-02  0.1130116E+00
         25   -1    0    0    0    0  0.00000000000E+00  0.00000000000E+00  0.99999998245E-14  0.12500000000E+03  0.12500000000E+03 0.  0.
        -13    1    3    3    0    0 -0.17137671979E+02  0.43697742844E+02  0.14659764583E+02  0.49174306219E+02  0.10566000000E+00 0. -1.
         23    2    1    0    0    0  0.17557724438E+02  0.21640168732E+02 -0.78525014900E+01  0.96047757084E+02  0.91580234063E+02 0.  0.
         13    1    3    3    0    0  0.34695396417E+02 -0.22057574111E+02 -0.22512266073E+02  0.46873450865E+02  0.10566000000E+00 0.  1.
         22    1    1    0    0    0 -0.17557724438E+02 -0.21640168732E+02  0.78525014900E+01  0.28952242916E+02  0.00000000000E+00 0. -1.
</event>
<event>
 5    1  0.6924865E-004  0.9118800E+02  0.7818608E-02  0.1130116E+00
         25   -1    0    0    0    0  0.00000000000E+00  0.00000000000E+00  0.99999998245E-14  0.12500000000E+03  0.12500000000E+03 0.  0.
        -13    1    3    3    0    0 -0.56357284262E+01 -0.31461984744E+02 -0.40352973045E+02  0.51478068306E+02  0.10566000000E+00 0.  1.
         23    2    1    0    0    0 -0.10179111056E+02  0.10381332106E+02 -0.24611530032E+02  0.96414798082E+02  0.92079854042E+02 0.  0.
         13    1    3    3    0    0 -0.45433826297E+01  0.41843316850E+02  0.15741443013E+02  0.44936729776E+02  0.10566000000E+00 0. -1.
         22    1    1    0    0    0  0.10179111056E+02 -0.10381332106E+02  0.24611530032E+02  0.28585201918E+02  0.00000000000E+00 0.  1.
</event>
<event>
 5    1  0.6924865E-004  0.9118800E+02  0.7818608E-02  0.1130116E+00
         25   -1    0    0    0    0  0.00000000000E+00  0.00000000000E+00  0.99999998245E-14  0.12500000000E+03  0.12500000000E+03 0.  0.
        -13    1    3    3    0    0 -0.15310649402E+02  0.35830509188E+01  0.50933242054E+02  0.53305351974E+02  0.10566000000E+00 0. -1.
         23    2    1    0    0    0 -0.27366774494E+02 -0.80085887359E+01  0.15365925629E+02  0.92608805052E+02  0.86759444806E+02 0.  0.
         13    1    3    3    0    0 -0.12056125092E+02 -0.11591639655E+02 -0.35567316425E+02  0.39303453078E+02  0.10566000000E+00 0.  1.
         22    1    1    0    0    0  0.27366774494E+02  0.80085887359E+01 -0.15365925629E+02  0.32391194948E+02  0.00000000000E+00 0.  1.
</event>
<event>
 5    1  0.6924865E-004  0.9118800E+02  0.7818608E-02  0.1130116E+00
         25   -1    0    0    0    0  0.00000000000E+00  0.00000000000E+00  0.99999998245E-14  0.12500000000E+03  0.12500000000E+03 0.  0.
        -13    1    3    3    0    0  0.24403200256E+02  0.93281558020E+00 -0.31308233534E+02  0.39706460163E+02  0.10566000000E+00 0.  1.
         23    2    1    0    0    0 -0.19843198687E+02 -0.11485432813E+02  0.85408582232E+01  0.10053341135E+03  0.97510783184E+02 0.  0.
         13    1    3    3    0    0 -0.44246398943E+02 -0.12418248393E+02  0.39849091757E+02  0.60826951185E+02  0.10566000000E+00 0. -1.
         22    1    1    0    0    0  0.19843198687E+02  0.11485432813E+02 -0.85408582232E+01  0.24466588651E+02  0.00000000000E+00 0. -1.
</event>
<event>
 5    1  0.6924865E-004  0.9118800E+02  0.7818608E-02  0.1130116E+00
         25   -1    0    0    0    0  0.00000000000E+00  0.00000000000E+00  0.99999998245E-14  0.12500000000E+03  0.12500000000E+03 0.  0.
        -13    1    3    3    0    0  0.39425495743E+02 -0.59256704278E+01  0.13930526535E+02  0.42232144371E+02  0.10566000000E+00 0.  1.
         23    2    1    0    0    0 -0.14331712122E+02 -0.19662608082E+02  0.12289468744E+02  0.97741108406E+02  0.93863076348E+02 0.  0.
         13    1    3    3    0    0 -0.53757207865E+02 -0.13736937655E+02 -0.16410577913E+01  0.55508964035E+02  0.10566000000E+00 0. -1.
         22    1    1    0    0    0  0.14331712122E+02  0.19662608082E+02 -0.12289468744E+02  0.27258891594E+02  0.00000000000E+00 0. -1.
</event>
<event>
 5    1  0.6924865E-004  0.9118800E+02  0.7818608E-02  0.1130116E+00
         25   -1    0    0    0    0  0.00000000000E+00  0.00000000000E+00  0.99999998245E-14  0.12500000000E+03  0.12500000000E+03 0.  0.
        -13    1    3    3    0    0 -0.14849748190E+02 -0.38940524246E+02 -0.30749524434E+02  0.51792121668E+02  0.10566000000E+00 0. -1.
         23    2    1    0    0    0 -0.10015616406E+02 -0.26283100714E+02  0.10320549245E+02  0.95039564558E+02  0.90193631369E+02 0.  0.
         13    1    3    3    0    0  0.48341317842E+01  0.12657423532E+02  0.41070073679E+02  0.43247442891E+02  0.10566000000E+00 0.  1.
         22    1    1    0    0    0  0.10015616406E+02  0.26283100714E+02 -0.10320549245E+02  0.29960435442E+02  0.00000000000E+00 0. -1.
</event>
<event>
 5    1  0.6924865E-004  0.9118800E+02  0.7818608E-02  0.1130116E+00
         25   -1    0    0    0    0  0.00000000000E+00  0.00000000000E+00  0.99999998245E-14  0.12500000000E+03  0.12500000000E+03 0.  0.
        -13    1    3    3    0    0 -0.51416930192E+02 -0.19318539721E+02 -0.13708979336E+02  0.56611429639E+02  0.10566000000E+00 0.  1.
         23    2    1    0    0    0 -0.16813956832E+02  0.18873505558E+01  0.11641456689E+02  0.10446235772E+03  0.10242357849E+03 0.  0.
         13    1    3    3    0    0  0.34602973360E+02  0.21205890277E+02  0.25350436025E+02  0.47850928084E+02  0.10566000000E+00 0. -1.
         22    1    1    0    0    0  0.16813956832E+02 -0.18873505558E+01 -0.11641456689E+02  0.20537642277E+02  0.00000000000E+00 0. -1.
</event>
<event>
 5    1  0.6924865E-004  0.9118800E+02  0.7818608E-02  0.1130116E+00
         25   -1    0    0    0    0  0.00000000000E+00  0.00000000000E+00  0.99999998245E-14  0.12500000000E+03  0.12500000000E+03 0.  0.
        -13    1    3    3    0    0 -0.22711447768E+02 -0.11486232717E+02  0.26781404043E+02  0.36945881615E+02  0.10566000000E+00 0.  1.
         23    2    1    0    0    0  0.27822025038E+02  0.68358797849E+01  0.15963496888E+01  0.96306051823E+02  0.91932110581E+02 0.  0.
         13    1    3    3    0    0  0.50533472805E+02  0.18322112502E+02 -0.25185054355E+02  0.59360170209E+02  0.10566000000E+00 0. -1.
         22    1    1    0    0    0 -0.27822025038E+02 -0.68358797849E+01 -0.15963496888E+01  0.28693948177E+02  0.00000000000E+00 0. -1.
</event>
<event>
 5    1  0.6924865E-004  0.9118800E+02  0.7818608E-02  0.1130116E+00
         25   -1    0    0    0    0  0.00000000000E+00  0.00000000000E+00  0.99999998245E-14  0.12500000000E+03  0.12500000000E+03 0.  0.
        -13    1    3    3    0    0  0.47037321791E+02 -0.11071746524E+02  0.29548264471E+01  0.48413173576E+02  0.10566000000E+00 0. -1.
         23    2    1    0    0    0  0.49419824206E+01 -0.13732981525E+02 -0.22869350697E+02  0.97870216125E+02  0.94034855406E+02 0.  0.
         13    1    3    3    0    0 -0.42095339370E+02 -0.26612350007E+01 -0.25824177144E+02  0.49457042549E+02  0.10566000000E+00 0.  1.
         22    1    1    0    0    0 -0.49419824206E+01  0.13732981525E+02  0.22869350697E+02  0.27129783875E+02  0.00000000000E+00 0.  1.
</event>
<event>
 5    1  0.6924865E-004  0.9118800E+02  0.7818608E-02  0.1130116E+00
         25   -1    0    0    0    0  0.00000000000E+00  0.00000000000E+00  0.99999998245E-14  0.12500000000E+03  0.12500000000E+03 0.  0.
        -13    1    3    3    0    0 -0.33697170362E+02 -0.20458046838E+02  0.33297026503E+01  0.39561711978E+02  0.10566000000E+00 0. -1.
         23    2    1    0    0    0  0.15876745087E+01  0.16266354558E+02 -0.22914165847E+02  0.96854414247E+02  0.92674719107E+02 0.  0.
         13    1    3    3    0    0  0.35284844871E+02  0.36724401396E+02 -0.26243868497E+02  0.57292702268E+02  0.10566000000E+00 0.  1.
         22    1    1    0    0    0 -0.15876745087E+01 -0.16266354558E+02  0.22914165847E+02  0.28145585753E+02  0.00000000000E+00 0.  1.
</event>
<event>
 5    1  0.6924865E-004  0.9118800E+02  0.7818608E-02  0.1130116E+00
         25   -1    0    0    0    0  0.00000000000E+00  0.00000000000E+00  0.99999998245E-14  0.12500000000E+03  0.12500000000E+03 0.  0.
        -13    1    3    3    0    0  0.28540912461E+02 -0.40294033766E+02  0.84754305297E+01  0.50100268742E+02  0.10566000000E+00 0.  1.
         23    2    1    0    0    0 -0.11544247698E+02 -0.31045272217E+02  0.13569725155E+01  0.91850038366E+02  0.85659264482E+02 0.  0.
         13    1    3    3    0    0 -0.40085160159E+02  0.92487615494E+01 -0.71184580142E+01  0.41749769625E+02  0.10566000000E+00 0. -1.
         22    1    1    0    0    0  0.11544247698E+02  0.31045272217E+02 -0.13569725155E+01  0.33149961634E+02  0.00000000000E+00 0.  1.
</event>
<event>
 5    1  0.6924865E-004  0.9118800E+02  0.7818608E-02  0.1130116E+00
         25   -1    0    0    0    0  0.00000000000E+00  0.00000000000E+00  0.99999998245E-14  0.12500000000E+03  0.12500000000E+03 0.  0.
        -13    1    3    3    0    0  0.12889438692E+02  0.24859591013E+02 -0.27184236503E+02  0.39027308048E+02  0.10566000000E+00 0.  1.
         23    2    1    0    0    0  0.10377713054E+02  0.11113416450E+02  0.26471122116E+02  0.94472549083E+02  0.89404347045E+02 0.  0.
         13    1    3    3    0    0 -0.25117256374E+01 -0.13746174564E+02  0.53655358619E+02  0.55445241035E+02  0.10566000000E+00 0. -1.
         22    1    1    0    0    0 -0.10377713054E+02 -0.11113416450E+02 -0.26471122116E+02  0.30527450917E+02  0.00000000000E+00 0. -1.
</event>
<event>
 5    1  0.6924865E-004  0.9118800E+02  0.7818608E-02  0.1130116E+00
         25   -1    0    0    0    0  0.00000000000E+00  0.00000000000E+00  0.99999998245E-14  0.12500000000E+03  0.12500000000E+03 0.  0.
        -13    1    3    3    0    0 -0.14522953478E+02  0.48086803588E+02 -0.19799799490E+02  0.53993518879E+02  0.10566000000E+00 0. -1.
         23    2    1    0    0    0  0.16459126651E+02  0.23225375190E+02 -0.82403260291E+01  0.95365157738E+02  0.90643750112E+02 0.  0.
         13    1    3    3    0    0  0.30982080129E+02 -0.24861428398E+02  0.11559473461E+02  0.41371638859E+02  0.10566000000E+00 0.  1.
         22    1    1    0    0    0 -0.16459126651E+02 -0.23225375190E+02  0.82403260291E+01  0.29634842262E+02  0.00000000000E+00 0. -1.
</event>
<event>
 5    1  0.6924865E-004  0.9118800E+02  0.7818608E-02  0.1130116E+00
         25   -1    0    0    0    0  0.00000000000E+00  0.00000000000E+00  0.99999998245E-14  0.12500000000E+03  0.12500000000E+03 0.  0.
        -13    1    3    3    0    0 -0.48620367983E+02  0.11335616828E+02  0.20347307980E+01  0.49965865200E+02  0.10566000000E+00 0.  1.
         23    2    1    0    0    0 -0.66631718901E+01  0.28798883363E+02  0.68302904619E+00  0.95432449014E+02  0.90736499015E+02 0.  0.
         13    1    3    3    0    0  0.41957196093E+02  0.17463266535E+02 -0.13517017518E+01  0.45466583814E+02  0.10566000000E+00 0. -1.
         22    1    1    0    0    0  0.66631718901E+01 -0.28798883363E+02 -0.68302904619E+00  0.29567550986E+02  0.00000000000E+00 0. -1.
</event>
<event>
 5    1  0.6924865E-004  0.9118800E+02  0.7818608E-02  0.1130116E+00
         25   -1    0    0    0    0  0.00000000000E+00  0.00000000000E+00  0.99999998245E-14  0.12500000000E+03  0.12500000000E+03 0.  0.
        -13    1    3    3    0    0 -0.21047835773E+02 -0.44400706935E+02 -0.32979472426E+02  0.59178466798E+02  0.10566000000E+00 0. -1.
         23    2    1    0    0    0 -0.15821454606E+02 -0.94511089643E+01 -0.22247841400E+02  0.96110411331E+02  0.91665712416E+02 0.  0.
         13    1    3    3    0    0  0.52263811671E+01  0.34949597971E+02  0.10731631026E+02  0.36931944532E+02  0.10566000000E+00 0.  1.
         22    1    1    0    0    0  0.15821454606E+02  0.94511089643E+01  0.22247841400E+02  0.28889588669E+02  0.00000000000E+00 0. -1.
</event>
<event>
 5    1  0.6924865E-004  0.9118800E+02  0.7818608E-02  0.1130116E+00
         25   -1    0    0    0    0  0.00000000000E+00  0.00000000000E+00  0.99999998245E-14  0.12500000000E+03  0.12500000000E+03 0.  0.
        -13    1    3    3    0    0 -0.14733031411E+02  0.30169856553E+02  0.50549871394E+02  0.60684290561E+02  0.10566000000E+00 0. -1.
         23    2    1    0    0    0 -0.91048713222E+01  0.21687803111E+02  0.16383350272E+02  0.96335149543E+02  0.91971666212E+02 0.  0.
         13    1    3    3    0    0  0.56281600886E+01 -0.84820534427E+01 -0.34166521121E+02  0.35650858982E+02  0.10566000000E+00 0.  1.
         22    1    1    0    0    0  0.91048713222E+01 -0.21687803111E+02 -0.16383350272E+02  0.28664850457E+02  0.00000000000E+00 0. -1.
</event>
<event>
 5    1  0.6924865E-004  0.9118800E+02  0.7818608E-02  0.1130116E+00
         25   -1    0    0    0    0  0.00000000000E+00  0.00000000000E+00  0.99999998245E-14  0.12500000000E+03  0.12500000000E+03 0.  0.
        -13    1    3    3    0    0 -0.63330632968E+01 -0.12680183284E+02  0.29775984737E+02  0.32977494900E+02  0.10566000000E+00 0.  1.
         23    2    1    0    0    0 -0.27567467477E+01  0.13792791912E+02 -0.26346844321E+02  0.95133681730E+02  0.90323974849E+02 0.  0.
         13    1    3    3    0    0  0.35763165491E+01  0.26472975196E+02 -0.56122829057E+02  0.62156186830E+02  0.10566000000E+00 0. -1.
         22    1    1    0    0    0  0.27567467477E+01 -0.13792791912E+02  0.26346844321E+02  0.29866318270E+02  0.00000000000E+00 0. -1.
</event>
<event>
 5    1  0.6924865E-004  0.9118800E+02  0.7818608E-02  0.1130116E+00
         25   -1    0    0    0    0  0.00000000000E+00  0.00000000000E+00  0.99999998245E-14  0.12500000000E+03  0.12500000000E+03 0.  0.
        -13    1    3    3    0    0  0.20379643064E+02 -0.44875873963E+02 -0.43967994441E+00  0.49288724855E+02  0.10566000000E+00 0. -1.
         23    2    1    0    0    0 -0.19675685737E+02 -0.22265789866E+02 -0.10317788160E+00  0.95286221155E+02  0.90534829148E+02 0.  0.
         13    1    3    3    0    0 -0.40055328801E+02  0.22610084097E+02  0.33650206281E+00  0.45997496300E+02  0.10566000000E+00 0.  1.
         22    1    1    0    0    0  0.19675685737E+02  0.22265789866E+02  0.10317788160E+00  0.29713778845E+02  0.00000000000E+00 0. -1.
</event>
<event>
 5    1  0.6924865E-004  0.9118800E+02  0.7818608E-02  0.1130116E+00
         25   -1    0    0    0    0  0.00000000000E+00  0.00000000000E+00  0.99999998245E-14  0.12500000000E+03  0.12500000000E+03 0.  0.
        -13    1    3    3    0    0  0.42919769039E+02  0.12468486799E+02 -0.35216992931E+02  0.56901823280E+02  0.10566000000E+00 0.  1.
         23    2    1    0    0    0 -0.31764025800E+01  0.47455788604E+01 -0.17002138698E+02  0.10706448294E+03  0.10555150749E+03 0.  0.
         13    1    3    3    0    0 -0.46096171619E+02 -0.77229079390E+01  0.18214854234E+02  0.50162659656E+02  0.10566000000E+00 0. -1.
         22    1    1    0    0    0  0.31764025800E+01 -0.47455788604E+01  0.17002138698E+02  0.17935517064E+02  0.00000000000E+00 0.  1.
</event>
<event>
 5    1  0.6924865E-004  0.9118800E+02  0.7818608E-02  0.1130116E+00
         25   -1    0    0    0    0  0.00000000000E+00  0.00000000000E+00  0.99999998245E-14  0.12500000000E+03  0.12500000000E+03 0.  0.
        -13    1    3    3    0    0 -0.27611509248E+02  0.28553513473E+02 -0.40061747757E+02  0.56415010166E+02  0.10566000000E+00 0.  1.
         23    2    1    0    0    0  0.48569475637E+01  0.59934779700E+01 -0.25188016499E+02  0.98657109252E+02  0.95075114057E+02 0.  0.
         13    1    3    3    0    0  0.32468456812E+02 -0.22560035503E+02  0.14873731258E+02  0.42242099086E+02  0.10566000000E+00 0. -1.
         22    1    1    0    0    0 -0.48569475637E+01 -0.59934779700E+01  0.25188016499E+02  0.26342890748E+02  0.00000000000E+00 0.  1.
</event>
<event>
 5    1  0.6924865E-004  0.9118800E+02  0.7818608E-02  0.1130116E+00
         25   -1    0    0    0    0  0.00000000000E+00  0.00000000000E+00  0.99999998245E-14  0.12500000000E+03  0.12500000000E+03 0.  0.
        -13    1    3    3    0    0  0.17138336277E+02  0.23470828607E+02 -0.14238009711E+02  0.32362547032E+02  0.10566000000E+00 0.  1.
         23    2    1    0    0    0 -0.33310511414E+02 -0.10612341517E+01 -0.14970272552E+02  0.88464736913E+02  0.80567885837E+02 0.  0.
         13    1    3    3    0    0 -0.50448847691E+02 -0.24532062759E+02 -0.73226284104E+00  0.56102189881E+02  0.10566000000E+00 0. -1.
         22    1    1    0    0    0  0.33310511414E+02  0.10612341517E+01  0.14970272552E+02  0.36535263087E+02  0.00000000000E+00 0. -1.
</event>
<event>
 5    1  0.6924865E-004  0.9118800E+02  0.7818608E-02  0.1130116E+00
         25   -1    0    0    0    0  0.00000000000E+00  0.00000000000E+00  0.99999998245E-14  0.12500000000E+03  0.12500000000E+03 0.  0.
        -13    1    3    3    0    0  0.35024606629E+02  0.91344190691E+01  0.42928148178E+02  0.56151560542E+02  0.10566000000E+00 0.  1.
         23    2    1    0    0    0  0.10363317263E+01 -0.25444661346E+01  0.30793959472E+02  0.94083722227E+02  0.88859048818E+02 0.  0.
         13    1    3    3    0    0 -0.33988274903E+02 -0.11678885204E+02 -0.12134188706E+02  0.37932161685E+02  0.10566000000E+00 0. -1.
         22    1    1    0    0    0 -0.10363317263E+01  0.25444661346E+01 -0.30793959472E+02  0.30916277773E+02  0.00000000000E+00 0.  1.
</event>
<event>
 5    1  0.6924865E-004  0.9118800E+02  0.7818608E-02  0.1130116E+00
         25   -1    0    0    0    0  0.00000000000E+00  0.00000000000E+00  0.99999998245E-14  0.12500000000E+03  0.12500000000E+03 0.  0.
        -13    1    3    3    0    0  0.13730816449E+02  0.13764953099E+02 -0.28020934433E+02  0.34105618081E+02  0.10566000000E+00 0.  1.
         23    2    1    0    0    0 -0.71423748213E+01 -0.24695816580E+02  0.14804280947E+02  0.95334133942E+02  0.90600957420E+02 0.  0.
         13    1    3    3    0    0 -0.20873191270E+02 -0.38460769679E+02  0.42825215380E+02  0.61228515860E+02  0.10566000000E+00 0. -1.
         22    1    1    0    0    0  0.71423748213E+01  0.24695816580E+02 -0.14804280947E+02  0.29665866058E+02  0.00000000000E+00 0. -1.
</event>
<event>
 5    1  0.6924865E-004  0.9118800E+02  0.7818608E-02  0.1130116E+00
         25   -1    0    0    0    0  0.00000000000E+00  0.00000000000E+00  0.99999998245E-14  0.12500000000E+03  0.12500000000E+03 0.  0.
        -13    1    3    3    0    0 -0.27976921328E+02 -0.15917643597E+02  0.24880221983E+02  0.40683118300E+02  0.10566000000E+00 0. -1.
         23    2    1    0    0    0 -0.38443498583E+01 -0.42538351557E+02  0.43466362560E+01  0.82067685530E+02  0.69942271786E+02 0.  0.
         13    1    3    3    0    0  0.24132571469E+02 -0.26620707960E+02 -0.20533585727E+02  0.41384567230E+02  0.10566000000E+00 0.  1.
         22    1    1    0    0    0  0.38443498583E+01  0.42538351557E+02 -0.43466362560E+01  0.42932314470E+02  0.00000000000E+00 0.  1.
</event>
<event>
 5    1  0.6924865E-004  0.9118800E+02  0.7818608E-02  0.1130116E+00
         25   -1    0    0    0    0  0.00000000000E+00  0.00000000000E+00  0.99999998245E-14  0.12500000000E+03  0.12500000000E+03 0.  0.
        -13    1    3    3    0    0 -0.23085820811E+02 -0.25886762552E+02  0.15769043874E+02  0.38101883243E+02  0.10566000000E+00 0. -1.
         23    2    1    0    0    0  0.26449190545E+02  0.47772562448E+01  0.84945113928E+01  0.96812439241E+02  0.92618085763E+02 0.  0.
         13    1    3    3    0    0  0.49535011356E+02  0.30664018797E+02 -0.72745324810E+01  0.58710555998E+02  0.10566000000E+00 0.  1.
         22    1    1    0    0    0 -0.26449190545E+02 -0.47772562448E+01 -0.84945113928E+01  0.28187560759E+02  0.00000000000E+00 0.  1.
</event>
<event>
 5    1  0.6924865E-004  0.9118800E+02  0.7818608E-02  0.1130116E+00
         25   -1    0    0    0    0  0.00000000000E+00  0.00000000000E+00  0.99999998245E-14  0.12500000000E+03  0.12500000000E+03 0.  0.
        -13    1    3    3    0    0  0.15363059778E+02 -0.39774754827E+02 -0.53504022449E+00  0.42642140652E+02  0.10566000000E+00 0.  1.
         23    2    1    0    0    0  0.15997375666E+02  0.11104488569E+02  0.19605678359E+02  0.97366536256E+02  0.93362915893E+02 0.  0.
         13    1    3    3    0    0  0.63431588815E+00  0.50879243396E+02  0.20140718583E+02  0.54724395604E+02  0.10566000000E+00 0. -1.
         22    1    1    0    0    0 -0.15997375666E+02 -0.11104488569E+02 -0.19605678359E+02  0.27633463744E+02  0.00000000000E+00 0. -1.
</event>
<event>
 5    1  0.6924865E-004  0.9118800E+02  0.7818608E-02  0.1130116E+00
         25   -1    0    0    0    0  0.00000000000E+00  0.00000000000E+00  0.99999998245E-14  0.12500000000E+03  0.12500000000E+03 0.  0.
        -13    1    3    3    0    0 -0.37371528805E+02  0.16832857057E+02 -0.16735886735E+02  0.44272760370E+02  0.10566000000E+00 0. -1.
         23    2    1    0    0    0  0.13921512440E+02  0.19173081096E+02 -0.17366189441E+02  0.95623136943E+02  0.90998814475E+02 0.  0.
         13    1    3    3    0    0  0.51293041245E+02  0.23402240386E+01 -0.63030270649E+00  0.51350376574E+02  0.10566000000E+00 0.  1.
         22    1    1    0    0    0 -0.13921512440E+02 -0.19173081096E+02  0.17366189441E+02  0.29376863057E+02  0.00000000000E+00 0. -1.
</event>
<event>
 5    1  0.6924865E-004  0.9118800E+02  0.7818608E-02  0.1130116E+00
         25   -1    0    0    0    0  0.00000000000E+00  0.00000000000E+00  0.99999998245E-14  0.12500000000E+03  0.12500000000E+03 0.  0.
        -13    1    3    3    0    0  0.28755375989E+02  0.73532505623E+01 -0.15940235274E+02  0.33690417135E+02  0.10566000000E+00 0.  1.
         23    2    1    0    0    0 -0.18935780134E+02  0.18529924087E+02  0.17721952365E+02  0.93125410566E+02  0.87500586521E+02 0.  0.
         13    1    3    3    0    0 -0.47691156123E+02  0.11176673525E+02  0.33662187639E+02  0.59434993431E+02  0.10566000000E+00 0. -1.
         22    1    1    0    0    0  0.18935780134E+02 -0.18529924087E+02 -0.17721952365E+02  0.31874589434E+02  0.00000000000E+00 0. -1.
</event>
<event>
 5    1  0.6924865E-004  0.9118800E+02  0.7818608E-02  0.1130116E+00
         25   -1    0    0    0    0  0.00000000000E+00  0.00000000000E+00  0.99999998245E-14  0.12500000000E+03  0.12500000000E+03 0.  0.
        -13    1    3    3    0    0 -0.31657409557E+01  0.40186490959E+02 -0.11344946286E+02  0.41877141039E+02  0.10566000000E+00 0. -1.
         23    2    1    0    0    0 -0.22392687929E+01 -0.12057708712E+02 -0.26090932682E+02  0.96170511064E+02  0.91747630847E+02 0.  0.
         13    1    3    3    0    0  0.92647216279E+00 -0.52244199670E+02 -0.14745986395E+02  0.54293370025E+02  0.10566000000E+00 0.  1.
         22    1    1    0    0    0  0.22392687929E+01  0.12057708712E+02  0.26090932682E+02  0.28829488936E+02  0.00000000000E+00 0. -1.
</event>
<event>
 5    1  0.6924865E-004  0.9118800E+02  0.7818608E-02  0.1130116E+00
         25   -1    0    0    0    0  0.00000000000E+00  0.00000000000E+00  0.99999998245E-14  0.12500000000E+03  0.12500000000E+03 0.  0.
        -13    1    3    3    0    0  0.17098473444E+02  0.21943047252E+02 -0.25869728817E+02  0.37988276480E+02  0.10566000000E+00 0.  1.
         23    2    1    0    0    0  0.46740737999E+01 -0.24744616146E+02  0.97331512896E+01  0.98002273649E+02  0.94210235177E+02 0.  0.
         13    1    3    3    0    0 -0.12424399644E+02 -0.46687663399E+02  0.35602880107E+02  0.60013997168E+02  0.10566000000E+00 0. -1.
         22    1    1    0    0    0 -0.46740737999E+01  0.24744616146E+02 -0.97331512896E+01  0.26997726351E+02  0.00000000000E+00 0. -1.
</event>
<event>
 5    1  0.6924865E-004  0.9118800E+02  0.7818608E-02  0.1130116E+00
         25   -1    0    0    0    0  0.00000000000E+00  0.00000000000E+00  0.99999998245E-14  0.12500000000E+03  0.12500000000E+03 0.  0.
        -13    1    3    3    0    0  0.76563701885E+01  0.29247061638E+02  0.11650469175E+02  0.32399926156E+02  0.10566000000E+00 0.  1.
         23    2    1    0    0    0 -0.10144656282E+02 -0.24389211417E+02 -0.14717396678E+02  0.94761788254E+02  0.89807834087E+02 0.  0.
         13    1    3    3    0    0 -0.17801026470E+02 -0.53636273055E+02 -0.26367865853E+02  0.62361862098E+02  0.10566000000E+00 0. -1.
         22    1    1    0    0    0  0.10144656282E+02  0.24389211417E+02  0.14717396678E+02  0.30238211746E+02  0.00000000000E+00 0. -1.
</event>
<event>
 5    1  0.6924865E-004  0.9118800E+02  0.7818608E-02  0.1130116E+00
         25   -1    0    0    0    0  0.00000000000E+00  0.00000000000E+00  0.99999998245E-14  0.12500000000E+03  0.12500000000E+03 0.  0.
        -13    1    3    3    0    0  0.46106702709E+02  0.28737692881E+02 -0.29040069047E+02  0.61603732039E+02  0.10566000000E+00 0. -1.
         23    2    1    0    0    0  0.16763584703E+02  0.19116882454E+02 -0.14415174145E+02  0.95772098733E+02  0.91203205444E+02 0.  0.
         13    1    3    3    0    0 -0.29343118007E+02 -0.96208104273E+01  0.14624894901E+02  0.34168366694E+02  0.10566000000E+00 0.  1.
         22    1    1    0    0    0 -0.16763584703E+02 -0.19116882454E+02  0.14415174145E+02  0.29227901267E+02  0.00000000000E+00 0. -1.
</event>
<event>
 5    1  0.6924865E-004  0.9118800E+02  0.7818608E-02  0.1130116E+00
         25   -1    0    0    0    0  0.00000000000E+00  0.00000000000E+00  0.99999998245E-14  0.12500000000E+03  0.12500000000E+03 0.  0.
        -13    1    3    3    0    0  0.22178903877E+02  0.18694684727E+02 -0.14843038522E+02  0.32584075418E+02  0.10566000000E+00 0.  1.
         23    2    1    0    0    0 -0.68705637587E+01 -0.31853246698E+02 -0.91024355995E+01  0.91166757391E+02  0.84656301288E+02 0.  0.
         13    1    3    3    0    0 -0.29049467635E+02 -0.50547931425E+02  0.57406029229E+01  0.58582681974E+02  0.10566000000E+00 0. -1.
         22    1    1    0    0    0  0.68705637587E+01  0.31853246698E+02  0.91024355995E+01  0.33833242609E+02  0.00000000000E+00 0. -1.
</event>
<event>
 5    1  0.6924865E-004  0.9118800E+02  0.7818608E-02  0.1130116E+00
         25   -1    0    0    0    0  0.00000000000E+00  0.00000000000E+00  0.99999998245E-14  0.12500000000E+03  0.12500000000E+03 0.  0.
        -13    1    3    3    0    0  0.18702121122E+02 -0.59020163836E+02  0.73148267498E+00  0.61916841850E+02  0.10566000000E+00 0.  1.
         23    2    1    0    0    0  0.10766191363E+02 -0.28282618060E+02 -0.54281490637E+01  0.94254558662E+02  0.89099044133E+02 0.  0.
         13    1    3    3    0    0 -0.79359297586E+01  0.30737545776E+02 -0.61596317387E+01  0.32337716812E+02  0.10566000000E+00 0. -1.
         22    1    1    0    0    0 -0.10766191363E+02  0.28282618060E+02  0.54281490637E+01  0.30745441338E+02  0.00000000000E+00 0.  1.
</event>
<event>
 5    1  0.6924865E-004  0.9118800E+02  0.7818608E-02  0.1130116E+00
         25   -1    0    0    0    0  0.00000000000E+00  0.00000000000E+00  0.99999998245E-14  0.12500000000E+03  0.12500000000E+03 0.  0.
        -13    1    3    3    0    0  0.12652373382E+02  0.36234873346E+02 -0.84776041344E+01  0.39305591644E+02  0.10566000000E+00 0. -1.
         23    2    1    0    0    0 -0.63544697045E+01 -0.78711210988E+01  0.25121094784E+02  0.97918581357E+02  0.94099125072E+02 0.  0.
         13    1    3    3    0    0 -0.19006843087E+02 -0.44105994445E+02  0.33598698918E+02  0.58612989713E+02  0.10566000000E+00 0.  1.
         22    1    1    0    0    0  0.63544697045E+01  0.78711210988E+01 -0.25121094784E+02  0.27081418643E+02  0.00000000000E+00 0.  1.
</event>
<event>
 5    1  0.6924865E-004  0.9118800E+02  0.7818608E-02  0.1130116E+00
         25   -1    0    0    0    0  0.00000000000E+00  0.00000000000E+00  0.99999998245E-14  0.12500000000E+03  0.12500000000E+03 0.  0.
        -13    1    3    3    0    0  0.13945040305E+02 -0.25996252632E+02  0.46329958176E+02  0.54924907726E+02  0.10566000000E+00 0.  1.
         23    2    1    0    0    0  0.15655834875E+02  0.79307129807E+01  0.22706648169E+02  0.96301685675E+02  0.91926173742E+02 0.  0.
         13    1    3    3    0    0  0.17107945701E+01  0.33926965613E+02 -0.23623310007E+02  0.41376777950E+02  0.10566000000E+00 0. -1.
         22    1    1    0    0    0 -0.15655834875E+02 -0.79307129807E+01 -0.22706648169E+02  0.28698314325E+02  0.00000000000E+00 0.  1.
</event>
<event>
 5    1  0.6924865E-004  0.9118800E+02  0.7818608E-02  0.1130116E+00
         25   -1    0    0    0    0  0.00000000000E+00  0.00000000000E+00  0.99999998245E-14  0.12500000000E+03  0.12500000000E+03 0.  0.
        -13    1    3    3    0    0  0.69675724145E+01 -0.24766408820E+02  0.31610904477E+02  0.40757606861E+02  0.10566000000E+00 0. -1.
         23    2    1    0    0    0 -0.25694897415E+02  0.10980974733E+02  0.32640382669E+01  0.96867038815E+02  0.92691745607E+02 0.  0.
         13    1    3    3    0    0 -0.32662469829E+02  0.35747383553E+02 -0.28346866210E+02  0.56109431954E+02  0.10566000000E+00 0.  1.
         22    1    1    0    0    0  0.25694897415E+02 -0.10980974733E+02 -0.32640382669E+01  0.28132961185E+02  0.00000000000E+00 0.  1.
</event>
<event>
 5    1  0.6924865E-004  0.9118800E+02  0.7818608E-02  0.1130116E+00
         25   -1    0    0    0    0  0.00000000000E+00  0.00000000000E+00  0.99999998245E-14  0.12500000000E+03  0.12500000000E+03 0.  0.
        -13    1    3    3    0    0  0.22818517300E+02 -0.66702242717E+00  0.23336619906E+02  0.32645652748E+02  0.10566000000E+00 0. -1.
         23    2    1    0    0    0 -0.19733278269E+02 -0.99469387578E+01 -0.20799987271E+02  0.94652292799E+02  0.89655302129E+02 0.  0.
         13    1    3    3    0    0 -0.42551795569E+02 -0.92799163306E+01 -0.44136607177E+02  0.62006640051E+02  0.10566000000E+00 0.  1.
         22    1    1    0    0    0  0.19733278269E+02  0.99469387578E+01  0.20799987271E+02  0.30347707201E+02  0.00000000000E+00 0.  1.
</event>
<event>
 5    1  0.6924865E-004  0.9118800E+02  0.7818608E-02  0.1130116E+00
         25   -1    0    0    0    0  0.00000000000E+00  0.00000000000E+00  0.99999998245E-14  0.12500000000E+03  0.12500000000E+03 0.  0.
        -13    1    3    3    0    0  0.26045617259E+02 -0.14898678294E+02  0.37886608481E+02  0.48329608518E+02  0.10566000000E+00 0.  1.
         23    2    1    0    0    0  0.94355416632E+01  0.23226009642E+02  0.14275531133E+02  0.96150948725E+02  0.91720974598E+02 0.  0.
         13    1    3    3    0    0 -0.16610075596E+02  0.38124687936E+02 -0.23611077348E+02  0.47821340206E+02  0.10566000000E+00 0. -1.
         22    1    1    0    0    0 -0.94355416632E+01 -0.23226009642E+02 -0.14275531133E+02  0.28849051275E+02  0.00000000000E+00 0.  1.
</event>
<event>
 5    1  0.6924865E-004  0.9118800E+02  0.7818608E-02  0.1130116E+00
         25   -1    0    0    0    0  0.00000000000E+00  0.00000000000E+00  0.99999998245E-14  0.12500000000E+03  0.12500000000E+03 0.  0.
        -13    1    3    3    0    0 -0.20947833510E+02 -0.18934132414E+02  0.54693450964E+02  0.61552399152E+02  0.10566000000E+00 0. -1.
         23    2    1    0    0    0 -0.14158563893E+02 -0.25401367973E+01  0.25859524937E+02  0.95408915930E+02  0.90704073682E+02 0.  0.
         13    1    3    3    0    0  0.67892696168E+01  0.16393995616E+02 -0.28833926027E+02  0.33856516778E+02  0.10566000000E+00 0.  1.
         22    1    1    0    0    0  0.14158563893E+02  0.25401367973E+01 -0.25859524937E+02  0.29591084070E+02  0.00000000000E+00 0. -1.
</event>
<event>
 5    1  0.6924865E-004  0.9118800E+02  0.7818608E-02  0.1130116E+00
         25   -1    0    0    0    0  0.00000000000E+00  0.00000000000E+00  0.99999998245E-14  0.12500000000E+03  0.12500000000E+03 0.  0.
        -13    1    3    3    0    0  0.41673113389E+02  0.12666351544E+02  0.44468831409E+02  0.62246067923E+02  0.10566000000E+00 0.  1.
         23    2    1    0    0    0  0.22490596843E+02  0.53887053852E+01  0.18243402403E+02  0.95543475709E+02  0.90889322405E+02 0.  0.
         13    1    3    3    0    0 -0.19182516546E+02 -0.72776461591E+01 -0.26225429006E+02  0.33297407786E+02  0.10566000000E+00 0. -1.
         22    1    1    0    0    0 -0.22490596843E+02 -0.53887053852E+01 -0.18243402403E+02  0.29456524291E+02  0.00000000000E+00 0.  1.
</event>
<event>
 5    1  0.6924865E-004  0.9118800E+02  0.7818608E-02  0.1130116E+00
         25   -1    0    0    0    0  0.00000000000E+00  0.00000000000E+00  0.99999998245E-14  0.12500000000E+03  0.12500000000E+03 0.  0.
        -13    1    3    3    0    0  0.22315359602E+01  0.31063013819E+02 -0.41609029797E+02  0.51973196024E+02  0.10566000000E+00 0.  1.
         23    2    1    0    0    0 -0.20307763798E+02 -0.34106415523E+00 -0.21022332386E+02  0.95768851302E+02  0.91198754518E+02 0.  0.
         13    1    3    3    0    0 -0.22539299758E+02 -0.31404077974E+02  0.20586697410E+02  0.43795655279E+02  0.10566000000E+00 0. -1.
         22    1    1    0    0    0  0.20307763798E+02  0.34106415523E+00  0.21022332386E+02  0.29231148698E+02  0.00000000000E+00 0.  1.
</event>
<event>
 5    1  0.6924865E-004  0.9118800E+02  0.7818608E-02  0.1130116E+00
         25   -1    0    0    0    0  0.00000000000E+00  0.00000000000E+00  0.99999998245E-14  0.12500000000E+03  0.12500000000E+03 0.  0.
        -13    1    3    3    0    0  0.36703952054E+02 -0.10014876382E+02  0.80361765230E+01  0.38885333256E+02  0.10566000000E+00 0. -1.
         23    2    1    0    0    0 -0.18953815279E+02 -0.20869292710E+02 -0.29777101616E+01  0.96651433023E+02  0.92400531686E+02 0.  0.
         13    1    3    3    0    0 -0.55657767333E+02 -0.10854416328E+02 -0.11013886685E+02  0.57766099767E+02  0.10566000000E+00 0.  1.
         22    1    1    0    0    0  0.18953815279E+02  0.20869292710E+02  0.29777101616E+01  0.28348566977E+02  0.00000000000E+00 0.  1.
</event>
<event>
 5    1  0.6924865E-004  0.9118800E+02  0.7818608E-02  0.1130116E+00
         25   -1    0    0    0    0  0.00000000000E+00  0.00000000000E+00  0.99999998245E-14  0.12500000000E+03  0.12500000000E+03 0.  0.
        -13    1    3    3    0    0 -0.39985752546E+02 -0.31323705220E+02 -0.14269237250E+02  0.52760375388E+02  0.10566000000E+00 0.  1.
         23    2    1    0    0    0 -0.22538729364E+02 -0.58358316833E+01  0.16582184312E+02  0.96416436728E+02  0.92082078506E+02 0.  0.
         13    1    3    3    0    0  0.17447023182E+02  0.25487873536E+02  0.30851421562E+02  0.43656061340E+02  0.10566000000E+00 0. -1.
         22    1    1    0    0    0  0.22538729364E+02  0.58358316833E+01 -0.16582184312E+02  0.28583563272E+02  0.00000000000E+00 0. -1.
</event>
<event>
 5    1  0.6924865E-004  0.9118800E+02  0.7818608E-02  0.1130116E+00
         25   -1    0    0    0    0  0.00000000000E+00  0.00000000000E+00  0.99999998245E-14  0.12500000000E+03  0.12500000000E+03 0.  0.
        -13    1    3    3    0    0  0.39483288369E+02  0.16521782707E+02  0.14076260105E+02  0.45056094226E+02  0.10566000000E+00 0.  1.
         23    2    1    0    0    0  0.19438152431E+02  0.17263127052E+02  0.39667848272E+02  0.77572207388E+02  0.61384459328E+02 0.  0.
         13    1    3    3    0    0 -0.20045135939E+02  0.74134434474E+00  0.25591588167E+02  0.32516113162E+02  0.10566000000E+00 0. -1.
         22    1    1    0    0    0 -0.19438152431E+02 -0.17263127052E+02 -0.39667848272E+02  0.47427792612E+02  0.00000000000E+00 0.  1.
</event>
<event>
 5    1  0.6924865E-004  0.9118800E+02  0.7818608E-02  0.1130116E+00
         25   -1    0    0    0    0  0.00000000000E+00  0.00000000000E+00  0.99999998245E-14  0.12500000000E+03  0.12500000000E+03 0.  0.
        -13    1    3    3    0    0  0.27413657940E+02  0.21042101152E+02 -0.47174081320E+02  0.58478062339E+02  0.10566000000E+00 0. -1.
         23    2    1    0    0    0  0.19161627735E+02 -0.47299051385E+01 -0.22097080524E+02  0.95371956735E+02  0.90653125614E+02 0.  0.
         13    1    3    3    0    0 -0.82520302059E+01 -0.25772006290E+02  0.25077000796E+02  0.36893894396E+02  0.10566000000E+00 0.  1.
         22    1    1    0    0    0 -0.19161627735E+02  0.47299051385E+01  0.22097080524E+02  0.29628043265E+02  0.00000000000E+00 0. -1.
</event>
<event>
 5    1  0.6924865E-004  0.9118800E+02  0.7818608E-02  0.1130116E+00
         25   -1    0    0    0    0  0.00000000000E+00  0.00000000000E+00  0.99999998245E-14  0.12500000000E+03  0.12500000000E+03 0.  0.
        -13    1    3    3    0    0  0.13429870682E+02  0.30260094935E+02  0.20988754059E+02  0.39199154748E+02  0.10566000000E+00 0. -1.
         23    2    1    0    0    0 -0.27617572504E+02 -0.19224904607E+00 -0.56120943907E+01  0.96817330251E+02  0.92624686574E+02 0.  0.
         13    1    3    3    0    0 -0.41047443186E+02 -0.30452343981E+02 -0.26600848450E+02  0.57618175503E+02  0.10566000000E+00 0.  1.
         22    1    1    0    0    0  0.27617572504E+02  0.19224904607E+00  0.56120943907E+01  0.28182669749E+02  0.00000000000E+00 0.  1.
</event>
<event>
 5    1  0.6924865E-004  0.9118800E+02  0.7818608E-02  0.1130116E+00
         25   -1    0    0    0    0  0.00000000000E+00  0.00000000000E+00  0.99999998245E-14  0.12500000000E+03  0.12500000000E+03 0.  0.
        -13    1    3    3    0    0  0.17934753708E+02 -0.34324094877E+01  0.27512742939E+02  0.33021190372E+02  0.10566000000E+00 0.  1.
         23    2    1    0    0    0  0.22802363462E+02  0.78861773560E+01 -0.26930998074E+02  0.88841761243E+02  0.81150725879E+02 0.  0.
         13    1    3    3    0    0  0.48676097537E+01  0.11318586844E+02 -0.54443741013E+02  0.55820570872E+02  0.10566000000E+00 0. -1.
         22    1    1    0    0    0 -0.22802363462E+02 -0.78861773560E+01  0.26930998074E+02  0.36158238757E+02  0.00000000000E+00 0. -1.
</event>
<event>
 5    1  0.6924865E-004  0.9118800E+02  0.7818608E-02  0.1130116E+00
         25   -1    0    0    0    0  0.00000000000E+00  0.00000000000E+00  0.99999998245E-14  0.12500000000E+03  0.12500000000E+03 0.  0.
        -13    1    3    3    0    0 -0.27764256010E+02  0.30103265567E+02 -0.76514422750E+01  0.41660727821E+02  0.10566000000E+00 0.  1.
         23    2    1    0    0    0 -0.21996156542E+01 -0.13726921643E+02 -0.25917540448E+02  0.95589362644E+02  0.90952408770E+02 0.  0.
         13    1    3    3    0    0  0.25564640356E+02 -0.43830187211E+02 -0.18266098172E+02  0.53928634824E+02  0.10566000000E+00 0. -1.
         22    1    1    0    0    0  0.21996156542E+01  0.13726921643E+02  0.25917540448E+02  0.29410637356E+02  0.00000000000E+00 0. -1.
</event>
<event>
 5    1  0.6924865E-004  0.9118800E+02  0.7818608E-02  0.1130116E+00
         25   -1    0    0    0    0  0.00000000000E+00  0.00000000000E+00  0.99999998245E-14  0.12500000000E+03  0.12500000000E+03 0.  0.
        -13    1    3    3    0    0 -0.32359902166E+02  0.23674632377E+02 -0.23172389394E+02  0.46310066732E+02  0.10566000000E+00 0.  1.
         23    2    1    0    0    0 -0.35736320698E+02 -0.12781859186E+02 -0.66910196456E+01  0.86461314434E+02  0.77397213183E+02 0.  0.
         13    1    3    3    0    0 -0.33764185319E+01 -0.36456491563E+02  0.16481369749E+02  0.40151247702E+02  0.10566000000E+00 0. -1.
         22    1    1    0    0    0  0.35736320698E+02  0.12781859186E+02  0.66910196456E+01  0.38538685566E+02  0.00000000000E+00 0.  1.
</event>
<event>
 5    1  0.6924865E-004  0.9118800E+02  0.7818608E-02  0.1130116E+00
         25   -1    0    0    0    0  0.00000000000E+00  0.00000000000E+00  0.99999998245E-14  0.12500000000E+03  0.12500000000E+03 0.  0.
        -13    1    3    3    0    0 -0.49900083188E+02 -0.52753287306E+01 -0.20147707917E+02  0.54072069442E+02  0.10566000000E+00 0.  1.
         23    2    1    0    0    0 -0.14287240660E+02  0.14585389719E+02 -0.22121592696E+02  0.94896450337E+02  0.89995069777E+02 0.  0.
         13    1    3    3    0    0  0.35612842528E+02  0.19860718450E+02 -0.19738847783E+01  0.40824380895E+02  0.10566000000E+00 0. -1.
         22    1    1    0    0    0  0.14287240660E+02 -0.14585389719E+02  0.22121592696E+02  0.30103549663E+02  0.00000000000E+00 0. -1.
</event>
<event>
 5    1  0.6924865E-004  0.9118800E+02  0.7818608E-02  0.1130116E+00
         25   -1    0    0    0    0  0.00000000000E+00  0.00000000000E+00  0.99999998245E-14  0.12500000000E+03  0.12500000000E+03 0.  0.
        -13    1    3    3    0    0  0.16245225206E+02  0.24339336182E+02 -0.19683477031E+02  0.35266996751E+02  0.10566000000E+00 0.  1.
         23    2    1    0    0    0  0.44863359962E+01 -0.12884334052E+02  0.26170270853E+02  0.95487013856E+02  0.90811637272E+02 0.  0.
         13    1    3    3    0    0 -0.11758889209E+02 -0.37223670234E+02  0.45853747883E+02  0.60220017105E+02  0.10566000000E+00 0. -1.
         22    1    1    0    0    0 -0.44863359962E+01  0.12884334052E+02 -0.26170270853E+02  0.29512986144E+02  0.00000000000E+00 0. -1.
</event>
<event>
 5    1  0.6924865E-004  0.9118800E+02  0.7818608E-02  0.1130116E+00
         25   -1    0    0    0    0  0.00000000000E+00  0.00000000000E+00  0.99999998245E-14  0.12500000000E+03  0.12500000000E+03 0.  0.
        -13    1    3    3    0    0 -0.67630551989E+01 -0.18846084319E+02 -0.33781391240E+02  0.39269674915E+02  0.10566000000E+00 0.  1.
         23    2    1    0    0    0 -0.55140020664E+01 -0.18138333592E+02  0.22504839903E+02  0.95574310827E+02  0.90931720025E+02 0.  0.
         13    1    3    3    0    0  0.12490531325E+01  0.70775072723E+00  0.56286231143E+02  0.56304635911E+02  0.10566000000E+00 0. -1.
         22    1    1    0    0    0  0.55140020664E+01  0.18138333592E+02 -0.22504839903E+02  0.29425689173E+02  0.00000000000E+00 0. -1.
</event>
<event>
 5    1  0.6924865E-004  0.9118800E+02  0.7818608E-02  0.1130116E+00
         25   -1    0    0    0    0  0.00000000000E+00  0.00000000000E+00  0.99999998245E-14  0.12500000000E+03  0.12500000000E+03 0.  0.
        -13    1    3    3    0    0 -0.24256376238E+02 -0.46065044575E+02 -0.32030469257E+02  0.61125463146E+02  0.10566000000E+00 0. -1.
         23    2    1    0    0    0 -0.18444314180E+02 -0.21030335876E+02 -0.90559925410E+01  0.95597980452E+02  0.90964251841E+02 0.  0.
         13    1    3    3    0    0  0.58120620584E+01  0.25034708700E+02  0.22974476716E+02  0.34472517306E+02  0.10566000000E+00 0.  1.
         22    1    1    0    0    0  0.18444314180E+02  0.21030335876E+02  0.90559925410E+01  0.29402019548E+02  0.00000000000E+00 0. -1.
</event>
<event>
 5    1  0.6924865E-004  0.9118800E+02  0.7818608E-02  0.1130116E+00
         25   -1    0    0    0    0  0.00000000000E+00  0.00000000000E+00  0.99999998245E-14  0.12500000000E+03  0.12500000000E+03 0.  0.
        -13    1    3    3    0    0 -0.40894516813E+02 -0.38115834157E+02 -0.78195231070E+01  0.56447625499E+02  0.10566000000E+00 0.  1.
         23    2    1    0    0    0 -0.13508391300E+02 -0.25176594998E+02  0.13412075641E+02  0.93437025738E+02  0.87944621408E+02 0.  0.
         13    1    3    3    0    0  0.27386125513E+02  0.12939239158E+02  0.21231598748E+02  0.36989400239E+02  0.10566000000E+00 0. -1.
         22    1    1    0    0    0  0.13508391300E+02  0.25176594998E+02 -0.13412075641E+02  0.31562974262E+02  0.00000000000E+00 0.  1.
</event>
<event>
 5    1  0.6924865E-004  0.9118800E+02  0.7818608E-02  0.1130116E+00
         25   -1    0    0    0    0  0.00000000000E+00  0.00000000000E+00  0.99999998245E-14  0.12500000000E+03  0.12500000000E+03 0.  0.
        -13    1    3    3    0    0  0.48443070579E+02 -0.19119378703E+02 -0.61398884164E+01  0.52440357769E+02  0.10566000000E+00 0.  1.
         23    2    1    0    0    0  0.40576793792E+01 -0.25761978315E+02 -0.89998359930E+01  0.97411209948E+02  0.93422708626E+02 0.  0.
         13    1    3    3    0    0 -0.44385391200E+02 -0.66425996117E+01 -0.28599475766E+01  0.44970852179E+02  0.10566000000E+00 0. -1.
         22    1    1    0    0    0 -0.40576793792E+01  0.25761978315E+02  0.89998359930E+01  0.27588790052E+02  0.00000000000E+00 0.  1.
</event>
<event>
 5    1  0.6924865E-004  0.9118800E+02  0.7818608E-02  0.1130116E+00
         25   -1    0    0    0    0  0.00000000000E+00  0.00000000000E+00  0.99999998245E-14  0.12500000000E+03  0.12500000000E+03 0.  0.
        -13    1    3    3    0    0  0.45714610544E+02 -0.37509399174E+02  0.18598187676E+02  0.61989389354E+02  0.10566000000E+00 0. -1.
         23    2    1    0    0    0  0.19963517699E+02 -0.22363584897E+02  0.59209873319E+01  0.94443003103E+02  0.89363028014E+02 0.  0.
         13    1    3    3    0    0 -0.25751092845E+02  0.15145814277E+02 -0.12677200344E+02  0.32453613750E+02  0.10566000000E+00 0.  1.
         22    1    1    0    0    0 -0.19963517699E+02  0.22363584897E+02 -0.59209873319E+01  0.30556996897E+02  0.00000000000E+00 0. -1.
</event>
<event>
 5    1  0.6924865E-004  0.9118800E+02  0.7818608E-02  0.1130116E+00
         25   -1    0    0    0    0  0.00000000000E+00  0.00000000000E+00  0.99999998245E-14  0.12500000000E+03  0.12500000000E+03 0.  0.
        -13    1    3    3    0    0 -0.58107359625E+02 -0.16223707806E+02  0.74501202161E+01  0.60788069494E+02  0.10566000000E+00 0.  1.
         23    2    1    0    0    0 -0.16247886953E+02 -0.13332070869E+02 -0.22748813574E+01  0.10385968237E+03  0.10168540010E+03 0.  0.
         13    1    3    3    0    0  0.41859472671E+02  0.28916369372E+01 -0.97250015735E+01  0.43071612881E+02  0.10566000000E+00 0. -1.
         22    1    1    0    0    0  0.16247886953E+02  0.13332070869E+02  0.22748813574E+01  0.21140317625E+02  0.00000000000E+00 0.  1.
</event>
<event>
 5    1  0.6924865E-004  0.9118800E+02  0.7818608E-02  0.1130116E+00
         25   -1    0    0    0    0  0.00000000000E+00  0.00000000000E+00  0.99999998245E-14  0.12500000000E+03  0.12500000000E+03 0.  0.
        -13    1    3    3    0    0 -0.20281926456E+02 -0.34770430002E+02 -0.64123837141E+01  0.40761123294E+02  0.10566000000E+00 0.  1.
         23    2    1    0    0    0 -0.42772750336E+01  0.13893283781E+02 -0.25678518495E+02  0.95492293752E+02  0.90818904629E+02 0.  0.
         13    1    3    3    0    0  0.16004651423E+02  0.48663713782E+02 -0.19266134781E+02  0.54731170458E+02  0.10566000000E+00 0. -1.
         22    1    1    0    0    0  0.42772750336E+01 -0.13893283781E+02  0.25678518495E+02  0.29507706248E+02  0.00000000000E+00 0. -1.
</event>
<event>
 5    1  0.6924865E-004  0.9118800E+02  0.7818608E-02  0.1130116E+00
         25   -1    0    0    0    0  0.00000000000E+00  0.00000000000E+00  0.99999998245E-14  0.12500000000E+03  0.12500000000E+03 0.  0.
        -13    1    3    3    0    0  0.62025594476E+01 -0.37976737721E+02  0.35802483383E+02  0.52559807192E+02  0.10566000000E+00 0. -1.
         23    2    1    0    0    0 -0.20947023460E+02 -0.15019463157E+02  0.70709546034E+01  0.98272477400E+02  0.94568067285E+02 0.  0.
         13    1    3    3    0    0 -0.27149582907E+02  0.22957274565E+02 -0.28731528780E+02  0.45712670208E+02  0.10566000000E+00 0.  1.
         22    1    1    0    0    0  0.20947023460E+02  0.15019463157E+02 -0.70709546034E+01  0.26727522600E+02  0.00000000000E+00 0.  1.
</event>
<event>
 5    1  0.6924865E-004  0.9118800E+02  0.7818608E-02  0.1130116E+00
         25   -1    0    0    0    0  0.00000000000E+00  0.00000000000E+00  0.99999998245E-14  0.12500000000E+03  0.12500000000E+03 0.  0.
        -13    1    3    3    0    0  0.35047216074E+02 -0.41979964793E+02 -0.16121579009E+02  0.57013518330E+02  0.10566000000E+00 0.  1.
         23    2    1    0    0    0  0.13780250974E+01 -0.24272496699E+02  0.44853519824E+01  0.10027811837E+03  0.97182969657E+02 0.  0.
         13    1    3    3    0    0 -0.33669190976E+02  0.17707468094E+02  0.20606930992E+02  0.43264600036E+02  0.10566000000E+00 0. -1.
         22    1    1    0    0    0 -0.13780250974E+01  0.24272496699E+02 -0.44853519824E+01  0.24721881635E+02  0.00000000000E+00 0.  1.
</event>
<event>
 5    1  0.6924865E-004  0.9118800E+02  0.7818608E-02  0.1130116E+00
         25   -1    0    0    0    0  0.00000000000E+00  0.00000000000E+00  0.99999998245E-14  0.12500000000E+03  0.12500000000E+03 0.  0.
        -13    1    3    3    0    0  0.59001156337E+01  0.29222850052E+02 -0.19861369554E+02  0.35822778986E+02  0.10566000000E+00 0.  1.
         23    2    1    0    0    0  0.19578783441E+02 -0.15462308321E+02  0.16546795858E+02  0.95063263491E+02  0.90226469912E+02 0.  0.
         13    1    3    3    0    0  0.13678667807E+02 -0.44685158373E+02  0.36408165411E+02  0.59240484506E+02  0.10566000000E+00 0. -1.
         22    1    1    0    0    0 -0.19578783441E+02  0.15462308321E+02 -0.16546795858E+02  0.29936736509E+02  0.00000000000E+00 0. -1.
</event>
<event>
 5    1  0.6924865E-004  0.9118800E+02  0.7818608E-02  0.1130116E+00
         25   -1    0    0    0    0  0.00000000000E+00  0.00000000000E+00  0.99999998245E-14  0.12500000000E+03  0.12500000000E+03 0.  0.
        -13    1    3    3    0    0  0.60158709915E+02 -0.14962857273E+02 -0.49866380707E+01  0.62191922303E+02  0.10566000000E+00 0. -1.
         23    2    1    0    0    0  0.27411005536E+02 -0.52114415708E+01 -0.63367172089E+01  0.96387479441E+02  0.92042761042E+02 0.  0.
         13    1    3    3    0    0 -0.32747704379E+02  0.97514157019E+01 -0.13500791382E+01  0.34195557138E+02  0.10566000000E+00 0.  1.
         22    1    1    0    0    0 -0.27411005536E+02  0.52114415708E+01  0.63367172089E+01  0.28612520559E+02  0.00000000000E+00 0. -1.
</event>
<event>
 5    1  0.6924865E-004  0.9118800E+02  0.7818608E-02  0.1130116E+00
         25   -1    0    0    0    0  0.00000000000E+00  0.00000000000E+00  0.99999998245E-14  0.12500000000E+03  0.12500000000E+03 0.  0.
        -13    1    3    3    0    0 -0.28117601903E+02  0.40804444505E+02  0.24819876956E+02  0.55422375304E+02  0.10566000000E+00 0.  1.
         23    2    1    0    0    0 -0.24903106355E+02  0.18716085332E+02 -0.57979528061E+01  0.93312892006E+02  0.87768006708E+02 0.  0.
         13    1    3    3    0    0  0.32144955488E+01 -0.22088359173E+02 -0.30617829762E+02  0.37890516702E+02  0.10566000000E+00 0. -1.
         22    1    1    0    0    0  0.24903106355E+02 -0.18716085332E+02  0.57979528061E+01  0.31687107994E+02  0.00000000000E+00 0. -1.
</event>
<event>
 5    1  0.6924865E-004  0.9118800E+02  0.7818608E-02  0.1130116E+00
         25   -1    0    0    0    0  0.00000000000E+00  0.00000000000E+00  0.99999998245E-14  0.12500000000E+03  0.12500000000E+03 0.  0.
        -13    1    3    3    0    0  0.18709135882E+02  0.28935741477E+02  0.89473224687E+01  0.35600205669E+02  0.10566000000E+00 0. -1.
         23    2    1    0    0    0 -0.31078922200E+02  0.33352264702E+00  0.74504460620E+01  0.93038776791E+02  0.87376737166E+02 0.  0.
         13    1    3    3    0    0 -0.49788058082E+02 -0.28602218830E+02 -0.14968764067E+01  0.57438571123E+02  0.10566000000E+00 0.  1.
         22    1    1    0    0    0  0.31078922200E+02 -0.33352264702E+00 -0.74504460620E+01  0.31961223209E+02  0.00000000000E+00 0.  1.
</event>
<event>
 5    1  0.6924865E-004  0.9118800E+02  0.7818608E-02  0.1130116E+00
         25   -1    0    0    0    0  0.00000000000E+00  0.00000000000E+00  0.99999998245E-14  0.12500000000E+03  0.12500000000E+03 0.  0.
        -13    1    3    3    0    0 -0.29110465276E+02 -0.24982017278E+02 -0.36913539774E+02  0.53236650520E+02  0.10566000000E+00 0.  1.
         23    2    1    0    0    0 -0.10321595844E+02  0.11658699045E+02 -0.23999678685E+02  0.96391519069E+02  0.92048246953E+02 0.  0.
         13    1    3    3    0    0  0.18788869432E+02  0.36640716324E+02  0.12913861089E+02  0.43154868549E+02  0.10566000000E+00 0. -1.
         22    1    1    0    0    0  0.10321595844E+02 -0.11658699045E+02  0.23999678685E+02  0.28608480931E+02  0.00000000000E+00 0.  1.
</event>
<event>
 5    1  0.6924865E-004  0.9118800E+02  0.7818608E-02  0.1130116E+00
         25   -1    0    0    0    0  0.00000000000E+00  0.00000000000E+00  0.99999998245E-14  0.12500000000E+03  0.12500000000E+03 0.  0.
        -13    1    3    3    0    0 -0.39586290630E+02 -0.16954526893E+02  0.20222323724E+02  0.47576085683E+02  0.10566000000E+00 0. -1.
         23    2    1    0    0    0 -0.54230794791E+01 -0.20828583183E+02 -0.16498656102E+02  0.97880904853E+02  0.94049062798E+02 0.  0.
         13    1    3    3    0    0  0.34163211151E+02 -0.38740562893E+01 -0.36720979826E+02  0.50304819170E+02  0.10566000000E+00 0.  1.
         22    1    1    0    0    0  0.54230794791E+01  0.20828583183E+02  0.16498656102E+02  0.27119095147E+02  0.00000000000E+00 0.  1.
</event>
<event>
 5    1  0.6924865E-004  0.9118800E+02  0.7818608E-02  0.1130116E+00
         25   -1    0    0    0    0  0.00000000000E+00  0.00000000000E+00  0.99999998245E-14  0.12500000000E+03  0.12500000000E+03 0.  0.
        -13    1    3    3    0    0 -0.14516195568E+02 -0.13619767545E+02  0.29940355344E+02  0.35953498354E+02  0.10566000000E+00 0. -1.
         23    2    1    0    0    0 -0.26840261792E+01 -0.27681289715E+01 -0.28336949274E+02  0.96401936627E+02  0.92062392739E+02 0.  0.
         13    1    3    3    0    0  0.11832169388E+02  0.10851638574E+02 -0.58277304617E+02  0.60448438273E+02  0.10566000000E+00 0.  1.
         22    1    1    0    0    0  0.26840261792E+01  0.27681289715E+01  0.28336949274E+02  0.28598063373E+02  0.00000000000E+00 0.  1.
</event>
<event>
 5    1  0.6924865E-004  0.9118800E+02  0.7818608E-02  0.1130116E+00
         25   -1    0    0    0    0  0.00000000000E+00  0.00000000000E+00  0.99999998245E-14  0.12500000000E+03  0.12500000000E+03 0.  0.
        -13    1    3    3    0    0 -0.15857781066E+02 -0.28493730353E+02  0.38781027966E+01  0.32839195104E+02  0.10566000000E+00 0.  1.
         23    2    1    0    0    0  0.31046802525E+02  0.74966988172E+01 -0.51572884830E+01  0.92647224776E+02  0.86814780966E+02 0.  0.
         13    1    3    3    0    0  0.46904583590E+02  0.35990429170E+02 -0.90353912796E+01  0.59808029672E+02  0.10566000000E+00 0. -1.
         22    1    1    0    0    0 -0.31046802525E+02 -0.74966988172E+01  0.51572884830E+01  0.32352775224E+02  0.00000000000E+00 0. -1.
</event>
<event>
 5    1  0.6924865E-004  0.9118800E+02  0.7818608E-02  0.1130116E+00
         25   -1    0    0    0    0  0.00000000000E+00  0.00000000000E+00  0.99999998245E-14  0.12500000000E+03  0.12500000000E+03 0.  0.
        -13    1    3    3    0    0 -0.10682353824E+02  0.38040578232E+02 -0.53185573430E+01  0.39868489960E+02  0.10566000000E+00 0.  1.
         23    2    1    0    0    0  0.30315769278E+02  0.57070244745E+01  0.66645114744E+01  0.93440029968E+02  0.87948891362E+02 0.  0.
         13    1    3    3    0    0  0.40998123102E+02 -0.32333553757E+02  0.11983068817E+02  0.53571540008E+02  0.10566000000E+00 0. -1.
         22    1    1    0    0    0 -0.30315769278E+02 -0.57070244745E+01 -0.66645114744E+01  0.31559970032E+02  0.00000000000E+00 0. -1.
</event>
<event>
 5    1  0.6924865E-004  0.9118800E+02  0.7818608E-02  0.1130116E+00
         25   -1    0    0    0    0  0.00000000000E+00  0.00000000000E+00  0.99999998245E-14  0.12500000000E+03  0.12500000000E+03 0.  0.
        -13    1    3    3    0    0  0.13811703761E+02 -0.54178337530E+02  0.23452063054E+02  0.60630568559E+02  0.10566000000E+00 0.  1.
         23    2    1    0    0    0  0.80377381385E+01 -0.18845824658E+02  0.19613316895E+02  0.96637127419E+02  0.92381176950E+02 0.  0.
         13    1    3    3    0    0 -0.57739656224E+01  0.35332512872E+02 -0.38387461587E+01  0.36006558860E+02  0.10566000000E+00 0. -1.
         22    1    1    0    0    0 -0.80377381385E+01  0.18845824658E+02 -0.19613316895E+02  0.28362872581E+02  0.00000000000E+00 0.  1.
</event>
<event>
 5    1  0.6924865E-004  0.9118800E+02  0.7818608E-02  0.1130116E+00
         25   -1    0    0    0    0  0.00000000000E+00  0.00000000000E+00  0.99999998245E-14  0.12500000000E+03  0.12500000000E+03 0.  0.
        -13    1    3    3    0    0 -0.17174456012E+02 -0.29253688324E+02 -0.33820604993E+02  0.47901823619E+02  0.10566000000E+00 0. -1.
         23    2    1    0    0    0 -0.15551764552E+02  0.15835190964E+02 -0.20090109757E+02  0.95063013452E+02  0.90226123506E+02 0.  0.
         13    1    3    3    0    0  0.16226914594E+01  0.45088879288E+02  0.13730495236E+02  0.47161189833E+02  0.10566000000E+00 0.  1.
         22    1    1    0    0    0  0.15551764552E+02 -0.15835190964E+02  0.20090109757E+02  0.29936986548E+02  0.00000000000E+00 0.  1.
</event>
<event>
 5    1  0.6924865E-004  0.9118800E+02  0.7818608E-02  0.1130116E+00
         25   -1    0    0    0    0  0.00000000000E+00  0.00000000000E+00  0.99999998245E-14  0.12500000000E+03  0.12500000000E+03 0.  0.
        -13    1    3    3    0    0 -0.22069035653E+01  0.27807546572E+02  0.42016537929E+01  0.28209840983E+02  0.10566000000E+00 0.  1.
         23    2    1    0    0    0  0.17283928271E+02 -0.30151308920E+02 -0.44313757063E+01  0.89964693569E+02  0.82862376217E+02 0.  0.
         13    1    3    3    0    0  0.19490831837E+02 -0.57958855491E+02 -0.86330294993E+01  0.61754852586E+02  0.10566000000E+00 0. -1.
         22    1    1    0    0    0 -0.17283928271E+02  0.30151308920E+02  0.44313757063E+01  0.35035306431E+02  0.00000000000E+00 0. -1.
</event>
<event>
 5    1  0.6924865E-004  0.9118800E+02  0.7818608E-02  0.1130116E+00
         25   -1    0    0    0    0  0.00000000000E+00  0.00000000000E+00  0.99999998245E-14  0.12500000000E+03  0.12500000000E+03 0.  0.
        -13    1    3    3    0    0  0.52065165833E+01 -0.41130388898E+02 -0.16927877246E+02  0.44781479408E+02  0.10566000000E+00 0.  1.
         23    2    1    0    0    0 -0.23251307456E+02 -0.18342051076E+02  0.13674234342E+02  0.92380392079E+02  0.86429728796E+02 0.  0.
         13    1    3    3    0    0 -0.28457824040E+02  0.22788337822E+02  0.30602111588E+02  0.47598912671E+02  0.10566000000E+00 0. -1.
         22    1    1    0    0    0  0.23251307456E+02  0.18342051076E+02 -0.13674234342E+02  0.32619607921E+02  0.00000000000E+00 0.  1.
</event>
<event>
 5    1  0.6924865E-004  0.9118800E+02  0.7818608E-02  0.1130116E+00
         25   -1    0    0    0    0  0.00000000000E+00  0.00000000000E+00  0.99999998245E-14  0.12500000000E+03  0.12500000000E+03 0.  0.
        -13    1    3    3    0    0 -0.20833747626E+02  0.52003904736E+02  0.21735891986E+02  0.60090858809E+02  0.10566000000E+00 0.  1.
         23    2    1    0    0    0 -0.20799450963E+02  0.19687483814E+02  0.75622918106E+01  0.95379020328E+02  0.90662864956E+02 0.  0.
         13    1    3    3    0    0  0.34296663614E-01 -0.32316420921E+02 -0.14173600175E+02  0.35288161519E+02  0.10566000000E+00 0. -1.
         22    1    1    0    0    0  0.20799450963E+02 -0.19687483814E+02 -0.75622918106E+01  0.29620979672E+02  0.00000000000E+00 0.  1.
</event>
<event>
 5    1  0.6924865E-004  0.9118800E+02  0.7818608E-02  0.1130116E+00
         25   -1    0    0    0    0  0.00000000000E+00  0.00000000000E+00  0.99999998245E-14  0.12500000000E+03  0.12500000000E+03 0.  0.
        -13    1    3    3    0    0  0.40403077338E+02 -0.62568383845E+01 -0.39346441290E+02  0.56742491055E+02  0.10566000000E+00 0.  1.
         23    2    1    0    0    0  0.24839611177E+02  0.41848963039E+01 -0.57782949854E+00  0.99803700124E+02  0.96570829090E+02 0.  0.
         13    1    3    3    0    0 -0.15563466161E+02  0.10441734688E+02  0.38768611791E+02  0.43061209069E+02  0.10566000000E+00 0. -1.
         22    1    1    0    0    0 -0.24839611177E+02 -0.41848963039E+01  0.57782949854E+00  0.25196299876E+02  0.00000000000E+00 0.  1.
</event>
<event>
 5    1  0.6924865E-004  0.9118800E+02  0.7818608E-02  0.1130116E+00
         25   -1    0    0    0    0  0.00000000000E+00  0.00000000000E+00  0.99999998245E-14  0.12500000000E+03  0.12500000000E+03 0.  0.
        -13    1    3    3    0    0 -0.82254566163E+01 -0.31583570664E+02 -0.89912257484E+01  0.33853114730E+02  0.10566000000E+00 0.  1.
         23    2    1    0    0    0  0.17021244762E+02  0.21080383888E+02  0.11248156963E+02  0.95663565432E+02  0.91054331901E+02 0.  0.
         13    1    3    3    0    0  0.25246701378E+02  0.52663954552E+02  0.20239382711E+02  0.61810450702E+02  0.10566000000E+00 0. -1.
         22    1    1    0    0    0 -0.17021244762E+02 -0.21080383888E+02 -0.11248156963E+02  0.29336434568E+02  0.00000000000E+00 0. -1.
</event>
<event>
 5    1  0.6924865E-004  0.9118800E+02  0.7818608E-02  0.1130116E+00
         25   -1    0    0    0    0  0.00000000000E+00  0.00000000000E+00  0.99999998245E-14  0.12500000000E+03  0.12500000000E+03 0.  0.
        -13    1    3    3    0    0  0.36232170639E+02  0.70796859267E+00 -0.34310240686E+00  0.36240864946E+02  0.10566000000E+00 0. -1.
         23    2    1    0    0    0 -0.14102555863E+02 -0.27314813021E+02  0.39324076398E+01  0.94008954162E+02  0.88753808598E+02 0.  0.
         13    1    3    3    0    0 -0.50334726503E+02 -0.28022781614E+02  0.42755100467E+01  0.57768089216E+02  0.10566000000E+00 0.  1.
         22    1    1    0    0    0  0.14102555863E+02  0.27314813021E+02 -0.39324076398E+01  0.30991045838E+02  0.00000000000E+00 0.  1.
</event>
<event>
 5    1  0.6924865E-004  0.9118800E+02  0.7818608E-02  0.1130116E+00
         25   -1    0    0    0    0  0.00000000000E+00  0.00000000000E+00  0.99999998245E-14  0.12500000000E+03  0.12500000000E+03 0.  0.
        -13    1    3    3    0    0  0.28831646918E+02 -0.36634786047E+02  0.15946834558E+01  0.46646817598E+02  0.10566000000E+00 0. -1.
         23    2    1    0    0    0 -0.18543855273E+02 -0.20803446780E+02 -0.37396583710E+01  0.96881625029E+02  0.92711413845E+02 0.  0.
         13    1    3    3    0    0 -0.47375502190E+02  0.15831339267E+02 -0.53343418269E+01  0.50234807430E+02  0.10566000000E+00 0.  1.
         22    1    1    0    0    0  0.18543855273E+02  0.20803446780E+02  0.37396583710E+01  0.28118374971E+02  0.00000000000E+00 0.  1.
</event>
<event>
 5    1  0.6924865E-004  0.9118800E+02  0.7818608E-02  0.1130116E+00
         25   -1    0    0    0    0  0.00000000000E+00  0.00000000000E+00  0.99999998245E-14  0.12500000000E+03  0.12500000000E+03 0.  0.
        -13    1    3    3    0    0 -0.22737432561E+02  0.35873137820E+02  0.94476281087E+01  0.43510248189E+02  0.10566000000E+00 0. -1.
         23    2    1    0    0    0 -0.34191167570E+02  0.71444302791E+01 -0.18744045757E+02  0.85358884032E+02  0.75595773745E+02 0.  0.
         13    1    3    3    0    0 -0.11453735009E+02 -0.28728707541E+02 -0.28191673866E+02  0.41848635844E+02  0.10566000000E+00 0.  1.
         22    1    1    0    0    0  0.34191167570E+02 -0.71444302791E+01  0.18744045757E+02  0.39641115968E+02  0.00000000000E+00 0. -1.
</event>
<event>
 5    1  0.6924865E-004  0.9118800E+02  0.7818608E-02  0.1130116E+00
         25   -1    0    0    0    0  0.00000000000E+00  0.00000000000E+00  0.99999998245E-14  0.12500000000E+03  0.12500000000E+03 0.  0.
        -13    1    3    3    0    0  0.13838370706E+01 -0.46218342176E+02 -0.27413128629E+02  0.53754450456E+02  0.10566000000E+00 0. -1.
         23    2    1    0    0    0  0.14486412680E+02 -0.27930926515E+02  0.49295772223E+01  0.93152024556E+02  0.87538597995E+02 0.  0.
         13    1    3    3    0    0  0.13102575609E+02  0.18287415662E+02  0.32342705851E+02  0.39397574100E+02  0.10566000000E+00 0.  1.
         22    1    1    0    0    0 -0.14486412680E+02  0.27930926515E+02 -0.49295772223E+01  0.31847975444E+02  0.00000000000E+00 0. -1.
</event>
<event>
 5    1  0.6924865E-004  0.9118800E+02  0.7818608E-02  0.1130116E+00
         25   -1    0    0    0    0  0.00000000000E+00  0.00000000000E+00  0.99999998245E-14  0.12500000000E+03  0.12500000000E+03 0.  0.
        -13    1    3    3    0    0  0.51121793939E+02 -0.26126286706E+02  0.16010082285E+02  0.59601632288E+02  0.10566000000E+00 0.  1.
         23    2    1    0    0    0  0.15652823658E+02 -0.22628116077E+02  0.98758972293E+01  0.95766870305E+02  0.91196039257E+02 0.  0.
         13    1    3    3    0    0 -0.35468970280E+02  0.34981706284E+01 -0.61341850562E+01  0.36165238017E+02  0.10566000000E+00 0. -1.
         22    1    1    0    0    0 -0.15652823658E+02  0.22628116077E+02 -0.98758972293E+01  0.29233129695E+02  0.00000000000E+00 0.  1.
</event>
<event>
 5    1  0.6924865E-004  0.9118800E+02  0.7818608E-02  0.1130116E+00
         25   -1    0    0    0    0  0.00000000000E+00  0.00000000000E+00  0.99999998245E-14  0.12500000000E+03  0.12500000000E+03 0.  0.
        -13    1    3    3    0    0  0.55021447992E+02  0.20325137925E+02 -0.27759227855E+00  0.58656280075E+02  0.10566000000E+00 0. -1.
         23    2    1    0    0    0  0.27773555469E+02 -0.55475232794E+01 -0.39233717083E+01  0.96407374317E+02  0.92069775601E+02 0.  0.
         13    1    3    3    0    0 -0.27247892523E+02 -0.25872661204E+02 -0.36457794298E+01  0.37751094241E+02  0.10566000000E+00 0.  1.
         22    1    1    0    0    0 -0.27773555469E+02  0.55475232794E+01  0.39233717083E+01  0.28592625683E+02  0.00000000000E+00 0. -1.
</event>
<event>
 5    1  0.6924865E-004  0.9118800E+02  0.7818608E-02  0.1130116E+00
         25   -1    0    0    0    0  0.00000000000E+00  0.00000000000E+00  0.99999998245E-14  0.12500000000E+03  0.12500000000E+03 0.  0.
        -13    1    3    3    0    0  0.18077153636E+02 -0.18291376589E+02 -0.36094508495E+02  0.44319100269E+02  0.10566000000E+00 0.  1.
         23    2    1    0    0    0 -0.25304182070E+02 -0.15977915475E+01 -0.16412744876E+02  0.94796808738E+02  0.89856564504E+02 0.  0.
         13    1    3    3    0    0 -0.43381335706E+02  0.16693585041E+02  0.19681763619E+02  0.50477708470E+02  0.10566000000E+00 0. -1.
         22    1    1    0    0    0  0.25304182070E+02  0.15977915475E+01  0.16412744876E+02  0.30203191262E+02  0.00000000000E+00 0. -1.
</event>
<event>
 5    1  0.6924865E-004  0.9118800E+02  0.7818608E-02  0.1130116E+00
         25   -1    0    0    0    0  0.00000000000E+00  0.00000000000E+00  0.99999998245E-14  0.12500000000E+03  0.12500000000E+03 0.  0.
        -13    1    3    3    0    0  0.40629423549E+02 -0.17950063991E+02  0.35355432903E+02  0.56771230874E+02  0.10566000000E+00 0. -1.
         23    2    1    0    0    0  0.89396090169E+01  0.38494368680E+01  0.27228246686E+02  0.96084395370E+02  0.91630228868E+02 0.  0.
         13    1    3    3    0    0 -0.31689814532E+02  0.21799500859E+02 -0.81271862177E+01  0.39313164495E+02  0.10566000000E+00 0.  1.
         22    1    1    0    0    0 -0.89396090169E+01 -0.38494368680E+01 -0.27228246686E+02  0.28915604630E+02  0.00000000000E+00 0. -1.
</event>
<event>
 5    1  0.6924865E-004  0.9118800E+02  0.7818608E-02  0.1130116E+00
         25   -1    0    0    0    0  0.00000000000E+00  0.00000000000E+00  0.99999998245E-14  0.12500000000E+03  0.12500000000E+03 0.  0.
        -13    1    3    3    0    0 -0.34262877942E+02  0.48052591589E+02  0.68505680583E+01  0.59413279745E+02  0.10566000000E+00 0. -1.
         23    2    1    0    0    0 -0.42556955051E+01  0.23842016777E+02  0.11390998774E+02  0.98236077244E+02  0.94519941341E+02 0.  0.
         13    1    3    3    0    0  0.30007182437E+02 -0.24210574812E+02  0.45404307158E+01  0.38822797499E+02  0.10566000000E+00 0.  1.
         22    1    1    0    0    0  0.42556955051E+01 -0.23842016777E+02 -0.11390998774E+02  0.26763922756E+02  0.00000000000E+00 0. -1.
</event>
<event>
 5    1  0.6924865E-004  0.9118800E+02  0.7818608E-02  0.1130116E+00
         25   -1    0    0    0    0  0.00000000000E+00  0.00000000000E+00  0.99999998245E-14  0.12500000000E+03  0.12500000000E+03 0.  0.
        -13    1    3    3    0    0  0.27070599060E+02 -0.26049997674E+02 -0.89451001995E+01  0.38619239945E+02  0.10566000000E+00 0.  1.
         23    2    1    0    0    0 -0.75258689591E+01  0.75762186220E+01  0.25136793967E+02  0.97688899635E+02  0.93793522744E+02 0.  0.
         13    1    3    3    0    0 -0.34596468019E+02  0.33626216297E+02  0.34081894167E+02  0.59069659690E+02  0.10566000000E+00 0. -1.
         22    1    1    0    0    0  0.75258689591E+01 -0.75762186220E+01 -0.25136793967E+02  0.27311100365E+02  0.00000000000E+00 0. -1.
</event>
<event>
 4    1  0.6924865E-004  0.9118800E+02  0.7818608E-02  0.1130116E+00
         25   -1    0    0    0    0  0.00000000000E+00  0.00000000000E+00  0.99999998245E-14  0.12500000000E+03  0.12500000000E+03 0.  0.
        -13    1    1    0    0    0 -0.17083950846E+02 -0.14753814261E+02 -0.51646805865E+00  0.22579068073E+02  0.10566000000E+00 0. -1.
         13    1    1    0    0    0  0.31604637255E+02 -0.33860201395E+02 -0.16094254748E+02  0.49034707447E+02  0.10566000000E+00 0.  1.
         22    1    1    0    0    0 -0.14520686408E+02  0.48614015656E+02  0.16610722807E+02  0.53386224479E+02  0.00000000000E+00 0.  1.
</event>
<event>
 5    1  0.6924865E-004  0.9118800E+02  0.7818608E-02  0.1130116E+00
         25   -1    0    0    0    0  0.00000000000E+00  0.00000000000E+00  0.99999998245E-14  0.12500000000E+03  0.12500000000E+03 0.  0.
        -13    1    3    3    0    0  0.33651001381E+02 -0.12828642321E+02  0.37313681867E+02  0.51858326007E+02  0.10566000000E+00 0.  1.
         23    2    1    0    0    0  0.60947314569E+01  0.84234905246E+01  0.36902949045E+02  0.86660352213E+02  0.77718003406E+02 0.  0.
         13    1    3    3    0    0 -0.27556269924E+02  0.21252132846E+02 -0.41073282121E+00  0.34802026207E+02  0.10566000000E+00 0. -1.
         22    1    1    0    0    0 -0.60947314569E+01 -0.84234905246E+01 -0.36902949045E+02  0.38339647787E+02  0.00000000000E+00 0. -1.
</event>
<event>
 5    1  0.6924865E-004  0.9118800E+02  0.7818608E-02  0.1130116E+00
         25   -1    0    0    0    0  0.00000000000E+00  0.00000000000E+00  0.99999998245E-14  0.12500000000E+03  0.12500000000E+03 0.  0.
        -13    1    3    3    0    0  0.81677943560E+01 -0.19019708619E+02 -0.25983634695E+02  0.33220816013E+02  0.10566000000E+00 0.  1.
         23    2    1    0    0    0 -0.14776058641E+02  0.14602673695E+02  0.21051745064E+02  0.95423895486E+02  0.90724714778E+02 0.  0.
         13    1    3    3    0    0 -0.22943852997E+02  0.33622382314E+02  0.47035379759E+02  0.62203079473E+02  0.10566000000E+00 0. -1.
         22    1    1    0    0    0  0.14776058641E+02 -0.14602673695E+02 -0.21051745064E+02  0.29576104514E+02  0.00000000000E+00 0. -1.
</event>
<event>
 5    1  0.6924865E-004  0.9118800E+02  0.7818608E-02  0.1130116E+00
         25   -1    0    0    0    0  0.00000000000E+00  0.00000000000E+00  0.99999998245E-14  0.12500000000E+03  0.12500000000E+03 0.  0.
        -13    1    3    3    0    0 -0.85391294963E+00  0.34927959993E+02  0.12731846010E+02  0.37186054153E+02  0.10566000000E+00 0.  1.
         23    2    1    0    0    0  0.23426233326E+02 -0.95239780583E+01 -0.15663918530E+02  0.95253522736E+02  0.90489671698E+02 0.  0.
         13    1    3    3    0    0  0.24280146276E+02 -0.44451938052E+02 -0.28395764540E+02  0.58067468583E+02  0.10566000000E+00 0. -1.
         22    1    1    0    0    0 -0.23426233326E+02  0.95239780583E+01  0.15663918530E+02  0.29746477264E+02  0.00000000000E+00 0. -1.
</event>
<event>
 5    1  0.6924865E-004  0.9118800E+02  0.7818608E-02  0.1130116E+00
         25   -1    0    0    0    0  0.00000000000E+00  0.00000000000E+00  0.99999998245E-14  0.12500000000E+03  0.12500000000E+03 0.  0.
        -13    1    3    3    0    0 -0.52800706285E+02 -0.28358006768E+02 -0.49264622002E+01  0.60136281277E+02  0.10566000000E+00 0. -1.
         23    2    1    0    0    0 -0.18649299124E+02 -0.19841185186E+02  0.62430477195E+01  0.97063560853E+02  0.92956388770E+02 0.  0.
         13    1    3    3    0    0  0.34151407162E+02  0.85168215813E+01  0.11169509920E+02  0.36927279575E+02  0.10566000000E+00 0.  1.
         22    1    1    0    0    0  0.18649299124E+02  0.19841185186E+02 -0.62430477195E+01  0.27936439147E+02  0.00000000000E+00 0. -1.
</event>
<event>
 5    1  0.6924865E-004  0.9118800E+02  0.7818608E-02  0.1130116E+00
         25   -1    0    0    0    0  0.00000000000E+00  0.00000000000E+00  0.99999998245E-14  0.12500000000E+03  0.12500000000E+03 0.  0.
        -13    1    3    3    0    0  0.25120285430E+02  0.29168562127E+02  0.43131000495E+02  0.57811141871E+02  0.10566000000E+00 0.  1.
         23    2    1    0    0    0 -0.20592257558E+01  0.75166679281E+01  0.28392609563E+02  0.95557157317E+02  0.90908136761E+02 0.  0.
         13    1    3    3    0    0 -0.27179511186E+02 -0.21651894199E+02 -0.14738390932E+02  0.37746015446E+02  0.10566000000E+00 0. -1.
         22    1    1    0    0    0  0.20592257558E+01 -0.75166679281E+01 -0.28392609563E+02  0.29442842683E+02  0.00000000000E+00 0.  1.
</event>
<event>
 5    1  0.6924865E-004  0.9118800E+02  0.7818608E-02  0.1130116E+00
         25   -1    0    0    0    0  0.00000000000E+00  0.00000000000E+00  0.99999998245E-14  0.12500000000E+03  0.12500000000E+03 0.  0.
        -13    1    3    3    0    0 -0.12735492084E+02  0.23187969073E+02  0.29454945015E+02  0.39591408390E+02  0.10566000000E+00 0.  1.
         23    2    1    0    0    0 -0.13734358543E+02  0.71413032128E+01 -0.24571132909E+02  0.95959142771E+02  0.91459202341E+02 0.  0.
         13    1    3    3    0    0 -0.99886645853E+00 -0.16046665861E+02 -0.54026077924E+02  0.56367734382E+02  0.10566000000E+00 0. -1.
         22    1    1    0    0    0  0.13734358543E+02 -0.71413032128E+01  0.24571132909E+02  0.29040857229E+02  0.00000000000E+00 0. -1.
</event>
<event>
 5    1  0.6924865E-004  0.9118800E+02  0.7818608E-02  0.1130116E+00
         25   -1    0    0    0    0  0.00000000000E+00  0.00000000000E+00  0.99999998245E-14  0.12500000000E+03  0.12500000000E+03 0.  0.
        -13    1    3    3    0    0  0.13725102673E+02 -0.59950693631E+02 -0.30186871623E+00  0.61502572296E+02  0.10566000000E+00 0. -1.
         23    2    1    0    0    0  0.48530412465E+01 -0.25527979997E+02 -0.78741943368E+01  0.97847970453E+02  0.94005279709E+02 0.  0.
         13    1    3    3    0    0 -0.88720614261E+01  0.34422713634E+02 -0.75723256206E+01  0.36345398157E+02  0.10566000000E+00 0.  1.
         22    1    1    0    0    0 -0.48530412465E+01  0.25527979997E+02  0.78741943368E+01  0.27152029547E+02  0.00000000000E+00 0. -1.
</event>
<event>
 5    1  0.6924865E-004  0.9118800E+02  0.7818608E-02  0.1130116E+00
         25   -1    0    0    0    0  0.00000000000E+00  0.00000000000E+00  0.99999998245E-14  0.12500000000E+03  0.12500000000E+03 0.  0.
        -13    1    3    3    0    0  0.18476622999E+02  0.41747482814E+02  0.75578864270E+01  0.46274947110E+02  0.10566000000E+00 0.  1.
         23    2    1    0    0    0  0.76735207020E+01  0.16091401411E+02  0.35223449700E+02  0.85522062768E+02  0.75865115119E+02 0.  0.
         13    1    3    3    0    0 -0.10803102297E+02 -0.25656081403E+02  0.27665563273E+02  0.39247115658E+02  0.10566000000E+00 0. -1.
         22    1    1    0    0    0 -0.76735207020E+01 -0.16091401411E+02 -0.35223449700E+02  0.39477937232E+02  0.00000000000E+00 0. -1.
</event>
<event>
 5    1  0.6924865E-004  0.9118800E+02  0.7818608E-02  0.1130116E+00
         25   -1    0    0    0    0  0.00000000000E+00  0.00000000000E+00  0.99999998245E-14  0.12500000000E+03  0.12500000000E+03 0.  0.
        -13    1    3    3    0    0 -0.24969715134E+02  0.33091779817E+01  0.32167383494E+02  0.40855710222E+02  0.10566000000E+00 0.  1.
         23    2    1    0    0    0  0.19303388995E+02  0.21056589154E+02  0.42587261828E+01  0.96118560940E+02  0.91676824961E+02 0.  0.
         13    1    3    3    0    0  0.44273104129E+02  0.17747411172E+02 -0.27908657311E+02  0.55262850718E+02  0.10566000000E+00 0. -1.
         22    1    1    0    0    0 -0.19303388995E+02 -0.21056589154E+02 -0.42587261828E+01  0.28881439060E+02  0.00000000000E+00 0.  1.
</event>
<event>
 5    1  0.6924865E-004  0.9118800E+02  0.7818608E-02  0.1130116E+00
         25   -1    0    0    0    0  0.00000000000E+00  0.00000000000E+00  0.99999998245E-14  0.12500000000E+03  0.12500000000E+03 0.  0.
        -13    1    3    3    0    0 -0.28653243591E+02 -0.14573311000E+02  0.20246053976E+02  0.37990836098E+02  0.10566000000E+00 0.  1.
         23    2    1    0    0    0 -0.98920428586E+01  0.65577112480E+01 -0.28383846304E+02  0.94234779056E+02  0.89071290346E+02 0.  0.
         13    1    3    3    0    0  0.18761200732E+02  0.21131022248E+02 -0.48629900280E+02  0.56243942958E+02  0.10566000000E+00 0. -1.
         22    1    1    0    0    0  0.98920428586E+01 -0.65577112480E+01  0.28383846304E+02  0.30765220944E+02  0.00000000000E+00 0. -1.
</event>
<event>
 5    1  0.6924865E-004  0.9118800E+02  0.7818608E-02  0.1130116E+00
         25   -1    0    0    0    0  0.00000000000E+00  0.00000000000E+00  0.99999998245E-14  0.12500000000E+03  0.12500000000E+03 0.  0.
        -13    1    3    3    0    0  0.20859667785E+02  0.48013558291E+02 -0.21107693736E+02  0.56444427703E+02  0.10566000000E+00 0. -1.
         23    2    1    0    0    0 -0.43962589312E+01  0.27440550362E+02  0.31110568829E+01  0.97035923550E+02  0.92919216998E+02 0.  0.
         13    1    3    3    0    0 -0.25255926716E+02 -0.20573007928E+02  0.24218750619E+02  0.40591495847E+02  0.10566000000E+00 0.  1.
         22    1    1    0    0    0  0.43962589312E+01 -0.27440550362E+02 -0.31110568829E+01  0.27964076450E+02  0.00000000000E+00 0. -1.
</event>
<event>
 5    1  0.6924865E-004  0.9118800E+02  0.7818608E-02  0.1130116E+00
         25   -1    0    0    0    0  0.00000000000E+00  0.00000000000E+00  0.99999998245E-14  0.12500000000E+03  0.12500000000E+03 0.  0.
        -13    1    3    3    0    0  0.16113084342E+02 -0.55257347276E+02  0.25151485852E+01  0.57613740127E+02  0.10566000000E+00 0.  1.
         23    2    1    0    0    0 -0.64526426883E+01 -0.38963258021E+02  0.20899691538E+01  0.85450789586E+02  0.75747590038E+02 0.  0.
         13    1    3    3    0    0 -0.22565727030E+02  0.16294089255E+02 -0.42517943133E+00  0.27837049460E+02  0.10566000000E+00 0. -1.
         22    1    1    0    0    0  0.64526426883E+01  0.38963258021E+02 -0.20899691538E+01  0.39549210414E+02  0.00000000000E+00 0.  1.
</event>
<event>
 5    1  0.6924865E-004  0.9118800E+02  0.7818608E-02  0.1130116E+00
         25   -1    0    0    0    0  0.00000000000E+00  0.00000000000E+00  0.99999998245E-14  0.12500000000E+03  0.12500000000E+03 0.  0.
        -13    1    3    3    0    0  0.16156331608E+02  0.34730549571E+02  0.11444957957E+02  0.39977948312E+02  0.10566000000E+00 0.  1.
         23    2    1    0    0    0 -0.17869588708E+02 -0.10544957545E+02  0.18688656099E+02  0.97075383673E+02  0.92972285753E+02 0.  0.
         13    1    3    3    0    0 -0.34025920316E+02 -0.45275507116E+02  0.72436981429E+01  0.57097435361E+02  0.10566000000E+00 0. -1.
         22    1    1    0    0    0  0.17869588708E+02  0.10544957545E+02 -0.18688656099E+02  0.27924616327E+02  0.00000000000E+00 0. -1.
</event>
<event>
 5    1  0.6924865E-004  0.9118800E+02  0.7818608E-02  0.1130116E+00
         25   -1    0    0    0    0  0.00000000000E+00  0.00000000000E+00  0.99999998245E-14  0.12500000000E+03  0.12500000000E+03 0.  0.
        -13    1    3    3    0    0  0.27486775747E+02  0.15296816674E+02 -0.20911143296E+02  0.37773039582E+02  0.10566000000E+00 0. -1.
         23    2    1    0    0    0 -0.18972336189E+02  0.23273380286E+01  0.17229806466E+02  0.99266125949E+02  0.95872475129E+02 0.  0.
         13    1    3    3    0    0 -0.46459111936E+02 -0.12969478645E+02  0.38140949762E+02  0.61493086367E+02  0.10566000000E+00 0.  1.
         22    1    1    0    0    0  0.18972336189E+02 -0.23273380286E+01 -0.17229806466E+02  0.25733874051E+02  0.00000000000E+00 0.  1.
</event>
<event>
 5    1  0.6924865E-004  0.9118800E+02  0.7818608E-02  0.1130116E+00
         25   -1    0    0    0    0  0.00000000000E+00  0.00000000000E+00  0.99999998245E-14  0.12500000000E+03  0.12500000000E+03 0.  0.
        -13    1    3    3    0    0 -0.47595302320E+02  0.10242198255E+02 -0.27236018200E+02  0.55785547227E+02  0.10566000000E+00 0. -1.
         23    2    1    0    0    0 -0.29589292363E+02  0.33567671447E+01  0.63875773579E+01  0.94543551541E+02  0.89503563534E+02 0.  0.
         13    1    3    3    0    0  0.18006009956E+02 -0.68854311107E+01  0.33623595558E+02  0.38758004314E+02  0.10566000000E+00 0.  1.
         22    1    1    0    0    0  0.29589292363E+02 -0.33567671447E+01 -0.63875773579E+01  0.30456448459E+02  0.00000000000E+00 0. -1.
</event>
<event>
 5    1  0.6924865E-004  0.9118800E+02  0.7818608E-02  0.1130116E+00
         25   -1    0    0    0    0  0.00000000000E+00  0.00000000000E+00  0.99999998245E-14  0.12500000000E+03  0.12500000000E+03 0.  0.
        -13    1    3    3    0    0 -0.42590689955E+01  0.33384295831E+02  0.18147532384E+02  0.38236042846E+02  0.10566000000E+00 0. -1.
         23    2    1    0    0    0  0.47848143180E+01 -0.25123241127E+02  0.70693303028E+01  0.98466113671E+02  0.94823670134E+02 0.  0.
         13    1    3    3    0    0  0.90438833134E+01 -0.58507536958E+02 -0.11078202081E+02  0.60230070826E+02  0.10566000000E+00 0.  1.
         22    1    1    0    0    0 -0.47848143180E+01  0.25123241127E+02 -0.70693303028E+01  0.26533886329E+02  0.00000000000E+00 0.  1.
</event>
<event>
 5    1  0.6924865E-004  0.9118800E+02  0.7818608E-02  0.1130116E+00
         25   -1    0    0    0    0  0.00000000000E+00  0.00000000000E+00  0.99999998245E-14  0.12500000000E+03  0.12500000000E+03 0.  0.
        -13    1    3    3    0    0 -0.53107411593E+02  0.63113139072E+01 -0.58131417610E+01  0.53796223200E+02  0.10566000000E+00 0.  1.
         23    2    1    0    0    0 -0.23421203044E+02  0.16992658465E+02 -0.21423305725E+02  0.88996372100E+02  0.81388531287E+02 0.  0.
         13    1    3    3    0    0  0.29686208549E+02  0.10681344558E+02 -0.15610163964E+02  0.35200148901E+02  0.10566000000E+00 0. -1.
         22    1    1    0    0    0  0.23421203044E+02 -0.16992658465E+02  0.21423305725E+02  0.36003627900E+02  0.00000000000E+00 0.  1.
</event>
<event>
 5    1  0.6924865E-004  0.9118800E+02  0.7818608E-02  0.1130116E+00
         25   -1    0    0    0    0  0.00000000000E+00  0.00000000000E+00  0.99999998245E-14  0.12500000000E+03  0.12500000000E+03 0.  0.
        -13    1    3    3    0    0 -0.14489850672E+02  0.23069748832E+02 -0.30703635191E+02  0.41047453778E+02  0.10566000000E+00 0.  1.
         23    2    1    0    0    0 -0.15980854028E+02 -0.24060279852E+02 -0.24628957217E+01  0.96011198415E+02  0.91530320679E+02 0.  0.
         13    1    3    3    0    0 -0.14910033559E+01 -0.47130028684E+02  0.28240739469E+02  0.54963744637E+02  0.10566000000E+00 0. -1.
         22    1    1    0    0    0  0.15980854028E+02  0.24060279852E+02  0.24628957217E+01  0.28988801585E+02  0.00000000000E+00 0. -1.
</event>
<event>
 5    1  0.6924865E-004  0.9118800E+02  0.7818608E-02  0.1130116E+00
         25   -1    0    0    0    0  0.00000000000E+00  0.00000000000E+00  0.99999998245E-14  0.12500000000E+03  0.12500000000E+03 0.  0.
        -13    1    3    3    0    0 -0.27389226305E+02  0.13806936978E+02  0.34517264889E+02  0.46176335560E+02  0.10566000000E+00 0. -1.
         23    2    1    0    0    0  0.19825764963E+02  0.53327638280E+01  0.20106577481E+02  0.96263720066E+02  0.91874534102E+02 0.  0.
         13    1    3    3    0    0  0.47214991269E+02 -0.84741731500E+01 -0.14410687408E+02  0.50087384506E+02  0.10566000000E+00 0.  1.
         22    1    1    0    0    0 -0.19825764963E+02 -0.53327638280E+01 -0.20106577481E+02  0.28736279934E+02  0.00000000000E+00 0. -1.
</event>
<event>
 5    1  0.6924865E-004  0.9118800E+02  0.7818608E-02  0.1130116E+00
         25   -1    0    0    0    0  0.00000000000E+00  0.00000000000E+00  0.99999998245E-14  0.12500000000E+03  0.12500000000E+03 0.  0.
        -13    1    3    3    0    0 -0.32570177348E+02  0.15684555619E+02  0.12500411481E+02  0.38250401157E+02  0.10566000000E+00 0. -1.
         23    2    1    0    0    0  0.25586242104E+02  0.90633198513E+01  0.14451464401E+01  0.97817505634E+02  0.93964761525E+02 0.  0.
         13    1    3    3    0    0  0.58156419452E+02 -0.66212357678E+01 -0.11055265041E+02  0.59567104477E+02  0.10566000000E+00 0.  1.
         22    1    1    0    0    0 -0.25586242104E+02 -0.90633198513E+01 -0.14451464401E+01  0.27182494366E+02  0.00000000000E+00 0.  1.
</event>
<event>
 5    1  0.6924865E-004  0.9118800E+02  0.7818608E-02  0.1130116E+00
         25   -1    0    0    0    0  0.00000000000E+00  0.00000000000E+00  0.99999998245E-14  0.12500000000E+03  0.12500000000E+03 0.  0.
        -13    1    3    3    0    0 -0.56602125440E+02  0.37601666028E+01  0.19467941739E+02  0.59974589425E+02  0.10566000000E+00 0. -1.
         23    2    1    0    0    0 -0.22055974740E+02 -0.86846159788E+01  0.53033753356E+00  0.10128987907E+03  0.98475731876E+02 0.  0.
         13    1    3    3    0    0  0.34546150700E+02 -0.12444782582E+02 -0.18937604205E+02  0.41315289649E+02  0.10566000000E+00 0.  1.
         22    1    1    0    0    0  0.22055974740E+02  0.86846159788E+01 -0.53033753356E+00  0.23710120926E+02  0.00000000000E+00 0. -1.
</event>
<event>
 5    1  0.6924865E-004  0.9118800E+02  0.7818608E-02  0.1130116E+00
         25   -1    0    0    0    0  0.00000000000E+00  0.00000000000E+00  0.99999998245E-14  0.12500000000E+03  0.12500000000E+03 0.  0.
        -13    1    3    3    0    0  0.44804491321E+02 -0.12115321214E+02 -0.13401298751E+01  0.46433076172E+02  0.10566000000E+00 0.  1.
         23    2    1    0    0    0 -0.16057567415E+01 -0.28683064391E+02 -0.49690789569E+01  0.95845439753E+02  0.91303668810E+02 0.  0.
         13    1    3    3    0    0 -0.46410248062E+02 -0.16567743176E+02 -0.36289490818E+01  0.49412363581E+02  0.10566000000E+00 0. -1.
         22    1    1    0    0    0  0.16057567415E+01  0.28683064391E+02  0.49690789569E+01  0.29154560247E+02  0.00000000000E+00 0. -1.
</event>
<event>
 5    1  0.6924865E-004  0.9118800E+02  0.7818608E-02  0.1130116E+00
         25   -1    0    0    0    0  0.00000000000E+00  0.00000000000E+00  0.99999998245E-14  0.12500000000E+03  0.12500000000E+03 0.  0.
        -13    1    3    3    0    0  0.19194083287E+02  0.21534967954E+01  0.44385288661E+02  0.48405737214E+02  0.10566000000E+00 0.  1.
         23    2    1    0    0    0 -0.73607431716E+01 -0.23934748590E+02  0.15217182735E+02  0.95697860479E+02  0.91101400208E+02 0.  0.
         13    1    3    3    0    0 -0.26554826459E+02 -0.26088245385E+02 -0.29168105926E+02  0.47292123265E+02  0.10566000000E+00 0. -1.
         22    1    1    0    0    0  0.73607431716E+01  0.23934748590E+02 -0.15217182735E+02  0.29302139521E+02  0.00000000000E+00 0.  1.
</event>
<event>
 5    1  0.6924865E-004  0.9118800E+02  0.7818608E-02  0.1130116E+00
         25   -1    0    0    0    0  0.00000000000E+00  0.00000000000E+00  0.99999998245E-14  0.12500000000E+03  0.12500000000E+03 0.  0.
        -13    1    3    3    0    0 -0.20403082608E+02  0.13159623631E+02  0.26417911143E+02  0.35880059465E+02  0.10566000000E+00 0.  1.
         23    2    1    0    0    0  0.92150035292E+01 -0.26917851660E+02 -0.67702409729E+01  0.95754091040E+02  0.91178521375E+02 0.  0.
         13    1    3    3    0    0  0.29618086137E+02 -0.40077475291E+02 -0.33188152116E+02  0.59874031575E+02  0.10566000000E+00 0. -1.
         22    1    1    0    0    0 -0.92150035292E+01  0.26917851660E+02  0.67702409729E+01  0.29245908960E+02  0.00000000000E+00 0. -1.
</event>
<event>
 5    1  0.6924865E-004  0.9118800E+02  0.7818608E-02  0.1130116E+00
         25   -1    0    0    0    0  0.00000000000E+00  0.00000000000E+00  0.99999998245E-14  0.12500000000E+03  0.12500000000E+03 0.  0.
        -13    1    3    3    0    0 -0.13007712676E+02  0.54732978663E+01 -0.35707468686E+02  0.38395208849E+02  0.10566000000E+00 0.  1.
         23    2    1    0    0    0 -0.95615277380E+01 -0.23648496132E+02  0.13846313276E+02  0.95975965592E+02  0.91482191699E+02 0.  0.
         13    1    3    3    0    0  0.34461849380E+01 -0.29121793998E+02  0.49553781962E+02  0.57580756743E+02  0.10566000000E+00 0. -1.
         22    1    1    0    0    0  0.95615277380E+01  0.23648496132E+02 -0.13846313276E+02  0.29024034408E+02  0.00000000000E+00 0. -1.
</event>
<event>
 5    1  0.6924865E-004  0.9118800E+02  0.7818608E-02  0.1130116E+00
         25   -1    0    0    0    0  0.00000000000E+00  0.00000000000E+00  0.99999998245E-14  0.12500000000E+03  0.12500000000E+03 0.  0.
        -13    1    3    3    0    0 -0.32084241342E+02 -0.13599983140E+02 -0.16019140452E+02  0.38353384580E+02  0.10566000000E+00 0. -1.
         23    2    1    0    0    0  0.21882554077E+00  0.23622936878E+02  0.15398235840E+02  0.96800767770E+02  0.92602332274E+02 0.  0.
         13    1    3    3    0    0  0.32303066883E+02  0.37222920018E+02  0.31417376292E+02  0.58447383190E+02  0.10566000000E+00 0.  1.
         22    1    1    0    0    0 -0.21882554077E+00 -0.23622936878E+02 -0.15398235840E+02  0.28199232230E+02  0.00000000000E+00 0.  1.
</event>
<event>
 5    1  0.6924865E-004  0.9118800E+02  0.7818608E-02  0.1130116E+00
         25   -1    0    0    0    0  0.00000000000E+00  0.00000000000E+00  0.99999998245E-14  0.12500000000E+03  0.12500000000E+03 0.  0.
        -13    1    3    3    0    0 -0.66838731166E+01 -0.81940950476E+01 -0.42613643418E+02  0.43906162698E+02  0.10566000000E+00 0. -1.
         23    2    1    0    0    0  0.26875428654E+02  0.10457433592E+02 -0.94131636934E+01  0.94664307600E+02  0.89672051945E+02 0.  0.
         13    1    3    3    0    0  0.33559301771E+02  0.18651528639E+02  0.33200479724E+02  0.50758144902E+02  0.10566000000E+00 0.  1.
         22    1    1    0    0    0 -0.26875428654E+02 -0.10457433592E+02  0.94131636934E+01  0.30335692400E+02  0.00000000000E+00 0.  1.
</event>
<event>
 5    1  0.6924865E-004  0.9118800E+02  0.7818608E-02  0.1130116E+00
         25   -1    0    0    0    0  0.00000000000E+00  0.00000000000E+00  0.99999998245E-14  0.12500000000E+03  0.12500000000E+03 0.  0.
        -13    1    3    3    0    0 -0.20335007830E+02 -0.24617791937E+02 -0.13686769339E+02  0.34740279824E+02  0.10566000000E+00 0.  1.
         23    2    1    0    0    0 -0.97841908963E+01  0.17849602883E+02  0.24730350829E+02  0.92969874076E+02  0.87278110194E+02 0.  0.
         13    1    3    3    0    0  0.10550816933E+02  0.42467394820E+02  0.38417120168E+02  0.58229594252E+02  0.10566000000E+00 0. -1.
         22    1    1    0    0    0  0.97841908963E+01 -0.17849602883E+02 -0.24730350829E+02  0.32030125924E+02  0.00000000000E+00 0. -1.
</event>
<event>
 5    1  0.6924865E-004  0.9118800E+02  0.7818608E-02  0.1130116E+00
         25   -1    0    0    0    0  0.00000000000E+00  0.00000000000E+00  0.99999998245E-14  0.12500000000E+03  0.12500000000E+03 0.  0.
        -13    1    3    3    0    0 -0.62725106067E+01 -0.42155842951E+02 -0.38086405440E+02  0.57158069663E+02  0.10566000000E+00 0.  1.
         23    2    1    0    0    0 -0.13716582586E+02 -0.61853933094E+01 -0.24351742531E+02  0.96374642491E+02  0.92025325985E+02 0.  0.
         13    1    3    3    0    0 -0.74440719796E+01  0.35970449642E+02  0.13734662910E+02  0.39216572828E+02  0.10566000000E+00 0. -1.
         22    1    1    0    0    0  0.13716582586E+02  0.61853933094E+01  0.24351742531E+02  0.28625357509E+02  0.00000000000E+00 0.  1.
</event>
<event>
 5    1  0.6924865E-004  0.9118800E+02  0.7818608E-02  0.1130116E+00
         25   -1    0    0    0    0  0.00000000000E+00  0.00000000000E+00  0.99999998245E-14  0.12500000000E+03  0.12500000000E+03 0.  0.
        -13    1    3    3    0    0  0.11675204994E+02 -0.17078361243E+02 -0.38905015455E+02  0.44063502198E+02  0.10566000000E+00 0. -1.
         23    2    1    0    0    0  0.35150891607E+01  0.26384307957E+02 -0.12237215210E+02  0.95704317822E+02  0.91110259881E+02 0.  0.
         13    1    3    3    0    0 -0.81601158335E+01  0.43462669200E+02  0.26667800245E+02  0.51640815624E+02  0.10566000000E+00 0.  1.
         22    1    1    0    0    0 -0.35150891607E+01 -0.26384307957E+02  0.12237215210E+02  0.29295682178E+02  0.00000000000E+00 0.  1.
</event>
<event>
 5    1  0.6924865E-004  0.9118800E+02  0.7818608E-02  0.1130116E+00
         25   -1    0    0    0    0  0.00000000000E+00  0.00000000000E+00  0.99999998245E-14  0.12500000000E+03  0.12500000000E+03 0.  0.
        -13    1    3    3    0    0  0.11198883962E+02  0.46271754969E+02  0.25802916018E+02  0.54150641261E+02  0.10566000000E+00 0.  1.
         23    2    1    0    0    0  0.41389869316E+01  0.29168950251E+02 -0.95305687391E+01  0.94035655795E+02  0.88791406953E+02 0.  0.
         13    1    3    3    0    0 -0.70598970305E+01 -0.17102804717E+02 -0.35333484757E+02  0.39885014534E+02  0.10566000000E+00 0. -1.
         22    1    1    0    0    0 -0.41389869316E+01 -0.29168950251E+02  0.95305687391E+01  0.30964344205E+02  0.00000000000E+00 0.  1.
</event>
<event>
 4    1  0.6924865E-004  0.9118800E+02  0.7818608E-02  0.1130116E+00
         25   -1    0    0    0    0  0.00000000000E+00  0.00000000000E+00  0.99999998245E-14  0.12500000000E+03  0.12500000000E+03 0.  0.
        -13    1    1    0    0    0 -0.26007709454E+02  0.38662272630E+01 -0.13755869658E+02  0.29674631899E+02  0.10566000000E+00 0. -1.
         13    1    1    0    0    0 -0.12947638475E+02  0.23066191556E+02  0.34624429953E+02  0.43572386308E+02  0.10566000000E+00 0.  1.
         22    1    1    0    0    0  0.38955347929E+02 -0.26932418819E+02 -0.20868560295E+02  0.51752981793E+02  0.00000000000E+00 0.  1.
</event>
<event>
 5    1  0.6924865E-004  0.9118800E+02  0.7818608E-02  0.1130116E+00
         25   -1    0    0    0    0  0.00000000000E+00  0.00000000000E+00  0.99999998245E-14  0.12500000000E+03  0.12500000000E+03 0.  0.
        -13    1    3    3    0    0  0.30110220549E+02 -0.16484817525E+02  0.44255178065E+02  0.56008093522E+02  0.10566000000E+00 0. -1.
         23    2    1    0    0    0  0.22878795682E+02  0.95285922035E+01  0.14093550608E+02  0.96489273422E+02  0.92180900167E+02 0.  0.
         13    1    3    3    0    0 -0.72314248674E+01  0.26013409728E+02 -0.30161627456E+02  0.40481179901E+02  0.10566000000E+00 0.  1.
         22    1    1    0    0    0 -0.22878795682E+02 -0.95285922035E+01 -0.14093550608E+02  0.28510726578E+02  0.00000000000E+00 0. -1.
</event>
<event>
 5    1  0.6924865E-004  0.9118800E+02  0.7818608E-02  0.1130116E+00
         25   -1    0    0    0    0  0.00000000000E+00  0.00000000000E+00  0.99999998245E-14  0.12500000000E+03  0.12500000000E+03 0.  0.
        -13    1    3    3    0    0 -0.15424867181E+02 -0.22307626661E+02 -0.23240070200E+02  0.35716505452E+02  0.10566000000E+00 0. -1.
         23    2    1    0    0    0  0.22566516285E+01  0.30565387809E+01  0.28638813357E+02  0.96110269361E+02  0.91665518818E+02 0.  0.
         13    1    3    3    0    0  0.17681518810E+02  0.25364165441E+02  0.51878883557E+02  0.60393763909E+02  0.10566000000E+00 0.  1.
         22    1    1    0    0    0 -0.22566516285E+01 -0.30565387809E+01 -0.28638813357E+02  0.28889730639E+02  0.00000000000E+00 0.  1.
</event>
<event>
 5    1  0.6924865E-004  0.9118800E+02  0.7818608E-02  0.1130116E+00
         25   -1    0    0    0    0  0.00000000000E+00  0.00000000000E+00  0.99999998245E-14  0.12500000000E+03  0.12500000000E+03 0.  0.
        -13    1    3    3    0    0  0.58931129426E+02  0.48869171289E+00 -0.17304043133E+02  0.61421151957E+02  0.10566000000E+00 0. -1.
         23    2    1    0    0    0  0.28734441910E+02 -0.37482749827E+01 -0.98649484613E+00  0.96005329985E+02  0.91522306003E+02 0.  0.
         13    1    3    3    0    0 -0.30196687516E+02 -0.42369666956E+01  0.16317548287E+02  0.34584178027E+02  0.10566000000E+00 0.  1.
         22    1    1    0    0    0 -0.28734441910E+02  0.37482749827E+01  0.98649484613E+00  0.28994670015E+02  0.00000000000E+00 0. -1.
</event>
<event>
 5    1  0.6924865E-004  0.9118800E+02  0.7818608E-02  0.1130116E+00
         25   -1    0    0    0    0  0.00000000000E+00  0.00000000000E+00  0.99999998245E-14  0.12500000000E+03  0.12500000000E+03 0.  0.
        -13    1    3    3    0    0  0.11638027646E+02 -0.27056067315E+02 -0.48498675944E+02  0.56741582622E+02  0.10566000000E+00 0. -1.
         23    2    1    0    0    0  0.18790559080E+02 -0.21601047075E+02 -0.12653755435E+02  0.93698117119E+02  0.88314943695E+02 0.  0.
         13    1    3    3    0    0  0.71525314339E+01  0.54550202399E+01  0.35844920509E+02  0.36956534498E+02  0.10566000000E+00 0.  1.
         22    1    1    0    0    0 -0.18790559080E+02  0.21601047075E+02  0.12653755435E+02  0.31301882881E+02  0.00000000000E+00 0. -1.
</event>
<event>
 5    1  0.6924865E-004  0.9118800E+02  0.7818608E-02  0.1130116E+00
         25   -1    0    0    0    0  0.00000000000E+00  0.00000000000E+00  0.99999998245E-14  0.12500000000E+03  0.12500000000E+03 0.  0.
        -13    1    3    3    0    0 -0.20026118407E+02  0.34949896516E+02  0.33472966854E+02  0.52373575006E+02  0.10566000000E+00 0. -1.
         23    2    1    0    0    0 -0.13931917685E+02 -0.63677990124E+01  0.26031120252E+02  0.94796251620E+02  0.89855789491E+02 0.  0.
         13    1    3    3    0    0  0.60942007224E+01 -0.41317695528E+02 -0.74418466021E+01  0.42422676614E+02  0.10566000000E+00 0.  1.
         22    1    1    0    0    0  0.13931917685E+02  0.63677990124E+01 -0.26031120252E+02  0.30203748380E+02  0.00000000000E+00 0. -1.
</event>
<event>
 5    1  0.6924865E-004  0.9118800E+02  0.7818608E-02  0.1130116E+00
         25   -1    0    0    0    0  0.00000000000E+00  0.00000000000E+00  0.99999998245E-14  0.12500000000E+03  0.12500000000E+03 0.  0.
        -13    1    3    3    0    0 -0.14351924057E+02 -0.15397031282E+02 -0.50733505621E+02  0.54926733500E+02  0.10566000000E+00 0.  1.
         23    2    1    0    0    0  0.56819526784E+01  0.10733470507E+02 -0.26625169846E+02  0.95735830019E+02  0.91153483229E+02 0.  0.
         13    1    3    3    0    0  0.20033876735E+02  0.26130501789E+02  0.24108335775E+02  0.40809096519E+02  0.10566000000E+00 0. -1.
         22    1    1    0    0    0 -0.56819526784E+01 -0.10733470507E+02  0.26625169846E+02  0.29264169981E+02  0.00000000000E+00 0.  1.
</event>
<event>
 5    1  0.6924865E-004  0.9118800E+02  0.7818608E-02  0.1130116E+00
         25   -1    0    0    0    0  0.00000000000E+00  0.00000000000E+00  0.99999998245E-14  0.12500000000E+03  0.12500000000E+03 0.  0.
        -13    1    3    3    0    0  0.42119976367E+01  0.31329302132E+02  0.19516545576E+01  0.31671536365E+02  0.10566000000E+00 0.  1.
         23    2    1    0    0    0  0.44843873472E+01 -0.27515834445E+02 -0.15566584638E+02  0.93069615843E+02  0.87420843972E+02 0.  0.
         13    1    3    3    0    0  0.27238971054E+00 -0.58845136578E+02 -0.17518239196E+02  0.61398079478E+02  0.10566000000E+00 0. -1.
         22    1    1    0    0    0 -0.44843873472E+01  0.27515834445E+02  0.15566584638E+02  0.31930384157E+02  0.00000000000E+00 0. -1.
</event>
<event>
 5    1  0.6924865E-004  0.9118800E+02  0.7818608E-02  0.1130116E+00
         25   -1    0    0    0    0  0.00000000000E+00  0.00000000000E+00  0.99999998245E-14  0.12500000000E+03  0.12500000000E+03 0.  0.
        -13    1    3    3    0    0 -0.41853117162E+02  0.13690589737E+02  0.15944279772E+01  0.44064373684E+02  0.10566000000E+00 0.  1.
         23    2    1    0    0    0 -0.78470298440E+01 -0.17349793015E+02  0.23251611342E+02  0.94946237755E+02  0.90064196210E+02 0.  0.
         13    1    3    3    0    0  0.34006087318E+02 -0.31040382752E+02  0.21657183365E+02  0.50881864072E+02  0.10566000000E+00 0. -1.
         22    1    1    0    0    0  0.78470298440E+01  0.17349793015E+02 -0.23251611342E+02  0.30053762245E+02  0.00000000000E+00 0. -1.
</event>
<event>
 5    1  0.6924865E-004  0.9118800E+02  0.7818608E-02  0.1130116E+00
         25   -1    0    0    0    0  0.00000000000E+00  0.00000000000E+00  0.99999998245E-14  0.12500000000E+03  0.12500000000E+03 0.  0.
        -13    1    3    3    0    0  0.56338337628E+02  0.14844291165E+02  0.10396723465E+02  0.59181621216E+02  0.10566000000E+00 0.  1.
         23    2    1    0    0    0  0.27792746244E+02  0.19582957394E+01 -0.86359068529E+01  0.95830657307E+02  0.91283428544E+02 0.  0.
         13    1    3    3    0    0 -0.28545591384E+02 -0.12885995425E+02 -0.19032630317E+02  0.36649036091E+02  0.10566000000E+00 0. -1.
         22    1    1    0    0    0 -0.27792746244E+02 -0.19582957394E+01  0.86359068529E+01  0.29169342693E+02  0.00000000000E+00 0.  1.
</event>
<event>
 5    1  0.6924865E-004  0.9118800E+02  0.7818608E-02  0.1130116E+00
         25   -1    0    0    0    0  0.00000000000E+00  0.00000000000E+00  0.99999998245E-14  0.12500000000E+03  0.12500000000E+03 0.  0.
        -13    1    3    3    0    0  0.39168755358E+02  0.23045914307E+02 -0.40192020971E+02  0.60668898757E+02  0.10566000000E+00 0. -1.
         23    2    1    0    0    0  0.11276712435E+02  0.18868419968E+02 -0.18969538662E+02  0.95965108705E+02  0.91467355796E+02 0.  0.
         13    1    3    3    0    0 -0.27892042923E+02 -0.41774943389E+01  0.21222482309E+02  0.35296209949E+02  0.10566000000E+00 0.  1.
         22    1    1    0    0    0 -0.11276712435E+02 -0.18868419968E+02  0.18969538662E+02  0.29034891295E+02  0.00000000000E+00 0. -1.
</event>
<event>
 5    1  0.6924865E-004  0.9118800E+02  0.7818608E-02  0.1130116E+00
         25   -1    0    0    0    0  0.00000000000E+00  0.00000000000E+00  0.99999998245E-14  0.12500000000E+03  0.12500000000E+03 0.  0.
        -13    1    3    3    0    0  0.18664155862E+02  0.45012637901E+02  0.24650540982E+02  0.54609052543E+02  0.10566000000E+00 0.  1.
         23    2    1    0    0    0  0.20826732129E+02  0.22718171901E+00  0.10806814458E+02  0.10153531118E+03  0.98786779454E+02 0.  0.
         13    1    3    3    0    0  0.21625762669E+01 -0.44785456182E+02 -0.13843726523E+02  0.46926258637E+02  0.10566000000E+00 0. -1.
         22    1    1    0    0    0 -0.20826732129E+02 -0.22718171901E+00 -0.10806814458E+02  0.23464688821E+02  0.00000000000E+00 0.  1.
</event>
<event>
 5    1  0.6924865E-004  0.9118800E+02  0.7818608E-02  0.1130116E+00
         25   -1    0    0    0    0  0.00000000000E+00  0.00000000000E+00  0.99999998245E-14  0.12500000000E+03  0.12500000000E+03 0.  0.
        -13    1    3    3    0    0 -0.19119456012E+02  0.62259106711E+01 -0.49304479747E+02  0.53247144985E+02  0.10566000000E+00 0.  1.
         23    2    1    0    0    0 -0.26871443945E+02  0.72283703969E+01 -0.69479100672E+01  0.96319043033E+02  0.91949773018E+02 0.  0.
         13    1    3    3    0    0 -0.77519879325E+01  0.10024597257E+01  0.42356569679E+02  0.43071898048E+02  0.10566000000E+00 0. -1.
         22    1    1    0    0    0  0.26871443945E+02 -0.72283703969E+01  0.69479100672E+01  0.28680956967E+02  0.00000000000E+00 0.  1.
</event>
<event>
 5    1  0.6924865E-004  0.9118800E+02  0.7818608E-02  0.1130116E+00
         25   -1    0    0    0    0  0.00000000000E+00  0.00000000000E+00  0.99999998245E-14  0.12500000000E+03  0.12500000000E+03 0.  0.
        -13    1    3    3    0    0 -0.14686307721E+01 -0.45988918034E+02 -0.36946835415E+02  0.59010314942E+02  0.10566000000E+00 0.  1.
         23    2    1    0    0    0 -0.11667547146E+02 -0.11657162984E+02 -0.21215476620E+02  0.98127754961E+02  0.94376579405E+02 0.  0.
         13    1    3    3    0    0 -0.10198916374E+02  0.34331755050E+02  0.15731358796E+02  0.39117440019E+02  0.10566000000E+00 0. -1.
         22    1    1    0    0    0  0.11667547146E+02  0.11657162984E+02  0.21215476620E+02  0.26872245039E+02  0.00000000000E+00 0.  1.
</event>
<event>
 5    1  0.6924865E-004  0.9118800E+02  0.7818608E-02  0.1130116E+00
         25   -1    0    0    0    0  0.00000000000E+00  0.00000000000E+00  0.99999998245E-14  0.12500000000E+03  0.12500000000E+03 0.  0.
        -13    1    3    3    0    0 -0.55562399203E+02 -0.10287345270E+02 -0.11258742618E+02  0.57617533158E+02  0.10566000000E+00 0.  1.
         23    2    1    0    0    0 -0.26405268431E+02  0.18908207437E+01  0.11066650736E+02  0.96307071211E+02  0.91933496630E+02 0.  0.
         13    1    3    3    0    0  0.29157130772E+02  0.12178166014E+02  0.22325393353E+02  0.38689538052E+02  0.10566000000E+00 0. -1.
         22    1    1    0    0    0  0.26405268431E+02 -0.18908207437E+01 -0.11066650736E+02  0.28692928789E+02  0.00000000000E+00 0.  1.
</event>
<event>
 5    1  0.6924865E-004  0.9118800E+02  0.7818608E-02  0.1130116E+00
         25   -1    0    0    0    0  0.00000000000E+00  0.00000000000E+00  0.99999998245E-14  0.12500000000E+03  0.12500000000E+03 0.  0.
        -13    1    3    3    0    0 -0.32880239689E+02  0.13447929585E+02 -0.83324163304E+01  0.36488317282E+02  0.10566000000E+00 0.  1.
         23    2    1    0    0    0  0.11861229502E+02 -0.25838387733E+02 -0.31517133382E+00  0.96567441570E+02  0.92286837590E+02 0.  0.
         13    1    3    3    0    0  0.44741469192E+02 -0.39286317317E+02  0.80172449965E+01  0.60079124288E+02  0.10566000000E+00 0. -1.
         22    1    1    0    0    0 -0.11861229502E+02  0.25838387733E+02  0.31517133382E+00  0.28432558430E+02  0.00000000000E+00 0. -1.
</event>
<event>
 5    1  0.6924865E-004  0.9118800E+02  0.7818608E-02  0.1130116E+00
         25   -1    0    0    0    0  0.00000000000E+00  0.00000000000E+00  0.99999998245E-14  0.12500000000E+03  0.12500000000E+03 0.  0.
        -13    1    3    3    0    0 -0.11997746314E+02 -0.56744390635E+02 -0.15881269865E+02  0.60133997719E+02  0.10566000000E+00 0. -1.
         23    2    1    0    0    0 -0.29269815345E+01 -0.27895204426E+02  0.44865088333E+01  0.96595098797E+02  0.92324290949E+02 0.  0.
         13    1    3    3    0    0  0.90707647799E+01  0.28849186209E+02  0.20367778699E+02  0.36461101077E+02  0.10566000000E+00 0.  1.
         22    1    1    0    0    0  0.29269815345E+01  0.27895204426E+02 -0.44865088333E+01  0.28404901203E+02  0.00000000000E+00 0. -1.
</event>
<event>
 5    1  0.6924865E-004  0.9118800E+02  0.7818608E-02  0.1130116E+00
         25   -1    0    0    0    0  0.00000000000E+00  0.00000000000E+00  0.99999998245E-14  0.12500000000E+03  0.12500000000E+03 0.  0.
        -13    1    3    3    0    0 -0.12598901804E+02 -0.49778330724E+02  0.30390992366E+02  0.59667730955E+02  0.10566000000E+00 0. -1.
         23    2    1    0    0    0 -0.13907995843E+02 -0.26203418363E+02  0.40221109886E+01  0.95062918328E+02  0.90225991720E+02 0.  0.
         13    1    3    3    0    0 -0.13090940385E+01  0.23574912361E+02 -0.26368881377E+02  0.35395187373E+02  0.10566000000E+00 0.  1.
         22    1    1    0    0    0  0.13907995843E+02  0.26203418363E+02 -0.40221109886E+01  0.29937081672E+02  0.00000000000E+00 0. -1.
</event>
<event>
 5    1  0.6924865E-004  0.9118800E+02  0.7818608E-02  0.1130116E+00
         25   -1    0    0    0    0  0.00000000000E+00  0.00000000000E+00  0.99999998245E-14  0.12500000000E+03  0.12500000000E+03 0.  0.
        -13    1    3    3    0    0 -0.16901099576E+02  0.53144705179E+02  0.11050026257E+02  0.56851746673E+02  0.10566000000E+00 0.  1.
         23    2    1    0    0    0 -0.11618201166E+02  0.17058220261E+02  0.21904442085E+02  0.94903985980E+02  0.90005535914E+02 0.  0.
         13    1    3    3    0    0  0.52828984105E+01 -0.36086484918E+02  0.10854415828E+02  0.38052239308E+02  0.10566000000E+00 0. -1.
         22    1    1    0    0    0  0.11618201166E+02 -0.17058220261E+02 -0.21904442085E+02  0.30096014020E+02  0.00000000000E+00 0.  1.
</event>
<event>
 5    1  0.6924865E-004  0.9118800E+02  0.7818608E-02  0.1130116E+00
         25   -1    0    0    0    0  0.00000000000E+00  0.00000000000E+00  0.99999998245E-14  0.12500000000E+03  0.12500000000E+03 0.  0.
        -13    1    3    3    0    0 -0.14776791175E+02 -0.35054030625E+02  0.36306664569E+02  0.52586344964E+02  0.10566000000E+00 0.  1.
         23    2    1    0    0    0 -0.27357741258E+02 -0.13287595617E+02  0.28265667290E+01  0.94455021960E+02  0.89379838274E+02 0.  0.
         13    1    3    3    0    0 -0.12580950083E+02  0.21766435008E+02 -0.33480097840E+02  0.41868676996E+02  0.10566000000E+00 0. -1.
         22    1    1    0    0    0  0.27357741258E+02  0.13287595617E+02 -0.28265667290E+01  0.30544978040E+02  0.00000000000E+00 0.  1.
</event>
<event>
 5    1  0.6924865E-004  0.9118800E+02  0.7818608E-02  0.1130116E+00
         25   -1    0    0    0    0  0.00000000000E+00  0.00000000000E+00  0.99999998245E-14  0.12500000000E+03  0.12500000000E+03 0.  0.
        -13    1    3    3    0    0 -0.32807424512E+02  0.17763913617E+01  0.47946749167E+02  0.58123872799E+02  0.10566000000E+00 0.  1.
         23    2    1    0    0    0 -0.25147397432E+01 -0.92194964302E+01  0.26486653342E+02  0.96842126577E+02  0.92658143972E+02 0.  0.
         13    1    3    3    0    0  0.30292684769E+02 -0.10995887792E+02 -0.21460095825E+02  0.38718253779E+02  0.10566000000E+00 0. -1.
         22    1    1    0    0    0  0.25147397432E+01  0.92194964302E+01 -0.26486653342E+02  0.28157873423E+02  0.00000000000E+00 0.  1.
</event>
<event>
 5    1  0.6924865E-004  0.9118800E+02  0.7818608E-02  0.1130116E+00
         25   -1    0    0    0    0  0.00000000000E+00  0.00000000000E+00  0.99999998245E-14  0.12500000000E+03  0.12500000000E+03 0.  0.
        -13    1    3    3    0    0  0.26057585822E+02  0.21780228062E+02 -0.23650215220E+00  0.33962379343E+02  0.10566000000E+00 0.  1.
         23    2    1    0    0    0 -0.23405156802E+02 -0.12765510471E+02 -0.12542533544E+02  0.95536891369E+02  0.90880266517E+02 0.  0.
         13    1    3    3    0    0 -0.49462742624E+02 -0.34545738533E+02 -0.12306031392E+02  0.61574512026E+02  0.10566000000E+00 0. -1.
         22    1    1    0    0    0  0.23405156802E+02  0.12765510471E+02  0.12542533544E+02  0.29463108631E+02  0.00000000000E+00 0. -1.
</event>
<event>
 5    1  0.6924865E-004  0.9118800E+02  0.7818608E-02  0.1130116E+00
         25   -1    0    0    0    0  0.00000000000E+00  0.00000000000E+00  0.99999998245E-14  0.12500000000E+03  0.12500000000E+03 0.  0.
        -13    1    3    3    0    0 -0.39786727233E+01 -0.58801415578E+01  0.37602574099E+02  0.38267096105E+02  0.10566000000E+00 0. -1.
         23    2    1    0    0    0  0.28475594671E+02 -0.16361649340E+01 -0.88888877371E+01  0.95124443892E+02  0.90311189634E+02 0.  0.
         13    1    3    3    0    0  0.32454267394E+02  0.42439766238E+01 -0.46491461836E+02  0.56857347787E+02  0.10566000000E+00 0.  1.
         22    1    1    0    0    0 -0.28475594671E+02  0.16361649340E+01  0.88888877371E+01  0.29875556108E+02  0.00000000000E+00 0.  1.
</event>
<event>
 5    1  0.6924865E-004  0.9118800E+02  0.7818608E-02  0.1130116E+00
         25   -1    0    0    0    0  0.00000000000E+00  0.00000000000E+00  0.99999998245E-14  0.12500000000E+03  0.12500000000E+03 0.  0.
        -13    1    3    3    0    0 -0.30430138968E+02 -0.13199775663E+02  0.13297494754E+02  0.35736003777E+02  0.10566000000E+00 0.  1.
         23    2    1    0    0    0  0.15274116804E+02  0.24599260792E+02  0.46855242359E+01  0.95667826316E+02  0.91060181084E+02 0.  0.
         13    1    3    3    0    0  0.45704255772E+02  0.37799036456E+02 -0.86119705182E+01  0.59931822539E+02  0.10566000000E+00 0. -1.
         22    1    1    0    0    0 -0.15274116804E+02 -0.24599260792E+02 -0.46855242359E+01  0.29332173684E+02  0.00000000000E+00 0. -1.
</event>
<event>
 5    1  0.6924865E-004  0.9118800E+02  0.7818608E-02  0.1130116E+00
         25   -1    0    0    0    0  0.00000000000E+00  0.00000000000E+00  0.99999998245E-14  0.12500000000E+03  0.12500000000E+03 0.  0.
        -13    1    3    3    0    0  0.26923281252E+02  0.50668270556E+01 -0.20685965298E+02  0.34328648883E+02  0.10566000000E+00 0. -1.
         23    2    1    0    0    0 -0.22600056883E+02 -0.12094931195E+02  0.12620341145E+02  0.96428634223E+02  0.92098634929E+02 0.  0.
         13    1    3    3    0    0 -0.49523338136E+02 -0.17161758250E+02  0.33306306443E+02  0.62099985340E+02  0.10566000000E+00 0.  1.
         22    1    1    0    0    0  0.22600056883E+02  0.12094931195E+02 -0.12620341145E+02  0.28571365777E+02  0.00000000000E+00 0.  1.
</event>
<event>
 5    1  0.6924865E-004  0.9118800E+02  0.7818608E-02  0.1130116E+00
         25   -1    0    0    0    0  0.00000000000E+00  0.00000000000E+00  0.99999998245E-14  0.12500000000E+03  0.12500000000E+03 0.  0.
        -13    1    3    3    0    0 -0.33034295443E+02  0.40511941429E+02  0.28233540932E+02  0.59410656210E+02  0.10566000000E+00 0.  1.
         23    2    1    0    0    0 -0.25814774947E+02  0.17986420348E+02  0.39850506801E+01  0.93285735836E+02  0.87729322117E+02 0.  0.
         13    1    3    3    0    0  0.72195204952E+01 -0.22525521080E+02 -0.24248490252E+02  0.33875079626E+02  0.10566000000E+00 0. -1.
         22    1    1    0    0    0  0.25814774947E+02 -0.17986420348E+02 -0.39850506801E+01  0.31714264164E+02  0.00000000000E+00 0.  1.
</event>
<event>
 5    1  0.6924865E-004  0.9118800E+02  0.7818608E-02  0.1130116E+00
         25   -1    0    0    0    0  0.00000000000E+00  0.00000000000E+00  0.99999998245E-14  0.12500000000E+03  0.12500000000E+03 0.  0.
        -13    1    3    3    0    0 -0.49795921327E+02  0.88787933284E+01  0.13051161382E+02  0.52238019959E+02  0.10566000000E+00 0.  1.
         23    2    1    0    0    0 -0.89929639587E+01  0.46910364450E+01  0.27470993833E+02  0.95716306144E+02  0.91126705943E+02 0.  0.
         13    1    3    3    0    0  0.40802957368E+02 -0.41877568834E+01  0.14419832450E+02  0.43478286185E+02  0.10566000000E+00 0. -1.
         22    1    1    0    0    0  0.89929639587E+01 -0.46910364450E+01 -0.27470993833E+02  0.29283693856E+02  0.00000000000E+00 0. -1.
</event>
<event>
 5    1  0.6924865E-004  0.9118800E+02  0.7818608E-02  0.1130116E+00
         25   -1    0    0    0    0  0.00000000000E+00  0.00000000000E+00  0.99999998245E-14  0.12500000000E+03  0.12500000000E+03 0.  0.
        -13    1    3    3    0    0 -0.17958058044E+02  0.24685755434E+02 -0.31465452129E+02  0.43840212269E+02  0.10566000000E+00 0.  1.
         23    2    1    0    0    0  0.24380928998E+02 -0.17977262813E+01 -0.14463818623E+02  0.96594656001E+02  0.92323691435E+02 0.  0.
         13    1    3    3    0    0  0.42338987042E+02 -0.26483481715E+02  0.17001633507E+02  0.52754443732E+02  0.10566000000E+00 0. -1.
         22    1    1    0    0    0 -0.24380928998E+02  0.17977262813E+01  0.14463818623E+02  0.28405343999E+02  0.00000000000E+00 0. -1.
</event>
<event>
 5    1  0.6924865E-004  0.9118800E+02  0.7818608E-02  0.1130116E+00
         25   -1    0    0    0    0  0.00000000000E+00  0.00000000000E+00  0.99999998245E-14  0.12500000000E+03  0.12500000000E+03 0.  0.
        -13    1    3    3    0    0 -0.27559777837E+02  0.18559186061E+02  0.36962567640E+02  0.49701381392E+02  0.10566000000E+00 0.  1.
         23    2    1    0    0    0 -0.18485443488E+02 -0.18919531630E+02  0.10151367306E+02  0.96667852954E+02  0.92422741999E+02 0.  0.
         13    1    3    3    0    0  0.90743343496E+01 -0.37478717691E+02 -0.26811200334E+02  0.46966471562E+02  0.10566000000E+00 0. -1.
         22    1    1    0    0    0  0.18485443488E+02  0.18919531630E+02 -0.10151367306E+02  0.28332147046E+02  0.00000000000E+00 0.  1.
</event>
<event>
 5    1  0.6924865E-004  0.9118800E+02  0.7818608E-02  0.1130116E+00
         25   -1    0    0    0    0  0.00000000000E+00  0.00000000000E+00  0.99999998245E-14  0.12500000000E+03  0.12500000000E+03 0.  0.
        -13    1    3    3    0    0 -0.13812234437E+02 -0.20876038972E+02  0.34790007566E+02  0.42859568521E+02  0.10566000000E+00 0. -1.
         23    2    1    0    0    0 -0.14881719248E+02 -0.29245356865E+02 -0.11740474861E+02  0.90148956746E+02  0.83139877234E+02 0.  0.
         13    1    3    3    0    0 -0.10694848105E+01 -0.83693178929E+01 -0.46530482427E+02  0.47289388225E+02  0.10566000000E+00 0.  1.
         22    1    1    0    0    0  0.14881719248E+02  0.29245356865E+02  0.11740474861E+02  0.34851043254E+02  0.00000000000E+00 0. -1.
</event>
<event>
 5    1  0.6924865E-004  0.9118800E+02  0.7818608E-02  0.1130116E+00
         25   -1    0    0    0    0  0.00000000000E+00  0.00000000000E+00  0.99999998245E-14  0.12500000000E+03  0.12500000000E+03 0.  0.
        -13    1    3    3    0    0  0.37486112041E+02 -0.24177333298E+02 -0.52747557426E+01  0.44917549504E+02  0.10566000000E+00 0.  1.
         23    2    1    0    0    0 -0.12959298467E+02 -0.22740017181E+02 -0.12667620698E+02  0.95922166307E+02  0.91408651542E+02 0.  0.
         13    1    3    3    0    0 -0.50445410508E+02  0.14373161171E+01 -0.73928649551E+01  0.51004616803E+02  0.10566000000E+00 0. -1.
         22    1    1    0    0    0  0.12959298467E+02  0.22740017181E+02  0.12667620698E+02  0.29077833693E+02  0.00000000000E+00 0. -1.
</event>
<event>
 5    1  0.6924865E-004  0.9118800E+02  0.7818608E-02  0.1130116E+00
         25   -1    0    0    0    0  0.00000000000E+00  0.00000000000E+00  0.99999998245E-14  0.12500000000E+03  0.12500000000E+03 0.  0.
        -13    1    3    3    0    0 -0.17790308443E+02 -0.21907483175E+02  0.27961881484E+02  0.39727960855E+02  0.10566000000E+00 0.  1.
         23    2    1    0    0    0 -0.19771525094E+02  0.20042430517E+02 -0.87599498213E+01  0.95515276049E+02  0.90850531162E+02 0.  0.
         13    1    3    3    0    0 -0.19812166505E+01  0.41949913692E+02 -0.36721831305E+02  0.55787315195E+02  0.10566000000E+00 0. -1.
         22    1    1    0    0    0  0.19771525094E+02 -0.20042430517E+02  0.87599498213E+01  0.29484723951E+02  0.00000000000E+00 0. -1.
</event>
<event>
 5    1  0.6924865E-004  0.9118800E+02  0.7818608E-02  0.1130116E+00
         25   -1    0    0    0    0  0.00000000000E+00  0.00000000000E+00  0.99999998245E-14  0.12500000000E+03  0.12500000000E+03 0.  0.
        -13    1    3    3    0    0  0.36093214117E+02  0.39370402646E+02  0.28853900225E+02  0.60706733005E+02  0.10566000000E+00 0.  1.
         23    2    1    0    0    0  0.15020706214E+02  0.12460620158E+02 -0.72907868080E-01  0.10548349454E+03  0.10366230576E+03 0.  0.
         13    1    3    3    0    0 -0.21072507904E+02 -0.26909782489E+02 -0.28926808093E+02  0.44776761534E+02  0.10566000000E+00 0. -1.
         22    1    1    0    0    0 -0.15020706214E+02 -0.12460620158E+02  0.72907868080E-01  0.19516505461E+02  0.00000000000E+00 0.  1.
</event>
<event>
 5    1  0.6924865E-004  0.9118800E+02  0.7818608E-02  0.1130116E+00
         25   -1    0    0    0    0  0.00000000000E+00  0.00000000000E+00  0.99999998245E-14  0.12500000000E+03  0.12500000000E+03 0.  0.
        -13    1    3    3    0    0  0.14267652205E+02 -0.50218298805E+01  0.73702537970E+01  0.16826065489E+02  0.10566000000E+00 0.  1.
         23    2    1    0    0    0 -0.97582307990E+01  0.21328212498E+02 -0.41504557697E+02  0.77326694825E+02  0.60882458116E+02 0.  0.
         13    1    3    3    0    0 -0.24025883004E+02  0.26350042378E+02 -0.48874811494E+02  0.60500629336E+02  0.10566000000E+00 0. -1.
         22    1    1    0    0    0  0.97582307990E+01 -0.21328212498E+02  0.41504557697E+02  0.47673305175E+02  0.00000000000E+00 0. -1.
</event>
<event>
 5    1  0.6924865E-004  0.9118800E+02  0.7818608E-02  0.1130116E+00
         25   -1    0    0    0    0  0.00000000000E+00  0.00000000000E+00  0.99999998245E-14  0.12500000000E+03  0.12500000000E+03 0.  0.
        -13    1    3    3    0    0 -0.41119412415E+02  0.85519396330E+00  0.31882127550E+01  0.41251827822E+02  0.10566000000E+00 0.  1.
         23    2    1    0    0    0  0.61970725118E+01  0.27215194813E+02 -0.66624211817E+01  0.96304035259E+02  0.91929368619E+02 0.  0.
         13    1    3    3    0    0  0.47316484927E+02  0.26360000850E+02 -0.98506339367E+01  0.55052207436E+02  0.10566000000E+00 0. -1.
         22    1    1    0    0    0 -0.61970725118E+01 -0.27215194813E+02  0.66624211817E+01  0.28695964741E+02  0.00000000000E+00 0.  1.
</event>
<event>
 5    1  0.6924865E-004  0.9118800E+02  0.7818608E-02  0.1130116E+00
         25   -1    0    0    0    0  0.00000000000E+00  0.00000000000E+00  0.99999998245E-14  0.12500000000E+03  0.12500000000E+03 0.  0.
        -13    1    3    3    0    0  0.47954250402E+02 -0.21463530963E+02 -0.26802165546E+01  0.52606919866E+02  0.10566000000E+00 0. -1.
         23    2    1    0    0    0  0.70707303987E+01 -0.25762044272E+02  0.11251535672E+02  0.96012499100E+02  0.91532096966E+02 0.  0.
         13    1    3    3    0    0 -0.40883520003E+02 -0.42985133088E+01  0.13931752227E+02  0.43405579234E+02  0.10566000000E+00 0.  1.
         22    1    1    0    0    0 -0.70707303987E+01  0.25762044272E+02 -0.11251535672E+02  0.28987500900E+02  0.00000000000E+00 0. -1.
</event>
<event>
 5    1  0.6924865E-004  0.9118800E+02  0.7818608E-02  0.1130116E+00
         25   -1    0    0    0    0  0.00000000000E+00  0.00000000000E+00  0.99999998245E-14  0.12500000000E+03  0.12500000000E+03 0.  0.
        -13    1    3    3    0    0  0.26210293353E+02 -0.18627695776E+02  0.12318821518E+02  0.34434503847E+02  0.10566000000E+00 0.  1.
         23    2    1    0    0    0 -0.17681868175E+02  0.30024308819E+01 -0.23760722799E+02  0.95230300618E+02  0.90457587601E+02 0.  0.
         13    1    3    3    0    0 -0.43892161528E+02  0.21630126658E+02 -0.36079544317E+02  0.60795796771E+02  0.10566000000E+00 0. -1.
         22    1    1    0    0    0  0.17681868175E+02 -0.30024308819E+01  0.23760722799E+02  0.29769699382E+02  0.00000000000E+00 0. -1.
</event>
<event>
 5    1  0.6924865E-004  0.9118800E+02  0.7818608E-02  0.1130116E+00
         25   -1    0    0    0    0  0.00000000000E+00  0.00000000000E+00  0.99999998245E-14  0.12500000000E+03  0.12500000000E+03 0.  0.
        -13    1    3    3    0    0  0.41675240564E+01 -0.17650303742E+02 -0.36521878869E+02  0.40776957698E+02  0.10566000000E+00 0. -1.
         23    2    1    0    0    0  0.24691823378E+02 -0.51215001671E+01  0.13585799460E+02  0.96355805952E+02  0.91999736348E+02 0.  0.
         13    1    3    3    0    0  0.20524299321E+02  0.12528803575E+02  0.50107678330E+02  0.55578848254E+02  0.10566000000E+00 0.  1.
         22    1    1    0    0    0 -0.24691823378E+02  0.51215001671E+01 -0.13585799460E+02  0.28644194048E+02  0.00000000000E+00 0.  1.
</event>
<event>
 5    1  0.6924865E-004  0.9118800E+02  0.7818608E-02  0.1130116E+00
         25   -1    0    0    0    0  0.00000000000E+00  0.00000000000E+00  0.99999998245E-14  0.12500000000E+03  0.12500000000E+03 0.  0.
        -13    1    3    3    0    0  0.32588808456E+02  0.17854250913E+02 -0.69541044053E+01  0.37804436834E+02  0.10566000000E+00 0. -1.
         23    2    1    0    0    0 -0.10559403783E+02 -0.16615104727E+02 -0.22428090541E+02  0.95157380164E+02  0.90356765331E+02 0.  0.
         13    1    3    3    0    0 -0.43148212239E+02 -0.34469355640E+02 -0.15473986136E+02  0.57352943330E+02  0.10566000000E+00 0.  1.
         22    1    1    0    0    0  0.10559403783E+02  0.16615104727E+02  0.22428090541E+02  0.29842619836E+02  0.00000000000E+00 0.  1.
</event>
<event>
 5    1  0.6924865E-004  0.9118800E+02  0.7818608E-02  0.1130116E+00
         25   -1    0    0    0    0  0.00000000000E+00  0.00000000000E+00  0.99999998245E-14  0.12500000000E+03  0.12500000000E+03 0.  0.
        -13    1    3    3    0    0 -0.26651388468E+02 -0.16826009509E+02 -0.24928618968E+02  0.40185299687E+02  0.10566000000E+00 0.  1.
         23    2    1    0    0    0  0.13749632678E+02  0.20066782502E+02  0.83713567541E+00  0.10066013651E+03  0.97673098275E+02 0.  0.
         13    1    3    3    0    0  0.40401021145E+02  0.36892792011E+02  0.25765754644E+02  0.60474836819E+02  0.10566000000E+00 0. -1.
         22    1    1    0    0    0 -0.13749632678E+02 -0.20066782502E+02 -0.83713567541E+00  0.24339863493E+02  0.00000000000E+00 0. -1.
</event>
<event>
 5    1  0.6924865E-004  0.9118800E+02  0.7818608E-02  0.1130116E+00
         25   -1    0    0    0    0  0.00000000000E+00  0.00000000000E+00  0.99999998245E-14  0.12500000000E+03  0.12500000000E+03 0.  0.
        -13    1    3    3    0    0 -0.99861899481E+01  0.22010026488E+02 -0.38311048354E+02  0.45298044612E+02  0.10566000000E+00 0.  1.
         23    2    1    0    0    0  0.21135128198E+02 -0.11300126806E+02 -0.16979334987E+02  0.95628511676E+02  0.91006197146E+02 0.  0.
         13    1    3    3    0    0  0.31121318146E+02 -0.33310153294E+02  0.21331713367E+02  0.50330467064E+02  0.10566000000E+00 0. -1.
         22    1    1    0    0    0 -0.21135128198E+02  0.11300126806E+02  0.16979334987E+02  0.29371488324E+02  0.00000000000E+00 0. -1.
</event>
<event>
 5    1  0.6924865E-004  0.9118800E+02  0.7818608E-02  0.1130116E+00
         25   -1    0    0    0    0  0.00000000000E+00  0.00000000000E+00  0.99999998245E-14  0.12500000000E+03  0.12500000000E+03 0.  0.
        -13    1    3    3    0    0 -0.19444511083E+02  0.53147540001E+01  0.27865738404E+02  0.34392530616E+02  0.10566000000E+00 0. -1.
         23    2    1    0    0    0  0.19099429836E+02 -0.16800331697E+02 -0.14441790579E+02  0.95749278978E+02  0.91171924103E+02 0.  0.
         13    1    3    3    0    0  0.38543940918E+02 -0.22115085697E+02 -0.42307528983E+02  0.61356748362E+02  0.10566000000E+00 0.  1.
         22    1    1    0    0    0 -0.19099429836E+02  0.16800331697E+02  0.14441790579E+02  0.29250721022E+02  0.00000000000E+00 0.  1.
</event>
<event>
 5    1  0.6924865E-004  0.9118800E+02  0.7818608E-02  0.1130116E+00
         25   -1    0    0    0    0  0.00000000000E+00  0.00000000000E+00  0.99999998245E-14  0.12500000000E+03  0.12500000000E+03 0.  0.
        -13    1    3    3    0    0 -0.12616709201E+02  0.34822412962E+02 -0.10890198583E+01  0.37053730228E+02  0.10566000000E+00 0. -1.
         23    2    1    0    0    0  0.46850112082E+01 -0.16183708627E+02  0.23355255507E+02  0.96201914738E+02  0.91790406278E+02 0.  0.
         13    1    3    3    0    0  0.17301720409E+02 -0.51006121589E+02  0.24444275365E+02  0.59148184510E+02  0.10566000000E+00 0.  1.
         22    1    1    0    0    0 -0.46850112082E+01  0.16183708627E+02 -0.23355255507E+02  0.28798085262E+02  0.00000000000E+00 0.  1.
</event>
<event>
 5    1  0.6924865E-004  0.9118800E+02  0.7818608E-02  0.1130116E+00
         25   -1    0    0    0    0  0.00000000000E+00  0.00000000000E+00  0.99999998245E-14  0.12500000000E+03  0.12500000000E+03 0.  0.
        -13    1    3    3    0    0  0.51507321325E+02 -0.27688485836E+01  0.90848818208E+01  0.52375728294E+02  0.10566000000E+00 0.  1.
         23    2    1    0    0    0  0.13814849345E+02  0.19227283198E+02  0.15808094237E+02  0.96531871769E+02  0.92238646684E+02 0.  0.
         13    1    3    3    0    0 -0.37692471980E+02  0.21996131781E+02  0.67232124163E+01  0.44156143475E+02  0.10566000000E+00 0. -1.
         22    1    1    0    0    0 -0.13814849345E+02 -0.19227283198E+02 -0.15808094237E+02  0.28468128231E+02  0.00000000000E+00 0.  1.
</event>
<event>
 5    1  0.6924865E-004  0.9118800E+02  0.7818608E-02  0.1130116E+00
         25   -1    0    0    0    0  0.00000000000E+00  0.00000000000E+00  0.99999998245E-14  0.12500000000E+03  0.12500000000E+03 0.  0.
        -13    1    3    3    0    0  0.99760705842E+01 -0.41028349784E+02  0.26075031007E+02  0.49626261963E+02  0.10566000000E+00 0.  1.
         23    2    1    0    0    0 -0.22076311820E+02 -0.20903901541E+02  0.18940875245E+01  0.94538151554E+02  0.89496021635E+02 0.  0.
         13    1    3    3    0    0 -0.32052382404E+02  0.20124448244E+02 -0.24180943483E+02  0.44911889591E+02  0.10566000000E+00 0. -1.
         22    1    1    0    0    0  0.22076311820E+02  0.20903901541E+02 -0.18940875245E+01  0.30461848446E+02  0.00000000000E+00 0. -1.
</event>
<event>
 5    1  0.6924865E-004  0.9118800E+02  0.7818608E-02  0.1130116E+00
         25   -1    0    0    0    0  0.00000000000E+00  0.00000000000E+00  0.99999998245E-14  0.12500000000E+03  0.12500000000E+03 0.  0.
        -13    1    3    3    0    0 -0.85840376233E+01  0.30023020794E+02 -0.21481897670E+02  0.37901854454E+02  0.10566000000E+00 0.  1.
         23    2    1    0    0    0  0.29137369067E+02 -0.72338793923E+01 -0.35210145202E+00  0.94976021872E+02  0.90105524070E+02 0.  0.
         13    1    3    3    0    0  0.37721406690E+02 -0.37256900187E+02  0.21129796218E+02  0.57074167418E+02  0.10566000000E+00 0. -1.
         22    1    1    0    0    0 -0.29137369067E+02  0.72338793923E+01  0.35210145202E+00  0.30023978128E+02  0.00000000000E+00 0. -1.
</event>
<event>
 5    1  0.6924865E-004  0.9118800E+02  0.7818608E-02  0.1130116E+00
         25   -1    0    0    0    0  0.00000000000E+00  0.00000000000E+00  0.99999998245E-14  0.12500000000E+03  0.12500000000E+03 0.  0.
        -13    1    3    3    0    0 -0.39828100116E+02  0.16521040845E+02 -0.30970935201E+02  0.53088909771E+02  0.10566000000E+00 0.  1.
         23    2    1    0    0    0 -0.12870653734E+02  0.25954921861E+02  0.10674902382E+01  0.96009463065E+02  0.91527950738E+02 0.  0.
         13    1    3    3    0    0  0.26957446381E+02  0.94338810163E+01  0.32038425439E+02  0.42920553294E+02  0.10566000000E+00 0. -1.
         22    1    1    0    0    0  0.12870653734E+02 -0.25954921861E+02 -0.10674902382E+01  0.28990536935E+02  0.00000000000E+00 0.  1.
</event>
<event>
 5    1  0.6924865E-004  0.9118800E+02  0.7818608E-02  0.1130116E+00
         25   -1    0    0    0    0  0.00000000000E+00  0.00000000000E+00  0.99999998245E-14  0.12500000000E+03  0.12500000000E+03 0.  0.
        -13    1    3    3    0    0  0.57213270354E+02  0.78302560823E+01  0.11191447233E+02  0.58821177055E+02  0.10566000000E+00 0.  1.
         23    2    1    0    0    0  0.21446709725E+02  0.17674604140E+02  0.81297927138E+01  0.96044059001E+02  0.91575186324E+02 0.  0.
         13    1    3    3    0    0 -0.35766560629E+02  0.98443480581E+01 -0.30616545194E+01  0.37222881946E+02  0.10566000000E+00 0. -1.
         22    1    1    0    0    0 -0.21446709725E+02 -0.17674604140E+02 -0.81297927138E+01  0.28955940999E+02  0.00000000000E+00 0.  1.
</event>
<event>
 5    1  0.6924865E-004  0.9118800E+02  0.7818608E-02  0.1130116E+00
         25   -1    0    0    0    0  0.00000000000E+00  0.00000000000E+00  0.99999998245E-14  0.12500000000E+03  0.12500000000E+03 0.  0.
        -13    1    3    3    0    0 -0.30766470281E+02 -0.10176712022E+02  0.17977860328E+02  0.37058815242E+02  0.10566000000E+00 0. -1.
         23    2    1    0    0    0  0.18315622342E+02 -0.22503537646E+02 -0.92771640975E+01  0.94537941599E+02  0.89495728388E+02 0.  0.
         13    1    3    3    0    0  0.49082092623E+02 -0.12326825624E+02 -0.27255024426E+02  0.57479126357E+02  0.10566000000E+00 0.  1.
         22    1    1    0    0    0 -0.18315622342E+02  0.22503537646E+02  0.92771640975E+01  0.30462058401E+02  0.00000000000E+00 0. -1.
</event>
<event>
 5    1  0.6924865E-004  0.9118800E+02  0.7818608E-02  0.1130116E+00
         25   -1    0    0    0    0  0.00000000000E+00  0.00000000000E+00  0.99999998245E-14  0.12500000000E+03  0.12500000000E+03 0.  0.
        -13    1    3    3    0    0  0.35691550790E+02 -0.35540669713E+02  0.34098689924E+02  0.60825634564E+02  0.10566000000E+00 0.  1.
         23    2    1    0    0    0  0.24470409874E+02 -0.12965306953E+02  0.10422921905E+02  0.95410518004E+02  0.90706281486E+02 0.  0.
         13    1    3    3    0    0 -0.11221140916E+02  0.22575362761E+02 -0.23675768019E+02  0.34584883440E+02  0.10566000000E+00 0. -1.
         22    1    1    0    0    0 -0.24470409874E+02  0.12965306953E+02 -0.10422921905E+02  0.29589481996E+02  0.00000000000E+00 0.  1.
</event>
<event>
 5    1  0.6924865E-004  0.9118800E+02  0.7818608E-02  0.1130116E+00
         25   -1    0    0    0    0  0.00000000000E+00  0.00000000000E+00  0.99999998245E-14  0.12500000000E+03  0.12500000000E+03 0.  0.
        -13    1    3    3    0    0 -0.45846999359E+02  0.10675785040E+01  0.12619641729E+02  0.47564204981E+02  0.10566000000E+00 0.  1.
         23    2    1    0    0    0 -0.97040665317E+01 -0.26014343110E+02 -0.62971906286E+01  0.96529496588E+02  0.92235427830E+02 0.  0.
         13    1    3    3    0    0  0.36142932827E+02 -0.27081921614E+02 -0.18916832358E+02  0.48965291607E+02  0.10566000000E+00 0. -1.
         22    1    1    0    0    0  0.97040665317E+01  0.26014343110E+02  0.62971906286E+01  0.28470503412E+02  0.00000000000E+00 0.  1.
</event>
<event>
 5    1  0.6924865E-004  0.9118800E+02  0.7818608E-02  0.1130116E+00
         25   -1    0    0    0    0  0.00000000000E+00  0.00000000000E+00  0.99999998245E-14  0.12500000000E+03  0.12500000000E+03 0.  0.
        -13    1    3    3    0    0  0.21317559856E+02 -0.29850194215E+01 -0.13685598171E+02  0.25507948967E+02  0.10566000000E+00 0. -1.
         23    2    1    0    0    0 -0.26181115997E+02 -0.16120669933E+02  0.22713152644E+02  0.86774169244E+02  0.77900849232E+02 0.  0.
         13    1    3    3    0    0 -0.47498675853E+02 -0.13135650511E+02  0.36398750815E+02  0.61266220277E+02  0.10566000000E+00 0.  1.
         22    1    1    0    0    0  0.26181115997E+02  0.16120669933E+02 -0.22713152644E+02  0.38225830756E+02  0.00000000000E+00 0.  1.
</event>
<event>
 5    1  0.6924865E-004  0.9118800E+02  0.7818608E-02  0.1130116E+00
         25   -1    0    0    0    0  0.00000000000E+00  0.00000000000E+00  0.99999998245E-14  0.12500000000E+03  0.12500000000E+03 0.  0.
        -13    1    3    3    0    0 -0.54336954906E+02 -0.29420806562E+01  0.41562378232E+01  0.54575140713E+02  0.10566000000E+00 0.  1.
         23    2    1    0    0    0 -0.18225046366E+02 -0.18176204104E+02 -0.11535770388E+02  0.96793605173E+02  0.92592663280E+02 0.  0.
         13    1    3    3    0    0  0.36111908540E+02 -0.15234123448E+02 -0.15692008211E+02  0.42218464460E+02  0.10566000000E+00 0. -1.
         22    1    1    0    0    0  0.18225046366E+02  0.18176204104E+02  0.11535770388E+02  0.28206394827E+02  0.00000000000E+00 0. -1.
</event>
<event>
 5    1  0.6924865E-004  0.9118800E+02  0.7818608E-02  0.1130116E+00
         25   -1    0    0    0    0  0.00000000000E+00  0.00000000000E+00  0.99999998245E-14  0.12500000000E+03  0.12500000000E+03 0.  0.
        -13    1    3    3    0    0  0.41640984127E+02 -0.18515083247E+02 -0.32483439474E+02  0.55963960464E+02  0.10566000000E+00 0. -1.
         23    2    1    0    0    0  0.10674347607E+02 -0.26434081334E+02 -0.11168829848E+02  0.94382274529E+02  0.89278041154E+02 0.  0.
         13    1    3    3    0    0 -0.30966636520E+02 -0.79189980869E+01  0.21314609625E+02  0.38418314065E+02  0.10566000000E+00 0.  1.
         22    1    1    0    0    0 -0.10674347607E+02  0.26434081334E+02  0.11168829848E+02  0.30617725471E+02  0.00000000000E+00 0. -1.
</event>
<event>
 5    1  0.6924865E-004  0.9118800E+02  0.7818608E-02  0.1130116E+00
         25   -1    0    0    0    0  0.00000000000E+00  0.00000000000E+00  0.99999998245E-14  0.12500000000E+03  0.12500000000E+03 0.  0.
        -13    1    3    3    0    0  0.46219089534E+02 -0.23387700637E+02 -0.16758248678E+02  0.54442987072E+02  0.10566000000E+00 0. -1.
         23    2    1    0    0    0  0.54202954685E+01 -0.18087831464E+02 -0.22101997312E+02  0.95930298674E+02  0.91419771759E+02 0.  0.
         13    1    3    3    0    0 -0.40798794066E+02  0.52998691736E+01 -0.53437486337E+01  0.41487311602E+02  0.10566000000E+00 0.  1.
         22    1    1    0    0    0 -0.54202954685E+01  0.18087831464E+02  0.22101997312E+02  0.29069701326E+02  0.00000000000E+00 0. -1.
</event>
<event>
 5    1  0.6924865E-004  0.9118800E+02  0.7818608E-02  0.1130116E+00
         25   -1    0    0    0    0  0.00000000000E+00  0.00000000000E+00  0.99999998245E-14  0.12500000000E+03  0.12500000000E+03 0.  0.
        -13    1    3    3    0    0  0.46931900823E+02 -0.20523577017E+01 -0.18518238741E+02  0.50495067255E+02  0.10566000000E+00 0.  1.
         23    2    1    0    0    0  0.53791642412E+01 -0.19763147858E+02 -0.20912102468E+02  0.95728282407E+02  0.91143132499E+02 0.  0.
         13    1    3    3    0    0 -0.41552736582E+02 -0.17710790157E+02 -0.23938637278E+01  0.45233215152E+02  0.10566000000E+00 0. -1.
         22    1    1    0    0    0 -0.53791642412E+01  0.19763147858E+02  0.20912102468E+02  0.29271717593E+02  0.00000000000E+00 0. -1.
</event>
<event>
 5    1  0.6924865E-004  0.9118800E+02  0.7818608E-02  0.1130116E+00
         25   -1    0    0    0    0  0.00000000000E+00  0.00000000000E+00  0.99999998245E-14  0.12500000000E+03  0.12500000000E+03 0.  0.
        -13    1    3    3    0    0 -0.23561156685E+02 -0.11213453534E+02  0.43152441239E+02  0.50428305478E+02  0.10566000000E+00 0.  1.
         23    2    1    0    0    0 -0.27056983142E+02 -0.69569504071E+01 -0.29944882179E+01  0.96902910197E+02  0.92740107555E+02 0.  0.
         13    1    3    3    0    0 -0.34958264566E+01  0.42565031273E+01 -0.46146929457E+02  0.46474604719E+02  0.10566000000E+00 0. -1.
         22    1    1    0    0    0  0.27056983142E+02  0.69569504071E+01  0.29944882179E+01  0.28097089803E+02  0.00000000000E+00 0.  1.
</event>
<event>
 5    1  0.6924865E-004  0.9118800E+02  0.7818608E-02  0.1130116E+00
         25   -1    0    0    0    0  0.00000000000E+00  0.00000000000E+00  0.99999998245E-14  0.12500000000E+03  0.12500000000E+03 0.  0.
        -13    1    3    3    0    0 -0.36884805253E+01  0.27592454002E+02 -0.48476342462E+02  0.55900942290E+02  0.10566000000E+00 0.  1.
         23    2    1    0    0    0  0.16608875109E+02  0.17367062117E+02 -0.14018040790E+02  0.97179592984E+02  0.93112288373E+02 0.  0.
         13    1    3    3    0    0  0.20297355634E+02 -0.10225391886E+02  0.34458301672E+02  0.41278650694E+02  0.10566000000E+00 0. -1.
         22    1    1    0    0    0 -0.16608875109E+02 -0.17367062117E+02  0.14018040790E+02  0.27820407016E+02  0.00000000000E+00 0.  1.
</event>
<event>
 5    1  0.6924865E-004  0.9118800E+02  0.7818608E-02  0.1130116E+00
         25   -1    0    0    0    0  0.00000000000E+00  0.00000000000E+00  0.99999998245E-14  0.12500000000E+03  0.12500000000E+03 0.  0.
        -13    1    3    3    0    0 -0.65722584153E+01 -0.14485311413E+02 -0.53062887272E+02  0.55395848194E+02  0.10566000000E+00 0.  1.
         23    2    1    0    0    0  0.16566178733E+02 -0.13516123567E+02 -0.20299245817E+02  0.95518085970E+02  0.90854397211E+02 0.  0.
         13    1    3    3    0    0  0.23138437149E+02  0.96918784518E+00  0.32763641455E+02  0.40122237777E+02  0.10566000000E+00 0. -1.
         22    1    1    0    0    0 -0.16566178733E+02  0.13516123567E+02  0.20299245817E+02  0.29481914030E+02  0.00000000000E+00 0.  1.
</event>
<event>
 5    1  0.6924865E-004  0.9118800E+02  0.7818608E-02  0.1130116E+00
         25   -1    0    0    0    0  0.00000000000E+00  0.00000000000E+00  0.99999998245E-14  0.12500000000E+03  0.12500000000E+03 0.  0.
        -13    1    3    3    0    0  0.47519296183E+02  0.15871250838E+02  0.33297538685E+02  0.60155775777E+02  0.10566000000E+00 0.  1.
         23    2    1    0    0    0  0.14697481930E+02  0.10422289693E+02  0.35180751833E+00  0.10697879399E+03  0.10544998102E+03 0.  0.
         13    1    3    3    0    0 -0.32821814253E+02 -0.54489611443E+01 -0.32945731166E+02  0.46823018213E+02  0.10566000000E+00 0. -1.
         22    1    1    0    0    0 -0.14697481930E+02 -0.10422289693E+02 -0.35180751833E+00  0.18021206010E+02  0.00000000000E+00 0.  1.
</event>
<event>
 5    1  0.6924865E-004  0.9118800E+02  0.7818608E-02  0.1130116E+00
         25   -1    0    0    0    0  0.00000000000E+00  0.00000000000E+00  0.99999998245E-14  0.12500000000E+03  0.12500000000E+03 0.  0.
        -13    1    3    3    0    0  0.23530989784E+02 -0.34951239443E+02 -0.42992721166E+01  0.42353176075E+02  0.10566000000E+00 0. -1.
         23    2    1    0    0    0  0.29188619799E+02  0.13729195362E+02 -0.87923163517E+01  0.91566915221E+02  0.85245110154E+02 0.  0.
         13    1    3    3    0    0  0.56576300149E+01  0.48680434805E+02 -0.44930442352E+01  0.49213739146E+02  0.10566000000E+00 0.  1.
         22    1    1    0    0    0 -0.29188619799E+02 -0.13729195362E+02  0.87923163517E+01  0.33433084779E+02  0.00000000000E+00 0. -1.
</event>
<event>
 5    1  0.6924865E-004  0.9118800E+02  0.7818608E-02  0.1130116E+00
         25   -1    0    0    0    0  0.00000000000E+00  0.00000000000E+00  0.99999998245E-14  0.12500000000E+03  0.12500000000E+03 0.  0.
        -13    1    3    3    0    0  0.24217066067E+00 -0.48551389722E+02 -0.79563477496E+01  0.49199702480E+02  0.10566000000E+00 0. -1.
         23    2    1    0    0    0  0.10876958593E+02 -0.89456602635E+01 -0.27101813988E+02  0.94457547787E+02  0.89383370638E+02 0.  0.
         13    1    3    3    0    0  0.10634787932E+02  0.39605729459E+02 -0.19145466238E+02  0.45257845307E+02  0.10566000000E+00 0.  1.
         22    1    1    0    0    0 -0.10876958593E+02  0.89456602635E+01  0.27101813988E+02  0.30542452213E+02  0.00000000000E+00 0. -1.
</event>
<event>
 5    1  0.6924865E-004  0.9118800E+02  0.7818608E-02  0.1130116E+00
         25   -1    0    0    0    0  0.00000000000E+00  0.00000000000E+00  0.99999998245E-14  0.12500000000E+03  0.12500000000E+03 0.  0.
        -13    1    3    3    0    0 -0.22996079529E+02 -0.43488143590E+02  0.32375852494E+02  0.58891810088E+02  0.10566000000E+00 0.  1.
         23    2    1    0    0    0  0.15356206207E+01 -0.29190521468E+02  0.17109138894E+02  0.91130141601E+02  0.84602218648E+02 0.  0.
         13    1    3    3    0    0  0.24531700150E+02  0.14297622122E+02 -0.15266713600E+02  0.32238331513E+02  0.10566000000E+00 0. -1.
         22    1    1    0    0    0 -0.15356206207E+01  0.29190521468E+02 -0.17109138894E+02  0.33869858399E+02  0.00000000000E+00 0.  1.
</event>
<event>
 5    1  0.6924865E-004  0.9118800E+02  0.7818608E-02  0.1130116E+00
         25   -1    0    0    0    0  0.00000000000E+00  0.00000000000E+00  0.99999998245E-14  0.12500000000E+03  0.12500000000E+03 0.  0.
        -13    1    3    3    0    0  0.34200647090E+02  0.22095142271E+01  0.45075941013E+02  0.56625240280E+02  0.10566000000E+00 0.  1.
         23    2    1    0    0    0  0.16396837089E+02  0.19944622198E+02  0.18259174998E+02  0.93376564185E+02  0.87858642411E+02 0.  0.
         13    1    3    3    0    0 -0.17803810001E+02  0.17735107971E+02 -0.26816766014E+02  0.36751323905E+02  0.10566000000E+00 0. -1.
         22    1    1    0    0    0 -0.16396837089E+02 -0.19944622198E+02 -0.18259174998E+02  0.31623435815E+02  0.00000000000E+00 0.  1.
</event>
<event>
 5    1  0.6924865E-004  0.9118800E+02  0.7818608E-02  0.1130116E+00
         25   -1    0    0    0    0  0.00000000000E+00  0.00000000000E+00  0.99999998245E-14  0.12500000000E+03  0.12500000000E+03 0.  0.
        -13    1    3    3    0    0 -0.16152834012E+02  0.59601747873E+02  0.20834163761E+01  0.61787006594E+02  0.10566000000E+00 0.  1.
         23    2    1    0    0    0 -0.56794040390E+01  0.27686108834E+02 -0.54620523639E+01  0.96214408663E+02  0.91807418903E+02 0.  0.
         13    1    3    3    0    0  0.10473429973E+02 -0.31915639038E+02 -0.75454687400E+01  0.34427402068E+02  0.10566000000E+00 0. -1.
         22    1    1    0    0    0  0.56794040390E+01 -0.27686108834E+02  0.54620523639E+01  0.28785591337E+02  0.00000000000E+00 0.  1.
</event>
<event>
 5    1  0.6924865E-004  0.9118800E+02  0.7818608E-02  0.1130116E+00
         25   -1    0    0    0    0  0.00000000000E+00  0.00000000000E+00  0.99999998245E-14  0.12500000000E+03  0.12500000000E+03 0.  0.
        -13    1    3    3    0    0 -0.33850820142E+02  0.50819062212E+02 -0.56676272321E+01  0.61323635500E+02  0.10566000000E+00 0.  1.
         23    2    1    0    0    0 -0.83463141862E+01  0.24276985756E+02 -0.77256319965E+01  0.98191076343E+02  0.94460410150E+02 0.  0.
         13    1    3    3    0    0  0.25504505956E+02 -0.26542076456E+02 -0.20580047644E+01  0.36867440843E+02  0.10566000000E+00 0. -1.
         22    1    1    0    0    0  0.83463141862E+01 -0.24276985756E+02  0.77256319965E+01  0.26808923657E+02  0.00000000000E+00 0.  1.
</event>
<event>
 5    1  0.6924865E-004  0.9118800E+02  0.7818608E-02  0.1130116E+00
         25   -1    0    0    0    0  0.00000000000E+00  0.00000000000E+00  0.99999998245E-14  0.12500000000E+03  0.12500000000E+03 0.  0.
        -13    1    3    3    0    0  0.48192994488E+02 -0.72017488980E+01  0.15164651517E+02  0.51033398129E+02  0.10566000000E+00 0. -1.
         23    2    1    0    0    0  0.85557090116E+01 -0.14236266832E+02  0.27269241279E+02  0.93070656600E+02  0.87422332102E+02 0.  0.
         13    1    3    3    0    0 -0.39637285476E+02 -0.70345179339E+01  0.12104589762E+02  0.42037258472E+02  0.10566000000E+00 0.  1.
         22    1    1    0    0    0 -0.85557090116E+01  0.14236266832E+02 -0.27269241279E+02  0.31929343400E+02  0.00000000000E+00 0.  1.
</event>
<event>
 4    1  0.6924865E-004  0.9118800E+02  0.7818608E-02  0.1130116E+00
         25   -1    0    0    0    0  0.00000000000E+00  0.00000000000E+00  0.99999998245E-14  0.12500000000E+03  0.12500000000E+03 0.  0.
        -13    1    1    0    0    0 -0.12920227798E+02 -0.27577158769E+02  0.26899456531E+02  0.40632793379E+02  0.10566000000E+00 0. -1.
         13    1    1    0    0    0  0.18118856136E+02 -0.21334023928E+02  0.63660236994E+00  0.27997320430E+02  0.10566000000E+00 0.  1.
         22    1    1    0    0    0 -0.51986283379E+01  0.48911182696E+02 -0.27536058901E+02  0.56369886191E+02  0.00000000000E+00 0. -1.
</event>
<event>
 5    1  0.6924865E-004  0.9118800E+02  0.7818608E-02  0.1130116E+00
         25   -1    0    0    0    0  0.00000000000E+00  0.00000000000E+00  0.99999998245E-14  0.12500000000E+03  0.12500000000E+03 0.  0.
        -13    1    3    3    0    0 -0.15955088280E+02  0.29082921787E+02 -0.24236769289E+02  0.41083005383E+02  0.10566000000E+00 0. -1.
         23    2    1    0    0    0  0.16808490558E+02  0.17991556384E+02  0.17129758620E+02  0.95005832461E+02  0.90146869692E+02 0.  0.
         13    1    3    3    0    0  0.32763578838E+02 -0.11091365403E+02  0.41366527909E+02  0.53922827078E+02  0.10566000000E+00 0.  1.
         22    1    1    0    0    0 -0.16808490558E+02 -0.17991556384E+02 -0.17129758620E+02  0.29994167539E+02  0.00000000000E+00 0.  1.
</event>
<event>
 5    1  0.6924865E-004  0.9118800E+02  0.7818608E-02  0.1130116E+00
         25   -1    0    0    0    0  0.00000000000E+00  0.00000000000E+00  0.99999998245E-14  0.12500000000E+03  0.12500000000E+03 0.  0.
        -13    1    3    3    0    0  0.40270022251E+02 -0.82416975619E+01  0.11701381506E+02  0.42737966306E+02  0.10566000000E+00 0.  1.
         23    2    1    0    0    0  0.12348528423E+02  0.30925945422E+02  0.57734384780E+01  0.91203064543E+02  0.84709893966E+02 0.  0.
         13    1    3    3    0    0 -0.27921493828E+02  0.39167642984E+02 -0.59279430284E+01  0.48465098237E+02  0.10566000000E+00 0. -1.
         22    1    1    0    0    0 -0.12348528423E+02 -0.30925945422E+02 -0.57734384780E+01  0.33796935457E+02  0.00000000000E+00 0.  1.
</event>
<event>
 5    1  0.6924865E-004  0.9118800E+02  0.7818608E-02  0.1130116E+00
         25   -1    0    0    0    0  0.00000000000E+00  0.00000000000E+00  0.99999998245E-14  0.12500000000E+03  0.12500000000E+03 0.  0.
        -13    1    3    3    0    0 -0.31804418540E+01 -0.79306201067E+01  0.59767392837E+02  0.60375179968E+02  0.10566000000E+00 0. -1.
         23    2    1    0    0    0  0.91661421187E+01 -0.80208039280E+01  0.27546291541E+02  0.94881075141E+02  0.89973711635E+02 0.  0.
         13    1    3    3    0    0  0.12346583973E+02 -0.90183821344E-01 -0.32221101296E+02  0.34505895173E+02  0.10566000000E+00 0.  1.
         22    1    1    0    0    0 -0.91661421187E+01  0.80208039280E+01 -0.27546291541E+02  0.30118924859E+02  0.00000000000E+00 0. -1.
</event>
<event>
 5    1  0.6924865E-004  0.9118800E+02  0.7818608E-02  0.1130116E+00
         25   -1    0    0    0    0  0.00000000000E+00  0.00000000000E+00  0.99999998245E-14  0.12500000000E+03  0.12500000000E+03 0.  0.
        -13    1    3    3    0    0 -0.31063005093E+02 -0.15595100052E+02 -0.38350435046E+02  0.51757941065E+02  0.10566000000E+00 0.  1.
         23    2    1    0    0    0 -0.23177124247E+02  0.16163920215E+02 -0.10089423600E+02  0.94995869057E+02  0.90133053117E+02 0.  0.
         13    1    3    3    0    0  0.78858808455E+01  0.31759020267E+02  0.28261011446E+02  0.43237927992E+02  0.10566000000E+00 0. -1.
         22    1    1    0    0    0  0.23177124247E+02 -0.16163920215E+02  0.10089423600E+02  0.30004130943E+02  0.00000000000E+00 0.  1.
</event>
<event>
 5    1  0.6924865E-004  0.9118800E+02  0.7818608E-02  0.1130116E+00
         25   -1    0    0    0    0  0.00000000000E+00  0.00000000000E+00  0.99999998245E-14  0.12500000000E+03  0.12500000000E+03 0.  0.
        -13    1    3    3    0    0  0.38472433810E+02  0.14143375698E+02  0.15045830198E+02  0.43664074590E+02  0.10566000000E+00 0.  1.
         23    2    1    0    0    0 -0.16439918598E+01 -0.14002254618E+02  0.27385037086E+02  0.94198926969E+02  0.89020962376E+02 0.  0.
         13    1    3    3    0    0 -0.40116425670E+02 -0.28145630316E+02  0.12339206888E+02  0.50534852380E+02  0.10566000000E+00 0. -1.
         22    1    1    0    0    0  0.16439918598E+01  0.14002254618E+02 -0.27385037086E+02  0.30801073031E+02  0.00000000000E+00 0.  1.
</event>
<event>
 5    1  0.6924865E-004  0.9118800E+02  0.7818608E-02  0.1130116E+00
         25   -1    0    0    0    0  0.00000000000E+00  0.00000000000E+00  0.99999998245E-14  0.12500000000E+03  0.12500000000E+03 0.  0.
        -13    1    3    3    0    0 -0.41481847762E+02 -0.36620957147E+02 -0.14984267320E+02  0.57326936315E+02  0.10566000000E+00 0.  1.
         23    2    1    0    0    0 -0.21064851158E+02 -0.92876117999E+01 -0.23090546248E+02  0.92393850069E+02  0.86449190379E+02 0.  0.
         13    1    3    3    0    0  0.20416996603E+02  0.27333345347E+02 -0.81062789287E+01  0.35066913754E+02  0.10566000000E+00 0. -1.
         22    1    1    0    0    0  0.21064851158E+02  0.92876117999E+01  0.23090546248E+02  0.32606149931E+02  0.00000000000E+00 0.  1.
</event>
<event>
 5    1  0.6924865E-004  0.9118800E+02  0.7818608E-02  0.1130116E+00
         25   -1    0    0    0    0  0.00000000000E+00  0.00000000000E+00  0.99999998245E-14  0.12500000000E+03  0.12500000000E+03 0.  0.
        -13    1    3    3    0    0  0.32968583512E+01 -0.39930239818E+01 -0.52267640926E+02  0.52523622947E+02  0.10566000000E+00 0. -1.
         23    2    1    0    0    0  0.24963628053E+02 -0.78743749525E+01 -0.18071865152E+02  0.93191497732E+02  0.87594945248E+02 0.  0.
         13    1    3    3    0    0  0.21666769702E+02 -0.38813509707E+01  0.34195775774E+02  0.40667874784E+02  0.10566000000E+00 0.  1.
         22    1    1    0    0    0 -0.24963628053E+02  0.78743749525E+01  0.18071865152E+02  0.31808502268E+02  0.00000000000E+00 0. -1.
</event>
<event>
 5    1  0.6924865E-004  0.9118800E+02  0.7818608E-02  0.1130116E+00
         25   -1    0    0    0    0  0.00000000000E+00  0.00000000000E+00  0.99999998245E-14  0.12500000000E+03  0.12500000000E+03 0.  0.
        -13    1    3    3    0    0  0.35054655078E+02 -0.88374387693E+01  0.43140006806E+02  0.56284993719E+02  0.10566000000E+00 0. -1.
         23    2    1    0    0    0 -0.13342288937E+01 -0.97023248024E+00  0.28755825389E+02  0.96196892328E+02  0.91783566513E+02 0.  0.
         13    1    3    3    0    0 -0.36388883972E+02  0.78672062891E+01 -0.14384181417E+02  0.39911898609E+02  0.10566000000E+00 0.  1.
         22    1    1    0    0    0  0.13342288937E+01  0.97023248024E+00 -0.28755825389E+02  0.28803107672E+02  0.00000000000E+00 0. -1.
</event>
<event>
 5    1  0.6924865E-004  0.9118800E+02  0.7818608E-02  0.1130116E+00
         25   -1    0    0    0    0  0.00000000000E+00  0.00000000000E+00  0.99999998245E-14  0.12500000000E+03  0.12500000000E+03 0.  0.
        -13    1    3    3    0    0 -0.43700294162E+02 -0.25130499490E+02 -0.27019290662E+02  0.57195375218E+02  0.10566000000E+00 0. -1.
         23    2    1    0    0    0 -0.14289863464E+02 -0.23955926498E+02 -0.66160767663E-01  0.97105717621E+02  0.93013060402E+02 0.  0.
         13    1    3    3    0    0  0.29410430698E+02  0.11745729920E+01  0.26953129895E+02  0.39910342403E+02  0.10566000000E+00 0.  1.
         22    1    1    0    0    0  0.14289863464E+02  0.23955926498E+02  0.66160767663E-01  0.27894282379E+02  0.00000000000E+00 0.  1.
</event>
<event>
 5    1  0.6924865E-004  0.9118800E+02  0.7818608E-02  0.1130116E+00
         25   -1    0    0    0    0  0.00000000000E+00  0.00000000000E+00  0.99999998245E-14  0.12500000000E+03  0.12500000000E+03 0.  0.
        -13    1    3    3    0    0 -0.23372653288E+02 -0.23080025438E+02  0.30832402517E+02  0.45051267517E+02  0.10566000000E+00 0.  1.
         23    2    1    0    0    0 -0.91774485484E+01 -0.21734828938E+02 -0.17616960777E+02  0.95555379814E+02  0.90905692636E+02 0.  0.
         13    1    3    3    0    0  0.14195204740E+02  0.13451964992E+01 -0.48449363295E+02  0.50504112297E+02  0.10566000000E+00 0. -1.
         22    1    1    0    0    0  0.91774485484E+01  0.21734828938E+02  0.17616960777E+02  0.29444620186E+02  0.00000000000E+00 0. -1.
</event>
<event>
 5    1  0.6924865E-004  0.9118800E+02  0.7818608E-02  0.1130116E+00
         25   -1    0    0    0    0  0.00000000000E+00  0.00000000000E+00  0.99999998245E-14  0.12500000000E+03  0.12500000000E+03 0.  0.
        -13    1    3    3    0    0  0.44529210256E+02 -0.31460223599E+01 -0.34017727078E+02  0.56124548482E+02  0.10566000000E+00 0.  1.
         23    2    1    0    0    0  0.64191783702E+01 -0.10533915068E+02 -0.26644851102E+02  0.95638165795E+02  0.91019456430E+02 0.  0.
         13    1    3    3    0    0 -0.38110031886E+02 -0.73878927082E+01  0.73728759757E+01  0.39513617313E+02  0.10566000000E+00 0. -1.
         22    1    1    0    0    0 -0.64191783702E+01  0.10533915068E+02  0.26644851102E+02  0.29361834205E+02  0.00000000000E+00 0.  1.
</event>
<event>
 5    1  0.6924865E-004  0.9118800E+02  0.7818608E-02  0.1130116E+00
         25   -1    0    0    0    0  0.00000000000E+00  0.00000000000E+00  0.99999998245E-14  0.12500000000E+03  0.12500000000E+03 0.  0.
        -13    1    3    3    0    0 -0.56296637299E+02 -0.10824211822E+02  0.24216411476E+02  0.62232794261E+02  0.10566000000E+00 0.  1.
         23    2    1    0    0    0 -0.24652985019E+02 -0.82329963140E+01  0.13273668564E+02  0.95815377751E+02  0.91262502913E+02 0.  0.
         13    1    3    3    0    0  0.31643652280E+02  0.25912155080E+01 -0.10942742912E+02  0.33582583490E+02  0.10566000000E+00 0. -1.
         22    1    1    0    0    0  0.24652985019E+02  0.82329963140E+01 -0.13273668564E+02  0.29184622249E+02  0.00000000000E+00 0.  1.
</event>
<event>
 5    1  0.6924865E-004  0.9118800E+02  0.7818608E-02  0.1130116E+00
         25   -1    0    0    0    0  0.00000000000E+00  0.00000000000E+00  0.99999998245E-14  0.12500000000E+03  0.12500000000E+03 0.  0.
        -13    1    3    3    0    0 -0.54096598962E+02  0.28754678929E+02 -0.38931472357E+01  0.61387631808E+02  0.10566000000E+00 0. -1.
         23    2    1    0    0    0 -0.28723521172E+02  0.62081827913E+01 -0.40792357073E+01  0.95331458310E+02  0.90597265838E+02 0.  0.
         13    1    3    3    0    0  0.25373077790E+02 -0.22546496137E+02 -0.18608847161E+00  0.33943826502E+02  0.10566000000E+00 0.  1.
         22    1    1    0    0    0  0.28723521172E+02 -0.62081827913E+01  0.40792357073E+01  0.29668541690E+02  0.00000000000E+00 0. -1.
</event>
<event>
 5    1  0.6924865E-004  0.9118800E+02  0.7818608E-02  0.1130116E+00
         25   -1    0    0    0    0  0.00000000000E+00  0.00000000000E+00  0.99999998245E-14  0.12500000000E+03  0.12500000000E+03 0.  0.
        -13    1    3    3    0    0 -0.88240715807E+01 -0.51863186967E+01  0.33244562171E+02  0.34784683682E+02  0.10566000000E+00 0. -1.
         23    2    1    0    0    0  0.12360567300E+02 -0.10840600448E+02 -0.23899823096E+02  0.95991315334E+02  0.91503162970E+02 0.  0.
         13    1    3    3    0    0  0.21184638880E+02 -0.56542817517E+01 -0.57144385267E+02  0.61206631652E+02  0.10566000000E+00 0.  1.
         22    1    1    0    0    0 -0.12360567300E+02  0.10840600448E+02  0.23899823096E+02  0.29008684666E+02  0.00000000000E+00 0.  1.
</event>
<event>
 5    1  0.6924865E-004  0.9118800E+02  0.7818608E-02  0.1130116E+00
         25   -1    0    0    0    0  0.00000000000E+00  0.00000000000E+00  0.99999998245E-14  0.12500000000E+03  0.12500000000E+03 0.  0.
        -13    1    3    3    0    0 -0.42908412487E+02 -0.33093284101E+02 -0.26573357517E+02  0.60352728260E+02  0.10566000000E+00 0.  1.
         23    2    1    0    0    0 -0.11915001775E+02 -0.23697237738E+02 -0.11074428213E+02  0.96256839006E+02  0.91865171591E+02 0.  0.
         13    1    3    3    0    0  0.30993410712E+02  0.93960463628E+01  0.15498929304E+02  0.35904110746E+02  0.10566000000E+00 0. -1.
         22    1    1    0    0    0  0.11915001775E+02  0.23697237738E+02  0.11074428213E+02  0.28743160994E+02  0.00000000000E+00 0.  1.
</event>
<event>
 5    1  0.6924865E-004  0.9118800E+02  0.7818608E-02  0.1130116E+00
         25   -1    0    0    0    0  0.00000000000E+00  0.00000000000E+00  0.99999998245E-14  0.12500000000E+03  0.12500000000E+03 0.  0.
        -13    1    3    3    0    0 -0.17686841627E+02  0.19600830323E+02  0.22177624083E+02  0.34480068012E+02  0.10566000000E+00 0. -1.
         23    2    1    0    0    0  0.26026577273E+02 -0.23660095850E+01 -0.14024656801E+02  0.95340739654E+02  0.90610070707E+02 0.  0.
         13    1    3    3    0    0  0.43713418900E+02 -0.21966839908E+02 -0.36202280884E+02  0.60860671642E+02  0.10566000000E+00 0.  1.
         22    1    1    0    0    0 -0.26026577273E+02  0.23660095850E+01  0.14024656801E+02  0.29659260346E+02  0.00000000000E+00 0.  1.
</event>
<event>
 5    1  0.6924865E-004  0.9118800E+02  0.7818608E-02  0.1130116E+00
         25   -1    0    0    0    0  0.00000000000E+00  0.00000000000E+00  0.99999998245E-14  0.12500000000E+03  0.12500000000E+03 0.  0.
        -13    1    3    3    0    0  0.11234715856E+02 -0.19391639719E+02 -0.46902949980E+02  0.51982231697E+02  0.10566000000E+00 0.  1.
         23    2    1    0    0    0 -0.68810747963E+01  0.12312242286E+02 -0.29221193606E+02  0.92552832847E+02  0.86678764480E+02 0.  0.
         13    1    3    3    0    0 -0.18115790653E+02  0.31703882005E+02  0.17681756374E+02  0.40570601150E+02  0.10566000000E+00 0. -1.
         22    1    1    0    0    0  0.68810747963E+01 -0.12312242286E+02  0.29221193606E+02  0.32447167153E+02  0.00000000000E+00 0.  1.
</event>
<event>
 5    1  0.6924865E-004  0.9118800E+02  0.7818608E-02  0.1130116E+00
         25   -1    0    0    0    0  0.00000000000E+00  0.00000000000E+00  0.99999998245E-14  0.12500000000E+03  0.12500000000E+03 0.  0.
        -13    1    3    3    0    0  0.17043787836E+02  0.36120883286E+02 -0.15460821838E+02  0.42828227714E+02  0.10566000000E+00 0.  1.
         23    2    1    0    0    0  0.36684886380E+01 -0.12857107388E+02 -0.26978796492E+02  0.94889894065E+02  0.89985962884E+02 0.  0.
         13    1    3    3    0    0 -0.13375299198E+02 -0.48977990674E+02 -0.11517974654E+02  0.52061666351E+02  0.10566000000E+00 0. -1.
         22    1    1    0    0    0 -0.36684886380E+01  0.12857107388E+02  0.26978796492E+02  0.30110105935E+02  0.00000000000E+00 0. -1.
</event>
<event>
 5    1  0.6924865E-004  0.9118800E+02  0.7818608E-02  0.1130116E+00
         25   -1    0    0    0    0  0.00000000000E+00  0.00000000000E+00  0.99999998245E-14  0.12500000000E+03  0.12500000000E+03 0.  0.
        -13    1    3    3    0    0 -0.51863062454E+01  0.23612451318E+02 -0.44760826234E+02  0.50872274953E+02  0.10566000000E+00 0. -1.
         23    2    1    0    0    0 -0.23730071389E+02  0.15062523980E+02 -0.38046576250E+01  0.96636796084E+02  0.92380728623E+02 0.  0.
         13    1    3    3    0    0 -0.18543765144E+02 -0.85499273380E+01  0.40956168609E+02  0.45764521131E+02  0.10566000000E+00 0.  1.
         22    1    1    0    0    0  0.23730071389E+02 -0.15062523980E+02  0.38046576250E+01  0.28363203916E+02  0.00000000000E+00 0. -1.
</event>
<event>
 5    1  0.6924865E-004  0.9118800E+02  0.7818608E-02  0.1130116E+00
         25   -1    0    0    0    0  0.00000000000E+00  0.00000000000E+00  0.99999998245E-14  0.12500000000E+03  0.12500000000E+03 0.  0.
        -13    1    3    3    0    0  0.21546037015E+02 -0.55919649159E+02  0.11799094108E+02  0.61077562648E+02  0.10566000000E+00 0.  1.
         23    2    1    0    0    0  0.10316740581E+01 -0.28045226360E+02  0.74824088906E+01  0.95955456351E+02  0.91454163863E+02 0.  0.
         13    1    3    3    0    0 -0.20514362957E+02  0.27874422799E+02 -0.43166852173E+01  0.34877893704E+02  0.10566000000E+00 0. -1.
         22    1    1    0    0    0 -0.10316740581E+01  0.28045226360E+02 -0.74824088906E+01  0.29044543649E+02  0.00000000000E+00 0.  1.
</event>
<event>
 5    1  0.6924865E-004  0.9118800E+02  0.7818608E-02  0.1130116E+00
         25   -1    0    0    0    0  0.00000000000E+00  0.00000000000E+00  0.99999998245E-14  0.12500000000E+03  0.12500000000E+03 0.  0.
        -13    1    3    3    0    0 -0.33117730927E+02 -0.12672750883E+02  0.13371072023E+02  0.37896958292E+02  0.10566000000E+00 0.  1.
         23    2    1    0    0    0  0.96969476385E+01  0.26019712578E+02 -0.41570721477E+00  0.97228989060E+02  0.93178577286E+02 0.  0.
         13    1    3    3    0    0  0.42814678565E+02  0.38692463461E+02 -0.13786779238E+02  0.59332030768E+02  0.10566000000E+00 0. -1.
         22    1    1    0    0    0 -0.96969476385E+01 -0.26019712578E+02  0.41570721477E+00  0.27771010940E+02  0.00000000000E+00 0. -1.
</event>
<event>
 5    1  0.6924865E-004  0.9118800E+02  0.7818608E-02  0.1130116E+00
         25   -1    0    0    0    0  0.00000000000E+00  0.00000000000E+00  0.99999998245E-14  0.12500000000E+03  0.12500000000E+03 0.  0.
        -13    1    3    3    0    0  0.25250440167E+02  0.41266448069E+02  0.98423437051E+01  0.49369903367E+02  0.10566000000E+00 0.  1.
         23    2    1    0    0    0 -0.14332005440E+02  0.25079213510E+02 -0.69113925973E+01  0.95299146850E+02  0.90552673691E+02 0.  0.
         13    1    3    3    0    0 -0.39582445606E+02 -0.16187234559E+02 -0.16753736302E+02  0.45929243483E+02  0.10566000000E+00 0. -1.
         22    1    1    0    0    0  0.14332005440E+02 -0.25079213510E+02  0.69113925973E+01  0.29700853150E+02  0.00000000000E+00 0. -1.
</event>
<event>
 5    1  0.6924865E-004  0.9118800E+02  0.7818608E-02  0.1130116E+00
         25   -1    0    0    0    0  0.00000000000E+00  0.00000000000E+00  0.99999998245E-14  0.12500000000E+03  0.12500000000E+03 0.  0.
        -13    1    3    3    0    0 -0.18740260219E+02 -0.22378643650E+02 -0.19648006921E+02  0.35186025418E+02  0.10566000000E+00 0.  1.
         23    2    1    0    0    0  0.10214419957E+02  0.27220036355E+02  0.12486775305E+00  0.95926294591E+02  0.91414296737E+02 0.  0.
         13    1    3    3    0    0  0.28954680176E+02  0.49598680006E+02  0.19772874674E+02  0.60740269174E+02  0.10566000000E+00 0. -1.
         22    1    1    0    0    0 -0.10214419957E+02 -0.27220036355E+02 -0.12486775305E+00  0.29073705409E+02  0.00000000000E+00 0. -1.
</event>
<event>
 5    1  0.6924865E-004  0.9118800E+02  0.7818608E-02  0.1130116E+00
         25   -1    0    0    0    0  0.00000000000E+00  0.00000000000E+00  0.99999998245E-14  0.12500000000E+03  0.12500000000E+03 0.  0.
        -13    1    3    3    0    0  0.13754996825E+02 -0.38744020616E+02 -0.29132828427E+02  0.50388807560E+02  0.10566000000E+00 0. -1.
         23    2    1    0    0    0 -0.13758418116E+02 -0.11115520180E+01 -0.24033756155E+02  0.97284461906E+02  0.93252964974E+02 0.  0.
         13    1    3    3    0    0 -0.27513414941E+02  0.37632468598E+02  0.50990722720E+01  0.46895654346E+02  0.10566000000E+00 0.  1.
         22    1    1    0    0    0  0.13758418116E+02  0.11115520180E+01  0.24033756155E+02  0.27715538094E+02  0.00000000000E+00 0.  1.
</event>
<event>
 5    1  0.6924865E-004  0.9118800E+02  0.7818608E-02  0.1130116E+00
         25   -1    0    0    0    0  0.00000000000E+00  0.00000000000E+00  0.99999998245E-14  0.12500000000E+03  0.12500000000E+03 0.  0.
        -13    1    3    3    0    0  0.15213885546E+02  0.32539938980E+02 -0.14550051971E+02  0.38755968813E+02  0.10566000000E+00 0.  1.
         23    2    1    0    0    0 -0.80602568900E+01 -0.23159541130E+02 -0.62809963743E+01  0.99686308014E+02  0.96418758567E+02 0.  0.
         13    1    3    3    0    0 -0.23274142436E+02 -0.55699480110E+02  0.82690555966E+01  0.60930339201E+02  0.10566000000E+00 0. -1.
         22    1    1    0    0    0  0.80602568900E+01  0.23159541130E+02  0.62809963743E+01  0.25313691986E+02  0.00000000000E+00 0. -1.
</event>
<event>
 5    1  0.6924865E-004  0.9118800E+02  0.7818608E-02  0.1130116E+00
         25   -1    0    0    0    0  0.00000000000E+00  0.00000000000E+00  0.99999998245E-14  0.12500000000E+03  0.12500000000E+03 0.  0.
        -13    1    3    3    0    0 -0.14218888515E+02  0.92420609545E+01  0.52653031091E+02  0.55316772577E+02  0.10566000000E+00 0. -1.
         23    2    1    0    0    0 -0.24505317315E+02 -0.14642265997E+00  0.13179876142E+02  0.97174810846E+02  0.93105868298E+02 0.  0.
         13    1    3    3    0    0 -0.10286428801E+02 -0.93884836144E+01 -0.39473154949E+02  0.41858038269E+02  0.10566000000E+00 0.  1.
         22    1    1    0    0    0  0.24505317315E+02  0.14642265997E+00 -0.13179876142E+02  0.27825189154E+02  0.00000000000E+00 0. -1.
</event>
<event>
 5    1  0.6924865E-004  0.9118800E+02  0.7818608E-02  0.1130116E+00
         25   -1    0    0    0    0  0.00000000000E+00  0.00000000000E+00  0.99999998245E-14  0.12500000000E+03  0.12500000000E+03 0.  0.
        -13    1    3    3    0    0  0.26341462638E+02 -0.32885654017E+01 -0.32936826527E+02  0.42302872503E+02  0.10566000000E+00 0.  1.
         23    2    1    0    0    0 -0.22639224396E+02 -0.10029279806E+02 -0.19340326075E+02  0.93580751961E+02  0.88148669815E+02 0.  0.
         13    1    3    3    0    0 -0.48980687034E+02 -0.67407144045E+01  0.13596500452E+02  0.51277879457E+02  0.10566000000E+00 0. -1.
         22    1    1    0    0    0  0.22639224396E+02  0.10029279806E+02  0.19340326075E+02  0.31419248039E+02  0.00000000000E+00 0. -1.
</event>
<event>
 5    1  0.6924865E-004  0.9118800E+02  0.7818608E-02  0.1130116E+00
         25   -1    0    0    0    0  0.00000000000E+00  0.00000000000E+00  0.99999998245E-14  0.12500000000E+03  0.12500000000E+03 0.  0.
        -13    1    3    3    0    0  0.36243001889E+02 -0.24114372516E+02 -0.30470659696E+02  0.53136902564E+02  0.10566000000E+00 0. -1.
         23    2    1    0    0    0  0.22904867589E+02 -0.17033020307E+02  0.87340830451E+01  0.95149691012E+02  0.90346127493E+02 0.  0.
         13    1    3    3    0    0 -0.13338134300E+02  0.70813522093E+01  0.39204742741E+02  0.42012788448E+02  0.10566000000E+00 0.  1.
         22    1    1    0    0    0 -0.22904867589E+02  0.17033020307E+02 -0.87340830451E+01  0.29850308988E+02  0.00000000000E+00 0. -1.
</event>
<event>
 5    1  0.6924865E-004  0.9118800E+02  0.7818608E-02  0.1130116E+00
         25   -1    0    0    0    0  0.00000000000E+00  0.00000000000E+00  0.99999998245E-14  0.12500000000E+03  0.12500000000E+03 0.  0.
        -13    1    3    3    0    0 -0.47299450387E+02  0.21954363302E+02 -0.26463539409E+02  0.58477022471E+02  0.10566000000E+00 0. -1.
         23    2    1    0    0    0 -0.29613217914E+02  0.79619856271E-01 -0.27676715563E+01  0.95257622483E+02  0.90495334801E+02 0.  0.
         13    1    3    3    0    0  0.17686232473E+02 -0.21874743445E+02  0.23695867853E+02  0.36780600012E+02  0.10566000000E+00 0.  1.
         22    1    1    0    0    0  0.29613217914E+02 -0.79619856271E-01  0.27676715563E+01  0.29742377517E+02  0.00000000000E+00 0. -1.
</event>
<event>
 5    1  0.6924865E-004  0.9118800E+02  0.7818608E-02  0.1130116E+00
         25   -1    0    0    0    0  0.00000000000E+00  0.00000000000E+00  0.99999998245E-14  0.12500000000E+03  0.12500000000E+03 0.  0.
        -13    1    3    3    0    0  0.18501173581E+02  0.32410496195E+02  0.48388480060E+02  0.61108017919E+02  0.10566000000E+00 0.  1.
         23    2    1    0    0    0  0.17014156624E+02  0.11501097165E+02  0.27246932071E+02  0.90880327245E+02  0.84232308596E+02 0.  0.
         13    1    3    3    0    0 -0.14870169576E+01 -0.20909399030E+02 -0.21141547989E+02  0.29772309326E+02  0.10566000000E+00 0. -1.
         22    1    1    0    0    0 -0.17014156624E+02 -0.11501097165E+02 -0.27246932071E+02  0.34119672755E+02  0.00000000000E+00 0.  1.
</event>
<event>
 5    1  0.6924865E-004  0.9118800E+02  0.7818608E-02  0.1130116E+00
         25   -1    0    0    0    0  0.00000000000E+00  0.00000000000E+00  0.99999998245E-14  0.12500000000E+03  0.12500000000E+03 0.  0.
        -13    1    3    3    0    0  0.23478987686E+02  0.13999113891E+02 -0.54834444153E+02  0.61270429100E+02  0.10566000000E+00 0. -1.
         23    2    1    0    0    0  0.15672179814E+02 -0.74202251609E+00 -0.24030762521E+02  0.96300777625E+02  0.91924938979E+02 0.  0.
         13    1    3    3    0    0 -0.78068078714E+01 -0.14741136407E+02  0.30803681632E+02  0.35030348525E+02  0.10566000000E+00 0.  1.
         22    1    1    0    0    0 -0.15672179814E+02  0.74202251609E+00  0.24030762521E+02  0.28699222375E+02  0.00000000000E+00 0. -1.
</event>
<event>
 5    1  0.6924865E-004  0.9118800E+02  0.7818608E-02  0.1130116E+00
         25   -1    0    0    0    0  0.00000000000E+00  0.00000000000E+00  0.99999998245E-14  0.12500000000E+03  0.12500000000E+03 0.  0.
        -13    1    3    3    0    0  0.30275453840E+02  0.15825871253E+02 -0.50294235502E+01  0.34530675803E+02  0.10566000000E+00 0.  1.
         23    2    1    0    0    0 -0.24395685429E+02 -0.13613407327E+02 -0.49704664326E+01  0.96624308587E+02  0.92363830295E+02 0.  0.
         13    1    3    3    0    0 -0.54671139269E+02 -0.29439278580E+02  0.58957117575E-01  0.62093632784E+02  0.10566000000E+00 0. -1.
         22    1    1    0    0    0  0.24395685429E+02  0.13613407327E+02  0.49704664326E+01  0.28375691413E+02  0.00000000000E+00 0. -1.
</event>
<event>
 5    1  0.6924865E-004  0.9118800E+02  0.7818608E-02  0.1130116E+00
         25   -1    0    0    0    0  0.00000000000E+00  0.00000000000E+00  0.99999998245E-14  0.12500000000E+03  0.12500000000E+03 0.  0.
        -13    1    3    3    0    0 -0.28741755909E+02 -0.30005598531E+01 -0.19454611501E+02  0.34836546396E+02  0.10566000000E+00 0.  1.
         23    2    1    0    0    0  0.19317770163E+02 -0.16103268652E+02  0.15287308724E+02  0.95568837717E+02  0.90924196060E+02 0.  0.
         13    1    3    3    0    0  0.48059526072E+02 -0.13102708799E+02  0.34741920224E+02  0.60732291320E+02  0.10566000000E+00 0. -1.
         22    1    1    0    0    0 -0.19317770163E+02  0.16103268652E+02 -0.15287308724E+02  0.29431162283E+02  0.00000000000E+00 0. -1.
</event>
<event>
 5    1  0.6924865E-004  0.9118800E+02  0.7818608E-02  0.1130116E+00
         25   -1    0    0    0    0  0.00000000000E+00  0.00000000000E+00  0.99999998245E-14  0.12500000000E+03  0.12500000000E+03 0.  0.
        -13    1    3    3    0    0 -0.11015797840E+02  0.19502292052E+02 -0.26920224100E+02  0.35019948986E+02  0.10566000000E+00 0.  1.
         23    2    1    0    0    0  0.62843189621E+01 -0.25971065139E+02  0.10388301620E+02  0.96331102222E+02  0.91966165275E+02 0.  0.
         13    1    3    3    0    0  0.17300116802E+02 -0.45473357192E+02  0.37308525720E+02  0.61311153236E+02  0.10566000000E+00 0. -1.
         22    1    1    0    0    0 -0.62843189621E+01  0.25971065139E+02 -0.10388301620E+02  0.28668897778E+02  0.00000000000E+00 0. -1.
</event>
<event>
 5    1  0.6924865E-004  0.9118800E+02  0.7818608E-02  0.1130116E+00
         25   -1    0    0    0    0  0.00000000000E+00  0.00000000000E+00  0.99999998245E-14  0.12500000000E+03  0.12500000000E+03 0.  0.
        -13    1    3    3    0    0 -0.49093539269E+01 -0.48290432352E+02 -0.35391924616E+02  0.60072182454E+02  0.10566000000E+00 0. -1.
         23    2    1    0    0    0  0.94563286230E+01 -0.25375537621E+02 -0.14260301273E+02  0.94394506163E+02  0.89295165271E+02 0.  0.
         13    1    3    3    0    0  0.14365682550E+02  0.22914894731E+02  0.21131623343E+02  0.34322323709E+02  0.10566000000E+00 0.  1.
         22    1    1    0    0    0 -0.94563286230E+01  0.25375537621E+02  0.14260301273E+02  0.30605493837E+02  0.00000000000E+00 0. -1.
</event>
<event>
 5    1  0.6924865E-004  0.9118800E+02  0.7818608E-02  0.1130116E+00
         25   -1    0    0    0    0  0.00000000000E+00  0.00000000000E+00  0.99999998245E-14  0.12500000000E+03  0.12500000000E+03 0.  0.
        -13    1    3    3    0    0  0.16674079733E+02 -0.20404918648E+02  0.29470036760E+02  0.39533275486E+02  0.10566000000E+00 0.  1.
         23    2    1    0    0    0 -0.65428764664E+01  0.26579004016E+02  0.14434423391E+02  0.94054802221E+02  0.88818357085E+02 0.  0.
         13    1    3    3    0    0 -0.23216956199E+02  0.46983922664E+02 -0.15035613369E+02  0.54521526735E+02  0.10566000000E+00 0. -1.
         22    1    1    0    0    0  0.65428764664E+01 -0.26579004016E+02 -0.14434423391E+02  0.30945197779E+02  0.00000000000E+00 0.  1.
</event>
<event>
 5    1  0.6924865E-004  0.9118800E+02  0.7818608E-02  0.1130116E+00
         25   -1    0    0    0    0  0.00000000000E+00  0.00000000000E+00  0.99999998245E-14  0.12500000000E+03  0.12500000000E+03 0.  0.
        -13    1    3    3    0    0  0.86016765436E+01  0.40294411197E+02  0.26758399801E+02  0.49128927701E+02  0.10566000000E+00 0. -1.
         23    2    1    0    0    0  0.10137856303E+02 -0.56992348665E+01  0.27486724766E+02  0.95154105025E+02  0.90352234373E+02 0.  0.
         13    1    3    3    0    0  0.15361797592E+01 -0.45993646063E+02  0.72832496516E+00  0.46025177324E+02  0.10566000000E+00 0.  1.
         22    1    1    0    0    0 -0.10137856303E+02  0.56992348665E+01 -0.27486724766E+02  0.29845894975E+02  0.00000000000E+00 0. -1.
</event>
<event>
 5    1  0.6924865E-004  0.9118800E+02  0.7818608E-02  0.1130116E+00
         25   -1    0    0    0    0  0.00000000000E+00  0.00000000000E+00  0.99999998245E-14  0.12500000000E+03  0.12500000000E+03 0.  0.
        -13    1    3    3    0    0 -0.29412068211E+02 -0.33223170209E+02  0.32870714448E+02  0.55220864060E+02  0.10566000000E+00 0.  1.
         23    2    1    0    0    0 -0.18963398810E+02  0.65045187621E+01  0.14705804369E+02  0.10013677533E+03  0.97000999135E+02 0.  0.
         13    1    3    3    0    0  0.10448669402E+02  0.39727688971E+02 -0.18164910079E+02  0.44915911272E+02  0.10566000000E+00 0. -1.
         22    1    1    0    0    0  0.18963398810E+02 -0.65045187621E+01 -0.14705804369E+02  0.24863224668E+02  0.00000000000E+00 0.  1.
</event>
<event>
 5    1  0.6924865E-004  0.9118800E+02  0.7818608E-02  0.1130116E+00
         25   -1    0    0    0    0  0.00000000000E+00  0.00000000000E+00  0.99999998245E-14  0.12500000000E+03  0.12500000000E+03 0.  0.
        -13    1    3    3    0    0 -0.12193879727E+02 -0.16976056957E+02  0.31000299189E+02  0.37388593534E+02  0.10566000000E+00 0.  1.
         23    2    1    0    0    0  0.32367522526E+02 -0.54803990829E+01  0.24868774109E+02  0.83815692136E+02  0.72999472833E+02 0.  0.
         13    1    3    3    0    0  0.44561402253E+02  0.11495657874E+02 -0.61315250804E+01  0.46427098601E+02  0.10566000000E+00 0. -1.
         22    1    1    0    0    0 -0.32367522526E+02  0.54803990829E+01 -0.24868774109E+02  0.41184307864E+02  0.00000000000E+00 0. -1.
</event>
<event>
 5    1  0.6924865E-004  0.9118800E+02  0.7818608E-02  0.1130116E+00
         25   -1    0    0    0    0  0.00000000000E+00  0.00000000000E+00  0.99999998245E-14  0.12500000000E+03  0.12500000000E+03 0.  0.
        -13    1    3    3    0    0 -0.17305367707E+01 -0.15414035016E+02  0.37886155497E+02  0.40938480374E+02  0.10566000000E+00 0.  1.
         23    2    1    0    0    0  0.16542069408E+02  0.22774903372E+02  0.14171328423E+01  0.96815881255E+02  0.92622731086E+02 0.  0.
         13    1    3    3    0    0  0.18272606179E+02  0.38188938389E+02 -0.36469022654E+02  0.55877400881E+02  0.10566000000E+00 0. -1.
         22    1    1    0    0    0 -0.16542069408E+02 -0.22774903372E+02 -0.14171328423E+01  0.28184118745E+02  0.00000000000E+00 0. -1.
</event>
<event>
 5    1  0.6924865E-004  0.9118800E+02  0.7818608E-02  0.1130116E+00
         25   -1    0    0    0    0  0.00000000000E+00  0.00000000000E+00  0.99999998245E-14  0.12500000000E+03  0.12500000000E+03 0.  0.
        -13    1    3    3    0    0 -0.12953113594E+02  0.37748491695E+02  0.38711683762E+02  0.55599796769E+02  0.10566000000E+00 0.  1.
         23    2    1    0    0    0 -0.23756455605E+02  0.66599394981E+01  0.17387682914E+02  0.94816304167E+02  0.89883680619E+02 0.  0.
         13    1    3    3    0    0 -0.10803342011E+02 -0.31088552196E+02 -0.21324000848E+02  0.39216507398E+02  0.10566000000E+00 0. -1.
         22    1    1    0    0    0  0.23756455605E+02 -0.66599394981E+01 -0.17387682914E+02  0.30183695833E+02  0.00000000000E+00 0.  1.
</event>
<event>
 5    1  0.6924865E-004  0.9118800E+02  0.7818608E-02  0.1130116E+00
         25   -1    0    0    0    0  0.00000000000E+00  0.00000000000E+00  0.99999998245E-14  0.12500000000E+03  0.12500000000E+03 0.  0.
        -13    1    3    3    0    0  0.40453256267E+00  0.13729841901E+02 -0.29554696743E+02  0.32590849465E+02  0.10566000000E+00 0. -1.
         23    2    1    0    0    0 -0.11717495812E+02  0.11535699342E+02  0.28585921174E+02  0.92022326389E+02  0.85910311355E+02 0.  0.
         13    1    3    3    0    0 -0.12122028375E+02 -0.21941425582E+01  0.58140617918E+02  0.59431476924E+02  0.10566000000E+00 0.  1.
         22    1    1    0    0    0  0.11717495812E+02 -0.11535699342E+02 -0.28585921174E+02  0.32977673611E+02  0.00000000000E+00 0.  1.
</event>
<event>
 5    1  0.6924865E-004  0.9118800E+02  0.7818608E-02  0.1130116E+00
         25   -1    0    0    0    0  0.00000000000E+00  0.00000000000E+00  0.99999998245E-14  0.12500000000E+03  0.12500000000E+03 0.  0.
        -13    1    3    3    0    0 -0.33777575163E+02  0.33215483296E+02  0.59938147681E+01  0.47750705691E+02  0.10566000000E+00 0. -1.
         23    2    1    0    0    0 -0.16242204698E+02 -0.27626235217E+01 -0.22666683496E+02  0.96978225558E+02  0.92841566066E+02 0.  0.
         13    1    3    3    0    0  0.17535370465E+02 -0.35978106817E+02 -0.28660498264E+02  0.49227519867E+02  0.10566000000E+00 0.  1.
         22    1    1    0    0    0  0.16242204698E+02  0.27626235217E+01  0.22666683496E+02  0.28021774442E+02  0.00000000000E+00 0. -1.
</event>
<event>
 5    1  0.6924865E-004  0.9118800E+02  0.7818608E-02  0.1130116E+00
         25   -1    0    0    0    0  0.00000000000E+00  0.00000000000E+00  0.99999998245E-14  0.12500000000E+03  0.12500000000E+03 0.  0.
        -13    1    3    3    0    0  0.81783186089E+01  0.35613968349E+02  0.22346704650E+02  0.42832534475E+02  0.10566000000E+00 0.  1.
         23    2    1    0    0    0 -0.11466165480E+02  0.15655558989E+02 -0.22239764840E+02  0.95484298785E+02  0.90807899966E+02 0.  0.
         13    1    3    3    0    0 -0.19644484089E+02 -0.19958409360E+02 -0.44586469490E+02  0.52651764310E+02  0.10566000000E+00 0. -1.
         22    1    1    0    0    0  0.11466165480E+02 -0.15655558989E+02  0.22239764840E+02  0.29515701215E+02  0.00000000000E+00 0.  1.
</event>
<event>
 5    1  0.6924865E-004  0.9118800E+02  0.7818608E-02  0.1130116E+00
         25   -1    0    0    0    0  0.00000000000E+00  0.00000000000E+00  0.99999998245E-14  0.12500000000E+03  0.12500000000E+03 0.  0.
        -13    1    3    3    0    0  0.49937133229E+02  0.12035395218E+02  0.86230341826E+01  0.52085851205E+02  0.10566000000E+00 0. -1.
         23    2    1    0    0    0  0.15184375987E+02  0.72191142221E+00 -0.20961063534E+02  0.99106900249E+02  0.95664648969E+02 0.  0.
         13    1    3    3    0    0 -0.34752757242E+02 -0.11313483795E+02 -0.29584097716E+02  0.47021049044E+02  0.10566000000E+00 0.  1.
         22    1    1    0    0    0 -0.15184375987E+02 -0.72191142221E+00  0.20961063534E+02  0.25893099751E+02  0.00000000000E+00 0. -1.
</event>
<event>
 5    1  0.6924865E-004  0.9118800E+02  0.7818608E-02  0.1130116E+00
         25   -1    0    0    0    0  0.00000000000E+00  0.00000000000E+00  0.99999998245E-14  0.12500000000E+03  0.12500000000E+03 0.  0.
        -13    1    3    3    0    0 -0.43509176989E+01  0.52801590691E+02  0.19196125946E+02  0.56351050386E+02  0.10566000000E+00 0.  1.
         23    2    1    0    0    0 -0.58335128060E+01  0.13368725813E+02  0.24820715135E+02  0.96210755457E+02  0.91802444762E+02 0.  0.
         13    1    3    3    0    0 -0.14825951071E+01 -0.39432864878E+02  0.56245891897E+01  0.39859705071E+02  0.10566000000E+00 0. -1.
         22    1    1    0    0    0  0.58335128060E+01 -0.13368725813E+02 -0.24820715135E+02  0.28789244543E+02  0.00000000000E+00 0.  1.
</event>
<event>
 5    1  0.6924865E-004  0.9118800E+02  0.7818608E-02  0.1130116E+00
         25   -1    0    0    0    0  0.00000000000E+00  0.00000000000E+00  0.99999998245E-14  0.12500000000E+03  0.12500000000E+03 0.  0.
        -13    1    3    3    0    0  0.18123792411E+02  0.38955591094E+02 -0.42710177280E+02  0.60582013305E+02  0.10566000000E+00 0.  1.
         23    2    1    0    0    0  0.17686365088E+02  0.12854015137E+02 -0.16196773923E+02  0.97790282973E+02  0.93928540622E+02 0.  0.
         13    1    3    3    0    0 -0.43742732368E+00 -0.26101575957E+02  0.26513403357E+02  0.37208269668E+02  0.10566000000E+00 0. -1.
         22    1    1    0    0    0 -0.17686365088E+02 -0.12854015137E+02  0.16196773923E+02  0.27209717027E+02  0.00000000000E+00 0.  1.
</event>
<event>
 5    1  0.6924865E-004  0.9118800E+02  0.7818608E-02  0.1130116E+00
         25   -1    0    0    0    0  0.00000000000E+00  0.00000000000E+00  0.99999998245E-14  0.12500000000E+03  0.12500000000E+03 0.  0.
        -13    1    3    3    0    0  0.39691155429E+02 -0.18121023328E+01 -0.36783649662E+02  0.54145356039E+02  0.10566000000E+00 0.  1.
         23    2    1    0    0    0 -0.17006055782E+00  0.69394371995E+01 -0.28342376093E+02  0.95819955589E+02  0.91268772848E+02 0.  0.
         13    1    3    3    0    0 -0.39861215986E+02  0.87515395324E+01  0.84412735688E+01  0.41674599549E+02  0.10566000000E+00 0. -1.
         22    1    1    0    0    0  0.17006055782E+00 -0.69394371995E+01  0.28342376093E+02  0.29180044411E+02  0.00000000000E+00 0.  1.
</event>
<event>
 5    1  0.6924865E-004  0.9118800E+02  0.7818608E-02  0.1130116E+00
         25   -1    0    0    0    0  0.00000000000E+00  0.00000000000E+00  0.99999998245E-14  0.12500000000E+03  0.12500000000E+03 0.  0.
        -13    1    3    3    0    0 -0.25813115274E+02 -0.10430146205E+02  0.49101304097E+02  0.56445142378E+02  0.10566000000E+00 0. -1.
         23    2    1    0    0    0 -0.10157449279E+02 -0.21780948608E+02  0.12336082774E+02  0.97985884498E+02  0.94188487219E+02 0.  0.
         13    1    3    3    0    0  0.15655665995E+02 -0.11350802403E+02 -0.36765221323E+02  0.41540742120E+02  0.10566000000E+00 0.  1.
         22    1    1    0    0    0  0.10157449279E+02  0.21780948608E+02 -0.12336082774E+02  0.27014115502E+02  0.00000000000E+00 0. -1.
</event>
<event>
 5    1  0.6924865E-004  0.9118800E+02  0.7818608E-02  0.1130116E+00
         25   -1    0    0    0    0  0.00000000000E+00  0.00000000000E+00  0.99999998245E-14  0.12500000000E+03  0.12500000000E+03 0.  0.
        -13    1    3    3    0    0  0.33127799133E+02  0.93880976820E+01 -0.46404231251E-01  0.34432553940E+02  0.10566000000E+00 0.  1.
         23    2    1    0    0    0 -0.16844734738E+02 -0.24780254465E+02 -0.16535884966E+01  0.94990993774E+02  0.90126291634E+02 0.  0.
         13    1    3    3    0    0 -0.49972533871E+02 -0.34168352147E+02 -0.16071842653E+01  0.60558439834E+02  0.10566000000E+00 0. -1.
         22    1    1    0    0    0  0.16844734738E+02  0.24780254465E+02  0.16535884966E+01  0.30009006226E+02  0.00000000000E+00 0. -1.
</event>
<event>
 5    1  0.6924865E-004  0.9118800E+02  0.7818608E-02  0.1130116E+00
         25   -1    0    0    0    0  0.00000000000E+00  0.00000000000E+00  0.99999998245E-14  0.12500000000E+03  0.12500000000E+03 0.  0.
        -13    1    3    3    0    0  0.40489091239E+02 -0.31779286891E+02  0.13620979541E+01  0.51489378123E+02  0.10566000000E+00 0. -1.
         23    2    1    0    0    0  0.61223113964E+01 -0.13320622562E+02  0.24209315998E+02  0.96697832885E+02  0.92463280394E+02 0.  0.
         13    1    3    3    0    0 -0.34366779843E+02  0.18458664329E+02  0.22847218044E+02  0.45208454762E+02  0.10566000000E+00 0.  1.
         22    1    1    0    0    0 -0.61223113964E+01  0.13320622562E+02 -0.24209315998E+02  0.28302167115E+02  0.00000000000E+00 0. -1.
</event>
<event>
 5    1  0.6924865E-004  0.9118800E+02  0.7818608E-02  0.1130116E+00
         25   -1    0    0    0    0  0.00000000000E+00  0.00000000000E+00  0.99999998245E-14  0.12500000000E+03  0.12500000000E+03 0.  0.
        -13    1    3    3    0    0 -0.42012166966E+01  0.18265703407E+02 -0.36400209733E+02  0.40942307890E+02  0.10566000000E+00 0.  1.
         23    2    1    0    0    0  0.14958263659E+01 -0.27843046147E+02 -0.59569185116E+01  0.96487588783E+02  0.92178615718E+02 0.  0.
         13    1    3    3    0    0  0.56970430625E+01 -0.46108749554E+02  0.30443291222E+02  0.55545280893E+02  0.10566000000E+00 0. -1.
         22    1    1    0    0    0 -0.14958263659E+01  0.27843046147E+02  0.59569185116E+01  0.28512411217E+02  0.00000000000E+00 0. -1.
</event>
<event>
 5    1  0.6924865E-004  0.9118800E+02  0.7818608E-02  0.1130116E+00
         25   -1    0    0    0    0  0.00000000000E+00  0.00000000000E+00  0.99999998245E-14  0.12500000000E+03  0.12500000000E+03 0.  0.
        -13    1    3    3    0    0 -0.20290840423E+01  0.27509338628E+02  0.20749534836E+02  0.34517173316E+02  0.10566000000E+00 0. -1.
         23    2    1    0    0    0 -0.22480952437E+01 -0.28609010150E+02 -0.43171181401E+01  0.95979887956E+02  0.91487551005E+02 0.  0.
         13    1    3    3    0    0 -0.21901120140E+00 -0.56118348778E+02 -0.25066652976E+02  0.61462714640E+02  0.10566000000E+00 0.  1.
         22    1    1    0    0    0  0.22480952437E+01  0.28609010150E+02  0.43171181401E+01  0.29020112044E+02  0.00000000000E+00 0.  1.
</event>
<event>
 5    1  0.6924865E-004  0.9118800E+02  0.7818608E-02  0.1130116E+00
         25   -1    0    0    0    0  0.00000000000E+00  0.00000000000E+00  0.99999998245E-14  0.12500000000E+03  0.12500000000E+03 0.  0.
        -13    1    3    3    0    0  0.11382926317E+02 -0.36600636794E+02 -0.12443508347E+02  0.40299251721E+02  0.10566000000E+00 0. -1.
         23    2    1    0    0    0  0.34539923476E+02 -0.10067065477E+02  0.16054853852E+02  0.85603166964E+02  0.75998629862E+02 0.  0.
         13    1    3    3    0    0  0.23156997159E+02  0.26533571317E+02  0.28498362199E+02  0.45303915243E+02  0.10566000000E+00 0.  1.
         22    1    1    0    0    0 -0.34539923476E+02  0.10067065477E+02 -0.16054853852E+02  0.39396833036E+02  0.00000000000E+00 0. -1.
</event>
<event>
 5    1  0.6924865E-004  0.9118800E+02  0.7818608E-02  0.1130116E+00
         25   -1    0    0    0    0  0.00000000000E+00  0.00000000000E+00  0.99999998245E-14  0.12500000000E+03  0.12500000000E+03 0.  0.
        -13    1    3    3    0    0 -0.14845572777E+01 -0.33837460122E+02  0.41054027174E+01  0.34118076050E+02  0.10566000000E+00 0. -1.
         23    2    1    0    0    0 -0.23132457060E+02  0.21366750414E+02  0.16796071501E+01  0.93464786776E+02  0.87984070684E+02 0.  0.
         13    1    3    3    0    0 -0.21647899782E+02  0.55204210536E+02 -0.24257955673E+01  0.59346710727E+02  0.10566000000E+00 0.  1.
         22    1    1    0    0    0  0.23132457060E+02 -0.21366750414E+02 -0.16796071501E+01  0.31535213224E+02  0.00000000000E+00 0.  1.
</event>
<event>
 5    1  0.6924865E-004  0.9118800E+02  0.7818608E-02  0.1130116E+00
         25   -1    0    0    0    0  0.00000000000E+00  0.00000000000E+00  0.99999998245E-14  0.12500000000E+03  0.12500000000E+03 0.  0.
        -13    1    3    3    0    0 -0.29777271141E+02 -0.27702966826E+02 -0.46471772923E+02  0.61755785884E+02  0.10566000000E+00 0. -1.
         23    2    1    0    0    0 -0.17744371406E+02 -0.72679405107E+01 -0.21371956192E+02  0.96286829027E+02  0.91905969646E+02 0.  0.
         13    1    3    3    0    0  0.12032899734E+02  0.20435026315E+02  0.25099816731E+02  0.34531043142E+02  0.10566000000E+00 0.  1.
         22    1    1    0    0    0  0.17744371406E+02  0.72679405107E+01  0.21371956192E+02  0.28713170973E+02  0.00000000000E+00 0. -1.
</event>
<event>
 5    1  0.6924865E-004  0.9118800E+02  0.7818608E-02  0.1130116E+00
         25   -1    0    0    0    0  0.00000000000E+00  0.00000000000E+00  0.99999998245E-14  0.12500000000E+03  0.12500000000E+03 0.  0.
        -13    1    3    3    0    0  0.22894139127E+02 -0.14127187211E+02  0.11214110070E+02  0.29145950894E+02  0.10566000000E+00 0.  1.
         23    2    1    0    0    0 -0.62303751500E+01  0.16859335756E+02 -0.31063705222E+02  0.89111163870E+02  0.81564642877E+02 0.  0.
         13    1    3    3    0    0 -0.29124514277E+02  0.30986522966E+02 -0.42277815292E+02  0.59965212976E+02  0.10566000000E+00 0. -1.
         22    1    1    0    0    0  0.62303751500E+01 -0.16859335756E+02  0.31063705222E+02  0.35888836130E+02  0.00000000000E+00 0. -1.
</event>
<event>
 5    1  0.6924865E-004  0.9118800E+02  0.7818608E-02  0.1130116E+00
         25   -1    0    0    0    0  0.00000000000E+00  0.00000000000E+00  0.99999998245E-14  0.12500000000E+03  0.12500000000E+03 0.  0.
        -13    1    3    3    0    0  0.39364990190E+02  0.48063179529E+02 -0.30688569030E+01  0.62202095832E+02  0.10566000000E+00 0. -1.
         23    2    1    0    0    0  0.15032343315E+02  0.24312024905E+02  0.65538840817E+00  0.96408472680E+02  0.92071266799E+02 0.  0.
         13    1    3    3    0    0 -0.24332646875E+02 -0.23751154624E+02  0.37242453112E+01  0.34206376849E+02  0.10566000000E+00 0.  1.
         22    1    1    0    0    0 -0.15032343315E+02 -0.24312024905E+02 -0.65538840817E+00  0.28591527320E+02  0.00000000000E+00 0. -1.
</event>
<event>
 5    1  0.6924865E-004  0.9118800E+02  0.7818608E-02  0.1130116E+00
         25   -1    0    0    0    0  0.00000000000E+00  0.00000000000E+00  0.99999998245E-14  0.12500000000E+03  0.12500000000E+03 0.  0.
        -13    1    3    3    0    0 -0.24882083589E+02 -0.40184852836E+02 -0.16888406800E+02  0.50191333211E+02  0.10566000000E+00 0.  1.
         23    2    1    0    0    0 -0.13495600892E+01 -0.92515668118E+00 -0.27723140396E+02  0.97228616514E+02  0.93178077510E+02 0.  0.
         13    1    3    3    0    0  0.23532523500E+02  0.39259696155E+02 -0.10834733596E+02  0.47037283304E+02  0.10566000000E+00 0. -1.
         22    1    1    0    0    0  0.13495600892E+01  0.92515668118E+00  0.27723140396E+02  0.27771383486E+02  0.00000000000E+00 0.  1.
</event>
<event>
 5    1  0.6924865E-004  0.9118800E+02  0.7818608E-02  0.1130116E+00
         25   -1    0    0    0    0  0.00000000000E+00  0.00000000000E+00  0.99999998245E-14  0.12500000000E+03  0.12500000000E+03 0.  0.
        -13    1    3    3    0    0 -0.25728521928E+01  0.21060770521E+02 -0.52234822725E+02  0.56379637215E+02  0.10566000000E+00 0.  1.
         23    2    1    0    0    0  0.17620715866E+02  0.43866285216E+01 -0.24222992260E+02  0.94726488617E+02  0.89758688461E+02 0.  0.
         13    1    3    3    0    0  0.20193568059E+02 -0.16674141999E+02  0.28011830465E+02  0.38346851402E+02  0.10566000000E+00 0. -1.
         22    1    1    0    0    0 -0.17620715866E+02 -0.43866285216E+01  0.24222992260E+02  0.30273511383E+02  0.00000000000E+00 0.  1.
</event>
<event>
 5    1  0.6924865E-004  0.9118800E+02  0.7818608E-02  0.1130116E+00
         25   -1    0    0    0    0  0.00000000000E+00  0.00000000000E+00  0.99999998245E-14  0.12500000000E+03  0.12500000000E+03 0.  0.
        -13    1    3    3    0    0  0.28813990307E+02  0.19895346970E+02 -0.26027248390E+02  0.43629115178E+02  0.10566000000E+00 0.  1.
         23    2    1    0    0    0  0.30373697510E+02 -0.20516020586E+02 -0.12155710225E+02  0.86383554122E+02  0.77271524707E+02 0.  0.
         13    1    3    3    0    0  0.15597072039E+01 -0.40411367556E+02  0.13871538165E+02  0.42754438944E+02  0.10566000000E+00 0. -1.
         22    1    1    0    0    0 -0.30373697510E+02  0.20516020586E+02  0.12155710225E+02  0.38616445878E+02  0.00000000000E+00 0. -1.
</event>
<event>
 5    1  0.6924865E-004  0.9118800E+02  0.7818608E-02  0.1130116E+00
         25   -1    0    0    0    0  0.00000000000E+00  0.00000000000E+00  0.99999998245E-14  0.12500000000E+03  0.12500000000E+03 0.  0.
        -13    1    3    3    0    0  0.12248027584E+02 -0.26989758121E+01  0.32681206386E+02  0.35005300527E+02  0.10566000000E+00 0. -1.
         23    2    1    0    0    0 -0.10143123743E+01 -0.65743909204E+01 -0.27476637249E+02  0.96729573048E+02  0.92506179588E+02 0.  0.
         13    1    3    3    0    0 -0.13262339958E+02 -0.38754151083E+01 -0.60157843635E+02  0.61724272521E+02  0.10566000000E+00 0.  1.
         22    1    1    0    0    0  0.10143123743E+01  0.65743909204E+01  0.27476637249E+02  0.28270426952E+02  0.00000000000E+00 0.  1.
</event>
<event>
 5    1  0.6924865E-004  0.9118800E+02  0.7818608E-02  0.1130116E+00
         25   -1    0    0    0    0  0.00000000000E+00  0.00000000000E+00  0.99999998245E-14  0.12500000000E+03  0.12500000000E+03 0.  0.
        -13    1    3    3    0    0  0.14219208659E+02  0.17780410282E+02 -0.41501879538E+02  0.47336519242E+02  0.10566000000E+00 0. -1.
         23    2    1    0    0    0  0.11217387245E+02  0.27987006594E+02  0.44661113597E+01  0.94519703654E+02  0.89470251555E+02 0.  0.
         13    1    3    3    0    0 -0.30018214145E+01  0.10206596311E+02  0.45967990897E+02  0.47183184412E+02  0.10566000000E+00 0.  1.
         22    1    1    0    0    0 -0.11217387245E+02 -0.27987006594E+02 -0.44661113597E+01  0.30480296346E+02  0.00000000000E+00 0. -1.
</event>
<event>
 5    1  0.6924865E-004  0.9118800E+02  0.7818608E-02  0.1130116E+00
         25   -1    0    0    0    0  0.00000000000E+00  0.00000000000E+00  0.99999998245E-14  0.12500000000E+03  0.12500000000E+03 0.  0.
        -13    1    3    3    0    0 -0.11077666940E+02 -0.30562164356E+02 -0.19555872480E+02  0.37936841031E+02  0.10566000000E+00 0.  1.
         23    2    1    0    0    0 -0.12857033713E+02  0.25239010603E+02 -0.14159093065E+01  0.96639538592E+02  0.92384439425E+02 0.  0.
         13    1    3    3    0    0 -0.17793667728E+01  0.55801174959E+02  0.18139963173E+02  0.58702697561E+02  0.10566000000E+00 0. -1.
         22    1    1    0    0    0  0.12857033713E+02 -0.25239010603E+02  0.14159093065E+01  0.28360461408E+02  0.00000000000E+00 0. -1.
</event>
<event>
 5    1  0.6924865E-004  0.9118800E+02  0.7818608E-02  0.1130116E+00
         25   -1    0    0    0    0  0.00000000000E+00  0.00000000000E+00  0.99999998245E-14  0.12500000000E+03  0.12500000000E+03 0.  0.
        -13    1    3    3    0    0  0.32348892575E+02  0.31829287559E+02  0.12964919262E+02  0.47198036960E+02  0.10566000000E+00 0.  1.
         23    2    1    0    0    0 -0.15444419647E+02  0.19561933420E+02  0.13725805081E+02  0.96546580830E+02  0.92258577961E+02 0.  0.
         13    1    3    3    0    0 -0.47793312223E+02 -0.12267354139E+02  0.76088581857E+00  0.49348543870E+02  0.10566000000E+00 0. -1.
         22    1    1    0    0    0  0.15444419647E+02 -0.19561933420E+02 -0.13725805081E+02  0.28453419170E+02  0.00000000000E+00 0. -1.
</event>
<event>
 5    1  0.6924865E-004  0.9118800E+02  0.7818608E-02  0.1130116E+00
         25   -1    0    0    0    0  0.00000000000E+00  0.00000000000E+00  0.99999998245E-14  0.12500000000E+03  0.12500000000E+03 0.  0.
        -13    1    3    3    0    0  0.35236825012E+02 -0.27667187042E+01 -0.35640196143E+02  0.50194853466E+02  0.10566000000E+00 0. -1.
         23    2    1    0    0    0  0.22756176800E+02 -0.25875228634E+02 -0.34127383334E+02  0.76502068780E+02  0.59165168765E+02 0.  0.
         13    1    3    3    0    0 -0.12480648212E+02 -0.23108509929E+02  0.15128128097E+01  0.26307215314E+02  0.10566000000E+00 0.  1.
         22    1    1    0    0    0 -0.22756176800E+02  0.25875228634E+02  0.34127383334E+02  0.48497931220E+02  0.00000000000E+00 0. -1.
</event>
<event>
 5    1  0.6924865E-004  0.9118800E+02  0.7818608E-02  0.1130116E+00
         25   -1    0    0    0    0  0.00000000000E+00  0.00000000000E+00  0.99999998245E-14  0.12500000000E+03  0.12500000000E+03 0.  0.
        -13    1    3    3    0    0  0.38985762661E+01 -0.51265279313E+02 -0.27004726481E+02  0.58074040468E+02  0.10566000000E+00 0. -1.
         23    2    1    0    0    0  0.17763371127E+02 -0.19162849229E+02 -0.13776465788E+02  0.95461158554E+02  0.90776041104E+02 0.  0.
         13    1    3    3    0    0  0.13864794861E+02  0.32102430083E+02  0.13228260693E+02  0.37387118086E+02  0.10566000000E+00 0.  1.
         22    1    1    0    0    0 -0.17763371127E+02  0.19162849229E+02  0.13776465788E+02  0.29538841446E+02  0.00000000000E+00 0. -1.
</event>
<event>
 5    1  0.6924865E-004  0.9118800E+02  0.7818608E-02  0.1130116E+00
         25   -1    0    0    0    0  0.00000000000E+00  0.00000000000E+00  0.99999998245E-14  0.12500000000E+03  0.12500000000E+03 0.  0.
        -13    1    3    3    0    0  0.33894250569E+02 -0.41519434435E+02 -0.29975994364E+02  0.61410545182E+02  0.10566000000E+00 0. -1.
         23    2    1    0    0    0  0.20691168168E+02 -0.19593793944E+02 -0.73522172658E+01  0.95570485903E+02  0.90926461911E+02 0.  0.
         13    1    3    3    0    0 -0.13203082401E+02  0.21925640491E+02  0.22623777098E+02  0.34159940721E+02  0.10566000000E+00 0.  1.
         22    1    1    0    0    0 -0.20691168168E+02  0.19593793944E+02  0.73522172658E+01  0.29429514097E+02  0.00000000000E+00 0. -1.
</event>
<event>
 5    1  0.6924865E-004  0.9118800E+02  0.7818608E-02  0.1130116E+00
         25   -1    0    0    0    0  0.00000000000E+00  0.00000000000E+00  0.99999998245E-14  0.12500000000E+03  0.12500000000E+03 0.  0.
        -13    1    3    3    0    0  0.49646637543E+02 -0.34977668210E+02 -0.49761856919E+01  0.60934386686E+02  0.10566000000E+00 0.  1.
         23    2    1    0    0    0  0.26113126873E+02 -0.96389762358E+01  0.45292951611E+01  0.96798585627E+02  0.92599386644E+02 0.  0.
         13    1    3    3    0    0 -0.23533510670E+02  0.25338691974E+02  0.95054808530E+01  0.35864198941E+02  0.10566000000E+00 0. -1.
         22    1    1    0    0    0 -0.26113126873E+02  0.96389762358E+01 -0.45292951611E+01  0.28201414373E+02  0.00000000000E+00 0.  1.
</event>
<event>
 5    1  0.6924865E-004  0.9118800E+02  0.7818608E-02  0.1130116E+00
         25   -1    0    0    0    0  0.00000000000E+00  0.00000000000E+00  0.99999998245E-14  0.12500000000E+03  0.12500000000E+03 0.  0.
        -13    1    3    3    0    0  0.25786681005E+01  0.50417949674E+02  0.27490733973E+02  0.57483656780E+02  0.10566000000E+00 0.  1.
         23    2    1    0    0    0 -0.15267343641E+02  0.25570665457E+02  0.66941967600E+01  0.94475207060E+02  0.89408063199E+02 0.  0.
         13    1    3    3    0    0 -0.17846011742E+02 -0.24847284216E+02 -0.20796537213E+02  0.36991550279E+02  0.10566000000E+00 0. -1.
         22    1    1    0    0    0  0.15267343641E+02 -0.25570665457E+02 -0.66941967600E+01  0.30524792940E+02  0.00000000000E+00 0.  1.
</event>
<event>
 5    1  0.6924865E-004  0.9118800E+02  0.7818608E-02  0.1130116E+00
         25   -1    0    0    0    0  0.00000000000E+00  0.00000000000E+00  0.99999998245E-14  0.12500000000E+03  0.12500000000E+03 0.  0.
        -13    1    3    3    0    0 -0.53911921503E+02 -0.22933115240E+02  0.14480668251E+02  0.60350012194E+02  0.10566000000E+00 0.  1.
         23    2    1    0    0    0 -0.20996127697E+02 -0.93579392142E+01  0.17538081193E+02  0.96086461708E+02  0.91633047680E+02 0.  0.
         13    1    3    3    0    0  0.32915793806E+02  0.13575176026E+02  0.30574129421E+01  0.35736449515E+02  0.10566000000E+00 0. -1.
         22    1    1    0    0    0  0.20996127697E+02  0.93579392142E+01 -0.17538081193E+02  0.28913538292E+02  0.00000000000E+00 0.  1.
</event>
<event>
 5    1  0.6924865E-004  0.9118800E+02  0.7818608E-02  0.1130116E+00
         25   -1    0    0    0    0  0.00000000000E+00  0.00000000000E+00  0.99999998245E-14  0.12500000000E+03  0.12500000000E+03 0.  0.
        -13    1    3    3    0    0 -0.26850165571E+02 -0.20812580642E+02  0.23598387456E+02  0.41364114384E+02  0.10566000000E+00 0. -1.
         23    2    1    0    0    0 -0.48244687470E+01  0.26908448689E+02  0.11763200126E+02  0.95239069457E+02  0.90469704124E+02 0.  0.
         13    1    3    3    0    0  0.22025696824E+02  0.47721029331E+02 -0.11835187330E+02  0.53874955074E+02  0.10566000000E+00 0.  1.
         22    1    1    0    0    0  0.48244687470E+01 -0.26908448689E+02 -0.11763200126E+02  0.29760930543E+02  0.00000000000E+00 0. -1.
</event>
<event>
 5    1  0.6924865E-004  0.9118800E+02  0.7818608E-02  0.1130116E+00
         25   -1    0    0    0    0  0.00000000000E+00  0.00000000000E+00  0.99999998245E-14  0.12500000000E+03  0.12500000000E+03 0.  0.
        -13    1    3    3    0    0  0.29893290387E+02 -0.41427152393E+02  0.60130059864E-01  0.51086520191E+02  0.10566000000E+00 0. -1.
         23    2    1    0    0    0  0.23991110235E+02  0.21279716299E+00  0.16109696542E+02  0.96101194219E+02  0.91653142634E+02 0.  0.
         13    1    3    3    0    0 -0.59021801526E+01  0.41639949556E+02  0.16049566482E+02  0.45014674028E+02  0.10566000000E+00 0.  1.
         22    1    1    0    0    0 -0.23991110235E+02 -0.21279716299E+00 -0.16109696542E+02  0.28898805781E+02  0.00000000000E+00 0. -1.
</event>
<event>
 5    1  0.6924865E-004  0.9118800E+02  0.7818608E-02  0.1130116E+00
         25   -1    0    0    0    0  0.00000000000E+00  0.00000000000E+00  0.99999998245E-14  0.12500000000E+03  0.12500000000E+03 0.  0.
        -13    1    3    3    0    0  0.13617113938E+02 -0.36104779046E+02 -0.21115661794E+02  0.43987079910E+02  0.10566000000E+00 0. -1.
         23    2    1    0    0    0 -0.18081641155E+02 -0.16057924585E+02  0.15397682591E+02  0.96331353049E+02  0.91966506198E+02 0.  0.
         13    1    3    3    0    0 -0.31698755093E+02  0.20046854461E+02  0.36513344385E+02  0.52344273139E+02  0.10566000000E+00 0.  1.
         22    1    1    0    0    0  0.18081641155E+02  0.16057924585E+02 -0.15397682591E+02  0.28668646951E+02  0.00000000000E+00 0. -1.
</event>
<event>
 5    1  0.6924865E-004  0.9118800E+02  0.7818608E-02  0.1130116E+00
         25   -1    0    0    0    0  0.00000000000E+00  0.00000000000E+00  0.99999998245E-14  0.12500000000E+03  0.12500000000E+03 0.  0.
        -13    1    3    3    0    0 -0.44794811432E+02 -0.67436816376E+00  0.18478852946E+02  0.48461418405E+02  0.10566000000E+00 0.  1.
         23    2    1    0    0    0 -0.15458098521E+02  0.20075174656E+02 -0.13258473768E+02  0.96403626559E+02  0.92064687257E+02 0.  0.
         13    1    3    3    0    0  0.29336712911E+02  0.20749542820E+02 -0.31737326714E+02  0.47942208153E+02  0.10566000000E+00 0. -1.
         22    1    1    0    0    0  0.15458098521E+02 -0.20075174656E+02  0.13258473768E+02  0.28596373441E+02  0.00000000000E+00 0.  1.
</event>
<event>
 5    1  0.6924865E-004  0.9118800E+02  0.7818608E-02  0.1130116E+00
         25   -1    0    0    0    0  0.00000000000E+00  0.00000000000E+00  0.99999998245E-14  0.12500000000E+03  0.12500000000E+03 0.  0.
        -13    1    3    3    0    0  0.23829758393E+02  0.44697789415E+02 -0.12207719991E+02  0.52103640516E+02  0.10566000000E+00 0. -1.
         23    2    1    0    0    0 -0.11835060292E+02  0.22773885090E+02 -0.16959832404E+02  0.94237126120E+02  0.89074584085E+02 0.  0.
         13    1    3    3    0    0 -0.35664818685E+02 -0.21923904325E+02 -0.47521124137E+01  0.42133485604E+02  0.10566000000E+00 0.  1.
         22    1    1    0    0    0  0.11835060292E+02 -0.22773885090E+02  0.16959832404E+02  0.30762873880E+02  0.00000000000E+00 0. -1.
</event>
<event>
 5    1  0.6924865E-004  0.9118800E+02  0.7818608E-02  0.1130116E+00
         25   -1    0    0    0    0  0.00000000000E+00  0.00000000000E+00  0.99999998245E-14  0.12500000000E+03  0.12500000000E+03 0.  0.
        -13    1    3    3    0    0 -0.15080637681E+02  0.64953005568E+00  0.60621383876E+02  0.62472480896E+02  0.10566000000E+00 0. -1.
         23    2    1    0    0    0 -0.77953845445E+01 -0.84851905463E+00  0.33399544521E+02  0.90692310206E+02  0.83952829324E+02 0.  0.
         13    1    3    3    0    0  0.72852531367E+01 -0.14980491103E+01 -0.27221839355E+02  0.28219829310E+02  0.10566000000E+00 0.  1.
         22    1    1    0    0    0  0.77953845445E+01  0.84851905463E+00 -0.33399544521E+02  0.34307689794E+02  0.00000000000E+00 0. -1.
</event>
<event>
 5    1  0.6924865E-004  0.9118800E+02  0.7818608E-02  0.1130116E+00
         25   -1    0    0    0    0  0.00000000000E+00  0.00000000000E+00  0.99999998245E-14  0.12500000000E+03  0.12500000000E+03 0.  0.
        -13    1    3    3    0    0  0.10886515256E+02  0.28235870823E+02  0.30891604497E+02  0.43244456384E+02  0.10566000000E+00 0.  1.
         23    2    1    0    0    0 -0.10720115171E+02  0.46208998249E+02  0.16867187692E+02  0.74654251331E+02  0.55123160584E+02 0.  0.
         13    1    3    3    0    0 -0.21606630427E+02  0.17973127426E+02 -0.14024416805E+02  0.31409794947E+02  0.10566000000E+00 0. -1.
         22    1    1    0    0    0  0.10720115171E+02 -0.46208998249E+02 -0.16867187692E+02  0.50345748669E+02  0.00000000000E+00 0.  1.
</event>
<event>
 5    1  0.6924865E-004  0.9118800E+02  0.7818608E-02  0.1130116E+00
         25   -1    0    0    0    0  0.00000000000E+00  0.00000000000E+00  0.99999998245E-14  0.12500000000E+03  0.12500000000E+03 0.  0.
        -13    1    3    3    0    0  0.21160633474E+02  0.29459377368E+02 -0.15322938105E+02  0.39375511681E+02  0.10566000000E+00 0.  1.
         23    2    1    0    0    0 -0.23778734781E+02  0.20477700790E+02  0.10414069915E+02  0.91936163114E+02  0.85784851685E+02 0.  0.
         13    1    3    3    0    0 -0.44939368255E+02 -0.89816765780E+01  0.25737008020E+02  0.52560651434E+02  0.10566000000E+00 0. -1.
         22    1    1    0    0    0  0.23778734781E+02 -0.20477700790E+02 -0.10414069915E+02  0.33063836886E+02  0.00000000000E+00 0. -1.
</event>
<event>
 5    1  0.6924865E-004  0.9118800E+02  0.7818608E-02  0.1130116E+00
         25   -1    0    0    0    0  0.00000000000E+00  0.00000000000E+00  0.99999998245E-14  0.12500000000E+03  0.12500000000E+03 0.  0.
        -13    1    3    3    0    0 -0.19993519048E+02 -0.52989279656E+02 -0.47101775842E+01  0.56831342578E+02  0.10566000000E+00 0.  1.
         23    2    1    0    0    0  0.81391723084E+01 -0.26976026677E+02 -0.90795798569E+01  0.95396099725E+02  0.90686409848E+02 0.  0.
         13    1    3    3    0    0  0.28132691356E+02  0.26013252979E+02 -0.43694022727E+01  0.38564757146E+02  0.10566000000E+00 0. -1.
         22    1    1    0    0    0 -0.81391723084E+01  0.26976026677E+02  0.90795798569E+01  0.29603900275E+02  0.00000000000E+00 0.  1.
</event>
<event>
 5    1  0.6924865E-004  0.9118800E+02  0.7818608E-02  0.1130116E+00
         25   -1    0    0    0    0  0.00000000000E+00  0.00000000000E+00  0.99999998245E-14  0.12500000000E+03  0.12500000000E+03 0.  0.
        -13    1    3    3    0    0  0.21168117767E+02 -0.27291495672E+02  0.76165868879E+00  0.34547159563E+02  0.10566000000E+00 0.  1.
         23    2    1    0    0    0 -0.19000994124E+02  0.16934832792E+02 -0.13807663262E+02  0.96043517062E+02  0.91574446575E+02 0.  0.
         13    1    3    3    0    0 -0.40169111891E+02  0.44226328464E+02 -0.14569321950E+02  0.61496357499E+02  0.10566000000E+00 0. -1.
         22    1    1    0    0    0  0.19000994124E+02 -0.16934832792E+02  0.13807663262E+02  0.28956482938E+02  0.00000000000E+00 0. -1.
</event>
<event>
 5    1  0.6924865E-004  0.9118800E+02  0.7818608E-02  0.1130116E+00
         25   -1    0    0    0    0  0.00000000000E+00  0.00000000000E+00  0.99999998245E-14  0.12500000000E+03  0.12500000000E+03 0.  0.
        -13    1    3    3    0    0  0.19055459739E+02 -0.43518995788E+02  0.72919950833E+01  0.48064518062E+02  0.10566000000E+00 0. -1.
         23    2    1    0    0    0 -0.18241238952E+02 -0.22239527116E+02 -0.10270951172E+02  0.94457704690E+02  0.89383590062E+02 0.  0.
         13    1    3    3    0    0 -0.37296698692E+02  0.21279468672E+02 -0.17562946255E+02  0.46393186628E+02  0.10566000000E+00 0.  1.
         22    1    1    0    0    0  0.18241238952E+02  0.22239527116E+02  0.10270951172E+02  0.30542295310E+02  0.00000000000E+00 0.  1.
</event>
<event>
 5    1  0.6924865E-004  0.9118800E+02  0.7818608E-02  0.1130116E+00
         25   -1    0    0    0    0  0.00000000000E+00  0.00000000000E+00  0.99999998245E-14  0.12500000000E+03  0.12500000000E+03 0.  0.
        -13    1    3    3    0    0 -0.10298672522E+02  0.33637493137E+02 -0.39284029011E+02  0.52733193528E+02  0.10566000000E+00 0.  1.
         23    2    1    0    0    0 -0.33105157369E+01 -0.58784546089E+01 -0.30434605790E+02  0.93826598314E+02  0.88496607724E+02 0.  0.
         13    1    3    3    0    0  0.69881567853E+01 -0.39515947746E+02  0.88494232207E+01  0.41093404786E+02  0.10566000000E+00 0. -1.
         22    1    1    0    0    0  0.33105157369E+01  0.58784546089E+01  0.30434605790E+02  0.31173401686E+02  0.00000000000E+00 0.  1.
</event>
<event>
 5    1  0.6924865E-004  0.9118800E+02  0.7818608E-02  0.1130116E+00
         25   -1    0    0    0    0  0.00000000000E+00  0.00000000000E+00  0.99999998245E-14  0.12500000000E+03  0.12500000000E+03 0.  0.
        -13    1    3    3    0    0 -0.23806372344E+02 -0.25647740384E+02 -0.13506240986E+02  0.37509727546E+02  0.10566000000E+00 0.  1.
         23    2    1    0    0    0  0.27656496434E+02  0.12639368009E+01 -0.95295007146E+01  0.95720472765E+02  0.91132421186E+02 0.  0.
         13    1    3    3    0    0  0.51462868778E+02  0.26911677185E+02  0.39767402718E+01  0.58210745219E+02  0.10566000000E+00 0. -1.
         22    1    1    0    0    0 -0.27656496434E+02 -0.12639368009E+01  0.95295007146E+01  0.29279527235E+02  0.00000000000E+00 0. -1.
</event>
<event>
 5    1  0.6924865E-004  0.9118800E+02  0.7818608E-02  0.1130116E+00
         25   -1    0    0    0    0  0.00000000000E+00  0.00000000000E+00  0.99999998245E-14  0.12500000000E+03  0.12500000000E+03 0.  0.
        -13    1    3    3    0    0  0.75691284001E+01  0.41944087473E+02  0.22901858295E+02  0.48384961053E+02  0.10566000000E+00 0.  1.
         23    2    1    0    0    0 -0.67253292487E+01 -0.31018452315E+01  0.28109949253E+02  0.95930759481E+02  0.91420401827E+02 0.  0.
         13    1    3    3    0    0 -0.14294457649E+02 -0.45045932704E+02  0.52080909582E+01  0.47545798428E+02  0.10566000000E+00 0. -1.
         22    1    1    0    0    0  0.67253292487E+01  0.31018452315E+01 -0.28109949253E+02  0.29069240519E+02  0.00000000000E+00 0. -1.
</event>
<event>
 5    1  0.6924865E-004  0.9118800E+02  0.7818608E-02  0.1130116E+00
         25   -1    0    0    0    0  0.00000000000E+00  0.00000000000E+00  0.99999998245E-14  0.12500000000E+03  0.12500000000E+03 0.  0.
        -13    1    3    3    0    0  0.99789770742E+01 -0.18314750130E+02 -0.49064212360E+02  0.53313395637E+02  0.10566000000E+00 0. -1.
         23    2    1    0    0    0  0.25980555603E+02 -0.14394477719E+02 -0.13773950638E+02  0.92259933194E+02  0.86255337798E+02 0.  0.
         13    1    3    3    0    0  0.16001578529E+02  0.39202724110E+01  0.35290261723E+02  0.38946537557E+02  0.10566000000E+00 0.  1.
         22    1    1    0    0    0 -0.25980555603E+02  0.14394477719E+02  0.13773950638E+02  0.32740066806E+02  0.00000000000E+00 0. -1.
</event>
<event>
 5    1  0.6924865E-004  0.9118800E+02  0.7818608E-02  0.1130116E+00
         25   -1    0    0    0    0  0.00000000000E+00  0.00000000000E+00  0.99999998245E-14  0.12500000000E+03  0.12500000000E+03 0.  0.
        -13    1    3    3    0    0 -0.34343867262E+02  0.16634595001E+02 -0.38025078917E+02  0.53871409486E+02  0.10566000000E+00 0. -1.
         23    2    1    0    0    0 -0.11940223401E+02 -0.90352621158E+01 -0.33581406401E+02  0.88231593015E+02  0.80205350530E+02 0.  0.
         13    1    3    3    0    0  0.22403643861E+02 -0.25669857117E+02  0.44436725165E+01  0.34360183528E+02  0.10566000000E+00 0.  1.
         22    1    1    0    0    0  0.11940223401E+02  0.90352621158E+01  0.33581406401E+02  0.36768406985E+02  0.00000000000E+00 0. -1.
</event>
<event>
 5    1  0.6924865E-004  0.9118800E+02  0.7818608E-02  0.1130116E+00
         25   -1    0    0    0    0  0.00000000000E+00  0.00000000000E+00  0.99999998245E-14  0.12500000000E+03  0.12500000000E+03 0.  0.
        -13    1    3    3    0    0  0.13204435994E+02  0.33748823890E+02  0.40223490770E+02  0.54141302327E+02  0.10566000000E+00 0.  1.
         23    2    1    0    0    0  0.24361277242E+02  0.16321837422E+02  0.46293916529E+01  0.95313210467E+02  0.90572085197E+02 0.  0.
         13    1    3    3    0    0  0.11156841247E+02 -0.17426986468E+02 -0.35594099117E+02  0.41171908141E+02  0.10566000000E+00 0. -1.
         22    1    1    0    0    0 -0.24361277242E+02 -0.16321837422E+02 -0.46293916529E+01  0.29686789533E+02  0.00000000000E+00 0.  1.
</event>
<event>
 5    1  0.6924865E-004  0.9118800E+02  0.7818608E-02  0.1130116E+00
         25   -1    0    0    0    0  0.00000000000E+00  0.00000000000E+00  0.99999998245E-14  0.12500000000E+03  0.12500000000E+03 0.  0.
        -13    1    3    3    0    0  0.51985047219E+02 -0.17070130689E+02  0.88908101707E+01  0.55433673571E+02  0.10566000000E+00 0. -1.
         23    2    1    0    0    0  0.12173748680E+02 -0.18111414143E+02 -0.11669917640E+02  0.10025307177E+03  0.97150748540E+02 0.  0.
         13    1    3    3    0    0 -0.39811298538E+02 -0.10412834546E+01 -0.20560727811E+02  0.44819398196E+02  0.10566000000E+00 0.  1.
         22    1    1    0    0    0 -0.12173748680E+02  0.18111414143E+02  0.11669917640E+02  0.24746928232E+02  0.00000000000E+00 0. -1.
</event>
<event>
 5    1  0.6924865E-004  0.9118800E+02  0.7818608E-02  0.1130116E+00
         25   -1    0    0    0    0  0.00000000000E+00  0.00000000000E+00  0.99999998245E-14  0.12500000000E+03  0.12500000000E+03 0.  0.
        -13    1    3    3    0    0 -0.10100219575E+02 -0.12667975438E+02 -0.60235695653E+02  0.62376616067E+02  0.10566000000E+00 0.  1.
         23    2    1    0    0    0 -0.26989474996E+01 -0.78266154686E+01 -0.28460953100E+02  0.95359384644E+02  0.90635788522E+02 0.  0.
         13    1    3    3    0    0  0.74012720751E+01  0.48413599690E+01  0.31774742553E+02  0.32982768577E+02  0.10566000000E+00 0. -1.
         22    1    1    0    0    0  0.26989474996E+01  0.78266154686E+01  0.28460953100E+02  0.29640615356E+02  0.00000000000E+00 0.  1.
</event>
<event>
 5    1  0.6924865E-004  0.9118800E+02  0.7818608E-02  0.1130116E+00
         25   -1    0    0    0    0  0.00000000000E+00  0.00000000000E+00  0.99999998245E-14  0.12500000000E+03  0.12500000000E+03 0.  0.
        -13    1    3    3    0    0 -0.32425274870E+01  0.16921422399E+02  0.37342339087E+02  0.41125539182E+02  0.10566000000E+00 0.  1.
         23    2    1    0    0    0  0.28526380641E+02 -0.12471267184E+02  0.10085310589E+02  0.92273857738E+02  0.86275514687E+02 0.  0.
         13    1    3    3    0    0  0.31768908128E+02 -0.29392689582E+02 -0.27257028498E+02  0.51148318556E+02  0.10566000000E+00 0. -1.
         22    1    1    0    0    0 -0.28526380641E+02  0.12471267184E+02 -0.10085310589E+02  0.32726142262E+02  0.00000000000E+00 0. -1.
</event>
<event>
 5    1  0.6924865E-004  0.9118800E+02  0.7818608E-02  0.1130116E+00
         25   -1    0    0    0    0  0.00000000000E+00  0.00000000000E+00  0.99999998245E-14  0.12500000000E+03  0.12500000000E+03 0.  0.
        -13    1    3    3    0    0  0.40929746187E+02  0.96261214255E+01  0.38373448654E+02  0.56924854522E+02  0.10566000000E+00 0. -1.
         23    2    1    0    0    0  0.24399562932E+02  0.14510043866E+01 -0.11408634318E+01  0.10053072019E+03  0.97507333302E+02 0.  0.
         13    1    3    3    0    0 -0.16530183255E+02 -0.81751170389E+01 -0.39514312086E+02  0.43605865669E+02  0.10566000000E+00 0.  1.
         22    1    1    0    0    0 -0.24399562932E+02 -0.14510043866E+01  0.11408634318E+01  0.24469279809E+02  0.00000000000E+00 0. -1.
</event>
<event>
 5    1  0.6924865E-004  0.9118800E+02  0.7818608E-02  0.1130116E+00
         25   -1    0    0    0    0  0.00000000000E+00  0.00000000000E+00  0.99999998245E-14  0.12500000000E+03  0.12500000000E+03 0.  0.
        -13    1    3    3    0    0 -0.42653508200E+02 -0.10764428818E+02  0.26579867926E+02  0.51397424377E+02  0.10566000000E+00 0.  1.
         23    2    1    0    0    0 -0.25672156442E+02  0.12331959243E+01 -0.13068197933E+02  0.96166717395E+02  0.91742462081E+02 0.  0.
         13    1    3    3    0    0  0.16981351758E+02  0.11997624742E+02 -0.39648065859E+02  0.44769293018E+02  0.10566000000E+00 0. -1.
         22    1    1    0    0    0  0.25672156442E+02 -0.12331959243E+01  0.13068197933E+02  0.28833282605E+02  0.00000000000E+00 0.  1.
</event>
<event>
 5    1  0.6924865E-004  0.9118800E+02  0.7818608E-02  0.1130116E+00
         25   -1    0    0    0    0  0.00000000000E+00  0.00000000000E+00  0.99999998245E-14  0.12500000000E+03  0.12500000000E+03 0.  0.
        -13    1    3    3    0    0 -0.11235170939E+02 -0.31954707269E+02  0.12713201591E+02  0.36179677188E+02  0.10566000000E+00 0. -1.
         23    2    1    0    0    0  0.29081369696E+02  0.89921756161E+01  0.41061186970E+01  0.94284442111E+02  0.89140958755E+02 0.  0.
         13    1    3    3    0    0  0.40316540635E+02  0.40946882885E+02 -0.86070828935E+01  0.58104764923E+02  0.10566000000E+00 0.  1.
         22    1    1    0    0    0 -0.29081369696E+02 -0.89921756161E+01 -0.41061186970E+01  0.30715557889E+02  0.00000000000E+00 0.  1.
</event>
<event>
 5    1  0.6924865E-004  0.9118800E+02  0.7818608E-02  0.1130116E+00
         25   -1    0    0    0    0  0.00000000000E+00  0.00000000000E+00  0.99999998245E-14  0.12500000000E+03  0.12500000000E+03 0.  0.
        -13    1    3    3    0    0 -0.28009420058E+02  0.20572466669E+02  0.20181242302E+01  0.34811463433E+02  0.10566000000E+00 0. -1.
         23    2    1    0    0    0  0.20815498253E+02 -0.29381240336E+01  0.23826204853E+02  0.93225708851E+02  0.87643751704E+02 0.  0.
         13    1    3    3    0    0  0.48824918311E+02 -0.23510590703E+02  0.21808080623E+02  0.58414245418E+02  0.10566000000E+00 0.  1.
         22    1    1    0    0    0 -0.20815498253E+02  0.29381240336E+01 -0.23826204853E+02  0.31774291149E+02  0.00000000000E+00 0.  1.
</event>
<event>
 5    1  0.6924865E-004  0.9118800E+02  0.7818608E-02  0.1130116E+00
         25   -1    0    0    0    0  0.00000000000E+00  0.00000000000E+00  0.99999998245E-14  0.12500000000E+03  0.12500000000E+03 0.  0.
        -13    1    3    3    0    0  0.84221418094E+01 -0.28398527268E+02 -0.20356753956E+02  0.35941861656E+02  0.10566000000E+00 0. -1.
         23    2    1    0    0    0  0.14440052967E+02  0.22776835473E+02  0.10564956886E+02  0.96035924357E+02  0.91564081873E+02 0.  0.
         13    1    3    3    0    0  0.60179111578E+01  0.51175362742E+02  0.30921710842E+02  0.60094062700E+02  0.10566000000E+00 0.  1.
         22    1    1    0    0    0 -0.14440052967E+02 -0.22776835473E+02 -0.10564956886E+02  0.28964075643E+02  0.00000000000E+00 0.  1.
</event>
<event>
 5    1  0.6924865E-004  0.9118800E+02  0.7818608E-02  0.1130116E+00
         25   -1    0    0    0    0  0.00000000000E+00  0.00000000000E+00  0.99999998245E-14  0.12500000000E+03  0.12500000000E+03 0.  0.
        -13    1    3    3    0    0 -0.84041981730E+01 -0.37341654888E+02  0.59896035031E+01  0.38741660404E+02  0.10566000000E+00 0.  1.
         23    2    1    0    0    0 -0.24715551322E+02  0.14461405565E+02 -0.88233315266E+01  0.95035989799E+02  0.90188676949E+02 0.  0.
         13    1    3    3    0    0 -0.16311353149E+02  0.51803060453E+02 -0.14812935030E+02  0.56294329395E+02  0.10566000000E+00 0. -1.
         22    1    1    0    0    0  0.24715551322E+02 -0.14461405565E+02  0.88233315266E+01  0.29964010201E+02  0.00000000000E+00 0. -1.
</event>
<event>
 5    1  0.6924865E-004  0.9118800E+02  0.7818608E-02  0.1130116E+00
         25   -1    0    0    0    0  0.00000000000E+00  0.00000000000E+00  0.99999998245E-14  0.12500000000E+03  0.12500000000E+03 0.  0.
        -13    1    3    3    0    0  0.86496030720E+01 -0.49334024338E+02  0.17421809242E+02  0.53030106467E+02  0.10566000000E+00 0.  1.
         23    2    1    0    0    0  0.11018675595E+02 -0.21460285551E+02 -0.15571907398E+02  0.96286947779E+02  0.91906131160E+02 0.  0.
         13    1    3    3    0    0  0.23690725233E+01  0.27873738786E+02 -0.32993716640E+02  0.43256841312E+02  0.10566000000E+00 0. -1.
         22    1    1    0    0    0 -0.11018675595E+02  0.21460285551E+02  0.15571907398E+02  0.28713052221E+02  0.00000000000E+00 0.  1.
</event>
<event>
 5    1  0.6924865E-004  0.9118800E+02  0.7818608E-02  0.1130116E+00
         25   -1    0    0    0    0  0.00000000000E+00  0.00000000000E+00  0.99999998245E-14  0.12500000000E+03  0.12500000000E+03 0.  0.
        -13    1    3    3    0    0 -0.13438719547E+02 -0.46701196652E+02 -0.25212456871E+01  0.48661779619E+02  0.10566000000E+00 0.  1.
         23    2    1    0    0    0 -0.26495218590E+02 -0.30231448242E+01  0.10910535644E+02  0.96187228512E+02  0.91770404424E+02 0.  0.
         13    1    3    3    0    0 -0.13056499043E+02  0.43678051828E+02  0.13431781331E+02  0.47525448893E+02  0.10566000000E+00 0. -1.
         22    1    1    0    0    0  0.26495218590E+02  0.30231448242E+01 -0.10910535644E+02  0.28812771488E+02  0.00000000000E+00 0.  1.
</event>
<event>
 5    1  0.6924865E-004  0.9118800E+02  0.7818608E-02  0.1130116E+00
         25   -1    0    0    0    0  0.00000000000E+00  0.00000000000E+00  0.99999998245E-14  0.12500000000E+03  0.12500000000E+03 0.  0.
        -13    1    3    3    0    0 -0.43708436468E+01  0.27768535263E+02 -0.49139282117E+02  0.56611624565E+02  0.10566000000E+00 0. -1.
         23    2    1    0    0    0  0.45678000404E+01 -0.34078189222E+01 -0.30403489436E+02  0.94067004722E+02  0.88835528819E+02 0.  0.
         13    1    3    3    0    0  0.89386436872E+01 -0.31176354185E+02  0.18735792682E+02  0.37455380157E+02  0.10566000000E+00 0.  1.
         22    1    1    0    0    0 -0.45678000404E+01  0.34078189222E+01  0.30403489436E+02  0.30932995278E+02  0.00000000000E+00 0. -1.
</event>
<event>
 5    1  0.6924865E-004  0.9118800E+02  0.7818608E-02  0.1130116E+00
         25   -1    0    0    0    0  0.00000000000E+00  0.00000000000E+00  0.99999998245E-14  0.12500000000E+03  0.12500000000E+03 0.  0.
        -13    1    3    3    0    0 -0.82088400674E+01 -0.41519583447E+02 -0.14455375853E+02  0.44723930059E+02  0.10566000000E+00 0.  1.
         23    2    1    0    0    0  0.29434548875E+02 -0.16211691164E+02 -0.60735107400E+01  0.90851806335E+02  0.84189973178E+02 0.  0.
         13    1    3    3    0    0  0.37643388943E+02  0.25307892283E+02  0.83818651132E+01  0.46127876276E+02  0.10566000000E+00 0. -1.
         22    1    1    0    0    0 -0.29434548875E+02  0.16211691164E+02  0.60735107400E+01  0.34148193665E+02  0.00000000000E+00 0.  1.
</event>
<event>
 5    1  0.6924865E-004  0.9118800E+02  0.7818608E-02  0.1130116E+00
         25   -1    0    0    0    0  0.00000000000E+00  0.00000000000E+00  0.99999998245E-14  0.12500000000E+03  0.12500000000E+03 0.  0.
        -13    1    3    3    0    0  0.19247287512E+02 -0.37874265929E+02 -0.20943513601E+02  0.47366232933E+02  0.10566000000E+00 0.  1.
         23    2    1    0    0    0  0.23217316092E+02 -0.61748421938E+01  0.15945016789E+02  0.96165714799E+02  0.91741096024E+02 0.  0.
         13    1    3    3    0    0  0.39700285801E+01  0.31699423736E+02  0.36888530390E+02  0.48799481866E+02  0.10566000000E+00 0. -1.
         22    1    1    0    0    0 -0.23217316092E+02  0.61748421938E+01 -0.15945016789E+02  0.28834285201E+02  0.00000000000E+00 0. -1.
</event>
<event>
 5    1  0.6924865E-004  0.9118800E+02  0.7818608E-02  0.1130116E+00
         25   -1    0    0    0    0  0.00000000000E+00  0.00000000000E+00  0.99999998245E-14  0.12500000000E+03  0.12500000000E+03 0.  0.
        -13    1    3    3    0    0 -0.25792513699E+01 -0.79670069595E+01 -0.39103898856E+02  0.39990646498E+02  0.10566000000E+00 0. -1.
         23    2    1    0    0    0 -0.19591472129E+02 -0.20011733823E+02  0.11504534177E+02  0.94723778680E+02  0.89754914461E+02 0.  0.
         13    1    3    3    0    0 -0.17012220759E+02 -0.12044726864E+02  0.50608433033E+02  0.54733132182E+02  0.10566000000E+00 0.  1.
         22    1    1    0    0    0  0.19591472129E+02  0.20011733823E+02 -0.11504534177E+02  0.30276221320E+02  0.00000000000E+00 0.  1.
</event>
<event>
 5    1  0.6924865E-004  0.9118800E+02  0.7818608E-02  0.1130116E+00
         25   -1    0    0    0    0  0.00000000000E+00  0.00000000000E+00  0.99999998245E-14  0.12500000000E+03  0.12500000000E+03 0.  0.
        -13    1    3    3    0    0  0.70979703618E+01 -0.54162358881E+02  0.82889686361E+01  0.55250886580E+02  0.10566000000E+00 0. -1.
         23    2    1    0    0    0 -0.14264189865E+02 -0.20907748023E+02  0.15346139564E+02  0.95400928403E+02  0.90693065340E+02 0.  0.
         13    1    3    3    0    0 -0.21362160226E+02  0.33254610858E+02  0.70571709278E+01  0.40150041823E+02  0.10566000000E+00 0.  1.
         22    1    1    0    0    0  0.14264189865E+02  0.20907748023E+02 -0.15346139564E+02  0.29599071597E+02  0.00000000000E+00 0. -1.
</event>
<event>
 5    1  0.6924865E-004  0.9118800E+02  0.7818608E-02  0.1130116E+00
         25   -1    0    0    0    0  0.00000000000E+00  0.00000000000E+00  0.99999998245E-14  0.12500000000E+03  0.12500000000E+03 0.  0.
        -13    1    3    3    0    0  0.42366167793E+02 -0.13113246123E+02 -0.36450867707E+02  0.57406674856E+02  0.10566000000E+00 0.  1.
         23    2    1    0    0    0  0.15747225871E+02  0.10609253826E+02 -0.22155106206E+02  0.95821581257E+02  0.91270999305E+02 0.  0.
         13    1    3    3    0    0 -0.26618941922E+02  0.23722499949E+02  0.14295761501E+02  0.38414906401E+02  0.10566000000E+00 0. -1.
         22    1    1    0    0    0 -0.15747225871E+02 -0.10609253826E+02  0.22155106206E+02  0.29178418743E+02  0.00000000000E+00 0.  1.
</event>
<event>
 5    1  0.6924865E-004  0.9118800E+02  0.7818608E-02  0.1130116E+00
         25   -1    0    0    0    0  0.00000000000E+00  0.00000000000E+00  0.99999998245E-14  0.12500000000E+03  0.12500000000E+03 0.  0.
        -13    1    3    3    0    0  0.11450505231E+02 -0.70880026448E+01 -0.50855084420E+02  0.52608028161E+02  0.10566000000E+00 0. -1.
         23    2    1    0    0    0 -0.17195997791E+02  0.81283221055E+01 -0.20541431618E+02  0.97004958060E+02  0.92877551190E+02 0.  0.
         13    1    3    3    0    0 -0.28646503022E+02  0.15216324750E+02  0.30313652802E+02  0.44396929900E+02  0.10566000000E+00 0.  1.
         22    1    1    0    0    0  0.17195997791E+02 -0.81283221055E+01  0.20541431618E+02  0.27995041940E+02  0.00000000000E+00 0. -1.
</event>
<event>
 5    1  0.6924865E-004  0.9118800E+02  0.7818608E-02  0.1130116E+00
         25   -1    0    0    0    0  0.00000000000E+00  0.00000000000E+00  0.99999998245E-14  0.12500000000E+03  0.12500000000E+03 0.  0.
        -13    1    3    3    0    0  0.29168337619E+02  0.13079210617E+01  0.35876933234E+02  0.46256546340E+02  0.10566000000E+00 0. -1.
         23    2    1    0    0    0  0.24903399203E+02 -0.32233598451E+01 -0.13816908730E+02  0.96338592020E+02  0.91976344812E+02 0.  0.
         13    1    3    3    0    0 -0.42649384166E+01 -0.45312809068E+01 -0.49693841964E+02  0.50082045680E+02  0.10566000000E+00 0.  1.
         22    1    1    0    0    0 -0.24903399203E+02  0.32233598451E+01  0.13816908730E+02  0.28661407980E+02  0.00000000000E+00 0.  1.
</event>
<event>
 5    1  0.6924865E-004  0.9118800E+02  0.7818608E-02  0.1130116E+00
         25   -1    0    0    0    0  0.00000000000E+00  0.00000000000E+00  0.99999998245E-14  0.12500000000E+03  0.12500000000E+03 0.  0.
        -13    1    3    3    0    0 -0.33146944044E+02 -0.16188952860E+02  0.18618478658E+02  0.41321435185E+02  0.10566000000E+00 0. -1.
         23    2    1    0    0    0  0.11003269686E+01 -0.19950949578E+02 -0.22461805276E+02  0.94937002731E+02  0.90051378017E+02 0.  0.
         13    1    3    3    0    0  0.34247271013E+02 -0.37619967177E+01 -0.41080283934E+02  0.53615567546E+02  0.10566000000E+00 0.  1.
         22    1    1    0    0    0 -0.11003269686E+01  0.19950949578E+02  0.22461805276E+02  0.30062997269E+02  0.00000000000E+00 0.  1.
</event>
<event>
 5    1  0.6924865E-004  0.9118800E+02  0.7818608E-02  0.1130116E+00
         25   -1    0    0    0    0  0.00000000000E+00  0.00000000000E+00  0.99999998245E-14  0.12500000000E+03  0.12500000000E+03 0.  0.
        -13    1    3    3    0    0  0.33087122916E+02  0.24306142442E+02  0.23779849425E+02  0.47445112140E+02  0.10566000000E+00 0.  1.
         23    2    1    0    0    0  0.11369470643E+02  0.16650653155E+02 -0.19804131327E+02  0.96738493833E+02  0.92518233113E+02 0.  0.
         13    1    3    3    0    0 -0.21717652273E+02 -0.76554892873E+01 -0.43583980753E+02  0.49293381693E+02  0.10566000000E+00 0. -1.
         22    1    1    0    0    0 -0.11369470643E+02 -0.16650653155E+02  0.19804131327E+02  0.28261506167E+02  0.00000000000E+00 0.  1.
</event>
<event>
 5    1  0.6924865E-004  0.9118800E+02  0.7818608E-02  0.1130116E+00
         25   -1    0    0    0    0  0.00000000000E+00  0.00000000000E+00  0.99999998245E-14  0.12500000000E+03  0.12500000000E+03 0.  0.
        -13    1    3    3    0    0  0.30929986675E+02  0.17330462246E+02  0.12799168996E+02  0.37694016613E+02  0.10566000000E+00 0.  1.
         23    2    1    0    0    0 -0.60251917835E+01 -0.76397873526E+01 -0.26269650557E+02  0.96986363549E+02  0.92852522245E+02 0.  0.
         13    1    3    3    0    0 -0.36955178459E+02 -0.24970249598E+02 -0.39068819553E+02  0.59292346936E+02  0.10566000000E+00 0. -1.
         22    1    1    0    0    0  0.60251917835E+01  0.76397873526E+01  0.26269650557E+02  0.28013636451E+02  0.00000000000E+00 0. -1.
</event>
<event>
 5    1  0.6924865E-004  0.9118800E+02  0.7818608E-02  0.1130116E+00
         25   -1    0    0    0    0  0.00000000000E+00  0.00000000000E+00  0.99999998245E-14  0.12500000000E+03  0.12500000000E+03 0.  0.
        -13    1    3    3    0    0  0.15623515780E+02  0.41572156191E+02 -0.68473373593E+01  0.44935905562E+02  0.10566000000E+00 0.  1.
         23    2    1    0    0    0  0.25260472727E+02 -0.90534454989E+01 -0.94875461136E+01  0.96538273259E+02  0.92247321451E+02 0.  0.
         13    1    3    3    0    0  0.96369569474E+01 -0.50625601690E+02 -0.26402087543E+01  0.51602367698E+02  0.10566000000E+00 0. -1.
         22    1    1    0    0    0 -0.25260472727E+02  0.90534454989E+01  0.94875461136E+01  0.28461726741E+02  0.00000000000E+00 0.  1.
</event>
<event>
 5    1  0.6924865E-004  0.9118800E+02  0.7818608E-02  0.1130116E+00
         25   -1    0    0    0    0  0.00000000000E+00  0.00000000000E+00  0.99999998245E-14  0.12500000000E+03  0.12500000000E+03 0.  0.
        -13    1    3    3    0    0 -0.10855588838E+02 -0.22893869433E+02 -0.20657107835E+02  0.32690982469E+02  0.10566000000E+00 0. -1.
         23    2    1    0    0    0  0.76843167968E+01  0.17669827557E+02  0.22927514582E+02  0.95051002430E+02  0.90209481806E+02 0.  0.
         13    1    3    3    0    0  0.18539905635E+02  0.40563696990E+02  0.43584622417E+02  0.62360019962E+02  0.10566000000E+00 0.  1.
         22    1    1    0    0    0 -0.76843167968E+01 -0.17669827557E+02 -0.22927514582E+02  0.29948997570E+02  0.00000000000E+00 0.  1.
</event>
<event>
 5    1  0.6924865E-004  0.9118800E+02  0.7818608E-02  0.1130116E+00
         25   -1    0    0    0    0  0.00000000000E+00  0.00000000000E+00  0.99999998245E-14  0.12500000000E+03  0.12500000000E+03 0.  0.
        -13    1    3    3    0    0 -0.30749226177E+02 -0.45797797048E+02  0.12283705727E+02  0.56514190390E+02  0.10566000000E+00 0.  1.
         23    2    1    0    0    0 -0.14154110265E+02 -0.21930392186E+02 -0.13715521004E+02  0.95514470410E+02  0.90849422686E+02 0.  0.
         13    1    3    3    0    0  0.16595115912E+02  0.23867404863E+02 -0.25999226731E+02  0.39000280020E+02  0.10566000000E+00 0. -1.
         22    1    1    0    0    0  0.14154110265E+02  0.21930392186E+02  0.13715521004E+02  0.29485529590E+02  0.00000000000E+00 0.  1.
</event>
<event>
 5    1  0.6924865E-004  0.9118800E+02  0.7818608E-02  0.1130116E+00
         25   -1    0    0    0    0  0.00000000000E+00  0.00000000000E+00  0.99999998245E-14  0.12500000000E+03  0.12500000000E+03 0.  0.
        -13    1    3    3    0    0 -0.16971760854E+02  0.66910821391E+01  0.54278830880E+02  0.57262674513E+02  0.10566000000E+00 0. -1.
         23    2    1    0    0    0 -0.17940498980E+02 -0.11128685122E+02  0.19949934956E+02  0.95953329951E+02  0.91451257442E+02 0.  0.
         13    1    3    3    0    0 -0.96873812625E+00 -0.17819767261E+02 -0.34328895924E+02  0.38690655438E+02  0.10566000000E+00 0.  1.
         22    1    1    0    0    0  0.17940498980E+02  0.11128685122E+02 -0.19949934956E+02  0.29046670049E+02  0.00000000000E+00 0. -1.
</event>
<event>
 5    1  0.6924865E-004  0.9118800E+02  0.7818608E-02  0.1130116E+00
         25   -1    0    0    0    0  0.00000000000E+00  0.00000000000E+00  0.99999998245E-14  0.12500000000E+03  0.12500000000E+03 0.  0.
        -13    1    3    3    0    0 -0.29751132582E+01  0.14332401059E+01 -0.31794841440E+02  0.31966053594E+02  0.10566000000E+00 0.  1.
         23    2    1    0    0    0  0.14954609587E+02  0.96633732291E+01  0.26255146223E+02  0.93276919550E+02  0.87716759444E+02 0.  0.
         13    1    3    3    0    0  0.17929722845E+02  0.82301331232E+01  0.58049987663E+02  0.61310865956E+02  0.10566000000E+00 0. -1.
         22    1    1    0    0    0 -0.14954609587E+02 -0.96633732291E+01 -0.26255146223E+02  0.31723080450E+02  0.00000000000E+00 0. -1.
</event>
<event>
 5    1  0.6924865E-004  0.9118800E+02  0.7818608E-02  0.1130116E+00
         25   -1    0    0    0    0  0.00000000000E+00  0.00000000000E+00  0.99999998245E-14  0.12500000000E+03  0.12500000000E+03 0.  0.
        -13    1    3    3    0    0 -0.19789496847E+02  0.42010214282E+02 -0.11609972233E+01  0.46452571167E+02  0.10566000000E+00 0. -1.
         23    2    1    0    0    0  0.16361659146E+02  0.11438014930E+02 -0.19374996986E+02  0.97180535883E+02  0.93113554173E+02 0.  0.
         13    1    3    3    0    0  0.36151155993E+02 -0.30572199352E+02 -0.18213999762E+02  0.50727964716E+02  0.10566000000E+00 0.  1.
         22    1    1    0    0    0 -0.16361659146E+02 -0.11438014930E+02  0.19374996986E+02  0.27819464117E+02  0.00000000000E+00 0. -1.
</event>
<event>
 5    1  0.6924865E-004  0.9118800E+02  0.7818608E-02  0.1130116E+00
         25   -1    0    0    0    0  0.00000000000E+00  0.00000000000E+00  0.99999998245E-14  0.12500000000E+03  0.12500000000E+03 0.  0.
        -13    1    3    3    0    0  0.11115238839E+02  0.54223767950E+02  0.42383591349E+01  0.55513425379E+02  0.10566000000E+00 0.  1.
         23    2    1    0    0    0 -0.14523240350E+02  0.25403616124E+02 -0.53303827294E+01  0.95256409052E+02  0.90493658690E+02 0.  0.
         13    1    3    3    0    0 -0.25638479189E+02 -0.28820151826E+02 -0.95687418643E+01  0.39742983674E+02  0.10566000000E+00 0. -1.
         22    1    1    0    0    0  0.14523240350E+02 -0.25403616124E+02  0.53303827294E+01  0.29743590948E+02  0.00000000000E+00 0.  1.
</event>
<event>
 5    1  0.6924865E-004  0.9118800E+02  0.7818608E-02  0.1130116E+00
         25   -1    0    0    0    0  0.00000000000E+00  0.00000000000E+00  0.99999998245E-14  0.12500000000E+03  0.12500000000E+03 0.  0.
        -13    1    3    3    0    0  0.33398884926E+01  0.32745136818E+02 -0.27371218310E+02  0.42808802789E+02  0.10566000000E+00 0. -1.
         23    2    1    0    0    0 -0.16928160401E+02  0.13186731261E+02  0.18520403862E+02  0.96654667843E+02  0.92404907666E+02 0.  0.
         13    1    3    3    0    0 -0.20268048893E+02 -0.19558405557E+02  0.45891622171E+02  0.53845865054E+02  0.10566000000E+00 0.  1.
         22    1    1    0    0    0  0.16928160401E+02 -0.13186731261E+02 -0.18520403862E+02  0.28345332157E+02  0.00000000000E+00 0.  1.
</event>
<event>
 5    1  0.6924865E-004  0.9118800E+02  0.7818608E-02  0.1130116E+00
         25   -1    0    0    0    0  0.00000000000E+00  0.00000000000E+00  0.99999998245E-14  0.12500000000E+03  0.12500000000E+03 0.  0.
        -13    1    3    3    0    0 -0.81632080920E+00  0.26535343215E+02  0.45619898445E+02  0.52782356118E+02  0.10566000000E+00 0.  1.
         23    2    1    0    0    0  0.84292368112E+01 -0.10215643080E+02  0.26825498366E+02  0.95083135871E+02  0.90253996963E+02 0.  0.
         13    1    3    3    0    0  0.92455576204E+01 -0.36750986295E+02 -0.18794400079E+02  0.42300779753E+02  0.10566000000E+00 0. -1.
         22    1    1    0    0    0 -0.84292368112E+01  0.10215643080E+02 -0.26825498366E+02  0.29916864129E+02  0.00000000000E+00 0.  1.
</event>
<event>
 5    1  0.6924865E-004  0.9118800E+02  0.7818608E-02  0.1130116E+00
         25   -1    0    0    0    0  0.00000000000E+00  0.00000000000E+00  0.99999998245E-14  0.12500000000E+03  0.12500000000E+03 0.  0.
        -13    1    3    3    0    0  0.22554370108E+02 -0.57085551654E+02 -0.42908784707E+00  0.61381227578E+02  0.10566000000E+00 0.  1.
         23    2    1    0    0    0  0.20973230717E+02 -0.31450377890E+02  0.17481351962E+01  0.87157449177E+02  0.78513452951E+02 0.  0.
         13    1    3    3    0    0 -0.15811393913E+01  0.25635173764E+02  0.21772230433E+01  0.25776221599E+02  0.10566000000E+00 0. -1.
         22    1    1    0    0    0 -0.20973230717E+02  0.31450377890E+02 -0.17481351962E+01  0.37842550823E+02  0.00000000000E+00 0.  1.
</event>
<event>
 5    1  0.6924865E-004  0.9118800E+02  0.7818608E-02  0.1130116E+00
         25   -1    0    0    0    0  0.00000000000E+00  0.00000000000E+00  0.99999998245E-14  0.12500000000E+03  0.12500000000E+03 0.  0.
        -13    1    3    3    0    0 -0.12046329088E+02  0.37224581979E+02 -0.29362999040E+02  0.48918099153E+02  0.10566000000E+00 0. -1.
         23    2    1    0    0    0 -0.29482643870E+02  0.15200331425E+01 -0.64643835265E+01  0.94778731914E+02  0.89831414208E+02 0.  0.
         13    1    3    3    0    0 -0.17436314782E+02 -0.35704548837E+02  0.22898615514E+02  0.45860632762E+02  0.10566000000E+00 0.  1.
         22    1    1    0    0    0  0.29482643870E+02 -0.15200331425E+01  0.64643835265E+01  0.30221268086E+02  0.00000000000E+00 0. -1.
</event>
<event>
 5    1  0.6924865E-004  0.9118800E+02  0.7818608E-02  0.1130116E+00
         25   -1    0    0    0    0  0.00000000000E+00  0.00000000000E+00  0.99999998245E-14  0.12500000000E+03  0.12500000000E+03 0.  0.
        -13    1    3    3    0    0 -0.32752866099E+01 -0.38014278495E+02  0.62764842378E+01  0.38668052580E+02  0.10566000000E+00 0. -1.
         23    2    1    0    0    0 -0.16118532161E+02  0.19024644067E+02  0.11835591979E+02  0.97398815271E+02  0.93406123021E+02 0.  0.
         13    1    3    3    0    0 -0.12843245551E+02  0.57038922563E+02  0.55591077416E+01  0.58730762692E+02  0.10566000000E+00 0.  1.
         22    1    1    0    0    0  0.16118532161E+02 -0.19024644067E+02 -0.11835591979E+02  0.27601184729E+02  0.00000000000E+00 0.  1.
</event>
<event>
 5    1  0.6924865E-004  0.9118800E+02  0.7818608E-02  0.1130116E+00
         25   -1    0    0    0    0  0.00000000000E+00  0.00000000000E+00  0.99999998245E-14  0.12500000000E+03  0.12500000000E+03 0.  0.
        -13    1    3    3    0    0  0.27635732459E+02  0.19201478133E+02 -0.15215738201E+02  0.36931833478E+02  0.10566000000E+00 0. -1.
         23    2    1    0    0    0 -0.16791298012E+02 -0.20569026855E+02 -0.93587287114E+01  0.96846521390E+02  0.92664072583E+02 0.  0.
         13    1    3    3    0    0 -0.44427030471E+02 -0.39770504988E+02  0.58570094898E+01  0.59914687913E+02  0.10566000000E+00 0.  1.
         22    1    1    0    0    0  0.16791298012E+02  0.20569026855E+02  0.93587287114E+01  0.28153478610E+02  0.00000000000E+00 0.  1.
</event>
<event>
 5    1  0.6924865E-004  0.9118800E+02  0.7818608E-02  0.1130116E+00
         25   -1    0    0    0    0  0.00000000000E+00  0.00000000000E+00  0.99999998245E-14  0.12500000000E+03  0.12500000000E+03 0.  0.
        -13    1    3    3    0    0 -0.33421802746E+02  0.41743794579E+01  0.10382745551E+02  0.35245636777E+02  0.10566000000E+00 0. -1.
         23    2    1    0    0    0  0.15346876476E+02  0.20289561977E+01 -0.25041119737E+02  0.95560214700E+02  0.90912340609E+02 0.  0.
         13    1    3    3    0    0  0.48768679222E+02 -0.21454232603E+01 -0.35423865288E+02  0.60314577923E+02  0.10566000000E+00 0.  1.
         22    1    1    0    0    0 -0.15346876476E+02 -0.20289561977E+01  0.25041119737E+02  0.29439785300E+02  0.00000000000E+00 0.  1.
</event>
<event>
 5    1  0.6924865E-004  0.9118800E+02  0.7818608E-02  0.1130116E+00
         25   -1    0    0    0    0  0.00000000000E+00  0.00000000000E+00  0.99999998245E-14  0.12500000000E+03  0.12500000000E+03 0.  0.
        -13    1    3    3    0    0 -0.42422793176E+02  0.13148969998E+02  0.14208295900E+02  0.46631273082E+02  0.10566000000E+00 0.  1.
         23    2    1    0    0    0 -0.47358186631E+01  0.27219874491E+02 -0.12246608648E+02  0.94778666987E+02  0.89831323861E+02 0.  0.
         13    1    3    3    0    0  0.37686974513E+02  0.14070904493E+02 -0.26454904548E+02  0.48147393905E+02  0.10566000000E+00 0. -1.
         22    1    1    0    0    0  0.47358186631E+01 -0.27219874491E+02  0.12246608648E+02  0.30221333013E+02  0.00000000000E+00 0.  1.
</event>
<event>
 5    1  0.6924865E-004  0.9118800E+02  0.7818608E-02  0.1130116E+00
         25   -1    0    0    0    0  0.00000000000E+00  0.00000000000E+00  0.99999998245E-14  0.12500000000E+03  0.12500000000E+03 0.  0.
        -13    1    3    3    0    0  0.99449426944E+01  0.50811139747E+01 -0.37048237954E+02  0.38694995852E+02  0.10566000000E+00 0.  1.
         23    2    1    0    0    0 -0.26362622230E+02 -0.98327676031E+01  0.52261934558E+01  0.96382098826E+02  0.92035453530E+02 0.  0.
         13    1    3    3    0    0 -0.36307564924E+02 -0.14913881578E+02  0.42274431410E+02  0.57687102974E+02  0.10566000000E+00 0. -1.
         22    1    1    0    0    0  0.26362622230E+02  0.98327676031E+01 -0.52261934558E+01  0.28617901174E+02  0.00000000000E+00 0. -1.
</event>
<event>
 5    1  0.6924865E-004  0.9118800E+02  0.7818608E-02  0.1130116E+00
         25   -1    0    0    0    0  0.00000000000E+00  0.00000000000E+00  0.99999998245E-14  0.12500000000E+03  0.12500000000E+03 0.  0.
        -13    1    3    3    0    0 -0.48148484289E+02  0.31791162751E+02  0.15511443003E+02  0.59745883511E+02  0.10566000000E+00 0. -1.
         23    2    1    0    0    0 -0.13262869811E+02  0.21245771269E+02  0.14188306585E+02  0.96214681586E+02  0.91807790499E+02 0.  0.
         13    1    3    3    0    0  0.34885614478E+02 -0.10545391482E+02 -0.13231364178E+01  0.36468798075E+02  0.10566000000E+00 0.  1.
         22    1    1    0    0    0  0.13262869811E+02 -0.21245771269E+02 -0.14188306585E+02  0.28785318414E+02  0.00000000000E+00 0. -1.
</event>
<event>
 5    1  0.6924865E-004  0.9118800E+02  0.7818608E-02  0.1130116E+00
         25   -1    0    0    0    0  0.00000000000E+00  0.00000000000E+00  0.99999998245E-14  0.12500000000E+03  0.12500000000E+03 0.  0.
        -13    1    3    3    0    0 -0.24859029758E+02  0.28500294624E+02  0.19658276379E+02  0.42622730419E+02  0.10566000000E+00 0.  1.
         23    2    1    0    0    0 -0.10353852322E+02  0.30431201161E+02 -0.21515444111E+02  0.86319583802E+02  0.77167972310E+02 0.  0.
         13    1    3    3    0    0  0.14505177436E+02  0.19309065363E+01 -0.41173720490E+02  0.43696853383E+02  0.10566000000E+00 0. -1.
         22    1    1    0    0    0  0.10353852322E+02 -0.30431201161E+02  0.21515444111E+02  0.38680416198E+02  0.00000000000E+00 0.  1.
</event>
<event>
 5    1  0.6924865E-004  0.9118800E+02  0.7818608E-02  0.1130116E+00
         25   -1    0    0    0    0  0.00000000000E+00  0.00000000000E+00  0.99999998245E-14  0.12500000000E+03  0.12500000000E+03 0.  0.
        -13    1    3    3    0    0  0.40255913492E+02  0.92117539862E+01 -0.29879375492E+02  0.50972377092E+02  0.10566000000E+00 0. -1.
         23    2    1    0    0    0 -0.22312377415E+00  0.22650338662E+02 -0.20067306115E+02  0.94738070113E+02  0.89774815669E+02 0.  0.
         13    1    3    3    0    0 -0.40479037266E+02  0.13438584676E+02  0.98120693768E+01  0.43765693021E+02  0.10566000000E+00 0.  1.
         22    1    1    0    0    0  0.22312377415E+00 -0.22650338662E+02  0.20067306115E+02  0.30261929887E+02  0.00000000000E+00 0.  1.
</event>
<event>
 5    1  0.6924865E-004  0.9118800E+02  0.7818608E-02  0.1130116E+00
         25   -1    0    0    0    0  0.00000000000E+00  0.00000000000E+00  0.99999998245E-14  0.12500000000E+03  0.12500000000E+03 0.  0.
        -13    1    3    3    0    0  0.24144583313E+02 -0.20265715213E+02 -0.31380242456E+02  0.44479106299E+02  0.10566000000E+00 0.  1.
         23    2    1    0    0    0 -0.13666821246E+02  0.15460211469E+02 -0.18845567042E+01  0.10427919655E+03  0.10219980009E+03 0.  0.
         13    1    3    3    0    0 -0.37811404559E+02  0.35725926683E+02  0.29495685752E+02  0.59800090251E+02  0.10566000000E+00 0. -1.
         22    1    1    0    0    0  0.13666821246E+02 -0.15460211469E+02  0.18845567042E+01  0.20720803450E+02  0.00000000000E+00 0. -1.
</event>
<event>
 4    1  0.6924865E-004  0.9118800E+02  0.7818608E-02  0.1130116E+00
         25   -1    0    0    0    0  0.00000000000E+00  0.00000000000E+00  0.99999998245E-14  0.12500000000E+03  0.12500000000E+03 0.  0.
        -13    1    1    0    0    0  0.13592662430E+00  0.14193876645E+02 -0.23086568692E+02  0.27101391630E+02  0.10566000000E+00 0.  1.
         13    1    1    0    0    0 -0.29734528735E+02  0.28298131846E+02  0.20913120164E+02  0.46068386385E+02  0.10566000000E+00 0. -1.
         22    1    1    0    0    0  0.29598602111E+02 -0.42492008491E+02  0.21734485279E+01  0.51830221985E+02  0.00000000000E+00 0. -1.
</event>
<event>
 5    1  0.6924865E-004  0.9118800E+02  0.7818608E-02  0.1130116E+00
         25   -1    0    0    0    0  0.00000000000E+00  0.00000000000E+00  0.99999998245E-14  0.12500000000E+03  0.12500000000E+03 0.  0.
        -13    1    3    3    0    0  0.30646780156E+02  0.29957977672E+02  0.11932870409E+02  0.44487190520E+02  0.10566000000E+00 0. -1.
         23    2    1    0    0    0 -0.72341659180E+01  0.19690572220E+02 -0.20699721485E+02  0.95529162542E+02  0.90869635388E+02 0.  0.
         13    1    3    3    0    0 -0.37880946074E+02 -0.10267405452E+02 -0.32632591895E+02  0.51041972023E+02  0.10566000000E+00 0.  1.
         22    1    1    0    0    0  0.72341659180E+01 -0.19690572220E+02  0.20699721485E+02  0.29470837458E+02  0.00000000000E+00 0.  1.
</event>
<event>
 5    1  0.6924865E-004  0.9118800E+02  0.7818608E-02  0.1130116E+00
         25   -1    0    0    0    0  0.00000000000E+00  0.00000000000E+00  0.99999998245E-14  0.12500000000E+03  0.12500000000E+03 0.  0.
        -13    1    3    3    0    0 -0.35026137800E+01  0.29719885231E+02 -0.15185628404E+02  0.33558223366E+02  0.10566000000E+00 0. -1.
         23    2    1    0    0    0  0.83136286234E+01 -0.12107683820E+02  0.27085631183E+02  0.94188576064E+02  0.89006426824E+02 0.  0.
         13    1    3    3    0    0  0.11816242403E+02 -0.41827569050E+02  0.42271259587E+02  0.60630352698E+02  0.10566000000E+00 0.  1.
         22    1    1    0    0    0 -0.83136286234E+01  0.12107683820E+02 -0.27085631183E+02  0.30811423936E+02  0.00000000000E+00 0.  1.
</event>
<event>
 5    1  0.6924865E-004  0.9118800E+02  0.7818608E-02  0.1130116E+00
         25   -1    0    0    0    0  0.00000000000E+00  0.00000000000E+00  0.99999998245E-14  0.12500000000E+03  0.12500000000E+03 0.  0.
        -13    1    3    3    0    0 -0.61156396251E+01 -0.36606588016E+02  0.45002559441E+02  0.58332536842E+02  0.10566000000E+00 0.  1.
         23    2    1    0    0    0 -0.12422851711E+02 -0.23688317719E+02  0.95345598017E+01  0.96603319356E+02  0.92335420284E+02 0.  0.
         13    1    3    3    0    0 -0.63072120854E+01  0.12918270297E+02 -0.35467999639E+02  0.38270782513E+02  0.10566000000E+00 0. -1.
         22    1    1    0    0    0  0.12422851711E+02  0.23688317719E+02 -0.95345598017E+01  0.28396680644E+02  0.00000000000E+00 0.  1.
</event>
<event>
 5    1  0.6924865E-004  0.9118800E+02  0.7818608E-02  0.1130116E+00
         25   -1    0    0    0    0  0.00000000000E+00  0.00000000000E+00  0.99999998245E-14  0.12500000000E+03  0.12500000000E+03 0.  0.
        -13    1    3    3    0    0 -0.18632033314E+02  0.25832739695E+02  0.14579391202E+02  0.35029315114E+02  0.10566000000E+00 0. -1.
         23    2    1    0    0    0  0.25158396055E+01 -0.28835517455E+02 -0.21185385054E+01  0.95977513524E+02  0.91484306747E+02 0.  0.
         13    1    3    3    0    0  0.21147872919E+02 -0.54668257150E+02 -0.16697929707E+02  0.60948198410E+02  0.10566000000E+00 0.  1.
         22    1    1    0    0    0 -0.25158396055E+01  0.28835517455E+02  0.21185385054E+01  0.29022486476E+02  0.00000000000E+00 0.  1.
</event>
<event>
 5    1  0.6924865E-004  0.9118800E+02  0.7818608E-02  0.1130116E+00
         25   -1    0    0    0    0  0.00000000000E+00  0.00000000000E+00  0.99999998245E-14  0.12500000000E+03  0.12500000000E+03 0.  0.
        -13    1    3    3    0    0  0.60773022054E+01 -0.95708596753E+01  0.28897092768E+02  0.31041715344E+02  0.10566000000E+00 0.  1.
         23    2    1    0    0    0  0.39586072480E+02  0.10620490707E+02 -0.61362702546E+01  0.83557198817E+02  0.72555493963E+02 0.  0.
         13    1    3    3    0    0  0.33508770275E+02  0.20191350383E+02 -0.35033363023E+02  0.52515483472E+02  0.10566000000E+00 0. -1.
         22    1    1    0    0    0 -0.39586072480E+02 -0.10620490707E+02  0.61362702546E+01  0.41442801183E+02  0.00000000000E+00 0. -1.
</event>
<event>
 5    1  0.6924865E-004  0.9118800E+02  0.7818608E-02  0.1130116E+00
         25   -1    0    0    0    0  0.00000000000E+00  0.00000000000E+00  0.99999998245E-14  0.12500000000E+03  0.12500000000E+03 0.  0.
        -13    1    3    3    0    0 -0.37755056803E+02 -0.33792663734E+02 -0.93499975488E+01  0.51524965353E+02  0.10566000000E+00 0.  1.
         23    2    1    0    0    0 -0.29347833795E+02  0.75187046990E+01 -0.15255884638E-01  0.94704348471E+02  0.89727850291E+02 0.  0.
         13    1    3    3    0    0  0.84072230077E+01  0.41311368433E+02  0.93347416642E+01  0.43179383118E+02  0.10566000000E+00 0. -1.
         22    1    1    0    0    0  0.29347833795E+02 -0.75187046990E+01  0.15255884638E-01  0.30295651529E+02  0.00000000000E+00 0. -1.
</event>
<event>
 5    1  0.6924865E-004  0.9118800E+02  0.7818608E-02  0.1130116E+00
         25   -1    0    0    0    0  0.00000000000E+00  0.00000000000E+00  0.99999998245E-14  0.12500000000E+03  0.12500000000E+03 0.  0.
        -13    1    3    3    0    0  0.19654678937E+02 -0.17805953247E+02  0.26038779970E+02  0.37167023038E+02  0.10566000000E+00 0. -1.
         23    2    1    0    0    0 -0.15202676611E+02 -0.15329760473E+02 -0.20407683364E+02  0.95291474749E+02  0.90542082411E+02 0.  0.
         13    1    3    3    0    0 -0.34857355547E+02  0.24761927737E+01 -0.46446463334E+02  0.58124451711E+02  0.10566000000E+00 0.  1.
         22    1    1    0    0    0  0.15202676611E+02  0.15329760473E+02  0.20407683364E+02  0.29708525251E+02  0.00000000000E+00 0.  1.
</event>
<event>
 4    1  0.6924865E-004  0.9118800E+02  0.7818608E-02  0.1130116E+00
         25   -1    0    0    0    0  0.00000000000E+00  0.00000000000E+00  0.99999998245E-14  0.12500000000E+03  0.12500000000E+03 0.  0.
        -13    1    1    0    0    0  0.29807461669E+02  0.18961962715E+02 -0.98542281154E+01  0.36676392638E+02  0.10566000000E+00 0.  1.
         13    1    1    0    0    0 -0.37408554820E+01 -0.67642446895E+01 -0.34552436350E+02  0.35406652309E+02  0.10566000000E+00 0. -1.
         22    1    1    0    0    0 -0.26066606187E+02 -0.12197718025E+02  0.44406664465E+02  0.52916955053E+02  0.00000000000E+00 0. -1.
</event>
<event>
 5    1  0.6924865E-004  0.9118800E+02  0.7818608E-02  0.1130116E+00
         25   -1    0    0    0    0  0.00000000000E+00  0.00000000000E+00  0.99999998245E-14  0.12500000000E+03  0.12500000000E+03 0.  0.
        -13    1    3    3    0    0 -0.49198985508E+02  0.70146017899E+01 -0.10716041752E+02  0.50838858446E+02  0.10566000000E+00 0.  1.
         23    2    1    0    0    0 -0.13155347737E+02 -0.18424112546E+02 -0.18656461149E+02  0.95664447512E+02  0.91055542819E+02 0.  0.
         13    1    3    3    0    0  0.36043637771E+02 -0.25438714336E+02 -0.79404193975E+01  0.44825589066E+02  0.10566000000E+00 0. -1.
         22    1    1    0    0    0  0.13155347737E+02  0.18424112546E+02  0.18656461149E+02  0.29335552488E+02  0.00000000000E+00 0.  1.
</event>
<event>
 5    1  0.6924865E-004  0.9118800E+02  0.7818608E-02  0.1130116E+00
         25   -1    0    0    0    0  0.00000000000E+00  0.00000000000E+00  0.99999998245E-14  0.12500000000E+03  0.12500000000E+03 0.  0.
        -13    1    3    3    0    0  0.27480700636E+02 -0.28606362465E+02  0.19861953566E+02  0.44362385468E+02  0.10566000000E+00 0. -1.
         23    2    1    0    0    0 -0.12047636127E+02 -0.19442547016E+02 -0.14823740284E+02  0.97743781504E+02  0.93866636117E+02 0.  0.
         13    1    3    3    0    0 -0.39528336763E+02  0.91638154491E+01 -0.34685693850E+02  0.53381396036E+02  0.10566000000E+00 0.  1.
         22    1    1    0    0    0  0.12047636127E+02  0.19442547016E+02  0.14823740284E+02  0.27256218496E+02  0.00000000000E+00 0. -1.
</event>
<event>
 5    1  0.6924865E-004  0.9118800E+02  0.7818608E-02  0.1130116E+00
         25   -1    0    0    0    0  0.00000000000E+00  0.00000000000E+00  0.99999998245E-14  0.12500000000E+03  0.12500000000E+03 0.  0.
        -13    1    3    3    0    0  0.32330294588E+02  0.11352562009E+02  0.11588798283E+02  0.36172365446E+02  0.10566000000E+00 0. -1.
         23    2    1    0    0    0 -0.27314511044E+02 -0.19225814657E+00  0.38189053658E+01  0.97419145862E+02  0.93433326311E+02 0.  0.
         13    1    3    3    0    0 -0.59644805632E+02 -0.11544820156E+02 -0.77698929175E+01  0.61246780416E+02  0.10566000000E+00 0.  1.
         22    1    1    0    0    0  0.27314511044E+02  0.19225814657E+00 -0.38189053658E+01  0.27580854138E+02  0.00000000000E+00 0.  1.
</event>
<event>
 5    1  0.6924865E-004  0.9118800E+02  0.7818608E-02  0.1130116E+00
         25   -1    0    0    0    0  0.00000000000E+00  0.00000000000E+00  0.99999998245E-14  0.12500000000E+03  0.12500000000E+03 0.  0.
        -13    1    3    3    0    0 -0.19985138486E+02 -0.17326014742E+01 -0.56495773890E+02  0.59951574622E+02  0.10566000000E+00 0.  1.
         23    2    1    0    0    0 -0.21184447626E+02  0.15544506885E+00 -0.22224095709E+02  0.94296328974E+02  0.89157625829E+02 0.  0.
         13    1    3    3    0    0 -0.11993091399E+01  0.18880465431E+01  0.34271678180E+02  0.34344754352E+02  0.10566000000E+00 0. -1.
         22    1    1    0    0    0  0.21184447626E+02 -0.15544506885E+00  0.22224095709E+02  0.30703671026E+02  0.00000000000E+00 0.  1.
</event>
<event>
 5    1  0.6924865E-004  0.9118800E+02  0.7818608E-02  0.1130116E+00
         25   -1    0    0    0    0  0.00000000000E+00  0.00000000000E+00  0.99999998245E-14  0.12500000000E+03  0.12500000000E+03 0.  0.
        -13    1    3    3    0    0 -0.47521550964E+02 -0.10505905819E+02  0.30836596593E+02  0.57615785307E+02  0.10566000000E+00 0. -1.
         23    2    1    0    0    0 -0.11546712923E+02 -0.14780383884E+02  0.24094584932E+02  0.94465833070E+02  0.89394956610E+02 0.  0.
         13    1    3    3    0    0  0.35974838041E+02 -0.42744780649E+01 -0.67420116608E+01  0.36850047762E+02  0.10566000000E+00 0.  1.
         22    1    1    0    0    0  0.11546712923E+02  0.14780383884E+02 -0.24094584932E+02  0.30534166930E+02  0.00000000000E+00 0. -1.
</event>
<event>
 5    1  0.6924865E-004  0.9118800E+02  0.7818608E-02  0.1130116E+00
         25   -1    0    0    0    0  0.00000000000E+00  0.00000000000E+00  0.99999998245E-14  0.12500000000E+03  0.12500000000E+03 0.  0.
        -13    1    3    3    0    0  0.49420645643E+02 -0.15833565997E+02  0.34216304842E+02  0.62160025008E+02  0.10566000000E+00 0.  1.
         23    2    1    0    0    0  0.22672820173E+02 -0.10916001592E+02  0.20052872959E+02  0.92823400129E+02  0.87068076998E+02 0.  0.
         13    1    3    3    0    0 -0.26747825470E+02  0.49175644046E+01 -0.14163431883E+02  0.30663375121E+02  0.10566000000E+00 0. -1.
         22    1    1    0    0    0 -0.22672820173E+02  0.10916001592E+02 -0.20052872959E+02  0.32176599871E+02  0.00000000000E+00 0.  1.
</event>
<event>
 5    1  0.6924865E-004  0.9118800E+02  0.7818608E-02  0.1130116E+00
         25   -1    0    0    0    0  0.00000000000E+00  0.00000000000E+00  0.99999998245E-14  0.12500000000E+03  0.12500000000E+03 0.  0.
        -13    1    3    3    0    0  0.33680205683E+02 -0.18457483902E+02  0.75245135235E+01  0.39136484699E+02  0.10566000000E+00 0. -1.
         23    2    1    0    0    0 -0.20332541826E+02 -0.96105179230E+01  0.19580383960E+02  0.95181117595E+02  0.90389597847E+02 0.  0.
         13    1    3    3    0    0 -0.54012747509E+02  0.88469659787E+01  0.12055870436E+02  0.56044632896E+02  0.10566000000E+00 0.  1.
         22    1    1    0    0    0  0.20332541826E+02  0.96105179230E+01 -0.19580383960E+02  0.29818882405E+02  0.00000000000E+00 0.  1.
</event>
<event>
 5    1  0.6924865E-004  0.9118800E+02  0.7818608E-02  0.1130116E+00
         25   -1    0    0    0    0  0.00000000000E+00  0.00000000000E+00  0.99999998245E-14  0.12500000000E+03  0.12500000000E+03 0.  0.
        -13    1    3    3    0    0 -0.15294928448E+02  0.91564568786E+01  0.31222772801E+02  0.35953417699E+02  0.10566000000E+00 0. -1.
         23    2    1    0    0    0  0.38731903570E+01 -0.27591198025E+02 -0.10931747202E+02  0.95070434201E+02  0.90236403687E+02 0.  0.
         13    1    3    3    0    0  0.19168118805E+02 -0.36747654904E+02 -0.42154520003E+02  0.59117016503E+02  0.10566000000E+00 0.  1.
         22    1    1    0    0    0 -0.38731903570E+01  0.27591198025E+02  0.10931747202E+02  0.29929565799E+02  0.00000000000E+00 0.  1.
</event>
<event>
 5    1  0.6924865E-004  0.9118800E+02  0.7818608E-02  0.1130116E+00
         25   -1    0    0    0    0  0.00000000000E+00  0.00000000000E+00  0.99999998245E-14  0.12500000000E+03  0.12500000000E+03 0.  0.
        -13    1    3    3    0    0  0.48193192672E+02 -0.40685481774E+01 -0.28097701387E+02  0.55934147812E+02  0.10566000000E+00 0.  1.
         23    2    1    0    0    0  0.27315857216E+02 -0.13627202115E+02  0.27055991506E+01  0.94354005814E+02  0.89238452774E+02 0.  0.
         13    1    3    3    0    0 -0.20877335456E+02 -0.95586539375E+01  0.30803300538E+02  0.38419858002E+02  0.10566000000E+00 0. -1.
         22    1    1    0    0    0 -0.27315857216E+02  0.13627202115E+02 -0.27055991506E+01  0.30645994186E+02  0.00000000000E+00 0.  1.
</event>
