<event>
 5    1  0.1692178E-003  0.9118800E+02  0.7818608E-02  0.1130116E+00
         25   -1    0    0    0    0  0.00000000000E+00  0.00000000000E+00  0.99999998245E-14  0.12500000000E+03  0.12500000000E+03 0.  0.
        -11    1    3    3    0    0  0.44652025474E+02 -0.10423946690E+02  0.86792111106E+01  0.46666805647E+02  0.51100000000E-03 0.  1.
         23    2    1    0    0    0  0.11297604429E+02 -0.70818464408E+01 -0.26546311130E+02  0.95293181768E+02  0.90544439046E+02 0.  0.
         11    1    3    3    0    0 -0.33354421045E+02  0.33421002489E+01 -0.35225522240E+02  0.48626376121E+02  0.51100000000E-03 0. -1.
         22    1    1    0    0    0 -0.11297604429E+02  0.70818464408E+01  0.26546311130E+02  0.29706818232E+02  0.00000000000E+00 0. -1.
</event>
<event>
 5    1  0.1692178E-003  0.9118800E+02  0.7818608E-02  0.1130116E+00
         25   -1    0    0    0    0  0.00000000000E+00  0.00000000000E+00  0.99999998245E-14  0.12500000000E+03  0.12500000000E+03 0.  0.
        -11    1    3    3    0    0 -0.11234871715E+02 -0.35696995606E+02 -0.10270480380E+01  0.37437316486E+02  0.51100000000E-03 0.  1.
         23    2    1    0    0    0  0.71412329759E+00  0.12495936581E+02 -0.28277814910E+02  0.94076009002E+02  0.88848197790E+02 0.  0.
         11    1    3    3    0    0  0.11948995013E+02  0.48192932187E+02 -0.27250766873E+02  0.56638692516E+02  0.51100000000E-03 0. -1.
         22    1    1    0    0    0 -0.71412329759E+00 -0.12495936581E+02  0.28277814910E+02  0.30923990998E+02  0.00000000000E+00 0. -1.
</event>
<event>
 5    1  0.1692178E-003  0.9118800E+02  0.7818608E-02  0.1130116E+00
         25   -1    0    0    0    0  0.00000000000E+00  0.00000000000E+00  0.99999998245E-14  0.12500000000E+03  0.12500000000E+03 0.  0.
        -11    1    3    3    0    0  0.10217086425E+02 -0.25621745294E+02 -0.23062016676E+02  0.35954405855E+02  0.51100000000E-03 0. -1.
         23    2    1    0    0    0 -0.14742136634E+02  0.25055339419E+02 -0.35789344697E+01  0.95709909562E+02  0.91117931223E+02 0.  0.
         11    1    3    3    0    0 -0.24959223059E+02  0.50677084713E+02  0.19483082206E+02  0.59755503707E+02  0.51100000000E-03 0.  1.
         22    1    1    0    0    0  0.14742136634E+02 -0.25055339419E+02  0.35789344697E+01  0.29290090438E+02  0.00000000000E+00 0.  1.
</event>
<event>
 5    1  0.1692178E-003  0.9118800E+02  0.7818608E-02  0.1130116E+00
         25   -1    0    0    0    0  0.00000000000E+00  0.00000000000E+00  0.99999998245E-14  0.12500000000E+03  0.12500000000E+03 0.  0.
        -11    1    3    3    0    0 -0.70395391459E+01 -0.52553213755E+02  0.31200406194E+02  0.61521221821E+02  0.51100000000E-03 0.  1.
         23    2    1    0    0    0 -0.65583301166E+01 -0.27123376226E+02  0.79414277795E+01  0.95986976942E+02  0.91497236218E+02 0.  0.
         11    1    3    3    0    0  0.48120902929E+00  0.25429837530E+02 -0.23258978414E+02  0.34465755121E+02  0.51100000000E-03 0. -1.
         22    1    1    0    0    0  0.65583301166E+01  0.27123376226E+02 -0.79414277795E+01  0.29013023058E+02  0.00000000000E+00 0.  1.
</event>
<event>
 5    1  0.1692178E-003  0.9118800E+02  0.7818608E-02  0.1130116E+00
         25   -1    0    0    0    0  0.00000000000E+00  0.00000000000E+00  0.99999998245E-14  0.12500000000E+03  0.12500000000E+03 0.  0.
        -11    1    3    3    0    0  0.22356341559E+02  0.24618004897E+01  0.25165573954E+02  0.33751630808E+02  0.51100000000E-03 0.  1.
         23    2    1    0    0    0 -0.14843522743E+02 -0.11352775031E+02 -0.22485966129E+02  0.95762449811E+02  0.91189980002E+02 0.  0.
         11    1    3    3    0    0 -0.37199864302E+02 -0.13814575521E+02 -0.47651540082E+02  0.62010819003E+02  0.51100000000E-03 0. -1.
         22    1    1    0    0    0  0.14843522743E+02  0.11352775031E+02  0.22485966129E+02  0.29237550189E+02  0.00000000000E+00 0. -1.
</event>
<event>
 5    1  0.1692178E-003  0.9118800E+02  0.7818608E-02  0.1130116E+00
         25   -1    0    0    0    0  0.00000000000E+00  0.00000000000E+00  0.99999998245E-14  0.12500000000E+03  0.12500000000E+03 0.  0.
        -11    1    3    3    0    0  0.33667676631E+02 -0.66411481502E+01 -0.24203361686E+00  0.34317282513E+02  0.51100000000E-03 0.  1.
         23    2    1    0    0    0 -0.27810141852E+02  0.38581211672E+01 -0.31144143561E+01  0.96751306835E+02  0.92535542948E+02 0.  0.
         11    1    3    3    0    0 -0.61477818483E+02  0.10499269317E+02 -0.28723807393E+01  0.62434024322E+02  0.51100000000E-03 0. -1.
         22    1    1    0    0    0  0.27810141852E+02 -0.38581211672E+01  0.31144143561E+01  0.28248693165E+02  0.00000000000E+00 0. -1.
</event>
<event>
 5    1  0.1692178E-003  0.9118800E+02  0.7818608E-02  0.1130116E+00
         25   -1    0    0    0    0  0.00000000000E+00  0.00000000000E+00  0.99999998245E-14  0.12500000000E+03  0.12500000000E+03 0.  0.
        -11    1    3    3    0    0  0.37305573739E+02 -0.69172337723E+01 -0.36348191873E+01  0.38115165825E+02  0.51100000000E-03 0. -1.
         23    2    1    0    0    0 -0.75558462184E+01  0.16947878747E+02  0.22968754981E+02  0.95472299252E+02  0.90791380720E+02 0.  0.
         11    1    3    3    0    0 -0.44861419958E+02  0.23865112519E+02  0.26603574169E+02  0.57357133427E+02  0.51100000000E-03 0.  1.
         22    1    1    0    0    0  0.75558462184E+01 -0.16947878747E+02 -0.22968754981E+02  0.29527700748E+02  0.00000000000E+00 0.  1.
</event>
<event>
 5    1  0.1692178E-003  0.9118800E+02  0.7818608E-02  0.1130116E+00
         25   -1    0    0    0    0  0.00000000000E+00  0.00000000000E+00  0.99999998245E-14  0.12500000000E+03  0.12500000000E+03 0.  0.
        -11    1    3    3    0    0 -0.16396910167E+02  0.37764981499E+02  0.29377114641E+02  0.50577340337E+02  0.51100000000E-03 0.  1.
         23    2    1    0    0    0 -0.16187595065E+02  0.21305891678E+02 -0.12421012607E+02  0.95499816808E+02  0.90829258512E+02 0.  0.
         11    1    3    3    0    0  0.20931510228E+00 -0.16459089821E+02 -0.41798127248E+02  0.44922476471E+02  0.51100000000E-03 0. -1.
         22    1    1    0    0    0  0.16187595065E+02 -0.21305891678E+02  0.12421012607E+02  0.29500183192E+02  0.00000000000E+00 0.  1.
</event>
<event>
 5    1  0.1692178E-003  0.9118800E+02  0.7818608E-02  0.1130116E+00
         25   -1    0    0    0    0  0.00000000000E+00  0.00000000000E+00  0.99999998245E-14  0.12500000000E+03  0.12500000000E+03 0.  0.
        -11    1    3    3    0    0 -0.17582019306E+02 -0.44231703250E+02  0.16144166484E+02  0.50261367739E+02  0.51100000000E-03 0.  1.
         23    2    1    0    0    0 -0.29239386123E+02 -0.17056453944E+02 -0.99698579262E+01  0.89711724482E+02  0.82479883126E+02 0.  0.
         11    1    3    3    0    0 -0.11657366816E+02  0.27175249306E+02 -0.26114024411E+02  0.39450356743E+02  0.51100000000E-03 0. -1.
         22    1    1    0    0    0  0.29239386123E+02  0.17056453944E+02  0.99698579262E+01  0.35288275518E+02  0.00000000000E+00 0.  1.
</event>
<event>
 5    1  0.1692178E-003  0.9118800E+02  0.7818608E-02  0.1130116E+00
         25   -1    0    0    0    0  0.00000000000E+00  0.00000000000E+00  0.99999998245E-14  0.12500000000E+03  0.12500000000E+03 0.  0.
        -11    1    3    3    0    0 -0.14090535055E+02  0.30118769390E+02 -0.46140438064E+02  0.56873750296E+02  0.51100000000E-03 0.  1.
         23    2    1    0    0    0 -0.11441351466E+02 -0.34442718311E+01 -0.26694076423E+02  0.95753782332E+02  0.91178098154E+02 0.  0.
         11    1    3    3    0    0  0.26491835892E+01 -0.33563041222E+02  0.19446361641E+02  0.38880032035E+02  0.51100000000E-03 0. -1.
         22    1    1    0    0    0  0.11441351466E+02  0.34442718311E+01  0.26694076423E+02  0.29246217668E+02  0.00000000000E+00 0.  1.
</event>
<event>
 5    1  0.1692178E-003  0.9118800E+02  0.7818608E-02  0.1130116E+00
         25   -1    0    0    0    0  0.00000000000E+00  0.00000000000E+00  0.99999998245E-14  0.12500000000E+03  0.12500000000E+03 0.  0.
        -11    1    3    3    0    0  0.32850901260E+02  0.16405185739E+02 -0.10823017543E+02  0.38281190443E+02  0.51100000000E-03 0.  1.
         23    2    1    0    0    0 -0.24828552611E+02  0.11102639033E+02  0.24077097647E+01  0.97695738710E+02  0.93802636836E+02 0.  0.
         11    1    3    3    0    0 -0.57679453871E+02 -0.53025467056E+01  0.13230727308E+02  0.59414548267E+02  0.51100000000E-03 0. -1.
         22    1    1    0    0    0  0.24828552611E+02 -0.11102639033E+02 -0.24077097647E+01  0.27304261290E+02  0.00000000000E+00 0. -1.
</event>
<event>
 5    1  0.1692178E-003  0.9118800E+02  0.7818608E-02  0.1130116E+00
         25   -1    0    0    0    0  0.00000000000E+00  0.00000000000E+00  0.99999998245E-14  0.12500000000E+03  0.12500000000E+03 0.  0.
        -11    1    3    3    0    0 -0.39185226576E+02  0.11098286499E+01 -0.39800296707E+02  0.55863917869E+02  0.51100000000E-03 0. -1.
         23    2    1    0    0    0 -0.13084556608E+01  0.58052024063E+01 -0.28810535279E+02  0.95581309100E+02  0.90941339747E+02 0.  0.
         11    1    3    3    0    0  0.37876770915E+02  0.46953737564E+01  0.10989761428E+02  0.39717391231E+02  0.51100000000E-03 0.  1.
         22    1    1    0    0    0  0.13084556608E+01 -0.58052024063E+01  0.28810535279E+02  0.29418690900E+02  0.00000000000E+00 0. -1.
</event>
<event>
 5    1  0.1692178E-003  0.9118800E+02  0.7818608E-02  0.1130116E+00
         25   -1    0    0    0    0  0.00000000000E+00  0.00000000000E+00  0.99999998245E-14  0.12500000000E+03  0.12500000000E+03 0.  0.
        -11    1    3    3    0    0  0.10279714136E+02  0.41780880826E+02  0.14745051587E+02  0.45483305420E+02  0.51100000000E-03 0. -1.
         23    2    1    0    0    0 -0.26346631100E+02  0.12975486374E+02 -0.32888995890E+01  0.95447926004E+02  0.90757817851E+02 0.  0.
         11    1    3    3    0    0 -0.36626345236E+02 -0.28805394452E+02 -0.18033951176E+02  0.49964620585E+02  0.51100000000E-03 0.  1.
         22    1    1    0    0    0  0.26346631100E+02 -0.12975486374E+02  0.32888995890E+01  0.29552073996E+02  0.00000000000E+00 0.  1.
</event>
<event>
 5    1  0.1692178E-003  0.9118800E+02  0.7818608E-02  0.1130116E+00
         25   -1    0    0    0    0  0.00000000000E+00  0.00000000000E+00  0.99999998245E-14  0.12500000000E+03  0.12500000000E+03 0.  0.
        -11    1    3    3    0    0  0.30053843086E+02  0.12723183459E+02  0.92407045041E+01  0.33919072828E+02  0.51100000000E-03 0.  1.
         23    2    1    0    0    0 -0.26528486709E+02  0.18250946898E+02 -0.47091009658E+01  0.92457208146E+02  0.86540753617E+02 0.  0.
         11    1    3    3    0    0 -0.56582329794E+02  0.55277634390E+01 -0.13949805470E+02  0.58538135318E+02  0.51100000000E-03 0. -1.
         22    1    1    0    0    0  0.26528486709E+02 -0.18250946898E+02  0.47091009658E+01  0.32542791854E+02  0.00000000000E+00 0. -1.
</event>
<event>
 5    1  0.1692178E-003  0.9118800E+02  0.7818608E-02  0.1130116E+00
         25   -1    0    0    0    0  0.00000000000E+00  0.00000000000E+00  0.99999998245E-14  0.12500000000E+03  0.12500000000E+03 0.  0.
        -11    1    3    3    0    0  0.28046275977E+01 -0.36282225178E+02  0.28873332142E+02  0.46453580153E+02  0.51100000000E-03 0.  1.
         23    2    1    0    0    0 -0.68642439877E+01  0.87495047022E+01  0.30495379131E+02  0.92540181356E+02  0.86660517764E+02 0.  0.
         11    1    3    3    0    0 -0.96688715853E+01  0.45031729880E+02  0.16220469890E+01  0.46086601203E+02  0.51100000000E-03 0. -1.
         22    1    1    0    0    0  0.68642439877E+01 -0.87495047022E+01 -0.30495379131E+02  0.32459818644E+02  0.00000000000E+00 0.  1.
</event>
<event>
 5    1  0.1692178E-003  0.9118800E+02  0.7818608E-02  0.1130116E+00
         25   -1    0    0    0    0  0.00000000000E+00  0.00000000000E+00  0.99999998245E-14  0.12500000000E+03  0.12500000000E+03 0.  0.
        -11    1    3    3    0    0  0.60195811784E+00  0.48361603159E+01 -0.61249716285E+02  0.61443295366E+02  0.51100000000E-03 0. -1.
         23    2    1    0    0    0  0.49758334071E+01 -0.44305044592E+01 -0.21591673935E+02  0.10240379078E+03  0.99879666072E+02 0.  0.
         11    1    3    3    0    0  0.43738752893E+01 -0.92666647751E+01  0.39658042350E+02  0.40960495412E+02  0.51100000000E-03 0.  1.
         22    1    1    0    0    0 -0.49758334071E+01  0.44305044592E+01  0.21591673935E+02  0.22596209221E+02  0.00000000000E+00 0. -1.
</event>
<event>
 5    1  0.1692178E-003  0.9118800E+02  0.7818608E-02  0.1130116E+00
         25   -1    0    0    0    0  0.00000000000E+00  0.00000000000E+00  0.99999998245E-14  0.12500000000E+03  0.12500000000E+03 0.  0.
        -11    1    3    3    0    0  0.53419176682E+02 -0.19450921238E+02  0.15869517239E+02  0.59023625372E+02  0.51100000000E-03 0. -1.
         23    2    1    0    0    0  0.15096384352E+02 -0.20769454702E+02  0.71239929248E+01  0.98353755530E+02  0.94675439701E+02 0.  0.
         11    1    3    3    0    0 -0.38322792330E+02 -0.13185334643E+01 -0.87455243142E+01  0.39330130158E+02  0.51100000000E-03 0.  1.
         22    1    1    0    0    0 -0.15096384352E+02  0.20769454702E+02 -0.71239929248E+01  0.26646244470E+02  0.00000000000E+00 0. -1.
</event>
<event>
 5    1  0.1692178E-003  0.9118800E+02  0.7818608E-02  0.1130116E+00
         25   -1    0    0    0    0  0.00000000000E+00  0.00000000000E+00  0.99999998245E-14  0.12500000000E+03  0.12500000000E+03 0.  0.
        -11    1    3    3    0    0  0.19219981657E+02  0.22726698298E+02 -0.18148787285E+02  0.34860995261E+02  0.51100000000E-03 0. -1.
         23    2    1    0    0    0 -0.16363613934E+02 -0.74189342625E+01  0.22137920284E+02  0.96488669602E+02  0.92180081366E+02 0.  0.
         11    1    3    3    0    0 -0.35583595591E+02 -0.30145632561E+02  0.40286707569E+02  0.61627674341E+02  0.51100000000E-03 0.  1.
         22    1    1    0    0    0  0.16363613934E+02  0.74189342625E+01 -0.22137920284E+02  0.28511330398E+02  0.00000000000E+00 0.  1.
</event>
<event>
 5    1  0.1692178E-003  0.9118800E+02  0.7818608E-02  0.1130116E+00
         25   -1    0    0    0    0  0.00000000000E+00  0.00000000000E+00  0.99999998245E-14  0.12500000000E+03  0.12500000000E+03 0.  0.
        -11    1    3    3    0    0  0.43383793594E+02  0.52147417448E+01 -0.17324191583E+01  0.43730405378E+02  0.51100000000E-03 0. -1.
         23    2    1    0    0    0  0.34123323588E+01 -0.14203962816E+02 -0.26599159335E+02  0.94653470558E+02  0.89656944180E+02 0.  0.
         11    1    3    3    0    0 -0.39971461235E+02 -0.19418704561E+02 -0.24866740177E+02  0.50923065181E+02  0.51100000000E-03 0.  1.
         22    1    1    0    0    0 -0.34123323588E+01  0.14203962816E+02  0.26599159335E+02  0.30346529442E+02  0.00000000000E+00 0.  1.
</event>
<event>
 5    1  0.1692178E-003  0.9118800E+02  0.7818608E-02  0.1130116E+00
         25   -1    0    0    0    0  0.00000000000E+00  0.00000000000E+00  0.99999998245E-14  0.12500000000E+03  0.12500000000E+03 0.  0.
        -11    1    3    3    0    0  0.12335610573E+02 -0.97755837779E+01  0.23072277443E+02  0.27929541941E+02  0.51100000000E-03 0.  1.
         23    2    1    0    0    0 -0.28877946799E+02 -0.24351086437E+02 -0.13459279022E+02  0.84899333998E+02  0.74832035250E+02 0.  0.
         11    1    3    3    0    0 -0.41213557372E+02 -0.14575502659E+02 -0.36531556465E+02  0.56969792057E+02  0.51100000000E-03 0. -1.
         22    1    1    0    0    0  0.28877946799E+02  0.24351086437E+02  0.13459279022E+02  0.40100666002E+02  0.00000000000E+00 0. -1.
</event>
<event>
 5    1  0.1692178E-003  0.9118800E+02  0.7818608E-02  0.1130116E+00
         25   -1    0    0    0    0  0.00000000000E+00  0.00000000000E+00  0.99999998245E-14  0.12500000000E+03  0.12500000000E+03 0.  0.
        -11    1    3    3    0    0 -0.71901308867E+01  0.29574449949E+02  0.16792840900E+02  0.34761265479E+02  0.51100000000E-03 0.  1.
         23    2    1    0    0    0 -0.27146333094E+01 -0.22111593444E+02 -0.17260151356E+02  0.96818363719E+02  0.92626081261E+02 0.  0.
         11    1    3    3    0    0  0.44754975773E+01 -0.51686043393E+02 -0.34052992256E+02  0.62057098240E+02  0.51100000000E-03 0. -1.
         22    1    1    0    0    0  0.27146333094E+01  0.22111593444E+02  0.17260151356E+02  0.28181636281E+02  0.00000000000E+00 0. -1.
</event>
<event>
 5    1  0.1692178E-003  0.9118800E+02  0.7818608E-02  0.1130116E+00
         25   -1    0    0    0    0  0.00000000000E+00  0.00000000000E+00  0.99999998245E-14  0.12500000000E+03  0.12500000000E+03 0.  0.
        -11    1    3    3    0    0 -0.56371322255E+01  0.28914819594E+02  0.33287825413E+02  0.44451359629E+02  0.51100000000E-03 0.  1.
         23    2    1    0    0    0  0.13120142644E+02 -0.17122521869E+02  0.19201980333E+02  0.96120336795E+02  0.91679246281E+02 0.  0.
         11    1    3    3    0    0  0.18757274870E+02 -0.46037341462E+02 -0.14085845080E+02  0.51668977166E+02  0.51100000000E-03 0. -1.
         22    1    1    0    0    0 -0.13120142644E+02  0.17122521869E+02 -0.19201980333E+02  0.28879663205E+02  0.00000000000E+00 0. -1.
</event>
<event>
 5    1  0.1692178E-003  0.9118800E+02  0.7818608E-02  0.1130116E+00
         25   -1    0    0    0    0  0.00000000000E+00  0.00000000000E+00  0.99999998245E-14  0.12500000000E+03  0.12500000000E+03 0.  0.
        -11    1    3    3    0    0 -0.22003927272E+02  0.37282919607E+02 -0.27475043472E+02  0.51274427582E+02  0.51100000000E-03 0. -1.
         23    2    1    0    0    0 -0.12675436480E+02  0.20837725092E+02  0.14015514377E+02  0.96869729468E+02  0.92695374032E+02 0.  0.
         11    1    3    3    0    0  0.93284907916E+01 -0.16445194515E+02  0.41490557850E+02  0.45595301886E+02  0.51100000000E-03 0.  1.
         22    1    1    0    0    0  0.12675436480E+02 -0.20837725092E+02 -0.14015514377E+02  0.28130270532E+02  0.00000000000E+00 0. -1.
</event>
<event>
 5    1  0.1692178E-003  0.9118800E+02  0.7818608E-02  0.1130116E+00
         25   -1    0    0    0    0  0.00000000000E+00  0.00000000000E+00  0.99999998245E-14  0.12500000000E+03  0.12500000000E+03 0.  0.
        -11    1    3    3    0    0 -0.76322001844E+00 -0.15735889660E+02 -0.32519011767E+02  0.36134289183E+02  0.51100000000E-03 0. -1.
         23    2    1    0    0    0  0.16272360067E+02 -0.73217324042E+01  0.23617789558E+02  0.95399367386E+02  0.90690913804E+02 0.  0.
         11    1    3    3    0    0  0.17035580086E+02  0.84141572560E+01  0.56136801325E+02  0.59265078203E+02  0.51100000000E-03 0.  1.
         22    1    1    0    0    0 -0.16272360067E+02  0.73217324042E+01 -0.23617789558E+02  0.29600632614E+02  0.00000000000E+00 0.  1.
</event>
<event>
 5    1  0.1692178E-003  0.9118800E+02  0.7818608E-02  0.1130116E+00
         25   -1    0    0    0    0  0.00000000000E+00  0.00000000000E+00  0.99999998245E-14  0.12500000000E+03  0.12500000000E+03 0.  0.
        -11    1    3    3    0    0  0.17578092418E+02  0.18000890892E+02 -0.18081096690E+02  0.30983018958E+02  0.51100000000E-03 0. -1.
         23    2    1    0    0    0 -0.59661051259E+01 -0.34268008505E+02 -0.42229954427E+01  0.89961100077E+02  0.82856955166E+02 0.  0.
         11    1    3    3    0    0 -0.23544197544E+02 -0.52268899397E+02  0.13858101247E+02  0.58978081120E+02  0.51100000000E-03 0.  1.
         22    1    1    0    0    0  0.59661051259E+01  0.34268008505E+02  0.42229954427E+01  0.35038899923E+02  0.00000000000E+00 0.  1.
</event>
<event>
 5    1  0.1692178E-003  0.9118800E+02  0.7818608E-02  0.1130116E+00
         25   -1    0    0    0    0  0.00000000000E+00  0.00000000000E+00  0.99999998245E-14  0.12500000000E+03  0.12500000000E+03 0.  0.
        -11    1    3    3    0    0 -0.17426934758E+02  0.29339542220E+02 -0.37320871031E+02  0.50570289770E+02  0.51100000000E-03 0. -1.
         23    2    1    0    0    0  0.19396432262E+02  0.10927946152E+02 -0.19396046771E+02  0.95472923918E+02  0.90792240745E+02 0.  0.
         11    1    3    3    0    0  0.36823367020E+02 -0.18411596067E+02  0.17924824260E+02  0.44902634148E+02  0.51100000000E-03 0.  1.
         22    1    1    0    0    0 -0.19396432262E+02 -0.10927946152E+02  0.19396046771E+02  0.29527076082E+02  0.00000000000E+00 0. -1.
</event>
<event>
 5    1  0.1692178E-003  0.9118800E+02  0.7818608E-02  0.1130116E+00
         25   -1    0    0    0    0  0.00000000000E+00  0.00000000000E+00  0.99999998245E-14  0.12500000000E+03  0.12500000000E+03 0.  0.
        -11    1    3    3    0    0 -0.23161202083E+02 -0.25418542556E+02  0.41212610851E+01  0.34634208246E+02  0.51100000000E-03 0.  1.
         23    2    1    0    0    0  0.79252883725E+01  0.27509043918E+02 -0.18919496068E+01  0.96309632865E+02  0.91936979590E+02 0.  0.
         11    1    3    3    0    0  0.31086490455E+02  0.52927586474E+02 -0.60132106919E+01  0.61675424619E+02  0.51100000000E-03 0. -1.
         22    1    1    0    0    0 -0.79252883725E+01 -0.27509043918E+02  0.18919496068E+01  0.28690367135E+02  0.00000000000E+00 0. -1.
</event>
<event>
 5    1  0.1692178E-003  0.9118800E+02  0.7818608E-02  0.1130116E+00
         25   -1    0    0    0    0  0.00000000000E+00  0.00000000000E+00  0.99999998245E-14  0.12500000000E+03  0.12500000000E+03 0.  0.
        -11    1    3    3    0    0  0.24527398237E+02 -0.54500070705E+02 -0.41930820031E+01  0.59911876185E+02  0.51100000000E-03 0.  1.
         23    2    1    0    0    0  0.75076675411E+01 -0.27024547097E+02 -0.13952710158E+02  0.93673184994E+02  0.88279647985E+02 0.  0.
         11    1    3    3    0    0 -0.17019730696E+02  0.27475523608E+02 -0.97596281549E+01  0.33761308809E+02  0.51100000000E-03 0. -1.
         22    1    1    0    0    0 -0.75076675411E+01  0.27024547097E+02  0.13952710158E+02  0.31326815006E+02  0.00000000000E+00 0.  1.
</event>
<event>
 5    1  0.1692178E-003  0.9118800E+02  0.7818608E-02  0.1130116E+00
         25   -1    0    0    0    0  0.00000000000E+00  0.00000000000E+00  0.99999998245E-14  0.12500000000E+03  0.12500000000E+03 0.  0.
        -11    1    3    3    0    0  0.54979747703E+02  0.23508849743E+02 -0.13655229555E+02  0.61334362051E+02  0.51100000000E-03 0.  1.
         23    2    1    0    0    0  0.29653989008E+02  0.53589454307E+01 -0.13457735178E+01  0.94835642447E+02  0.89910570078E+02 0.  0.
         11    1    3    3    0    0 -0.25325758695E+02 -0.18149904312E+02  0.12309456037E+02  0.33501280396E+02  0.51100000000E-03 0. -1.
         22    1    1    0    0    0 -0.29653989008E+02 -0.53589454307E+01  0.13457735178E+01  0.30164357553E+02  0.00000000000E+00 0.  1.
</event>
<event>
 5    1  0.1692178E-003  0.9118800E+02  0.7818608E-02  0.1130116E+00
         25   -1    0    0    0    0  0.00000000000E+00  0.00000000000E+00  0.99999998245E-14  0.12500000000E+03  0.12500000000E+03 0.  0.
        -11    1    3    3    0    0  0.49262258969E+02  0.15589278639E+02  0.15485905985E+02  0.53940792093E+02  0.51100000000E-03 0. -1.
         23    2    1    0    0    0  0.99569581732E+01  0.25940496208E+02  0.65825279023E+00  0.97206409798E+02  0.93148282053E+02 0.  0.
         11    1    3    3    0    0 -0.39305300796E+02  0.10351217569E+02 -0.14827653194E+02  0.43265617704E+02  0.51100000000E-03 0.  1.
         22    1    1    0    0    0 -0.99569581732E+01 -0.25940496208E+02 -0.65825279023E+00  0.27793590202E+02  0.00000000000E+00 0. -1.
</event>
<event>
 5    1  0.1692178E-003  0.9118800E+02  0.7818608E-02  0.1130116E+00
         25   -1    0    0    0    0  0.00000000000E+00  0.00000000000E+00  0.99999998245E-14  0.12500000000E+03  0.12500000000E+03 0.  0.
        -11    1    3    3    0    0  0.12938705163E+02 -0.26233107299E+02  0.18523987825E+02  0.34622595729E+02  0.51100000000E-03 0.  1.
         23    2    1    0    0    0  0.15712310176E+02  0.28804659579E+02  0.11764950935E+02  0.90143161718E+02  0.83131164008E+02 0.  0.
         11    1    3    3    0    0  0.27736050136E+01  0.55037766878E+02 -0.67590368907E+01  0.55520565988E+02  0.51100000000E-03 0. -1.
         22    1    1    0    0    0 -0.15712310176E+02 -0.28804659579E+02 -0.11764950935E+02  0.34856838282E+02  0.00000000000E+00 0. -1.
</event>
<event>
 5    1  0.1692178E-003  0.9118800E+02  0.7818608E-02  0.1130116E+00
         25   -1    0    0    0    0  0.00000000000E+00  0.00000000000E+00  0.99999998245E-14  0.12500000000E+03  0.12500000000E+03 0.  0.
        -11    1    3    3    0    0 -0.27497968824E+02 -0.13261047500E+02 -0.18910682518E+02  0.35911106691E+02  0.51100000000E-03 0. -1.
         23    2    1    0    0    0  0.26417186104E+02  0.88699624865E+01 -0.16253101990E+00  0.97132987736E+02  0.93049701419E+02 0.  0.
         11    1    3    3    0    0  0.53915154928E+02  0.22131009986E+02  0.18748151498E+02  0.61221881045E+02  0.51100000000E-03 0.  1.
         22    1    1    0    0    0 -0.26417186104E+02 -0.88699624865E+01  0.16253101990E+00  0.27867012264E+02  0.00000000000E+00 0.  1.
</event>
<event>
 5    1  0.1692178E-003  0.9118800E+02  0.7818608E-02  0.1130116E+00
         25   -1    0    0    0    0  0.00000000000E+00  0.00000000000E+00  0.99999998245E-14  0.12500000000E+03  0.12500000000E+03 0.  0.
        -11    1    3    3    0    0  0.70749218135E+01 -0.24841949287E+02 -0.34241165941E+02  0.42890959517E+02  0.51100000000E-03 0.  1.
         23    2    1    0    0    0  0.14724597357E+02 -0.15115243176E+02  0.18421935452E+02  0.96988358681E+02  0.92855208095E+02 0.  0.
         11    1    3    3    0    0  0.76496755437E+01  0.97267061111E+01  0.52663101393E+02  0.54097399164E+02  0.51100000000E-03 0. -1.
         22    1    1    0    0    0 -0.14724597357E+02  0.15115243176E+02 -0.18421935452E+02  0.28011641319E+02  0.00000000000E+00 0.  1.
</event>
<event>
 5    1  0.1692178E-003  0.9118800E+02  0.7818608E-02  0.1130116E+00
         25   -1    0    0    0    0  0.00000000000E+00  0.00000000000E+00  0.99999998245E-14  0.12500000000E+03  0.12500000000E+03 0.  0.
        -11    1    3    3    0    0 -0.16724440127E+02 -0.13354839509E+02  0.51616533863E+02  0.55877770215E+02  0.51100000000E-03 0. -1.
         23    2    1    0    0    0  0.14361553207E+01 -0.23153770030E+02  0.16773788090E+02  0.96372747677E+02  0.92022752182E+02 0.  0.
         11    1    3    3    0    0  0.18160595447E+02 -0.97989305207E+01 -0.34842745773E+02  0.40494977462E+02  0.51100000000E-03 0.  1.
         22    1    1    0    0    0 -0.14361553207E+01  0.23153770030E+02 -0.16773788090E+02  0.28627252323E+02  0.00000000000E+00 0. -1.
</event>
<event>
 5    1  0.1692178E-003  0.9118800E+02  0.7818608E-02  0.1130116E+00
         25   -1    0    0    0    0  0.00000000000E+00  0.00000000000E+00  0.99999998245E-14  0.12500000000E+03  0.12500000000E+03 0.  0.
        -11    1    3    3    0    0 -0.44410828773E+02 -0.25435751007E+02 -0.29375011186E+02  0.59010087477E+02  0.51100000000E-03 0.  1.
         23    2    1    0    0    0 -0.21598086630E+02  0.12450767151E+01 -0.20448942457E+02  0.95231110036E+02  0.90458706098E+02 0.  0.
         11    1    3    3    0    0  0.22812742143E+02  0.26680827722E+02  0.89260687286E+01  0.36221022559E+02  0.51100000000E-03 0. -1.
         22    1    1    0    0    0  0.21598086630E+02 -0.12450767151E+01  0.20448942457E+02  0.29768889964E+02  0.00000000000E+00 0.  1.
</event>
<event>
 5    1  0.1692178E-003  0.9118800E+02  0.7818608E-02  0.1130116E+00
         25   -1    0    0    0    0  0.00000000000E+00  0.00000000000E+00  0.99999998245E-14  0.12500000000E+03  0.12500000000E+03 0.  0.
        -11    1    3    3    0    0  0.18527728401E+02  0.21787648205E+02  0.34437914073E+02  0.44765480674E+02  0.51100000000E-03 0.  1.
         23    2    1    0    0    0  0.17288420087E+02 -0.22380821192E+02  0.13183184555E+02  0.93797644618E+02  0.88455701651E+02 0.  0.
         11    1    3    3    0    0 -0.12393083140E+01 -0.44168469397E+02 -0.21254729518E+02  0.49032163945E+02  0.51100000000E-03 0. -1.
         22    1    1    0    0    0 -0.17288420087E+02  0.22380821192E+02 -0.13183184555E+02  0.31202355382E+02  0.00000000000E+00 0. -1.
</event>
<event>
 5    1  0.1692178E-003  0.9118800E+02  0.7818608E-02  0.1130116E+00
         25   -1    0    0    0    0  0.00000000000E+00  0.00000000000E+00  0.99999998245E-14  0.12500000000E+03  0.12500000000E+03 0.  0.
        -11    1    3    3    0    0 -0.16271023058E+02  0.36575622954E+02 -0.33708130839E+02  0.52333167980E+02  0.51100000000E-03 0. -1.
         23    2    1    0    0    0 -0.14305015346E+02  0.23549132268E+02  0.81911501403E+01  0.96254738908E+02  0.91862313964E+02 0.  0.
         11    1    3    3    0    0  0.19660077118E+01 -0.13026490686E+02  0.41899280980E+02  0.43921570928E+02  0.51100000000E-03 0.  1.
         22    1    1    0    0    0  0.14305015346E+02 -0.23549132268E+02 -0.81911501403E+01  0.28745261092E+02  0.00000000000E+00 0. -1.
</event>
<event>
 5    1  0.1692178E-003  0.9118800E+02  0.7818608E-02  0.1130116E+00
         25   -1    0    0    0    0  0.00000000000E+00  0.00000000000E+00  0.99999998245E-14  0.12500000000E+03  0.12500000000E+03 0.  0.
        -11    1    3    3    0    0  0.14455177993E+01 -0.29838080365E+02 -0.17586142442E+02  0.34665154952E+02  0.51100000000E-03 0. -1.
         23    2    1    0    0    0 -0.10117771624E+02  0.21699030652E+02  0.15019428309E+02  0.96736941768E+02  0.92516136117E+02 0.  0.
         11    1    3    3    0    0 -0.11563289424E+02  0.51537111017E+02  0.32605570751E+02  0.62071786816E+02  0.51100000000E-03 0.  1.
         22    1    1    0    0    0  0.10117771624E+02 -0.21699030652E+02 -0.15019428309E+02  0.28263058232E+02  0.00000000000E+00 0.  1.
</event>
<event>
 5    1  0.1692178E-003  0.9118800E+02  0.7818608E-02  0.1130116E+00
         25   -1    0    0    0    0  0.00000000000E+00  0.00000000000E+00  0.99999998245E-14  0.12500000000E+03  0.12500000000E+03 0.  0.
        -11    1    3    3    0    0  0.24617846060E+02  0.43198898112E+02 -0.12456811235E+02  0.51257733945E+02  0.51100000000E-03 0. -1.
         23    2    1    0    0    0  0.15373668824E+02  0.15493657464E+01 -0.24897349427E+02  0.95697641122E+02  0.91101099227E+02 0.  0.
         11    1    3    3    0    0 -0.92441772364E+01 -0.41649532366E+02 -0.12440538192E+02  0.44439907177E+02  0.51100000000E-03 0.  1.
         22    1    1    0    0    0 -0.15373668824E+02 -0.15493657464E+01  0.24897349427E+02  0.29302358878E+02  0.00000000000E+00 0. -1.
</event>
<event>
 5    1  0.1692178E-003  0.9118800E+02  0.7818608E-02  0.1130116E+00
         25   -1    0    0    0    0  0.00000000000E+00  0.00000000000E+00  0.99999998245E-14  0.12500000000E+03  0.12500000000E+03 0.  0.
        -11    1    3    3    0    0 -0.28508341893E+02 -0.32883872291E+02  0.24445961636E+01  0.43589570599E+02  0.51100000000E-03 0.  1.
         23    2    1    0    0    0 -0.24452925637E+02  0.13842760089E+02  0.16325078068E+02  0.92502680833E+02  0.86606409741E+02 0.  0.
         11    1    3    3    0    0  0.40554162564E+01  0.46726632380E+02  0.13880481905E+02  0.48913110234E+02  0.51100000000E-03 0. -1.
         22    1    1    0    0    0  0.24452925637E+02 -0.13842760089E+02 -0.16325078068E+02  0.32497319167E+02  0.00000000000E+00 0. -1.
</event>
<event>
 5    1  0.1692178E-003  0.9118800E+02  0.7818608E-02  0.1130116E+00
         25   -1    0    0    0    0  0.00000000000E+00  0.00000000000E+00  0.99999998245E-14  0.12500000000E+03  0.12500000000E+03 0.  0.
        -11    1    3    3    0    0 -0.15895937007E+02 -0.16998935107E+02 -0.27540376877E+02  0.36057134757E+02  0.51100000000E-03 0.  1.
         23    2    1    0    0    0  0.67539507676E+01  0.30083766753E+02 -0.23004821580E+01  0.94081702971E+02  0.88856208240E+02 0.  0.
         11    1    3    3    0    0  0.22649887774E+02  0.47082701860E+02  0.25239894719E+02  0.58024568213E+02  0.51100000000E-03 0. -1.
         22    1    1    0    0    0 -0.67539507676E+01 -0.30083766753E+02  0.23004821580E+01  0.30918297029E+02  0.00000000000E+00 0. -1.
</event>
<event>
 5    1  0.1692178E-003  0.9118800E+02  0.7818608E-02  0.1130116E+00
         25   -1    0    0    0    0  0.00000000000E+00  0.00000000000E+00  0.99999998245E-14  0.12500000000E+03  0.12500000000E+03 0.  0.
        -11    1    3    3    0    0  0.71127876156E+01 -0.24958899555E+02  0.23109547233E+02  0.34750389757E+02  0.51100000000E-03 0. -1.
         23    2    1    0    0    0 -0.23576204941E+02  0.20093501537E+02 -0.16351960315E+00  0.94022379334E+02  0.88772714466E+02 0.  0.
         11    1    3    3    0    0 -0.30688992557E+02  0.45052401092E+02 -0.23273066836E+02  0.59271989578E+02  0.51100000000E-03 0.  1.
         22    1    1    0    0    0  0.23576204941E+02 -0.20093501537E+02  0.16351960315E+00  0.30977620666E+02  0.00000000000E+00 0.  1.
</event>
<event>
 5    1  0.1692178E-003  0.9118800E+02  0.7818608E-02  0.1130116E+00
         25   -1    0    0    0    0  0.00000000000E+00  0.00000000000E+00  0.99999998245E-14  0.12500000000E+03  0.12500000000E+03 0.  0.
        -11    1    3    3    0    0  0.16972447404E+02 -0.33110771227E+02  0.29263138518E+02  0.47336227335E+02  0.51100000000E-03 0.  1.
         23    2    1    0    0    0  0.29290377386E+02  0.21575064404E+00 -0.32903666316E+01  0.95524598929E+02  0.90863357478E+02 0.  0.
         11    1    3    3    0    0  0.12317929982E+02  0.33326521871E+02 -0.32553505150E+02  0.48188371594E+02  0.51100000000E-03 0. -1.
         22    1    1    0    0    0 -0.29290377386E+02 -0.21575064404E+00  0.32903666316E+01  0.29475401071E+02  0.00000000000E+00 0.  1.
</event>
<event>
 5    1  0.1692178E-003  0.9118800E+02  0.7818608E-02  0.1130116E+00
         25   -1    0    0    0    0  0.00000000000E+00  0.00000000000E+00  0.99999998245E-14  0.12500000000E+03  0.12500000000E+03 0.  0.
        -11    1    3    3    0    0 -0.29331455367E+01 -0.47985354473E+02 -0.78573961706E+01  0.48712793611E+02  0.51100000000E-03 0.  1.
         23    2    1    0    0    0 -0.94928302111E+01 -0.83821158259E+01 -0.28471489634E+02  0.93839136516E+02  0.88514315954E+02 0.  0.
         11    1    3    3    0    0 -0.65596846744E+01  0.39603238647E+02 -0.20614093463E+02  0.45126342904E+02  0.51100000000E-03 0. -1.
         22    1    1    0    0    0  0.94928302111E+01  0.83821158259E+01  0.28471489634E+02  0.31160863484E+02  0.00000000000E+00 0.  1.
</event>
<event>
 5    1  0.1692178E-003  0.9118800E+02  0.7818608E-02  0.1130116E+00
         25   -1    0    0    0    0  0.00000000000E+00  0.00000000000E+00  0.99999998245E-14  0.12500000000E+03  0.12500000000E+03 0.  0.
        -11    1    3    3    0    0  0.11849480788E+02  0.29799337099E+02 -0.26427174193E+02  0.41554857990E+02  0.51100000000E-03 0.  1.
         23    2    1    0    0    0 -0.15751685864E+02 -0.15998117150E+02 -0.19094450275E+02  0.95527073589E+02  0.90866761785E+02 0.  0.
         11    1    3    3    0    0 -0.27601166652E+02 -0.45797454249E+02  0.73327239180E+01  0.53972215599E+02  0.51100000000E-03 0. -1.
         22    1    1    0    0    0  0.15751685864E+02  0.15998117150E+02  0.19094450275E+02  0.29472926411E+02  0.00000000000E+00 0. -1.
</event>
<event>
 5    1  0.1692178E-003  0.9118800E+02  0.7818608E-02  0.1130116E+00
         25   -1    0    0    0    0  0.00000000000E+00  0.00000000000E+00  0.99999998245E-14  0.12500000000E+03  0.12500000000E+03 0.  0.
        -11    1    3    3    0    0  0.34782485886E+01 -0.44598763718E+02 -0.37972448402E+02  0.58677549167E+02  0.51100000000E-03 0.  1.
         23    2    1    0    0    0 -0.13764006518E+02 -0.17705164896E+02 -0.16057742654E+02  0.97417907284E+02  0.93431669262E+02 0.  0.
         11    1    3    3    0    0 -0.17242255107E+02  0.26893598821E+02  0.21914705748E+02  0.38740358117E+02  0.51100000000E-03 0. -1.
         22    1    1    0    0    0  0.13764006518E+02  0.17705164896E+02  0.16057742654E+02  0.27582092716E+02  0.00000000000E+00 0.  1.
</event>
<event>
 5    1  0.1692178E-003  0.9118800E+02  0.7818608E-02  0.1130116E+00
         25   -1    0    0    0    0  0.00000000000E+00  0.00000000000E+00  0.99999998245E-14  0.12500000000E+03  0.12500000000E+03 0.  0.
        -11    1    3    3    0    0 -0.30949385018E+02 -0.26148117677E+01 -0.16912579067E+02  0.35365760342E+02  0.51100000000E-03 0. -1.
         23    2    1    0    0    0  0.26692678920E+02  0.10585227269E+02 -0.81914647500E+01  0.95139553938E+02  0.90332101074E+02 0.  0.
         11    1    3    3    0    0  0.57642063938E+02  0.13200039037E+02  0.87211143171E+01  0.59773793596E+02  0.51100000000E-03 0.  1.
         22    1    1    0    0    0 -0.26692678920E+02 -0.10585227269E+02  0.81914647500E+01  0.29860446062E+02  0.00000000000E+00 0.  1.
</event>
<event>
 5    1  0.1692178E-003  0.9118800E+02  0.7818608E-02  0.1130116E+00
         25   -1    0    0    0    0  0.00000000000E+00  0.00000000000E+00  0.99999998245E-14  0.12500000000E+03  0.12500000000E+03 0.  0.
        -11    1    3    3    0    0 -0.13896302825E+02 -0.57542815505E+02  0.10938854277E+02  0.60199180905E+02  0.51100000000E-03 0.  1.
         23    2    1    0    0    0  0.52698838096E+01 -0.28869848540E+02  0.39586000138E+01  0.95387327980E+02  0.90674318277E+02 0.  0.
         11    1    3    3    0    0  0.19166186635E+02  0.28672966965E+02 -0.69802542629E+01  0.35188147075E+02  0.51100000000E-03 0. -1.
         22    1    1    0    0    0 -0.52698838096E+01  0.28869848540E+02 -0.39586000138E+01  0.29612672020E+02  0.00000000000E+00 0.  1.
</event>
<event>
 5    1  0.1692178E-003  0.9118800E+02  0.7818608E-02  0.1130116E+00
         25   -1    0    0    0    0  0.00000000000E+00  0.00000000000E+00  0.99999998245E-14  0.12500000000E+03  0.12500000000E+03 0.  0.
        -11    1    3    3    0    0 -0.25851744359E+02  0.24267901031E+02 -0.48596672992E+02  0.60157130359E+02  0.51100000000E-03 0.  1.
         23    2    1    0    0    0 -0.19229658110E+02  0.15447736960E+02 -0.13637240234E+02  0.96815134391E+02  0.92621723142E+02 0.  0.
         11    1    3    3    0    0  0.66220862497E+01 -0.88201640715E+01  0.34959432758E+02  0.36658004032E+02  0.51100000000E-03 0. -1.
         22    1    1    0    0    0  0.19229658110E+02 -0.15447736960E+02  0.13637240234E+02  0.28184865609E+02  0.00000000000E+00 0.  1.
</event>
<event>
 5    1  0.1692178E-003  0.9118800E+02  0.7818608E-02  0.1130116E+00
         25   -1    0    0    0    0  0.00000000000E+00  0.00000000000E+00  0.99999998245E-14  0.12500000000E+03  0.12500000000E+03 0.  0.
        -11    1    3    3    0    0 -0.28860708850E+01 -0.32210400439E+02 -0.79321810687E+01  0.33298029947E+02  0.51100000000E-03 0. -1.
         23    2    1    0    0    0  0.19039816630E+01  0.25639653896E+02  0.14444868624E+02  0.95509811333E+02  0.90843012022E+02 0.  0.
         11    1    3    3    0    0  0.47900525480E+01  0.57850054335E+02  0.22377049692E+02  0.62211781386E+02  0.51100000000E-03 0.  1.
         22    1    1    0    0    0 -0.19039816630E+01 -0.25639653896E+02 -0.14444868624E+02  0.29490188667E+02  0.00000000000E+00 0.  1.
</event>
<event>
 5    1  0.1692178E-003  0.9118800E+02  0.7818608E-02  0.1130116E+00
         25   -1    0    0    0    0  0.00000000000E+00  0.00000000000E+00  0.99999998245E-14  0.12500000000E+03  0.12500000000E+03 0.  0.
        -11    1    3    3    0    0 -0.11652936529E+02  0.24234594468E+02 -0.29841019547E+02  0.40169552483E+02  0.51100000000E-03 0. -1.
         23    2    1    0    0    0 -0.18818449740E+02 -0.20996232851E+02  0.31769718564E+01  0.96626262236E+02  0.92366474215E+02 0.  0.
         11    1    3    3    0    0 -0.71655132101E+01 -0.45230827319E+02  0.33017991403E+02  0.56456709753E+02  0.51100000000E-03 0.  1.
         22    1    1    0    0    0  0.18818449740E+02  0.20996232851E+02 -0.31769718564E+01  0.28373737764E+02  0.00000000000E+00 0.  1.
</event>
<event>
 5    1  0.1692178E-003  0.9118800E+02  0.7818608E-02  0.1130116E+00
         25   -1    0    0    0    0  0.00000000000E+00  0.00000000000E+00  0.99999998245E-14  0.12500000000E+03  0.12500000000E+03 0.  0.
        -11    1    3    3    0    0 -0.30822136414E+02  0.23511316474E+02  0.14324172414E+02  0.41327569625E+02  0.51100000000E-03 0. -1.
         23    2    1    0    0    0  0.90083303952E+01 -0.11378069608E+02  0.25699540531E+02  0.95485988615E+02  0.90810226042E+02 0.  0.
         11    1    3    3    0    0  0.39830466810E+02 -0.34889386082E+02  0.11375368118E+02  0.54158418990E+02  0.51100000000E-03 0.  1.
         22    1    1    0    0    0 -0.90083303952E+01  0.11378069608E+02 -0.25699540531E+02  0.29514011385E+02  0.00000000000E+00 0.  1.
</event>
<event>
 5    1  0.1692178E-003  0.9118800E+02  0.7818608E-02  0.1130116E+00
         25   -1    0    0    0    0  0.00000000000E+00  0.00000000000E+00  0.99999998245E-14  0.12500000000E+03  0.12500000000E+03 0.  0.
        -11    1    3    3    0    0 -0.64164804957E+01  0.46356047958E+02 -0.59222651365E+01  0.47171258504E+02  0.51100000000E-03 0.  1.
         23    2    1    0    0    0 -0.24575814515E+02  0.25329273179E+01 -0.15865135531E+02  0.95638649464E+02  0.91020120666E+02 0.  0.
         11    1    3    3    0    0 -0.18159334019E+02 -0.43823120640E+02 -0.99428703942E+01  0.48467390961E+02  0.51100000000E-03 0. -1.
         22    1    1    0    0    0  0.24575814515E+02 -0.25329273179E+01  0.15865135531E+02  0.29361350536E+02  0.00000000000E+00 0. -1.
</event>
<event>
 5    1  0.1692178E-003  0.9118800E+02  0.7818608E-02  0.1130116E+00
         25   -1    0    0    0    0  0.00000000000E+00  0.00000000000E+00  0.99999998245E-14  0.12500000000E+03  0.12500000000E+03 0.  0.
        -11    1    3    3    0    0  0.36549702493E+02 -0.19091572450E+02  0.45611125059E+02  0.61487751791E+02  0.51100000000E-03 0.  1.
         23    2    1    0    0    0  0.18626251826E+02 -0.21938610214E+01  0.25825005952E+02  0.93083214201E+02  0.87440285626E+02 0.  0.
         11    1    3    3    0    0 -0.17923450667E+02  0.16897711429E+02 -0.19786119106E+02  0.31595462410E+02  0.51100000000E-03 0. -1.
         22    1    1    0    0    0 -0.18626251826E+02  0.21938610214E+01 -0.25825005952E+02  0.31916785799E+02  0.00000000000E+00 0.  1.
</event>
<event>
 5    1  0.1692178E-003  0.9118800E+02  0.7818608E-02  0.1130116E+00
         25   -1    0    0    0    0  0.00000000000E+00  0.00000000000E+00  0.99999998245E-14  0.12500000000E+03  0.12500000000E+03 0.  0.
        -11    1    3    3    0    0 -0.95832018443E+01 -0.16473685894E+02 -0.32116930035E+02  0.37345913828E+02  0.51100000000E-03 0. -1.
         23    2    1    0    0    0 -0.76041116901E+01  0.23104719563E+02  0.13020447919E+02  0.97410461318E+02  0.93421706950E+02 0.  0.
         11    1    3    3    0    0  0.19790901542E+01  0.39578405457E+02  0.45137377954E+02  0.60064547490E+02  0.51100000000E-03 0.  1.
         22    1    1    0    0    0  0.76041116901E+01 -0.23104719563E+02 -0.13020447919E+02  0.27589538682E+02  0.00000000000E+00 0.  1.
</event>
<event>
 4    1  0.1692178E-003  0.9118800E+02  0.7818608E-02  0.1130116E+00
         25   -1    0    0    0    0  0.00000000000E+00  0.00000000000E+00  0.99999998245E-14  0.12500000000E+03  0.12500000000E+03 0.  0.
        -11    1    1    0    0    0 -0.53101663959E+01  0.66709241728E+01 -0.17861294477E+02  0.19792042268E+02  0.51100000000E-03 0.  1.
         11    1    1    0    0    0  0.18814060920E+02 -0.32737075419E+02 -0.30564708281E+02  0.48578661857E+02  0.51100000000E-03 0. -1.
         22    1    1    0    0    0 -0.13503894524E+02  0.26066151246E+02  0.48426002759E+02  0.56629295875E+02  0.00000000000E+00 0.  1.
</event>
<event>
 5    1  0.1692178E-003  0.9118800E+02  0.7818608E-02  0.1130116E+00
         25   -1    0    0    0    0  0.00000000000E+00  0.00000000000E+00  0.99999998245E-14  0.12500000000E+03  0.12500000000E+03 0.  0.
        -11    1    3    3    0    0 -0.51330601798E+02  0.13296270672E+02 -0.22136314692E+02  0.57459880988E+02  0.51100000000E-03 0. -1.
         23    2    1    0    0    0 -0.14233618962E+02  0.87311924357E+01 -0.24988989516E+02  0.94945395908E+02  0.90063027802E+02 0.  0.
         11    1    3    3    0    0  0.37096982836E+02 -0.45650782363E+01 -0.28526748245E+01  0.37485514919E+02  0.51100000000E-03 0.  1.
         22    1    1    0    0    0  0.14233618962E+02 -0.87311924357E+01  0.24988989516E+02  0.30054604092E+02  0.00000000000E+00 0. -1.
</event>
<event>
 5    1  0.1692178E-003  0.9118800E+02  0.7818608E-02  0.1130116E+00
         25   -1    0    0    0    0  0.00000000000E+00  0.00000000000E+00  0.99999998245E-14  0.12500000000E+03  0.12500000000E+03 0.  0.
        -11    1    3    3    0    0  0.22198614305E+02  0.26710679451E+02  0.28440027177E+02  0.44889575849E+02  0.51100000000E-03 0. -1.
         23    2    1    0    0    0 -0.12040973863E+02  0.25446556377E+02 -0.88110670863E+01  0.95501742658E+02  0.90831908845E+02 0.  0.
         11    1    3    3    0    0 -0.34239588167E+02 -0.12641230733E+01 -0.37251094264E+02  0.50612166809E+02  0.51100000000E-03 0.  1.
         22    1    1    0    0    0  0.12040973863E+02 -0.25446556377E+02  0.88110670863E+01  0.29498257342E+02  0.00000000000E+00 0.  1.
</event>
<event>
 5    1  0.1692178E-003  0.9118800E+02  0.7818608E-02  0.1130116E+00
         25   -1    0    0    0    0  0.00000000000E+00  0.00000000000E+00  0.99999998245E-14  0.12500000000E+03  0.12500000000E+03 0.  0.
        -11    1    3    3    0    0 -0.59227733725E+01 -0.21626891328E+02  0.52424373667E+02  0.57018563886E+02  0.51100000000E-03 0.  1.
         23    2    1    0    0    0 -0.20267745126E+02 -0.50744223556E+01  0.20543524581E+02  0.95698674826E+02  0.91102517565E+02 0.  0.
         11    1    3    3    0    0 -0.14344971753E+02  0.16552468972E+02 -0.31880849086E+02  0.38680110941E+02  0.51100000000E-03 0. -1.
         22    1    1    0    0    0  0.20267745126E+02  0.50744223556E+01 -0.20543524581E+02  0.29301325174E+02  0.00000000000E+00 0.  1.
</event>
<event>
 5    1  0.1692178E-003  0.9118800E+02  0.7818608E-02  0.1130116E+00
         25   -1    0    0    0    0  0.00000000000E+00  0.00000000000E+00  0.99999998245E-14  0.12500000000E+03  0.12500000000E+03 0.  0.
        -11    1    3    3    0    0  0.12497071566E+02 -0.30791067556E+02  0.11500461627E+02  0.35164289511E+02  0.51100000000E-03 0. -1.
         23    2    1    0    0    0 -0.89827034683E+01  0.14232273314E+02 -0.23494336014E+02  0.96099647234E+02  0.91651032773E+02 0.  0.
         11    1    3    3    0    0 -0.21479775034E+02  0.45023340870E+02 -0.34994797641E+02  0.60935357723E+02  0.51100000000E-03 0.  1.
         22    1    1    0    0    0  0.89827034683E+01 -0.14232273314E+02  0.23494336014E+02  0.28900352766E+02  0.00000000000E+00 0.  1.
</event>
<event>
 5    1  0.1692178E-003  0.9118800E+02  0.7818608E-02  0.1130116E+00
         25   -1    0    0    0    0  0.00000000000E+00  0.00000000000E+00  0.99999998245E-14  0.12500000000E+03  0.12500000000E+03 0.  0.
        -11    1    3    3    0    0 -0.14206896663E+02 -0.10059050749E+02  0.33648974422E+02  0.37885008839E+02  0.51100000000E-03 0.  1.
         23    2    1    0    0    0  0.79920450333E+01 -0.16158879632E+02 -0.21082345419E+02  0.97261083959E+02  0.93221622973E+02 0.  0.
         11    1    3    3    0    0  0.22198941697E+02 -0.60998288829E+01 -0.54731319841E+02  0.59376075120E+02  0.51100000000E-03 0. -1.
         22    1    1    0    0    0 -0.79920450333E+01  0.16158879632E+02  0.21082345419E+02  0.27738916041E+02  0.00000000000E+00 0. -1.
</event>
<event>
 5    1  0.1692178E-003  0.9118800E+02  0.7818608E-02  0.1130116E+00
         25   -1    0    0    0    0  0.00000000000E+00  0.00000000000E+00  0.99999998245E-14  0.12500000000E+03  0.12500000000E+03 0.  0.
        -11    1    3    3    0    0  0.34799735936E+02 -0.52458467091E-01  0.42143485560E+01  0.35054031253E+02  0.51100000000E-03 0. -1.
         23    2    1    0    0    0 -0.18256433713E+02  0.75572159925E+01 -0.22595210870E+02  0.94984130202E+02  0.90116771749E+02 0.  0.
         11    1    3    3    0    0 -0.53056169649E+02  0.76096744595E+01 -0.26809559426E+02  0.59930098949E+02  0.51100000000E-03 0.  1.
         22    1    1    0    0    0  0.18256433713E+02 -0.75572159925E+01  0.22595210870E+02  0.30015869798E+02  0.00000000000E+00 0.  1.
</event>
<event>
 5    1  0.1692178E-003  0.9118800E+02  0.7818608E-02  0.1130116E+00
         25   -1    0    0    0    0  0.00000000000E+00  0.00000000000E+00  0.99999998245E-14  0.12500000000E+03  0.12500000000E+03 0.  0.
        -11    1    3    3    0    0  0.28095572717E+02  0.46529465170E+02 -0.21573010213E+02  0.58478603824E+02  0.51100000000E-03 0. -1.
         23    2    1    0    0    0  0.24842766562E+02  0.10877512052E+02 -0.88315742516E+01  0.96478428819E+02  0.92166193393E+02 0.  0.
         11    1    3    3    0    0 -0.32528061543E+01 -0.35651953118E+02  0.12741435962E+02  0.37999824995E+02  0.51100000000E-03 0.  1.
         22    1    1    0    0    0 -0.24842766562E+02 -0.10877512052E+02  0.88315742516E+01  0.28521571181E+02  0.00000000000E+00 0. -1.
</event>
<event>
 5    1  0.1692178E-003  0.9118800E+02  0.7818608E-02  0.1130116E+00
         25   -1    0    0    0    0  0.00000000000E+00  0.00000000000E+00  0.99999998245E-14  0.12500000000E+03  0.12500000000E+03 0.  0.
        -11    1    3    3    0    0 -0.56677887080E+02  0.57701156168E+01  0.13934673315E+02  0.58650253526E+02  0.51100000000E-03 0.  1.
         23    2    1    0    0    0 -0.20304058214E+02  0.15695470154E+02  0.12680700772E+02  0.96374788466E+02  0.92025524266E+02 0.  0.
         11    1    3    3    0    0  0.36373828865E+02  0.99253545367E+01 -0.12539725427E+01  0.37724534939E+02  0.51100000000E-03 0. -1.
         22    1    1    0    0    0  0.20304058214E+02 -0.15695470154E+02 -0.12680700772E+02  0.28625211534E+02  0.00000000000E+00 0.  1.
</event>
<event>
 5    1  0.1692178E-003  0.9118800E+02  0.7818608E-02  0.1130116E+00
         25   -1    0    0    0    0  0.00000000000E+00  0.00000000000E+00  0.99999998245E-14  0.12500000000E+03  0.12500000000E+03 0.  0.
        -11    1    3    3    0    0 -0.22270867127E+02 -0.29619542125E+02 -0.12288104160E+02  0.39042365481E+02  0.51100000000E-03 0. -1.
         23    2    1    0    0    0  0.17581810581E+02 -0.44535711325E+00  0.20243596602E+02  0.98183557102E+02  0.94450459372E+02 0.  0.
         11    1    3    3    0    0  0.39852677709E+02  0.29174185011E+02  0.32531700762E+02  0.59141191621E+02  0.51100000000E-03 0.  1.
         22    1    1    0    0    0 -0.17581810581E+02  0.44535711325E+00 -0.20243596602E+02  0.26816442898E+02  0.00000000000E+00 0.  1.
</event>
<event>
 5    1  0.1692178E-003  0.9118800E+02  0.7818608E-02  0.1130116E+00
         25   -1    0    0    0    0  0.00000000000E+00  0.00000000000E+00  0.99999998245E-14  0.12500000000E+03  0.12500000000E+03 0.  0.
        -11    1    3    3    0    0 -0.22842044075E+02  0.22004600639E+02 -0.19049639078E+02  0.36997975297E+02  0.51100000000E-03 0. -1.
         23    2    1    0    0    0 -0.14485586410E+02 -0.27316312257E+02  0.68528568603E+01  0.93330222986E+02  0.87792686179E+02 0.  0.
         11    1    3    3    0    0  0.83564576655E+01 -0.49320912896E+02  0.25902495938E+02  0.56332247689E+02  0.51100000000E-03 0.  1.
         22    1    1    0    0    0  0.14485586410E+02  0.27316312257E+02 -0.68528568603E+01  0.31669777014E+02  0.00000000000E+00 0.  1.
</event>
<event>
 5    1  0.1692178E-003  0.9118800E+02  0.7818608E-02  0.1130116E+00
         25   -1    0    0    0    0  0.00000000000E+00  0.00000000000E+00  0.99999998245E-14  0.12500000000E+03  0.12500000000E+03 0.  0.
        -11    1    3    3    0    0  0.10304127776E+02  0.57267083299E+02 -0.17997365584E+02  0.60906477874E+02  0.51100000000E-03 0.  1.
         23    2    1    0    0    0  0.92168734815E+01  0.22993947076E+02 -0.16511778838E+02  0.95229020854E+02  0.90455819125E+02 0.  0.
         11    1    3    3    0    0 -0.10872542940E+01 -0.34273136222E+02  0.14855867460E+01  0.34322542981E+02  0.51100000000E-03 0. -1.
         22    1    1    0    0    0 -0.92168734815E+01 -0.22993947076E+02  0.16511778838E+02  0.29770979146E+02  0.00000000000E+00 0.  1.
</event>
<event>
 5    1  0.1692178E-003  0.9118800E+02  0.7818608E-02  0.1130116E+00
         25   -1    0    0    0    0  0.00000000000E+00  0.00000000000E+00  0.99999998245E-14  0.12500000000E+03  0.12500000000E+03 0.  0.
        -11    1    3    3    0    0 -0.13240369705E+02 -0.43714406649E+02 -0.34276982967E+02  0.57106639721E+02  0.51100000000E-03 0.  1.
         23    2    1    0    0    0 -0.13641398375E+02 -0.25352816559E+02  0.24399773611E+00  0.96209157845E+02  0.91800269396E+02 0.  0.
         11    1    3    3    0    0 -0.40102867007E+00  0.18361590090E+02  0.34520980704E+02  0.39102518124E+02  0.51100000000E-03 0. -1.
         22    1    1    0    0    0  0.13641398375E+02  0.25352816559E+02 -0.24399773611E+00  0.28790842155E+02  0.00000000000E+00 0.  1.
</event>
<event>
 5    1  0.1692178E-003  0.9118800E+02  0.7818608E-02  0.1130116E+00
         25   -1    0    0    0    0  0.00000000000E+00  0.00000000000E+00  0.99999998245E-14  0.12500000000E+03  0.12500000000E+03 0.  0.
        -11    1    3    3    0    0  0.42979492297E+01  0.33814386870E+02  0.45746472378E+01  0.34392041588E+02  0.51100000000E-03 0. -1.
         23    2    1    0    0    0 -0.21092020394E+02 -0.20279652855E+02 -0.61440459343E+01  0.95102057852E+02  0.90280199729E+02 0.  0.
         11    1    3    3    0    0 -0.25389969624E+02 -0.54094039725E+02 -0.10718693172E+02  0.60710016264E+02  0.51100000000E-03 0.  1.
         22    1    1    0    0    0  0.21092020394E+02  0.20279652855E+02  0.61440459343E+01  0.29897942148E+02  0.00000000000E+00 0.  1.
</event>
<event>
 5    1  0.1692178E-003  0.9118800E+02  0.7818608E-02  0.1130116E+00
         25   -1    0    0    0    0  0.00000000000E+00  0.00000000000E+00  0.99999998245E-14  0.12500000000E+03  0.12500000000E+03 0.  0.
        -11    1    3    3    0    0  0.23508703438E+02 -0.76328406566E+01  0.29628014547E+02  0.38584176032E+02  0.51100000000E-03 0.  1.
         23    2    1    0    0    0  0.21701051031E+02 -0.16381529434E+02 -0.21406495159E+02  0.90394680215E+02  0.83508502883E+02 0.  0.
         11    1    3    3    0    0 -0.18076524072E+01 -0.87486887774E+01 -0.51034509706E+02  0.51810504183E+02  0.51100000000E-03 0. -1.
         22    1    1    0    0    0 -0.21701051031E+02  0.16381529434E+02  0.21406495159E+02  0.34605319785E+02  0.00000000000E+00 0. -1.
</event>
<event>
 5    1  0.1692178E-003  0.9118800E+02  0.7818608E-02  0.1130116E+00
         25   -1    0    0    0    0  0.00000000000E+00  0.00000000000E+00  0.99999998245E-14  0.12500000000E+03  0.12500000000E+03 0.  0.
        -11    1    3    3    0    0  0.13432237944E+02  0.32265779320E+02 -0.15343321438E+02  0.38169661307E+02  0.51100000000E-03 0.  1.
         23    2    1    0    0    0 -0.11853414460E+02 -0.21858417731E+02  0.10331295711E+01  0.10011303119E+03  0.96970396495E+02 0.  0.
         11    1    3    3    0    0 -0.25285652405E+02 -0.54124197051E+02  0.16376451009E+02  0.61943369878E+02  0.51100000000E-03 0. -1.
         22    1    1    0    0    0  0.11853414460E+02  0.21858417731E+02 -0.10331295711E+01  0.24886968815E+02  0.00000000000E+00 0. -1.
</event>
<event>
 5    1  0.1692178E-003  0.9118800E+02  0.7818608E-02  0.1130116E+00
         25   -1    0    0    0    0  0.00000000000E+00  0.00000000000E+00  0.99999998245E-14  0.12500000000E+03  0.12500000000E+03 0.  0.
        -11    1    3    3    0    0 -0.47042259324E+02 -0.25646556077E+02  0.14902197997E+02  0.55612907731E+02  0.51100000000E-03 0.  1.
         23    2    1    0    0    0 -0.22910689689E+02 -0.16135531818E+02 -0.13344697303E+02  0.93962344883E+02  0.88688140248E+02 0.  0.
         11    1    3    3    0    0  0.24131569635E+02  0.95110242581E+01 -0.28246895300E+02  0.38349437151E+02  0.51100000000E-03 0. -1.
         22    1    1    0    0    0  0.22910689689E+02  0.16135531818E+02  0.13344697303E+02  0.31037655117E+02  0.00000000000E+00 0.  1.
</event>
<event>
 5    1  0.1692178E-003  0.9118800E+02  0.7818608E-02  0.1130116E+00
         25   -1    0    0    0    0  0.00000000000E+00  0.00000000000E+00  0.99999998245E-14  0.12500000000E+03  0.12500000000E+03 0.  0.
        -11    1    3    3    0    0  0.95830164197E+01 -0.33512718505E+02 -0.50042089474E+02  0.60984811425E+02  0.51100000000E-03 0.  1.
         23    2    1    0    0    0  0.33949630179E+01 -0.26160898430E+02 -0.21926952989E+02  0.90696798284E+02  0.83959511498E+02 0.  0.
         11    1    3    3    0    0 -0.61880534019E+01  0.73518200750E+01  0.28115136485E+02  0.29711986859E+02  0.51100000000E-03 0. -1.
         22    1    1    0    0    0 -0.33949630179E+01  0.26160898430E+02  0.21926952989E+02  0.34303201716E+02  0.00000000000E+00 0.  1.
</event>
<event>
 5    1  0.1692178E-003  0.9118800E+02  0.7818608E-02  0.1130116E+00
         25   -1    0    0    0    0  0.00000000000E+00  0.00000000000E+00  0.99999998245E-14  0.12500000000E+03  0.12500000000E+03 0.  0.
        -11    1    3    3    0    0  0.53520891778E+01 -0.57207658503E+01 -0.42633466662E+02  0.43347254820E+02  0.51100000000E-03 0.  1.
         23    2    1    0    0    0  0.22110517201E+02 -0.20653126714E+02  0.33921127203E+01  0.94554424909E+02  0.89518747909E+02 0.  0.
         11    1    3    3    0    0  0.16758428023E+02 -0.14932360863E+02  0.46025579383E+02  0.51207170089E+02  0.51100000000E-03 0. -1.
         22    1    1    0    0    0 -0.22110517201E+02  0.20653126714E+02 -0.33921127203E+01  0.30445575091E+02  0.00000000000E+00 0. -1.
</event>
<event>
 5    1  0.1692178E-003  0.9118800E+02  0.7818608E-02  0.1130116E+00
         25   -1    0    0    0    0  0.00000000000E+00  0.00000000000E+00  0.99999998245E-14  0.12500000000E+03  0.12500000000E+03 0.  0.
        -11    1    3    3    0    0 -0.48826534400E+01  0.78614920609E+01  0.54543632894E+02  0.55323152943E+02  0.51100000000E-03 0.  1.
         23    2    1    0    0    0  0.16149057729E+02 -0.42957197834E+01  0.11612817598E+02  0.10465048387E+03  0.10265291505E+03 0.  0.
         11    1    3    3    0    0  0.21031711169E+02 -0.12157211844E+02 -0.42930815296E+02  0.49327330931E+02  0.51100000000E-03 0. -1.
         22    1    1    0    0    0 -0.16149057729E+02  0.42957197834E+01 -0.11612817598E+02  0.20349516126E+02  0.00000000000E+00 0.  1.
</event>
<event>
 5    1  0.1692178E-003  0.9118800E+02  0.7818608E-02  0.1130116E+00
         25   -1    0    0    0    0  0.00000000000E+00  0.00000000000E+00  0.99999998245E-14  0.12500000000E+03  0.12500000000E+03 0.  0.
        -11    1    3    3    0    0  0.33712740911E+02 -0.18467921323E+02 -0.56928784805E+01  0.38859000030E+02  0.51100000000E-03 0. -1.
         23    2    1    0    0    0 -0.14430537717E+02 -0.70387485400E+01  0.23671292990E+02  0.96397298875E+02  0.92056095500E+02 0.  0.
         11    1    3    3    0    0 -0.48143278628E+02  0.11429172783E+02  0.29364171471E+02  0.57538298845E+02  0.51100000000E-03 0.  1.
         22    1    1    0    0    0  0.14430537717E+02  0.70387485400E+01 -0.23671292990E+02  0.28602701125E+02  0.00000000000E+00 0.  1.
</event>
<event>
 5    1  0.1692178E-003  0.9118800E+02  0.7818608E-02  0.1130116E+00
         25   -1    0    0    0    0  0.00000000000E+00  0.00000000000E+00  0.99999998245E-14  0.12500000000E+03  0.12500000000E+03 0.  0.
        -11    1    3    3    0    0 -0.44619878094E+02  0.20537549885E+01  0.13988826436E+01  0.44689017706E+02  0.51100000000E-03 0.  1.
         23    2    1    0    0    0 -0.78758205821E+01 -0.26948221897E+02 -0.13545907575E+02  0.93827466813E+02  0.88497834455E+02 0.  0.
         11    1    3    3    0    0  0.36744057511E+02 -0.29001976885E+02 -0.14944790219E+02  0.49138449107E+02  0.51100000000E-03 0. -1.
         22    1    1    0    0    0  0.78758205821E+01  0.26948221897E+02  0.13545907575E+02  0.31172533187E+02  0.00000000000E+00 0. -1.
</event>
<event>
 5    1  0.1692178E-003  0.9118800E+02  0.7818608E-02  0.1130116E+00
         25   -1    0    0    0    0  0.00000000000E+00  0.00000000000E+00  0.99999998245E-14  0.12500000000E+03  0.12500000000E+03 0.  0.
        -11    1    3    3    0    0 -0.23713202558E+02  0.19156840649E+02 -0.37881613061E+02  0.48624244237E+02  0.51100000000E-03 0. -1.
         23    2    1    0    0    0  0.16600029927E+02  0.14762162028E+02 -0.25834540998E+02  0.90927930355E+02  0.84302921590E+02 0.  0.
         11    1    3    3    0    0  0.40313232485E+02 -0.43946786213E+01  0.12047072063E+02  0.42303686118E+02  0.51100000000E-03 0.  1.
         22    1    1    0    0    0 -0.16600029927E+02 -0.14762162028E+02  0.25834540998E+02  0.34072069645E+02  0.00000000000E+00 0.  1.
</event>
<event>
 5    1  0.1692178E-003  0.9118800E+02  0.7818608E-02  0.1130116E+00
         25   -1    0    0    0    0  0.00000000000E+00  0.00000000000E+00  0.99999998245E-14  0.12500000000E+03  0.12500000000E+03 0.  0.
        -11    1    3    3    0    0  0.56050306647E+02  0.15581542565E+02  0.96423067062E+01  0.58969444823E+02  0.51100000000E-03 0. -1.
         23    2    1    0    0    0  0.27565641388E+02  0.22416521845E+01 -0.94611068118E+01  0.95769842084E+02  0.91200112506E+02 0.  0.
         11    1    3    3    0    0 -0.28484665258E+02 -0.13339890381E+02 -0.19103413518E+02  0.36800397261E+02  0.51100000000E-03 0.  1.
         22    1    1    0    0    0 -0.27565641388E+02 -0.22416521845E+01  0.94611068118E+01  0.29230157916E+02  0.00000000000E+00 0. -1.
</event>
<event>
 5    1  0.1692178E-003  0.9118800E+02  0.7818608E-02  0.1130116E+00
         25   -1    0    0    0    0  0.00000000000E+00  0.00000000000E+00  0.99999998245E-14  0.12500000000E+03  0.12500000000E+03 0.  0.
        -11    1    3    3    0    0  0.23405580908E+02  0.28632325465E+02  0.11631850895E+02  0.38767657070E+02  0.51100000000E-03 0. -1.
         23    2    1    0    0    0  0.16552556108E+02 -0.19139746223E+02 -0.16653773581E+02  0.94707011146E+02  0.89731559591E+02 0.  0.
         11    1    3    3    0    0 -0.68530248001E+01 -0.47772071687E+02 -0.28285624477E+02  0.55939354077E+02  0.51100000000E-03 0.  1.
         22    1    1    0    0    0 -0.16552556108E+02  0.19139746223E+02  0.16653773581E+02  0.30292988854E+02  0.00000000000E+00 0.  1.
</event>
<event>
 5    1  0.1692178E-003  0.9118800E+02  0.7818608E-02  0.1130116E+00
         25   -1    0    0    0    0  0.00000000000E+00  0.00000000000E+00  0.99999998245E-14  0.12500000000E+03  0.12500000000E+03 0.  0.
        -11    1    3    3    0    0  0.61621540240E+01  0.36850579872E+02  0.66558265911E+01  0.37950459905E+02  0.51100000000E-03 0.  1.
         23    2    1    0    0    0  0.36958484920E+02  0.40952224240E+01  0.17045692829E+02  0.84094546839E+02  0.73475415682E+02 0.  0.
         11    1    3    3    0    0  0.30796330896E+02 -0.32755357448E+02  0.10389866238E+02  0.46144086934E+02  0.51100000000E-03 0. -1.
         22    1    1    0    0    0 -0.36958484920E+02 -0.40952224240E+01 -0.17045692829E+02  0.40905453161E+02  0.00000000000E+00 0.  1.
</event>
<event>
 5    1  0.1692178E-003  0.9118800E+02  0.7818608E-02  0.1130116E+00
         25   -1    0    0    0    0  0.00000000000E+00  0.00000000000E+00  0.99999998245E-14  0.12500000000E+03  0.12500000000E+03 0.  0.
        -11    1    3    3    0    0  0.11548876156E+02 -0.59578605713E+02 -0.92000592576E+01  0.61381005936E+02  0.51100000000E-03 0. -1.
         23    2    1    0    0    0  0.31164122216E+01 -0.29357748860E+02  0.35835594412E+01  0.95260609597E+02  0.90499460767E+02 0.  0.
         11    1    3    3    0    0 -0.84324639343E+01  0.30220856852E+02  0.12783618699E+02  0.33879603660E+02  0.51100000000E-03 0.  1.
         22    1    1    0    0    0 -0.31164122216E+01  0.29357748860E+02 -0.35835594412E+01  0.29739390403E+02  0.00000000000E+00 0. -1.
</event>
<event>
 5    1  0.1692178E-003  0.9118800E+02  0.7818608E-02  0.1130116E+00
         25   -1    0    0    0    0  0.00000000000E+00  0.00000000000E+00  0.99999998245E-14  0.12500000000E+03  0.12500000000E+03 0.  0.
        -11    1    3    3    0    0  0.33622805857E+02  0.16366169097E+02  0.54473689847E+01  0.37789130629E+02  0.51100000000E-03 0. -1.
         23    2    1    0    0    0 -0.22161008664E+02  0.12364816434E+02  0.16408355443E+02  0.94780252833E+02  0.89833530535E+02 0.  0.
         11    1    3    3    0    0 -0.55783814521E+02 -0.40013526628E+01  0.10960986458E+02  0.56991122204E+02  0.51100000000E-03 0.  1.
         22    1    1    0    0    0  0.22161008664E+02 -0.12364816434E+02 -0.16408355443E+02  0.30219747167E+02  0.00000000000E+00 0.  1.
</event>
<event>
 5    1  0.1692178E-003  0.9118800E+02  0.7818608E-02  0.1130116E+00
         25   -1    0    0    0    0  0.00000000000E+00  0.00000000000E+00  0.99999998245E-14  0.12500000000E+03  0.12500000000E+03 0.  0.
        -11    1    3    3    0    0 -0.16128983588E+02  0.48644004043E+02  0.29902481510E+02  0.59334152405E+02  0.51100000000E-03 0. -1.
         23    2    1    0    0    0  0.52000741034E+01  0.25677589813E+02  0.78755641521E+01  0.97643028310E+02  0.93732369423E+02 0.  0.
         11    1    3    3    0    0  0.21329057691E+02 -0.22966414230E+02 -0.22026917358E+02  0.38308875905E+02  0.51100000000E-03 0.  1.
         22    1    1    0    0    0 -0.52000741034E+01 -0.25677589813E+02 -0.78755641521E+01  0.27356971690E+02  0.00000000000E+00 0. -1.
</event>
<event>
 5    1  0.1692178E-003  0.9118800E+02  0.7818608E-02  0.1130116E+00
         25   -1    0    0    0    0  0.00000000000E+00  0.00000000000E+00  0.99999998245E-14  0.12500000000E+03  0.12500000000E+03 0.  0.
        -11    1    3    3    0    0  0.51333115220E+02 -0.28135871110E-01 -0.33058878029E+02  0.61057177520E+02  0.51100000000E-03 0.  1.
         23    2    1    0    0    0  0.26855329249E+02  0.68976829693E+01 -0.96092204556E+01  0.95655088053E+02  0.91042693354E+02 0.  0.
         11    1    3    3    0    0 -0.24477785971E+02  0.69258188405E+01  0.23449657574E+02  0.34597910533E+02  0.51100000000E-03 0. -1.
         22    1    1    0    0    0 -0.26855329249E+02 -0.68976829693E+01  0.96092204556E+01  0.29344911947E+02  0.00000000000E+00 0.  1.
</event>
<event>
 5    1  0.1692178E-003  0.9118800E+02  0.7818608E-02  0.1130116E+00
         25   -1    0    0    0    0  0.00000000000E+00  0.00000000000E+00  0.99999998245E-14  0.12500000000E+03  0.12500000000E+03 0.  0.
        -11    1    3    3    0    0  0.48369785494E+02 -0.34893637853E+02  0.74695383264E+01  0.60108203387E+02  0.51100000000E-03 0.  1.
         23    2    1    0    0    0  0.30960695887E+02 -0.72795936271E+01  0.30663441046E+01  0.93047540950E+02  0.87389274156E+02 0.  0.
         11    1    3    3    0    0 -0.17409089607E+02  0.27614044226E+02 -0.44031942218E+01  0.32939337563E+02  0.51100000000E-03 0. -1.
         22    1    1    0    0    0 -0.30960695887E+02  0.72795936271E+01 -0.30663441046E+01  0.31952459050E+02  0.00000000000E+00 0.  1.
</event>
<event>
 5    1  0.1692178E-003  0.9118800E+02  0.7818608E-02  0.1130116E+00
         25   -1    0    0    0    0  0.00000000000E+00  0.00000000000E+00  0.99999998245E-14  0.12500000000E+03  0.12500000000E+03 0.  0.
        -11    1    3    3    0    0 -0.32319500389E+02 -0.78020408640E+01  0.12591270377E+02  0.35552243769E+02  0.51100000000E-03 0.  1.
         23    2    1    0    0    0  0.25292088704E+02  0.18694807272E+01 -0.93724379845E+01  0.97962483417E+02  0.94157425912E+02 0.  0.
         11    1    3    3    0    0  0.57611589093E+02  0.96715215912E+01 -0.21963708362E+02  0.62410239648E+02  0.51100000000E-03 0. -1.
         22    1    1    0    0    0 -0.25292088704E+02 -0.18694807272E+01  0.93724379845E+01  0.27037516583E+02  0.00000000000E+00 0. -1.
</event>
<event>
 5    1  0.1692178E-003  0.9118800E+02  0.7818608E-02  0.1130116E+00
         25   -1    0    0    0    0  0.00000000000E+00  0.00000000000E+00  0.99999998245E-14  0.12500000000E+03  0.12500000000E+03 0.  0.
        -11    1    3    3    0    0 -0.13763938563E+01 -0.45134608920E+02  0.22860534305E+02  0.50612561795E+02  0.51100000000E-03 0. -1.
         23    2    1    0    0    0  0.21760994668E+02 -0.18428220856E+02 -0.55458476891E+01  0.95950100870E+02  0.91446843672E+02 0.  0.
         11    1    3    3    0    0  0.23137388525E+02  0.26706388064E+02 -0.28406381994E+02  0.45337539076E+02  0.51100000000E-03 0.  1.
         22    1    1    0    0    0 -0.21760994668E+02  0.18428220856E+02  0.55458476891E+01  0.29049899130E+02  0.00000000000E+00 0. -1.
</event>
<event>
 5    1  0.1692178E-003  0.9118800E+02  0.7818608E-02  0.1130116E+00
         25   -1    0    0    0    0  0.00000000000E+00  0.00000000000E+00  0.99999998245E-14  0.12500000000E+03  0.12500000000E+03 0.  0.
        -11    1    3    3    0    0 -0.11874297528E+02 -0.33356184945E+01  0.59524517432E+02  0.60788925540E+02  0.51100000000E-03 0. -1.
         23    2    1    0    0    0 -0.69799722189E+01  0.86457895312E+01  0.29011496728E+02  0.93933351787E+02  0.88647267001E+02 0.  0.
         11    1    3    3    0    0  0.48943253094E+01  0.11981408026E+02 -0.30513020704E+02  0.33144426247E+02  0.51100000000E-03 0.  1.
         22    1    1    0    0    0  0.69799722189E+01 -0.86457895312E+01 -0.29011496728E+02  0.31066648213E+02  0.00000000000E+00 0. -1.
</event>
<event>
 5    1  0.1692178E-003  0.9118800E+02  0.7818608E-02  0.1130116E+00
         25   -1    0    0    0    0  0.00000000000E+00  0.00000000000E+00  0.99999998245E-14  0.12500000000E+03  0.12500000000E+03 0.  0.
        -11    1    3    3    0    0 -0.92388784569E+01  0.53540801235E+02  0.28576296082E+02  0.61388752797E+02  0.51100000000E-03 0. -1.
         23    2    1    0    0    0 -0.34372611145E+00  0.26313318859E+02  0.56329209598E+01  0.98088316746E+02  0.94324329769E+02 0.  0.
         11    1    3    3    0    0  0.88951523454E+01 -0.27227482375E+02 -0.22943375122E+02  0.36699563948E+02  0.51100000000E-03 0.  1.
         22    1    1    0    0    0  0.34372611145E+00 -0.26313318859E+02 -0.56329209598E+01  0.26911683254E+02  0.00000000000E+00 0. -1.
</event>
<event>
 5    1  0.1692178E-003  0.9118800E+02  0.7818608E-02  0.1130116E+00
         25   -1    0    0    0    0  0.00000000000E+00  0.00000000000E+00  0.99999998245E-14  0.12500000000E+03  0.12500000000E+03 0.  0.
        -11    1    3    3    0    0 -0.32076193885E+02  0.18507198228E+02  0.12607544922E+02  0.39119672668E+02  0.51100000000E-03 0.  1.
         23    2    1    0    0    0  0.94763275148E+01  0.37750890915E+02  0.89800268329E+01  0.85055395484E+02  0.75092269049E+02 0.  0.
         11    1    3    3    0    0  0.41552521400E+02  0.19243692687E+02 -0.36275180893E+01  0.45935722816E+02  0.51100000000E-03 0. -1.
         22    1    1    0    0    0 -0.94763275148E+01 -0.37750890915E+02 -0.89800268329E+01  0.39944604516E+02  0.00000000000E+00 0. -1.
</event>
<event>
 5    1  0.1692178E-003  0.9118800E+02  0.7818608E-02  0.1130116E+00
         25   -1    0    0    0    0  0.00000000000E+00  0.00000000000E+00  0.99999998245E-14  0.12500000000E+03  0.12500000000E+03 0.  0.
        -11    1    3    3    0    0  0.60219448151E+01 -0.42736121166E+02  0.24793773905E+02  0.49773196566E+02  0.51100000000E-03 0.  1.
         23    2    1    0    0    0 -0.21934846533E+02 -0.18896248791E+02 -0.30710717804E+01  0.95885790537E+02  0.91358894664E+02 0.  0.
         11    1    3    3    0    0 -0.27956791348E+02  0.23839872376E+02 -0.27864845685E+02  0.46112593971E+02  0.51100000000E-03 0. -1.
         22    1    1    0    0    0  0.21934846533E+02  0.18896248791E+02  0.30710717804E+01  0.29114209463E+02  0.00000000000E+00 0.  1.
</event>
<event>
 5    1  0.1692178E-003  0.9118800E+02  0.7818608E-02  0.1130116E+00
         25   -1    0    0    0    0  0.00000000000E+00  0.00000000000E+00  0.99999998245E-14  0.12500000000E+03  0.12500000000E+03 0.  0.
        -11    1    3    3    0    0  0.21056366166E+02  0.42765665288E+02  0.22072408215E+01  0.47719436249E+02  0.51100000000E-03 0.  1.
         23    2    1    0    0    0  0.20025503989E+02 -0.20570787626E+00  0.22179834244E+02  0.95116757658E+02  0.90300550467E+02 0.  0.
         11    1    3    3    0    0 -0.10308621771E+01 -0.42971373164E+02  0.19972593423E+02  0.47397321409E+02  0.51100000000E-03 0. -1.
         22    1    1    0    0    0 -0.20025503989E+02  0.20570787626E+00 -0.22179834244E+02  0.29883242342E+02  0.00000000000E+00 0. -1.
</event>
<event>
 5    1  0.1692178E-003  0.9118800E+02  0.7818608E-02  0.1130116E+00
         25   -1    0    0    0    0  0.00000000000E+00  0.00000000000E+00  0.99999998245E-14  0.12500000000E+03  0.12500000000E+03 0.  0.
        -11    1    3    3    0    0 -0.24313306923E+02 -0.47603541607E+02  0.29862019016E+02  0.61228867760E+02  0.51100000000E-03 0.  1.
         23    2    1    0    0    0 -0.25128632188E+02 -0.32072463915E+02  0.22808949925E+02  0.78305896583E+02  0.62860752031E+02 0.  0.
         11    1    3    3    0    0 -0.81532526436E+00  0.15531077693E+02 -0.70530690911E+01  0.17077028824E+02  0.51100000000E-03 0. -1.
         22    1    1    0    0    0  0.25128632188E+02  0.32072463915E+02 -0.22808949925E+02  0.46694103417E+02  0.00000000000E+00 0.  1.
</event>
<event>
 5    1  0.1692178E-003  0.9118800E+02  0.7818608E-02  0.1130116E+00
         25   -1    0    0    0    0  0.00000000000E+00  0.00000000000E+00  0.99999998245E-14  0.12500000000E+03  0.12500000000E+03 0.  0.
        -11    1    3    3    0    0 -0.11117215759E+02 -0.16412805496E+02 -0.41551768576E+02  0.46038268240E+02  0.51100000000E-03 0.  1.
         23    2    1    0    0    0 -0.94521855795E+01 -0.28328621489E+02  0.55259471869E+01  0.94629114271E+02  0.89622980131E+02 0.  0.
         11    1    3    3    0    0  0.16650301797E+01 -0.11915815992E+02  0.47077715763E+02  0.48590846031E+02  0.51100000000E-03 0. -1.
         22    1    1    0    0    0  0.94521855795E+01  0.28328621489E+02 -0.55259471869E+01  0.30370885729E+02  0.00000000000E+00 0.  1.
</event>
<event>
 5    1  0.1692178E-003  0.9118800E+02  0.7818608E-02  0.1130116E+00
         25   -1    0    0    0    0  0.00000000000E+00  0.00000000000E+00  0.99999998245E-14  0.12500000000E+03  0.12500000000E+03 0.  0.
        -11    1    3    3    0    0  0.10818493362E+01  0.12398942038E+01 -0.27311255037E+02  0.27360781926E+02  0.51100000000E-03 0.  1.
         23    2    1    0    0    0 -0.23900507278E+02  0.49294329217E+01  0.27815692222E+02  0.87996671895E+02  0.79838386592E+02 0.  0.
         11    1    3    3    0    0 -0.24982356614E+02  0.36895387178E+01  0.55126947259E+02  0.60635889969E+02  0.51100000000E-03 0. -1.
         22    1    1    0    0    0  0.23900507278E+02 -0.49294329217E+01 -0.27815692222E+02  0.37003328105E+02  0.00000000000E+00 0. -1.
</event>
<event>
 5    1  0.1692178E-003  0.9118800E+02  0.7818608E-02  0.1130116E+00
         25   -1    0    0    0    0  0.00000000000E+00  0.00000000000E+00  0.99999998245E-14  0.12500000000E+03  0.12500000000E+03 0.  0.
        -11    1    3    3    0    0 -0.37007346594E+02 -0.42925756073E+02  0.10693996063E+00  0.56676059080E+02  0.51100000000E-03 0. -1.
         23    2    1    0    0    0 -0.16958765100E+02 -0.16211553154E+02 -0.18691755554E+02  0.95003401942E+02  0.90143499407E+02 0.  0.
         11    1    3    3    0    0  0.20048581494E+02  0.26714202919E+02 -0.18798695515E+02  0.38327342862E+02  0.51100000000E-03 0.  1.
         22    1    1    0    0    0  0.16958765100E+02  0.16211553154E+02  0.18691755554E+02  0.29996598058E+02  0.00000000000E+00 0.  1.
</event>
<event>
 4    1  0.1692178E-003  0.9118800E+02  0.7818608E-02  0.1130116E+00
         25   -1    0    0    0    0  0.00000000000E+00  0.00000000000E+00  0.99999998245E-14  0.12500000000E+03  0.12500000000E+03 0.  0.
        -11    1    1    0    0    0  0.20011815573E+02  0.39649805934E+02 -0.16412498909E+02  0.47349234353E+02  0.51100000000E-03 0. -1.
         11    1    1    0    0    0 -0.21782865982E+00  0.16182811271E+02  0.98844071463E-02  0.16184280272E+02  0.51100000000E-03 0.  1.
         22    1    1    0    0    0 -0.19793986913E+02 -0.55832617205E+02  0.16402614502E+02  0.61466485375E+02  0.00000000000E+00 0. -1.
</event>
<event>
 5    1  0.1692178E-003  0.9118800E+02  0.7818608E-02  0.1130116E+00
         25   -1    0    0    0    0  0.00000000000E+00  0.00000000000E+00  0.99999998245E-14  0.12500000000E+03  0.12500000000E+03 0.  0.
        -11    1    3    3    0    0 -0.37017256396E+02  0.52355586353E+01 -0.46708608157E+02  0.59827940141E+02  0.51100000000E-03 0. -1.
         23    2    1    0    0    0 -0.25929018920E+02 -0.52996294953E+00 -0.12574701305E+02  0.96177821113E+02  0.91757589759E+02 0.  0.
         11    1    3    3    0    0  0.11088237477E+02 -0.57655215848E+01  0.34133906852E+02  0.36349880972E+02  0.51100000000E-03 0.  1.
         22    1    1    0    0    0  0.25929018920E+02  0.52996294953E+00  0.12574701305E+02  0.28822178887E+02  0.00000000000E+00 0. -1.
</event>
<event>
 5    1  0.1692178E-003  0.9118800E+02  0.7818608E-02  0.1130116E+00
         25   -1    0    0    0    0  0.00000000000E+00  0.00000000000E+00  0.99999998245E-14  0.12500000000E+03  0.12500000000E+03 0.  0.
        -11    1    3    3    0    0  0.15945603331E+02  0.75603432051E+01  0.39022135450E+02  0.42826955417E+02  0.51100000000E-03 0.  1.
         23    2    1    0    0    0  0.17722110312E+02  0.26024484863E+02 -0.72602067490E+01  0.92688119703E+02  0.86873643447E+02 0.  0.
         11    1    3    3    0    0  0.17765069812E+01  0.18464141658E+02 -0.46282342199E+02  0.49861164286E+02  0.51100000000E-03 0. -1.
         22    1    1    0    0    0 -0.17722110312E+02 -0.26024484863E+02  0.72602067490E+01  0.32311880297E+02  0.00000000000E+00 0. -1.
</event>
<event>
 5    1  0.1692178E-003  0.9118800E+02  0.7818608E-02  0.1130116E+00
         25   -1    0    0    0    0  0.00000000000E+00  0.00000000000E+00  0.99999998245E-14  0.12500000000E+03  0.12500000000E+03 0.  0.
        -11    1    3    3    0    0 -0.79718055894E+01  0.42948767852E+01  0.20193630250E+02  0.22130936580E+02  0.51100000000E-03 0.  1.
         23    2    1    0    0    0 -0.89849970952E+01 -0.40151156671E+02 -0.17376072449E+02  0.80337113298E+02  0.66777828091E+02 0.  0.
         11    1    3    3    0    0 -0.10131915058E+01 -0.44446033456E+02 -0.37569702699E+02  0.58206176718E+02  0.51100000000E-03 0. -1.
         22    1    1    0    0    0  0.89849970952E+01  0.40151156671E+02  0.17376072449E+02  0.44662886702E+02  0.00000000000E+00 0. -1.
</event>
<event>
 5    1  0.1692178E-003  0.9118800E+02  0.7818608E-02  0.1130116E+00
         25   -1    0    0    0    0  0.00000000000E+00  0.00000000000E+00  0.99999998245E-14  0.12500000000E+03  0.12500000000E+03 0.  0.
        -11    1    3    3    0    0  0.40181731998E+01 -0.42740442180E+02 -0.62127127194E+01  0.43376132991E+02  0.51100000000E-03 0.  1.
         23    2    1    0    0    0 -0.28270172572E+02 -0.39345950052E+01  0.71071371798E+01  0.95585801150E+02  0.90947513916E+02 0.  0.
         11    1    3    3    0    0 -0.32288345772E+02  0.38805847175E+02  0.13319849899E+02  0.52209668159E+02  0.51100000000E-03 0. -1.
         22    1    1    0    0    0  0.28270172572E+02  0.39345950052E+01 -0.71071371798E+01  0.29414198850E+02  0.00000000000E+00 0. -1.
</event>
<event>
 5    1  0.1692178E-003  0.9118800E+02  0.7818608E-02  0.1130116E+00
         25   -1    0    0    0    0  0.00000000000E+00  0.00000000000E+00  0.99999998245E-14  0.12500000000E+03  0.12500000000E+03 0.  0.
        -11    1    3    3    0    0 -0.41497299168E+02 -0.28025899982E+02 -0.19707231625E+02  0.53813120024E+02  0.51100000000E-03 0. -1.
         23    2    1    0    0    0 -0.15831376651E+02 -0.17304220138E+02  0.14132594207E+02  0.97617546854E+02  0.93698381595E+02 0.  0.
         11    1    3    3    0    0  0.25665922518E+02  0.10721679844E+02  0.33839825832E+02  0.43804426831E+02  0.51100000000E-03 0.  1.
         22    1    1    0    0    0  0.15831376651E+02  0.17304220138E+02 -0.14132594207E+02  0.27382453146E+02  0.00000000000E+00 0.  1.
</event>
<event>
 5    1  0.1692178E-003  0.9118800E+02  0.7818608E-02  0.1130116E+00
         25   -1    0    0    0    0  0.00000000000E+00  0.00000000000E+00  0.99999998245E-14  0.12500000000E+03  0.12500000000E+03 0.  0.
        -11    1    3    3    0    0  0.17719097266E+02 -0.20722210696E+02  0.32691763836E+02  0.42569094975E+02  0.51100000000E-03 0. -1.
         23    2    1    0    0    0 -0.99784338466E+01 -0.24078187363E+02 -0.12821391731E+02  0.95953204400E+02  0.91451085832E+02 0.  0.
         11    1    3    3    0    0 -0.27697531113E+02 -0.33559766667E+01 -0.45513155567E+02  0.53384109424E+02  0.51100000000E-03 0.  1.
         22    1    1    0    0    0  0.99784338466E+01  0.24078187363E+02  0.12821391731E+02  0.29046795600E+02  0.00000000000E+00 0.  1.
</event>
<event>
 5    1  0.1692178E-003  0.9118800E+02  0.7818608E-02  0.1130116E+00
         25   -1    0    0    0    0  0.00000000000E+00  0.00000000000E+00  0.99999998245E-14  0.12500000000E+03  0.12500000000E+03 0.  0.
        -11    1    3    3    0    0  0.33688621977E+02  0.50588930078E+02 -0.22700802066E+00  0.60780051251E+02  0.51100000000E-03 0.  1.
         23    2    1    0    0    0  0.22507390616E+02  0.19822899762E+02 -0.69850351648E+01  0.94205183820E+02  0.89029747585E+02 0.  0.
         11    1    3    3    0    0 -0.11181231361E+02 -0.30766030316E+02 -0.67580271442E+01  0.33425132570E+02  0.51100000000E-03 0. -1.
         22    1    1    0    0    0 -0.22507390616E+02 -0.19822899762E+02  0.69850351648E+01  0.30794816180E+02  0.00000000000E+00 0.  1.
</event>
<event>
 5    1  0.1692178E-003  0.9118800E+02  0.7818608E-02  0.1130116E+00
         25   -1    0    0    0    0  0.00000000000E+00  0.00000000000E+00  0.99999998245E-14  0.12500000000E+03  0.12500000000E+03 0.  0.
        -11    1    3    3    0    0  0.34717130014E+02 -0.13210721454E+02  0.10475631682E+02  0.38594573934E+02  0.51100000000E-03 0.  1.
         23    2    1    0    0    0 -0.96928156519E+01  0.21805297640E+02  0.17253478769E+02  0.95553366745E+02  0.90902924520E+02 0.  0.
         11    1    3    3    0    0 -0.44409945665E+02  0.35016019094E+02  0.67778470865E+01  0.56958792812E+02  0.51100000000E-03 0. -1.
         22    1    1    0    0    0  0.96928156519E+01 -0.21805297640E+02 -0.17253478769E+02  0.29446633255E+02  0.00000000000E+00 0. -1.
</event>
<event>
 5    1  0.1692178E-003  0.9118800E+02  0.7818608E-02  0.1130116E+00
         25   -1    0    0    0    0  0.00000000000E+00  0.00000000000E+00  0.99999998245E-14  0.12500000000E+03  0.12500000000E+03 0.  0.
        -11    1    3    3    0    0 -0.21446260611E+02  0.28225111477E+02  0.12632910508E+02  0.37632292519E+02  0.51100000000E-03 0. -1.
         23    2    1    0    0    0  0.27520116672E+02 -0.25901722918E+01  0.10190758538E+02  0.95539562567E+02  0.90883940506E+02 0.  0.
         11    1    3    3    0    0  0.48966377283E+02 -0.30815283768E+02 -0.24421519699E+01  0.57907270048E+02  0.51100000000E-03 0.  1.
         22    1    1    0    0    0 -0.27520116672E+02  0.25901722918E+01 -0.10190758538E+02  0.29460437433E+02  0.00000000000E+00 0.  1.
</event>
<event>
 5    1  0.1692178E-003  0.9118800E+02  0.7818608E-02  0.1130116E+00
         25   -1    0    0    0    0  0.00000000000E+00  0.00000000000E+00  0.99999998245E-14  0.12500000000E+03  0.12500000000E+03 0.  0.
        -11    1    3    3    0    0  0.68460249080E+01  0.57285572103E+02 -0.88237736272E+01  0.58364062655E+02  0.51100000000E-03 0.  1.
         23    2    1    0    0    0  0.49075334856E+01  0.20240787066E+02 -0.18976824167E+02  0.96823889526E+02  0.92633538103E+02 0.  0.
         11    1    3    3    0    0 -0.19384914224E+01 -0.37044785037E+02 -0.10153050540E+02  0.38459826871E+02  0.51100000000E-03 0. -1.
         22    1    1    0    0    0 -0.49075334856E+01 -0.20240787066E+02  0.18976824167E+02  0.28176110474E+02  0.00000000000E+00 0.  1.
</event>
<event>
 5    1  0.1692178E-003  0.9118800E+02  0.7818608E-02  0.1130116E+00
         25   -1    0    0    0    0  0.00000000000E+00  0.00000000000E+00  0.99999998245E-14  0.12500000000E+03  0.12500000000E+03 0.  0.
        -11    1    3    3    0    0 -0.22259922572E+02  0.37316844932E+01 -0.41475385957E+02  0.47219034961E+02  0.51100000000E-03 0. -1.
         23    2    1    0    0    0 -0.24123561881E+02  0.18676029497E+02  0.31620251080E+01  0.94328535764E+02  0.89202768685E+02 0.  0.
         11    1    3    3    0    0 -0.18636393090E+01  0.14944345004E+02  0.44637411065E+02  0.47109500803E+02  0.51100000000E-03 0.  1.
         22    1    1    0    0    0  0.24123561881E+02 -0.18676029497E+02 -0.31620251080E+01  0.30671464236E+02  0.00000000000E+00 0.  1.
</event>
<event>
 5    1  0.1692178E-003  0.9118800E+02  0.7818608E-02  0.1130116E+00
         25   -1    0    0    0    0  0.00000000000E+00  0.00000000000E+00  0.99999998245E-14  0.12500000000E+03  0.12500000000E+03 0.  0.
        -11    1    3    3    0    0 -0.29075555582E+02 -0.39617671107E+02 -0.34469193663E+02  0.60025603773E+02  0.51100000000E-03 0.  1.
         23    2    1    0    0    0 -0.27090402237E+01 -0.21109469613E+02 -0.21486360431E+02  0.94757442389E+02  0.89801785045E+02 0.  0.
         11    1    3    3    0    0  0.26366515358E+02  0.18508201494E+02  0.12982833231E+02  0.34731838616E+02  0.51100000000E-03 0. -1.
         22    1    1    0    0    0  0.27090402237E+01  0.21109469613E+02  0.21486360431E+02  0.30242557611E+02  0.00000000000E+00 0.  1.
</event>
<event>
 5    1  0.1692178E-003  0.9118800E+02  0.7818608E-02  0.1130116E+00
         25   -1    0    0    0    0  0.00000000000E+00  0.00000000000E+00  0.99999998245E-14  0.12500000000E+03  0.12500000000E+03 0.  0.
        -11    1    3    3    0    0  0.67740854794E+01  0.39541088352E+02 -0.12306398277E+01  0.40136023431E+02  0.51100000000E-03 0. -1.
         23    2    1    0    0    0 -0.20541757630E+02 -0.89987332030E+01 -0.15628910150E+02  0.97664970491E+02  0.93761626601E+02 0.  0.
         11    1    3    3    0    0 -0.27315843109E+02 -0.48539821555E+02 -0.14398270322E+02  0.57528947061E+02  0.51100000000E-03 0.  1.
         22    1    1    0    0    0  0.20541757630E+02  0.89987332030E+01  0.15628910150E+02  0.27335029509E+02  0.00000000000E+00 0.  1.
</event>
<event>
 5    1  0.1692178E-003  0.9118800E+02  0.7818608E-02  0.1130116E+00
         25   -1    0    0    0    0  0.00000000000E+00  0.00000000000E+00  0.99999998245E-14  0.12500000000E+03  0.12500000000E+03 0.  0.
        -11    1    3    3    0    0 -0.16573603016E+02  0.47634024585E+02  0.23656200485E+02  0.55707274541E+02  0.51100000000E-03 0.  1.
         23    2    1    0    0    0  0.93009802815E+01  0.29759621213E+02  0.22700491599E+01  0.93738259611E+02  0.88371742671E+02 0.  0.
         11    1    3    3    0    0  0.25874583297E+02 -0.17874403372E+02 -0.21386151325E+02  0.38030985071E+02  0.51100000000E-03 0. -1.
         22    1    1    0    0    0 -0.93009802815E+01 -0.29759621213E+02 -0.22700491599E+01  0.31261740389E+02  0.00000000000E+00 0.  1.
</event>
<event>
 5    1  0.1692178E-003  0.9118800E+02  0.7818608E-02  0.1130116E+00
         25   -1    0    0    0    0  0.00000000000E+00  0.00000000000E+00  0.99999998245E-14  0.12500000000E+03  0.12500000000E+03 0.  0.
        -11    1    3    3    0    0  0.17578525880E+02 -0.30631192687E+02  0.64948714879E+01  0.35909022452E+02  0.51100000000E-03 0.  1.
         23    2    1    0    0    0 -0.10462302376E+02  0.17280457891E+02 -0.19244306986E+02  0.97099868328E+02  0.93005199221E+02 0.  0.
         11    1    3    3    0    0 -0.28040828256E+02  0.47911650578E+02 -0.25739178473E+02  0.61190845877E+02  0.51100000000E-03 0. -1.
         22    1    1    0    0    0  0.10462302376E+02 -0.17280457891E+02  0.19244306986E+02  0.27900131672E+02  0.00000000000E+00 0. -1.
</event>
<event>
 5    1  0.1692178E-003  0.9118800E+02  0.7818608E-02  0.1130116E+00
         25   -1    0    0    0    0  0.00000000000E+00  0.00000000000E+00  0.99999998245E-14  0.12500000000E+03  0.12500000000E+03 0.  0.
        -11    1    3    3    0    0 -0.35106077407E+02 -0.43523339302E+02 -0.17165786243E+02  0.58492580320E+02  0.51100000000E-03 0.  1.
         23    2    1    0    0    0 -0.97540307160E+01 -0.27764315769E+02  0.42993358987E+01  0.95259747236E+02  0.90498269646E+02 0.  0.
         11    1    3    3    0    0  0.25352046691E+02  0.15759023533E+02  0.21465122141E+02  0.36767166915E+02  0.51100000000E-03 0. -1.
         22    1    1    0    0    0  0.97540307160E+01  0.27764315769E+02 -0.42993358987E+01  0.29740252764E+02  0.00000000000E+00 0.  1.
</event>
<event>
 5    1  0.1692178E-003  0.9118800E+02  0.7818608E-02  0.1130116E+00
         25   -1    0    0    0    0  0.00000000000E+00  0.00000000000E+00  0.99999998245E-14  0.12500000000E+03  0.12500000000E+03 0.  0.
        -11    1    3    3    0    0  0.34167227326E+02 -0.92545536137E+00 -0.17874454750E+02  0.38571388666E+02  0.51100000000E-03 0. -1.
         23    2    1    0    0    0 -0.15444287110E+02 -0.24333334431E+02 -0.12139926039E+02  0.93726769065E+02  0.88355488037E+02 0.  0.
         11    1    3    3    0    0 -0.49611514436E+02 -0.23407879070E+02  0.57345287109E+01  0.55155380399E+02  0.51100000000E-03 0.  1.
         22    1    1    0    0    0  0.15444287110E+02  0.24333334431E+02  0.12139926039E+02  0.31273230935E+02  0.00000000000E+00 0.  1.
</event>
<event>
 5    1  0.1692178E-003  0.9118800E+02  0.7818608E-02  0.1130116E+00
         25   -1    0    0    0    0  0.00000000000E+00  0.00000000000E+00  0.99999998245E-14  0.12500000000E+03  0.12500000000E+03 0.  0.
        -11    1    3    3    0    0 -0.47121792745E+02 -0.23823876148E+02 -0.79725441157E+01  0.53400392190E+02  0.51100000000E-03 0. -1.
         23    2    1    0    0    0 -0.60794168337E+01 -0.20781751090E+02 -0.19201502328E+02  0.96059748117E+02  0.91596599441E+02 0.  0.
         11    1    3    3    0    0  0.41042375911E+02  0.30421250576E+01 -0.11228958212E+02  0.42659355926E+02  0.51100000000E-03 0.  1.
         22    1    1    0    0    0  0.60794168337E+01  0.20781751090E+02  0.19201502328E+02  0.28940251883E+02  0.00000000000E+00 0. -1.
</event>
<event>
 5    1  0.1692178E-003  0.9118800E+02  0.7818608E-02  0.1130116E+00
         25   -1    0    0    0    0  0.00000000000E+00  0.00000000000E+00  0.99999998245E-14  0.12500000000E+03  0.12500000000E+03 0.  0.
        -11    1    3    3    0    0 -0.29711671166E+02  0.41211567472E+01  0.11088961124E+01  0.30016611855E+02  0.51100000000E-03 0.  1.
         23    2    1    0    0    0  0.32493498894E+02  0.30045111015E+01 -0.19749123940E+01  0.92308183956E+02  0.86325233790E+02 0.  0.
         11    1    3    3    0    0  0.62205170059E+02 -0.11166456457E+01 -0.30838085064E+01  0.62291572101E+02  0.51100000000E-03 0. -1.
         22    1    1    0    0    0 -0.32493498894E+02 -0.30045111015E+01  0.19749123940E+01  0.32691816044E+02  0.00000000000E+00 0. -1.
</event>
<event>
 5    1  0.1692178E-003  0.9118800E+02  0.7818608E-02  0.1130116E+00
         25   -1    0    0    0    0  0.00000000000E+00  0.00000000000E+00  0.99999998245E-14  0.12500000000E+03  0.12500000000E+03 0.  0.
        -11    1    3    3    0    0  0.34368251827E+01 -0.98096795179E+01  0.33351059445E+02  0.34933289939E+02  0.51100000000E-03 0. -1.
         23    2    1    0    0    0  0.14802759803E+02 -0.20805204820E+02 -0.21251286352E+02  0.91779593365E+02  0.85556404444E+02 0.  0.
         11    1    3    3    0    0  0.11365934620E+02 -0.10995525302E+02 -0.54602345797E+02  0.56846303426E+02  0.51100000000E-03 0.  1.
         22    1    1    0    0    0 -0.14802759803E+02  0.20805204820E+02  0.21251286352E+02  0.33220406635E+02  0.00000000000E+00 0.  1.
</event>
<event>
 5    1  0.1692178E-003  0.9118800E+02  0.7818608E-02  0.1130116E+00
         25   -1    0    0    0    0  0.00000000000E+00  0.00000000000E+00  0.99999998245E-14  0.12500000000E+03  0.12500000000E+03 0.  0.
        -11    1    3    3    0    0  0.27617029624E+02 -0.18964559184E+02 -0.46261792508E+02  0.57118370746E+02  0.51100000000E-03 0. -1.
         23    2    1    0    0    0  0.22827620182E+02 -0.16143849907E+02 -0.78092577830E+01  0.95970555635E+02  0.91474799310E+02 0.  0.
         11    1    3    3    0    0 -0.47894094417E+01  0.28207092772E+01  0.38452534725E+02  0.38852184889E+02  0.51100000000E-03 0.  1.
         22    1    1    0    0    0 -0.22827620182E+02  0.16143849907E+02  0.78092577830E+01  0.29029444365E+02  0.00000000000E+00 0. -1.
</event>
<event>
 5    1  0.1692178E-003  0.9118800E+02  0.7818608E-02  0.1130116E+00
         25   -1    0    0    0    0  0.00000000000E+00  0.00000000000E+00  0.99999998245E-14  0.12500000000E+03  0.12500000000E+03 0.  0.
        -11    1    3    3    0    0 -0.47069487190E+02  0.17601722733E+02 -0.14810762696E+02  0.52390036834E+02  0.51100000000E-03 0.  1.
         23    2    1    0    0    0 -0.19704622940E+02  0.12215132669E+02  0.18142473148E+02  0.95561403511E+02  0.90913975151E+02 0.  0.
         11    1    3    3    0    0  0.27364864250E+02 -0.53865900635E+01  0.32953235844E+02  0.43171366677E+02  0.51100000000E-03 0. -1.
         22    1    1    0    0    0  0.19704622940E+02 -0.12215132669E+02 -0.18142473148E+02  0.29438596489E+02  0.00000000000E+00 0.  1.
</event>
<event>
 5    1  0.1692178E-003  0.9118800E+02  0.7818608E-02  0.1130116E+00
         25   -1    0    0    0    0  0.00000000000E+00  0.00000000000E+00  0.99999998245E-14  0.12500000000E+03  0.12500000000E+03 0.  0.
        -11    1    3    3    0    0 -0.42014646545E+02  0.10404969218E+02  0.41962124098E+02  0.60285269907E+02  0.51100000000E-03 0. -1.
         23    2    1    0    0    0 -0.21678097383E+02  0.16002036165E+02  0.16278977703E+02  0.93519685792E+02  0.88062031819E+02 0.  0.
         11    1    3    3    0    0  0.20336549162E+02  0.55970669468E+01 -0.25683146395E+02  0.33234415885E+02  0.51100000000E-03 0.  1.
         22    1    1    0    0    0  0.21678097383E+02 -0.16002036165E+02 -0.16278977703E+02  0.31480314208E+02  0.00000000000E+00 0. -1.
</event>
<event>
 5    1  0.1692178E-003  0.9118800E+02  0.7818608E-02  0.1130116E+00
         25   -1    0    0    0    0  0.00000000000E+00  0.00000000000E+00  0.99999998245E-14  0.12500000000E+03  0.12500000000E+03 0.  0.
        -11    1    3    3    0    0 -0.49785596429E+02 -0.28838622509E+02 -0.11675190122E+02  0.58707595971E+02  0.51100000000E-03 0. -1.
         23    2    1    0    0    0 -0.27688165456E+02 -0.46299394544E+01  0.64969929291E+01  0.96185389769E+02  0.91767899846E+02 0.  0.
         11    1    3    3    0    0  0.22097430973E+02  0.24208683055E+02  0.18172183051E+02  0.37477793798E+02  0.51100000000E-03 0.  1.
         22    1    1    0    0    0  0.27688165456E+02  0.46299394544E+01 -0.64969929291E+01  0.28814610231E+02  0.00000000000E+00 0. -1.
</event>
<event>
 5    1  0.1692178E-003  0.9118800E+02  0.7818608E-02  0.1130116E+00
         25   -1    0    0    0    0  0.00000000000E+00  0.00000000000E+00  0.99999998245E-14  0.12500000000E+03  0.12500000000E+03 0.  0.
        -11    1    3    3    0    0  0.16004408782E+02  0.19696570484E+02  0.15898534381E+02  0.29947610673E+02  0.51100000000E-03 0. -1.
         23    2    1    0    0    0 -0.35051949553E+02  0.11479848305E+02  0.22053296861E+02  0.82025891667E+02  0.69867538362E+02 0.  0.
         11    1    3    3    0    0 -0.51056358335E+02 -0.82167221795E+01  0.61547624799E+01  0.52078280994E+02  0.51100000000E-03 0.  1.
         22    1    1    0    0    0  0.35051949553E+02 -0.11479848305E+02 -0.22053296861E+02  0.42974108333E+02  0.00000000000E+00 0. -1.
</event>
<event>
 5    1  0.1692178E-003  0.9118800E+02  0.7818608E-02  0.1130116E+00
         25   -1    0    0    0    0  0.00000000000E+00  0.00000000000E+00  0.99999998245E-14  0.12500000000E+03  0.12500000000E+03 0.  0.
        -11    1    3    3    0    0 -0.10693980792E+02  0.27124106757E+02 -0.31399198987E+02  0.42848431591E+02  0.51100000000E-03 0.  1.
         23    2    1    0    0    0  0.27890053773E+02  0.13129793026E+02 -0.59080387452E+00  0.94168269371E+02  0.88977903677E+02 0.  0.
         11    1    3    3    0    0  0.38584034564E+02 -0.13994313731E+02  0.30808395113E+02  0.51319837780E+02  0.51100000000E-03 0. -1.
         22    1    1    0    0    0 -0.27890053773E+02 -0.13129793026E+02  0.59080387452E+00  0.30831730629E+02  0.00000000000E+00 0. -1.
</event>
<event>
 5    1  0.1692178E-003  0.9118800E+02  0.7818608E-02  0.1130116E+00
         25   -1    0    0    0    0  0.00000000000E+00  0.00000000000E+00  0.99999998245E-14  0.12500000000E+03  0.12500000000E+03 0.  0.
        -11    1    3    3    0    0  0.10856288174E+01  0.20116196401E+02  0.48318931374E+02  0.52350349349E+02  0.51100000000E-03 0.  1.
         23    2    1    0    0    0 -0.21412853153E+02  0.10412770637E+02  0.40409777739E+02  0.78097055429E+02  0.62444085848E+02 0.  0.
         11    1    3    3    0    0 -0.22498481970E+02 -0.97034257644E+01 -0.79091536347E+01  0.25746706080E+02  0.51100000000E-03 0. -1.
         22    1    1    0    0    0  0.21412853153E+02 -0.10412770637E+02 -0.40409777739E+02  0.46902944571E+02  0.00000000000E+00 0.  1.
</event>
<event>
 5    1  0.1692178E-003  0.9118800E+02  0.7818608E-02  0.1130116E+00
         25   -1    0    0    0    0  0.00000000000E+00  0.00000000000E+00  0.99999998245E-14  0.12500000000E+03  0.12500000000E+03 0.  0.
        -11    1    3    3    0    0  0.20928995525E+02  0.26407852837E+02  0.26981902437E+02  0.43167355774E+02  0.51100000000E-03 0.  1.
         23    2    1    0    0    0 -0.78442249750E+00 -0.22406120800E+02  0.15305733232E+02  0.97853820936E+02  0.94013058849E+02 0.  0.
         11    1    3    3    0    0 -0.21713418023E+02 -0.48813973637E+02 -0.11676169204E+02  0.54686465163E+02  0.51100000000E-03 0. -1.
         22    1    1    0    0    0  0.78442249750E+00  0.22406120800E+02 -0.15305733232E+02  0.27146179064E+02  0.00000000000E+00 0. -1.
</event>
<event>
 5    1  0.1692178E-003  0.9118800E+02  0.7818608E-02  0.1130116E+00
         25   -1    0    0    0    0  0.00000000000E+00  0.00000000000E+00  0.99999998245E-14  0.12500000000E+03  0.12500000000E+03 0.  0.
        -11    1    3    3    0    0  0.44081551288E+02  0.14290377902E+02  0.16008584804E+02  0.49027266416E+02  0.51100000000E-03 0.  1.
         23    2    1    0    0    0 -0.60779589970E+01  0.22540407962E+02  0.67628872025E+01  0.10069468741E+03  0.97717305802E+02 0.  0.
         11    1    3    3    0    0 -0.50159510285E+02  0.82500300601E+01 -0.92456976013E+01  0.51667420997E+02  0.51100000000E-03 0. -1.
         22    1    1    0    0    0  0.60779589970E+01 -0.22540407962E+02 -0.67628872025E+01  0.24305312587E+02  0.00000000000E+00 0.  1.
</event>
<event>
 5    1  0.1692178E-003  0.9118800E+02  0.7818608E-02  0.1130116E+00
         25   -1    0    0    0    0  0.00000000000E+00  0.00000000000E+00  0.99999998245E-14  0.12500000000E+03  0.12500000000E+03 0.  0.
        -11    1    3    3    0    0 -0.24479622676E+02 -0.14523275381E+02 -0.20505607511E+02  0.35080726815E+02  0.51100000000E-03 0. -1.
         23    2    1    0    0    0  0.49514051561E+01  0.11151931779E+02  0.26279869127E+02  0.96025640356E+02  0.91550041447E+02 0.  0.
         11    1    3    3    0    0  0.29431027833E+02  0.25675207161E+02  0.46785476638E+02  0.60944913541E+02  0.51100000000E-03 0.  1.
         22    1    1    0    0    0 -0.49514051561E+01 -0.11151931779E+02 -0.26279869127E+02  0.28974359644E+02  0.00000000000E+00 0.  1.
</event>
<event>
 5    1  0.1692178E-003  0.9118800E+02  0.7818608E-02  0.1130116E+00
         25   -1    0    0    0    0  0.00000000000E+00  0.00000000000E+00  0.99999998245E-14  0.12500000000E+03  0.12500000000E+03 0.  0.
        -11    1    3    3    0    0 -0.14638313248E+02 -0.27278883499E+02 -0.40695441029E+02  0.51132539742E+02  0.51100000000E-03 0.  1.
         23    2    1    0    0    0  0.18602041321E+02 -0.19589638985E+02 -0.13296223868E+02  0.94890541918E+02  0.89986862816E+02 0.  0.
         11    1    3    3    0    0  0.33240354569E+02  0.76892445133E+01  0.27399217162E+02  0.43758002175E+02  0.51100000000E-03 0. -1.
         22    1    1    0    0    0 -0.18602041321E+02  0.19589638985E+02  0.13296223868E+02  0.30109458082E+02  0.00000000000E+00 0. -1.
</event>
<event>
 5    1  0.1692178E-003  0.9118800E+02  0.7818608E-02  0.1130116E+00
         25   -1    0    0    0    0  0.00000000000E+00  0.00000000000E+00  0.99999998245E-14  0.12500000000E+03  0.12500000000E+03 0.  0.
        -11    1    3    3    0    0  0.19502842955E+02 -0.28300302335E+02 -0.10314630059E+02  0.35883973987E+02  0.51100000000E-03 0. -1.
         23    2    1    0    0    0  0.13105038290E+00  0.17649771346E+02  0.23113272505E+02  0.95918133336E+02  0.91403136347E+02 0.  0.
         11    1    3    3    0    0 -0.19371792572E+02  0.45950073681E+02  0.33427902564E+02  0.60034159349E+02  0.51100000000E-03 0.  1.
         22    1    1    0    0    0 -0.13105038290E+00 -0.17649771346E+02 -0.23113272505E+02  0.29081866664E+02  0.00000000000E+00 0.  1.
</event>
<event>
 5    1  0.1692178E-003  0.9118800E+02  0.7818608E-02  0.1130116E+00
         25   -1    0    0    0    0  0.00000000000E+00  0.00000000000E+00  0.99999998245E-14  0.12500000000E+03  0.12500000000E+03 0.  0.
        -11    1    3    3    0    0 -0.41455943251E+02 -0.17237447202E+02  0.37996831083E+02  0.58817378295E+02  0.51100000000E-03 0.  1.
         23    2    1    0    0    0 -0.25609910745E+02 -0.14684199286E+02  0.56277895449E+01  0.94947292098E+02  0.90065659519E+02 0.  0.
         11    1    3    3    0    0  0.15846032506E+02  0.25532479156E+01 -0.32369041538E+02  0.36129913804E+02  0.51100000000E-03 0. -1.
         22    1    1    0    0    0  0.25609910745E+02  0.14684199286E+02 -0.56277895449E+01  0.30052707902E+02  0.00000000000E+00 0.  1.
</event>
<event>
 5    1  0.1692178E-003  0.9118800E+02  0.7818608E-02  0.1130116E+00
         25   -1    0    0    0    0  0.00000000000E+00  0.00000000000E+00  0.99999998245E-14  0.12500000000E+03  0.12500000000E+03 0.  0.
        -11    1    3    3    0    0 -0.24379821000E+02 -0.12567387093E+01 -0.36201764324E+02  0.43663747029E+02  0.51100000000E-03 0. -1.
         23    2    1    0    0    0 -0.16449612791E+02  0.23320407008E+02  0.84424132320E+01  0.95239195489E+02  0.90469878259E+02 0.  0.
         11    1    3    3    0    0  0.79302082097E+01  0.24577145717E+02  0.44644177556E+02  0.51575448459E+02  0.51100000000E-03 0.  1.
         22    1    1    0    0    0  0.16449612791E+02 -0.23320407008E+02 -0.84424132320E+01  0.29760804511E+02  0.00000000000E+00 0.  1.
</event>
<event>
 5    1  0.1692178E-003  0.9118800E+02  0.7818608E-02  0.1130116E+00
         25   -1    0    0    0    0  0.00000000000E+00  0.00000000000E+00  0.99999998245E-14  0.12500000000E+03  0.12500000000E+03 0.  0.
        -11    1    3    3    0    0 -0.34559644512E+02  0.40998913958E+02  0.21835244450E+02  0.57896959117E+02  0.51100000000E-03 0.  1.
         23    2    1    0    0    0 -0.12723822304E+02  0.26781977852E+02 -0.45763376258E+01  0.94998119096E+02  0.90136173504E+02 0.  0.
         11    1    3    3    0    0  0.21835822208E+02 -0.14216936106E+02 -0.26411582076E+02  0.37101159979E+02  0.51100000000E-03 0. -1.
         22    1    1    0    0    0  0.12723822304E+02 -0.26781977852E+02  0.45763376258E+01  0.30001880904E+02  0.00000000000E+00 0.  1.
</event>
<event>
 5    1  0.1692178E-003  0.9118800E+02  0.7818608E-02  0.1130116E+00
         25   -1    0    0    0    0  0.00000000000E+00  0.00000000000E+00  0.99999998245E-14  0.12500000000E+03  0.12500000000E+03 0.  0.
        -11    1    3    3    0    0 -0.26293948779E+02  0.23557208358E+02  0.19373298652E+02  0.40269572992E+02  0.51100000000E-03 0.  1.
         23    2    1    0    0    0  0.97873028204E+01 -0.18795753781E+02  0.19927729718E+02  0.95910722450E+02  0.91393000894E+02 0.  0.
         11    1    3    3    0    0  0.36081251600E+02 -0.42352962138E+02  0.55443106558E+00  0.55641149458E+02  0.51100000000E-03 0. -1.
         22    1    1    0    0    0 -0.97873028204E+01  0.18795753781E+02 -0.19927729718E+02  0.29089277550E+02  0.00000000000E+00 0. -1.
</event>
<event>
 5    1  0.1692178E-003  0.9118800E+02  0.7818608E-02  0.1130116E+00
         25   -1    0    0    0    0  0.00000000000E+00  0.00000000000E+00  0.99999998245E-14  0.12500000000E+03  0.12500000000E+03 0.  0.
        -11    1    3    3    0    0  0.98792256982E+01  0.49564112645E+01 -0.29516316094E+02  0.31517900137E+02  0.51100000000E-03 0.  1.
         23    2    1    0    0    0  0.21461320219E+02 -0.26517654221E+01  0.27398760485E+02  0.90095670734E+02  0.83059723594E+02 0.  0.
         11    1    3    3    0    0  0.11582094520E+02 -0.76081766866E+01  0.56915076579E+02  0.58577770598E+02  0.51100000000E-03 0. -1.
         22    1    1    0    0    0 -0.21461320219E+02  0.26517654221E+01 -0.27398760485E+02  0.34904329266E+02  0.00000000000E+00 0. -1.
</event>
<event>
 5    1  0.1692178E-003  0.9118800E+02  0.7818608E-02  0.1130116E+00
         25   -1    0    0    0    0  0.00000000000E+00  0.00000000000E+00  0.99999998245E-14  0.12500000000E+03  0.12500000000E+03 0.  0.
        -11    1    3    3    0    0 -0.95933232823E+01  0.46564530944E+02 -0.13404356554E+00  0.47542668852E+02  0.51100000000E-03 0.  1.
         23    2    1    0    0    0  0.60697406002E+01  0.12588147812E+02  0.27565983319E+02  0.94093905899E+02  0.88873373260E+02 0.  0.
         11    1    3    3    0    0  0.15663063883E+02 -0.33976383132E+02  0.27700026884E+02  0.46551237047E+02  0.51100000000E-03 0. -1.
         22    1    1    0    0    0 -0.60697406002E+01 -0.12588147812E+02 -0.27565983319E+02  0.30906094101E+02  0.00000000000E+00 0. -1.
</event>
<event>
 5    1  0.1692178E-003  0.9118800E+02  0.7818608E-02  0.1130116E+00
         25   -1    0    0    0    0  0.00000000000E+00  0.00000000000E+00  0.99999998245E-14  0.12500000000E+03  0.12500000000E+03 0.  0.
        -11    1    3    3    0    0  0.15951522592E+01  0.27120891619E+02  0.21875914924E+02  0.34880408928E+02  0.51100000000E-03 0.  1.
         23    2    1    0    0    0 -0.10997568433E+02 -0.27523110177E+02 -0.75586175603E+00  0.95351400839E+02  0.90624777018E+02 0.  0.
         11    1    3    3    0    0 -0.12592720692E+02 -0.54644001796E+02 -0.22631776680E+02  0.60470991911E+02  0.51100000000E-03 0. -1.
         22    1    1    0    0    0  0.10997568433E+02  0.27523110177E+02  0.75586175603E+00  0.29648599161E+02  0.00000000000E+00 0. -1.
</event>
<event>
 5    1  0.1692178E-003  0.9118800E+02  0.7818608E-02  0.1130116E+00
         25   -1    0    0    0    0  0.00000000000E+00  0.00000000000E+00  0.99999998245E-14  0.12500000000E+03  0.12500000000E+03 0.  0.
        -11    1    3    3    0    0 -0.86858004466E+01  0.68690752332E+01  0.49733163999E+02  0.50951103282E+02  0.51100000000E-03 0. -1.
         23    2    1    0    0    0  0.22828795054E+02  0.21106501946E+01  0.19050744035E+02  0.95191619028E+02  0.90404119138E+02 0.  0.
         11    1    3    3    0    0  0.31514595501E+02 -0.47584250386E+01 -0.30682419964E+02  0.44240515747E+02  0.51100000000E-03 0.  1.
         22    1    1    0    0    0 -0.22828795054E+02 -0.21106501946E+01 -0.19050744035E+02  0.29808380972E+02  0.00000000000E+00 0. -1.
</event>
<event>
 5    1  0.1692178E-003  0.9118800E+02  0.7818608E-02  0.1130116E+00
         25   -1    0    0    0    0  0.00000000000E+00  0.00000000000E+00  0.99999998245E-14  0.12500000000E+03  0.12500000000E+03 0.  0.
        -11    1    3    3    0    0  0.32711461710E+02 -0.48579506243E+01  0.20420482300E+02  0.38866894771E+02  0.51100000000E-03 0.  1.
         23    2    1    0    0    0 -0.18019827271E+02  0.30329856492E+01 -0.15097630570E+02  0.10129659042E+03  0.98484250545E+02 0.  0.
         11    1    3    3    0    0 -0.50731288981E+02  0.78909362735E+01 -0.35518112870E+02  0.62429695651E+02  0.51100000000E-03 0. -1.
         22    1    1    0    0    0  0.18019827271E+02 -0.30329856492E+01  0.15097630570E+02  0.23703409579E+02  0.00000000000E+00 0. -1.
</event>
<event>
 5    1  0.1692178E-003  0.9118800E+02  0.7818608E-02  0.1130116E+00
         25   -1    0    0    0    0  0.00000000000E+00  0.00000000000E+00  0.99999998245E-14  0.12500000000E+03  0.12500000000E+03 0.  0.
        -11    1    3    3    0    0  0.23667987247E+02 -0.11229233775E+02 -0.22053467192E+02  0.34243608556E+02  0.51100000000E-03 0. -1.
         23    2    1    0    0    0 -0.27536541238E+02  0.66610545876E+01  0.70597548563E+01  0.95802895860E+02  0.91245405172E+02 0.  0.
         11    1    3    3    0    0 -0.51204528485E+02  0.17890288362E+02  0.29113222049E+02  0.61559287304E+02  0.51100000000E-03 0.  1.
         22    1    1    0    0    0  0.27536541238E+02 -0.66610545876E+01 -0.70597548563E+01  0.29197104140E+02  0.00000000000E+00 0.  1.
</event>
<event>
 5    1  0.1692178E-003  0.9118800E+02  0.7818608E-02  0.1130116E+00
         25   -1    0    0    0    0  0.00000000000E+00  0.00000000000E+00  0.99999998245E-14  0.12500000000E+03  0.12500000000E+03 0.  0.
        -11    1    3    3    0    0  0.38618868013E+02 -0.17509091864E+02  0.36623875622E+02  0.56029398804E+02  0.51100000000E-03 0. -1.
         23    2    1    0    0    0  0.31819648019E+01 -0.22021103664E+02  0.18374420654E+02  0.96143921941E+02  0.91711397793E+02 0.  0.
         11    1    3    3    0    0 -0.35436903211E+02 -0.45120118000E+01 -0.18249454967E+02  0.40114523137E+02  0.51100000000E-03 0.  1.
         22    1    1    0    0    0 -0.31819648019E+01  0.22021103664E+02 -0.18374420654E+02  0.28856078059E+02  0.00000000000E+00 0. -1.
</event>
<event>
 5    1  0.1692178E-003  0.9118800E+02  0.7818608E-02  0.1130116E+00
         25   -1    0    0    0    0  0.00000000000E+00  0.00000000000E+00  0.99999998245E-14  0.12500000000E+03  0.12500000000E+03 0.  0.
        -11    1    3    3    0    0  0.18478418885E+02 -0.31416354172E+02 -0.24055980694E+01  0.36527060877E+02  0.51100000000E-03 0. -1.
         23    2    1    0    0    0 -0.20128543425E+02  0.14573442325E+02 -0.12115704708E+02  0.97353412829E+02  0.93345343791E+02 0.  0.
         11    1    3    3    0    0 -0.38606962311E+02  0.45989796497E+02 -0.97101066381E+01  0.60826351953E+02  0.51100000000E-03 0.  1.
         22    1    1    0    0    0  0.20128543425E+02 -0.14573442325E+02  0.12115704708E+02  0.27646587171E+02  0.00000000000E+00 0.  1.
</event>
<event>
 5    1  0.1692178E-003  0.9118800E+02  0.7818608E-02  0.1130116E+00
         25   -1    0    0    0    0  0.00000000000E+00  0.00000000000E+00  0.99999998245E-14  0.12500000000E+03  0.12500000000E+03 0.  0.
        -11    1    3    3    0    0  0.57644735388E+01  0.32139099355E+02 -0.18066260230E+01  0.32701907595E+02  0.51100000000E-03 0.  1.
         23    2    1    0    0    0 -0.10261072298E+02 -0.26114052321E+02  0.11683539425E+02  0.94606934560E+02  0.89592040049E+02 0.  0.
         11    1    3    3    0    0 -0.16025545836E+02 -0.58253151676E+02  0.13490165448E+02  0.61905026965E+02  0.51100000000E-03 0. -1.
         22    1    1    0    0    0  0.10261072298E+02  0.26114052321E+02 -0.11683539425E+02  0.30393065440E+02  0.00000000000E+00 0. -1.
</event>
<event>
 5    1  0.1692178E-003  0.9118800E+02  0.7818608E-02  0.1130116E+00
         25   -1    0    0    0    0  0.00000000000E+00  0.00000000000E+00  0.99999998245E-14  0.12500000000E+03  0.12500000000E+03 0.  0.
        -11    1    3    3    0    0  0.34841012202E+02 -0.21231650963E+02  0.38516415398E+02  0.56108763925E+02  0.51100000000E-03 0. -1.
         23    2    1    0    0    0  0.32189567872E+02 -0.19987382548E+01  0.88625386442E+01  0.91552910058E+02  0.85224571072E+02 0.  0.
         11    1    3    3    0    0 -0.26514443302E+01  0.19232912708E+02 -0.29653876754E+02  0.35444146133E+02  0.51100000000E-03 0.  1.
         22    1    1    0    0    0 -0.32189567872E+02  0.19987382548E+01 -0.88625386442E+01  0.33447089942E+02  0.00000000000E+00 0. -1.
</event>
<event>
 5    1  0.1692178E-003  0.9118800E+02  0.7818608E-02  0.1130116E+00
         25   -1    0    0    0    0  0.00000000000E+00  0.00000000000E+00  0.99999998245E-14  0.12500000000E+03  0.12500000000E+03 0.  0.
        -11    1    3    3    0    0 -0.73711248843E+01  0.18146754111E+02  0.26679707827E+02  0.33097507109E+02  0.51100000000E-03 0. -1.
         23    2    1    0    0    0  0.24827539695E+02 -0.18893024210E+02 -0.75092403967E+01  0.92910410062E+02  0.87192904043E+02 0.  0.
         11    1    3    3    0    0  0.32198664579E+02 -0.37039778320E+02 -0.34188948224E+02  0.59812902953E+02  0.51100000000E-03 0.  1.
         22    1    1    0    0    0 -0.24827539695E+02  0.18893024210E+02  0.75092403967E+01  0.32089589938E+02  0.00000000000E+00 0.  1.
</event>
<event>
 5    1  0.1692178E-003  0.9118800E+02  0.7818608E-02  0.1130116E+00
         25   -1    0    0    0    0  0.00000000000E+00  0.00000000000E+00  0.99999998245E-14  0.12500000000E+03  0.12500000000E+03 0.  0.
        -11    1    3    3    0    0 -0.32656532040E+02  0.12238191634E+02 -0.47402304022E+02  0.58848966398E+02  0.51100000000E-03 0. -1.
         23    2    1    0    0    0 -0.68429228010E+01 -0.52822748960E+01 -0.28250824230E+02  0.95456183553E+02  0.90769190193E+02 0.  0.
         11    1    3    3    0    0  0.25813609239E+02 -0.17520466530E+02  0.19151479791E+02  0.36607217155E+02  0.51100000000E-03 0.  1.
         22    1    1    0    0    0  0.68429228010E+01  0.52822748960E+01  0.28250824230E+02  0.29543816447E+02  0.00000000000E+00 0. -1.
</event>
<event>
 5    1  0.1692178E-003  0.9118800E+02  0.7818608E-02  0.1130116E+00
         25   -1    0    0    0    0  0.00000000000E+00  0.00000000000E+00  0.99999998245E-14  0.12500000000E+03  0.12500000000E+03 0.  0.
        -11    1    3    3    0    0 -0.49961158362E+02  0.29962549599E+02 -0.13926132803E+02  0.59898321333E+02  0.51100000000E-03 0.  1.
         23    2    1    0    0    0 -0.14248069906E+02  0.23088414571E+02 -0.77152044541E+01  0.96793497856E+02  0.92592518402E+02 0.  0.
         11    1    3    3    0    0  0.35713088456E+02 -0.68741350284E+01  0.62109283486E+01  0.36895176523E+02  0.51100000000E-03 0. -1.
         22    1    1    0    0    0  0.14248069906E+02 -0.23088414571E+02  0.77152044541E+01  0.28206502144E+02  0.00000000000E+00 0.  1.
</event>
<event>
 5    1  0.1692178E-003  0.9118800E+02  0.7818608E-02  0.1130116E+00
         25   -1    0    0    0    0  0.00000000000E+00  0.00000000000E+00  0.99999998245E-14  0.12500000000E+03  0.12500000000E+03 0.  0.
        -11    1    3    3    0    0 -0.39486842855E+02 -0.14584844871E+02  0.41304496369E+02  0.58974484984E+02  0.51100000000E-03 0.  1.
         23    2    1    0    0    0 -0.11543671445E+02 -0.19494603129E+02  0.22864747542E+02  0.92811607966E+02  0.87051145837E+02 0.  0.
         11    1    3    3    0    0  0.27943171410E+02 -0.49097582572E+01 -0.18439748828E+02  0.33837122981E+02  0.51100000000E-03 0. -1.
         22    1    1    0    0    0  0.11543671445E+02  0.19494603129E+02 -0.22864747542E+02  0.32188392034E+02  0.00000000000E+00 0.  1.
</event>
<event>
 5    1  0.1692178E-003  0.9118800E+02  0.7818608E-02  0.1130116E+00
         25   -1    0    0    0    0  0.00000000000E+00  0.00000000000E+00  0.99999998245E-14  0.12500000000E+03  0.12500000000E+03 0.  0.
        -11    1    3    3    0    0 -0.53007241839E+01  0.55916754911E+02 -0.26951170484E+02  0.62298850289E+02  0.51100000000E-03 0.  1.
         23    2    1    0    0    0  0.10950487927E+01  0.25832283937E+02 -0.12497588893E+02  0.96282483509E+02  0.91900059179E+02 0.  0.
         11    1    3    3    0    0  0.63957729767E+01 -0.30084470973E+02  0.14453581591E+02  0.33983633219E+02  0.51100000000E-03 0. -1.
         22    1    1    0    0    0 -0.10950487927E+01 -0.25832283937E+02  0.12497588893E+02  0.28717516491E+02  0.00000000000E+00 0.  1.
</event>
<event>
 5    1  0.1692178E-003  0.9118800E+02  0.7818608E-02  0.1130116E+00
         25   -1    0    0    0    0  0.00000000000E+00  0.00000000000E+00  0.99999998245E-14  0.12500000000E+03  0.12500000000E+03 0.  0.
        -11    1    3    3    0    0 -0.55763642814E+02  0.10715828273E+02 -0.11177990098E+01  0.56794914476E+02  0.51100000000E-03 0.  1.
         23    2    1    0    0    0 -0.21180816475E+02 -0.14255506630E+02  0.10508528165E+00  0.99468499872E+02  0.96135971250E+02 0.  0.
         11    1    3    3    0    0  0.34582826338E+02 -0.24971334903E+02  0.12228842915E+01  0.42673585397E+02  0.51100000000E-03 0. -1.
         22    1    1    0    0    0  0.21180816475E+02  0.14255506630E+02 -0.10508528165E+00  0.25531500128E+02  0.00000000000E+00 0.  1.
</event>
<event>
 5    1  0.1692178E-003  0.9118800E+02  0.7818608E-02  0.1130116E+00
         25   -1    0    0    0    0  0.00000000000E+00  0.00000000000E+00  0.99999998245E-14  0.12500000000E+03  0.12500000000E+03 0.  0.
        -11    1    3    3    0    0 -0.10911296126E+02 -0.78114885560E+01 -0.50753128297E+02  0.52497197723E+02  0.51100000000E-03 0. -1.
         23    2    1    0    0    0 -0.19994639584E+02  0.15107069441E+02 -0.15437044033E+02  0.95566830146E+02  0.90921436067E+02 0.  0.
         11    1    3    3    0    0 -0.90833434578E+01  0.22918557997E+02  0.35316084264E+02  0.43069632423E+02  0.51100000000E-03 0.  1.
         22    1    1    0    0    0  0.19994639584E+02 -0.15107069441E+02  0.15437044033E+02  0.29433169854E+02  0.00000000000E+00 0. -1.
</event>
<event>
 5    1  0.1692178E-003  0.9118800E+02  0.7818608E-02  0.1130116E+00
         25   -1    0    0    0    0  0.00000000000E+00  0.00000000000E+00  0.99999998245E-14  0.12500000000E+03  0.12500000000E+03 0.  0.
        -11    1    3    3    0    0  0.30285537659E+00  0.17219812817E+02 -0.30121691205E+02  0.34697693816E+02  0.51100000000E-03 0.  1.
         23    2    1    0    0    0  0.15759846748E+02 -0.40271920591E+01  0.24662250490E+02  0.95456512653E+02  0.90769643401E+02 0.  0.
         11    1    3    3    0    0  0.15456991372E+02 -0.21247004876E+02  0.54783941695E+02  0.60758818836E+02  0.51100000000E-03 0. -1.
         22    1    1    0    0    0 -0.15759846748E+02  0.40271920591E+01 -0.24662250490E+02  0.29543487347E+02  0.00000000000E+00 0. -1.
</event>
<event>
 5    1  0.1692178E-003  0.9118800E+02  0.7818608E-02  0.1130116E+00
         25   -1    0    0    0    0  0.00000000000E+00  0.00000000000E+00  0.99999998245E-14  0.12500000000E+03  0.12500000000E+03 0.  0.
        -11    1    3    3    0    0  0.16896090208E+02  0.33054492967E+02  0.32567623712E+02  0.49383473796E+02  0.51100000000E-03 0.  1.
         23    2    1    0    0    0 -0.17415164023E+02  0.24259226939E+02  0.40372603678E+01  0.94865343857E+02  0.89951853589E+02 0.  0.
         11    1    3    3    0    0 -0.34311254231E+02 -0.87952660281E+01 -0.28530363344E+02  0.45481870061E+02  0.51100000000E-03 0. -1.
         22    1    1    0    0    0  0.17415164023E+02 -0.24259226939E+02 -0.40372603678E+01  0.30134656143E+02  0.00000000000E+00 0.  1.
</event>
<event>
 5    1  0.1692178E-003  0.9118800E+02  0.7818608E-02  0.1130116E+00
         25   -1    0    0    0    0  0.00000000000E+00  0.00000000000E+00  0.99999998245E-14  0.12500000000E+03  0.12500000000E+03 0.  0.
        -11    1    3    3    0    0  0.15044066003E+02  0.43455996344E+02 -0.62732827687E+01  0.46412300279E+02  0.51100000000E-03 0.  1.
         23    2    1    0    0    0  0.16572436727E+02  0.43657869906E+01  0.23740813660E+02  0.95719767959E+02  0.91131454448E+02 0.  0.
         11    1    3    3    0    0  0.15283707234E+01 -0.39090209354E+02  0.30014096429E+02  0.49307467681E+02  0.51100000000E-03 0. -1.
         22    1    1    0    0    0 -0.16572436727E+02 -0.43657869906E+01 -0.23740813660E+02  0.29280232041E+02  0.00000000000E+00 0. -1.
</event>
<event>
 5    1  0.1692178E-003  0.9118800E+02  0.7818608E-02  0.1130116E+00
         25   -1    0    0    0    0  0.00000000000E+00  0.00000000000E+00  0.99999998245E-14  0.12500000000E+03  0.12500000000E+03 0.  0.
        -11    1    3    3    0    0  0.21231785592E+02 -0.10119397389E+02 -0.41831091162E+02  0.47989906345E+02  0.51100000000E-03 0.  1.
         23    2    1    0    0    0 -0.12749860639E+02  0.15987924211E+02 -0.21180683898E+02  0.95558633910E+02  0.90910167074E+02 0.  0.
         11    1    3    3    0    0 -0.33981646231E+02  0.26107321600E+02  0.20650407264E+02  0.47568727565E+02  0.51100000000E-03 0. -1.
         22    1    1    0    0    0  0.12749860639E+02 -0.15987924211E+02  0.21180683898E+02  0.29441366090E+02  0.00000000000E+00 0. -1.
</event>
<event>
 5    1  0.1692178E-003  0.9118800E+02  0.7818608E-02  0.1130116E+00
         25   -1    0    0    0    0  0.00000000000E+00  0.00000000000E+00  0.99999998245E-14  0.12500000000E+03  0.12500000000E+03 0.  0.
        -11    1    3    3    0    0 -0.49537451985E+02 -0.19866335624E+02 -0.11433847698E+02  0.54583544349E+02  0.51100000000E-03 0. -1.
         23    2    1    0    0    0 -0.11018924753E+02 -0.68283985701E+01 -0.24487791026E+02  0.97292678962E+02  0.93263978794E+02 0.  0.
         11    1    3    3    0    0  0.38518527232E+02  0.13037937054E+02 -0.13053943329E+02  0.42709134613E+02  0.51100000000E-03 0.  1.
         22    1    1    0    0    0  0.11018924753E+02  0.68283985701E+01  0.24487791026E+02  0.27707321038E+02  0.00000000000E+00 0. -1.
</event>
<event>
 5    1  0.1692178E-003  0.9118800E+02  0.7818608E-02  0.1130116E+00
         25   -1    0    0    0    0  0.00000000000E+00  0.00000000000E+00  0.99999998245E-14  0.12500000000E+03  0.12500000000E+03 0.  0.
        -11    1    3    3    0    0  0.91943998004E+01  0.30700974235E+02  0.11230883836E+02  0.33959086541E+02  0.51100000000E-03 0.  1.
         23    2    1    0    0    0 -0.55919427777E+01 -0.24317888379E+02 -0.14134943060E+02  0.96322027015E+02  0.91953829467E+02 0.  0.
         11    1    3    3    0    0 -0.14786342578E+02 -0.55018862614E+02 -0.25365826895E+02  0.62362940474E+02  0.51100000000E-03 0. -1.
         22    1    1    0    0    0  0.55919427777E+01  0.24317888379E+02  0.14134943060E+02  0.28677972985E+02  0.00000000000E+00 0. -1.
</event>
<event>
 5    1  0.1692178E-003  0.9118800E+02  0.7818608E-02  0.1130116E+00
         25   -1    0    0    0    0  0.00000000000E+00  0.00000000000E+00  0.99999998245E-14  0.12500000000E+03  0.12500000000E+03 0.  0.
        -11    1    3    3    0    0  0.66157128791E+01 -0.47341403082E+02 -0.38666935136E+02  0.61482582702E+02  0.51100000000E-03 0.  1.
         23    2    1    0    0    0  0.11026095171E+02 -0.21497521616E+02 -0.17796417190E+02  0.94992822940E+02  0.90128828545E+02 0.  0.
         11    1    3    3    0    0  0.44103822915E+01  0.25843881466E+02  0.20870517946E+02  0.33510240238E+02  0.51100000000E-03 0. -1.
         22    1    1    0    0    0 -0.11026095171E+02  0.21497521616E+02  0.17796417190E+02  0.30007177060E+02  0.00000000000E+00 0.  1.
</event>
<event>
 5    1  0.1692178E-003  0.9118800E+02  0.7818608E-02  0.1130116E+00
         25   -1    0    0    0    0  0.00000000000E+00  0.00000000000E+00  0.99999998245E-14  0.12500000000E+03  0.12500000000E+03 0.  0.
        -11    1    3    3    0    0  0.14954771639E+01  0.27302158083E+02 -0.30083797133E+02  0.40653156558E+02  0.51100000000E-03 0. -1.
         23    2    1    0    0    0  0.87756576185E+01 -0.24276442457E+02 -0.16060915600E+02  0.94597519264E+02  0.89578902740E+02 0.  0.
         11    1    3    3    0    0  0.72801804546E+01 -0.51578600539E+02  0.14022881533E+02  0.53944362706E+02  0.51100000000E-03 0.  1.
         22    1    1    0    0    0 -0.87756576185E+01  0.24276442457E+02  0.16060915600E+02  0.30402480736E+02  0.00000000000E+00 0.  1.
</event>
<event>
 5    1  0.1692178E-003  0.9118800E+02  0.7818608E-02  0.1130116E+00
         25   -1    0    0    0    0  0.00000000000E+00  0.00000000000E+00  0.99999998245E-14  0.12500000000E+03  0.12500000000E+03 0.  0.
        -11    1    3    3    0    0 -0.52260610425E+02  0.27709469816E+02 -0.12376286014E+02  0.60433091724E+02  0.51100000000E-03 0.  1.
         23    2    1    0    0    0 -0.26848360054E+02  0.89637585505E+01  0.46601061954E+01  0.96313766460E+02  0.91942599566E+02 0.  0.
         11    1    3    3    0    0  0.25412250371E+02 -0.18745711265E+02  0.17036392210E+02  0.35880674737E+02  0.51100000000E-03 0. -1.
         22    1    1    0    0    0  0.26848360054E+02 -0.89637585505E+01 -0.46601061954E+01  0.28686233540E+02  0.00000000000E+00 0.  1.
</event>
<event>
 5    1  0.1692178E-003  0.9118800E+02  0.7818608E-02  0.1130116E+00
         25   -1    0    0    0    0  0.00000000000E+00  0.00000000000E+00  0.99999998245E-14  0.12500000000E+03  0.12500000000E+03 0.  0.
        -11    1    3    3    0    0 -0.33063001202E+02  0.48653411004E+02  0.28122629212E+01  0.58891640101E+02  0.51100000000E-03 0. -1.
         23    2    1    0    0    0 -0.10984329689E+02  0.36426353067E+02  0.10949537339E+02  0.85409255318E+02  0.75679018424E+02 0.  0.
         11    1    3    3    0    0  0.22078671514E+02 -0.12227057936E+02  0.81372744182E+01  0.26517615217E+02  0.51100000000E-03 0.  1.
         22    1    1    0    0    0  0.10984329689E+02 -0.36426353067E+02 -0.10949537339E+02  0.39590744682E+02  0.00000000000E+00 0. -1.
</event>
<event>
 5    1  0.1692178E-003  0.9118800E+02  0.7818608E-02  0.1130116E+00
         25   -1    0    0    0    0  0.00000000000E+00  0.00000000000E+00  0.99999998245E-14  0.12500000000E+03  0.12500000000E+03 0.  0.
        -11    1    3    3    0    0 -0.32935417228E+02 -0.35002464836E+02  0.52220528494E+01  0.48344431828E+02  0.51100000000E-03 0. -1.
         23    2    1    0    0    0 -0.16216500155E+02  0.55151399009E+01  0.23571890354E+02  0.95861955105E+02  0.91326276484E+02 0.  0.
         11    1    3    3    0    0  0.16718917073E+02  0.40517604737E+02  0.18349837505E+02  0.47517523277E+02  0.51100000000E-03 0.  1.
         22    1    1    0    0    0  0.16216500155E+02 -0.55151399009E+01 -0.23571890354E+02  0.29138044895E+02  0.00000000000E+00 0.  1.
</event>
<event>
 5    1  0.1692178E-003  0.9118800E+02  0.7818608E-02  0.1130116E+00
         25   -1    0    0    0    0  0.00000000000E+00  0.00000000000E+00  0.99999998245E-14  0.12500000000E+03  0.12500000000E+03 0.  0.
        -11    1    3    3    0    0  0.30423017474E+02 -0.22751874775E+02  0.43381765031E+01  0.38236469157E+02  0.51100000000E-03 0.  1.
         23    2    1    0    0    0 -0.12710433270E+02 -0.18848480637E+01 -0.26729246120E+02  0.95342617036E+02  0.90612660589E+02 0.  0.
         11    1    3    3    0    0 -0.43133450744E+02  0.20867026711E+02 -0.31067422623E+02  0.57106147879E+02  0.51100000000E-03 0. -1.
         22    1    1    0    0    0  0.12710433270E+02  0.18848480637E+01  0.26729246120E+02  0.29657382964E+02  0.00000000000E+00 0. -1.
</event>
<event>
 5    1  0.1692178E-003  0.9118800E+02  0.7818608E-02  0.1130116E+00
         25   -1    0    0    0    0  0.00000000000E+00  0.00000000000E+00  0.99999998245E-14  0.12500000000E+03  0.12500000000E+03 0.  0.
        -11    1    3    3    0    0  0.20419674737E+02 -0.34918185074E+02  0.42372864271E-01  0.40450519910E+02  0.51100000000E-03 0.  1.
         23    2    1    0    0    0  0.42217694543E+01  0.72568696259E+01 -0.29432316287E+02  0.94393681435E+02  0.89294010767E+02 0.  0.
         11    1    3    3    0    0 -0.16197905283E+02  0.42175054700E+02 -0.29474689151E+02  0.53943161525E+02  0.51100000000E-03 0. -1.
         22    1    1    0    0    0 -0.42217694543E+01 -0.72568696259E+01  0.29432316287E+02  0.30606318565E+02  0.00000000000E+00 0.  1.
</event>
<event>
 5    1  0.1692178E-003  0.9118800E+02  0.7818608E-02  0.1130116E+00
         25   -1    0    0    0    0  0.00000000000E+00  0.00000000000E+00  0.99999998245E-14  0.12500000000E+03  0.12500000000E+03 0.  0.
        -11    1    3    3    0    0 -0.24466489214E+02 -0.99216619542E+01  0.26236790797E+02  0.37221199094E+02  0.51100000000E-03 0.  1.
         23    2    1    0    0    0  0.12027121801E+02  0.26906127490E+02 -0.43262526660E+00  0.95524950892E+02  0.90863841670E+02 0.  0.
         11    1    3    3    0    0  0.36493611015E+02  0.36827789444E+02 -0.26669416064E+02  0.58303751798E+02  0.51100000000E-03 0. -1.
         22    1    1    0    0    0 -0.12027121801E+02 -0.26906127490E+02  0.43262526660E+00  0.29475049108E+02  0.00000000000E+00 0. -1.
</event>
<event>
 5    1  0.1692178E-003  0.9118800E+02  0.7818608E-02  0.1130116E+00
         25   -1    0    0    0    0  0.00000000000E+00  0.00000000000E+00  0.99999998245E-14  0.12500000000E+03  0.12500000000E+03 0.  0.
        -11    1    3    3    0    0 -0.30198079537E+02 -0.18821489266E+02 -0.65530299946E+00  0.35589350769E+02  0.51100000000E-03 0.  1.
         23    2    1    0    0    0  0.59188505007E-01  0.30509710224E+02  0.62048217715E+01  0.93865682368E+02  0.88551796097E+02 0.  0.
         11    1    3    3    0    0  0.30257268042E+02  0.49331199490E+02  0.68601247710E+01  0.58276331599E+02  0.51100000000E-03 0. -1.
         22    1    1    0    0    0 -0.59188505007E-01 -0.30509710224E+02 -0.62048217715E+01  0.31134317632E+02  0.00000000000E+00 0. -1.
</event>
<event>
 5    1  0.1692178E-003  0.9118800E+02  0.7818608E-02  0.1130116E+00
         25   -1    0    0    0    0  0.00000000000E+00  0.00000000000E+00  0.99999998245E-14  0.12500000000E+03  0.12500000000E+03 0.  0.
        -11    1    3    3    0    0  0.18339529063E+02  0.30369797336E+02  0.21037361040E+02  0.41246011641E+02  0.51100000000E-03 0. -1.
         23    2    1    0    0    0  0.20779447960E+02 -0.20529365933E+02  0.17305255793E+01  0.95738505816E+02  0.91157152511E+02 0.  0.
         11    1    3    3    0    0  0.24399188965E+01 -0.50899163268E+02 -0.19306835461E+02  0.54492494175E+02  0.51100000000E-03 0.  1.
         22    1    1    0    0    0 -0.20779447960E+02  0.20529365933E+02 -0.17305255793E+01  0.29261494184E+02  0.00000000000E+00 0.  1.
</event>
<event>
 5    1  0.1692178E-003  0.9118800E+02  0.7818608E-02  0.1130116E+00
         25   -1    0    0    0    0  0.00000000000E+00  0.00000000000E+00  0.99999998245E-14  0.12500000000E+03  0.12500000000E+03 0.  0.
        -11    1    3    3    0    0  0.24974546275E+02  0.49224383575E+01 -0.25816057265E+02  0.36255029637E+02  0.51100000000E-03 0. -1.
         23    2    1    0    0    0  0.33669208937E+01 -0.36119008855E+02 -0.13383986802E+01  0.88699720827E+02  0.80931639096E+02 0.  0.
         11    1    3    3    0    0 -0.21607625381E+02 -0.41041447213E+02  0.24477658585E+02  0.52444691190E+02  0.51100000000E-03 0.  1.
         22    1    1    0    0    0 -0.33669208937E+01  0.36119008855E+02  0.13383986802E+01  0.36300279173E+02  0.00000000000E+00 0. -1.
</event>
<event>
 5    1  0.1692178E-003  0.9118800E+02  0.7818608E-02  0.1130116E+00
         25   -1    0    0    0    0  0.00000000000E+00  0.00000000000E+00  0.99999998245E-14  0.12500000000E+03  0.12500000000E+03 0.  0.
        -11    1    3    3    0    0 -0.46274961745E+02 -0.41139760637E+02  0.72404620826E+01  0.62340005464E+02  0.51100000000E-03 0.  1.
         23    2    1    0    0    0 -0.13087599664E+02 -0.15329780467E+02  0.34173832024E+01  0.10455578463E+03  0.10253753536E+03 0.  0.
         11    1    3    3    0    0  0.33187362081E+02  0.25809980171E+02 -0.38230788802E+01  0.42215779167E+02  0.51100000000E-03 0. -1.
         22    1    1    0    0    0  0.13087599664E+02  0.15329780467E+02 -0.34173832024E+01  0.20444215369E+02  0.00000000000E+00 0.  1.
</event>
<event>
 5    1  0.1692178E-003  0.9118800E+02  0.7818608E-02  0.1130116E+00
         25   -1    0    0    0    0  0.00000000000E+00  0.00000000000E+00  0.99999998245E-14  0.12500000000E+03  0.12500000000E+03 0.  0.
        -11    1    3    3    0    0  0.14132747275E+02  0.17846901246E+02  0.55857043204E+02  0.60317955083E+02  0.51100000000E-03 0. -1.
         23    2    1    0    0    0  0.26781808536E+01 -0.17070495149E+01  0.30536672286E+02  0.94298615259E+02  0.89160831168E+02 0.  0.
         11    1    3    3    0    0 -0.11454566421E+02 -0.19553950761E+02 -0.25320370918E+02  0.33980660175E+02  0.51100000000E-03 0.  1.
         22    1    1    0    0    0 -0.26781808536E+01  0.17070495149E+01 -0.30536672286E+02  0.30701384741E+02  0.00000000000E+00 0. -1.
</event>
<event>
 5    1  0.1692178E-003  0.9118800E+02  0.7818608E-02  0.1130116E+00
         25   -1    0    0    0    0  0.00000000000E+00  0.00000000000E+00  0.99999998245E-14  0.12500000000E+03  0.12500000000E+03 0.  0.
        -11    1    3    3    0    0 -0.43683996314E+02  0.14738209617E+01 -0.16870655913E+02  0.46851709824E+02  0.51100000000E-03 0.  1.
         23    2    1    0    0    0 -0.18592012583E+02 -0.77688593430E+01  0.22723315667E+02  0.94629501449E+02  0.89623520139E+02 0.  0.
         11    1    3    3    0    0  0.25091983732E+02 -0.92426803047E+01  0.39593971580E+02  0.47777791625E+02  0.51100000000E-03 0. -1.
         22    1    1    0    0    0  0.18592012583E+02  0.77688593430E+01 -0.22723315667E+02  0.30370498551E+02  0.00000000000E+00 0.  1.
</event>
<event>
 5    1  0.1692178E-003  0.9118800E+02  0.7818608E-02  0.1130116E+00
         25   -1    0    0    0    0  0.00000000000E+00  0.00000000000E+00  0.99999998245E-14  0.12500000000E+03  0.12500000000E+03 0.  0.
        -11    1    3    3    0    0  0.41033057900E+02  0.70467441463E+01  0.71052970565E+01  0.42235692136E+02  0.51100000000E-03 0.  1.
         23    2    1    0    0    0 -0.34376319411E+00  0.38808684075E+01 -0.28085369498E+02  0.96645683000E+02  0.92392752692E+02 0.  0.
         11    1    3    3    0    0 -0.41376821094E+02 -0.31658757388E+01 -0.35190666554E+02  0.54409990864E+02  0.51100000000E-03 0. -1.
         22    1    1    0    0    0  0.34376319411E+00 -0.38808684075E+01  0.28085369498E+02  0.28354317000E+02  0.00000000000E+00 0. -1.
</event>
<event>
 5    1  0.1692178E-003  0.9118800E+02  0.7818608E-02  0.1130116E+00
         25   -1    0    0    0    0  0.00000000000E+00  0.00000000000E+00  0.99999998245E-14  0.12500000000E+03  0.12500000000E+03 0.  0.
        -11    1    3    3    0    0 -0.26338197579E+02 -0.24000637438E+02  0.49877108486E+02  0.61298101115E+02  0.51100000000E-03 0. -1.
         23    2    1    0    0    0 -0.18054407503E+02 -0.47523958045E+01  0.23759584430E+02  0.94783038729E+02  0.89837406921E+02 0.  0.
         11    1    3    3    0    0  0.82837900758E+01  0.19248241633E+02 -0.26117524056E+02  0.33484937615E+02  0.51100000000E-03 0.  1.
         22    1    1    0    0    0  0.18054407503E+02  0.47523958045E+01 -0.23759584430E+02  0.30216961271E+02  0.00000000000E+00 0. -1.
</event>
<event>
 5    1  0.1692178E-003  0.9118800E+02  0.7818608E-02  0.1130116E+00
         25   -1    0    0    0    0  0.00000000000E+00  0.00000000000E+00  0.99999998245E-14  0.12500000000E+03  0.12500000000E+03 0.  0.
        -11    1    3    3    0    0 -0.44121022783E+02 -0.13544070668E+02 -0.24665464391E+02  0.52330599419E+02  0.51100000000E-03 0. -1.
         23    2    1    0    0    0 -0.31230294114E+02  0.26265041496E+01  0.94860274783E+01  0.92255313228E+02  0.86248642348E+02 0.  0.
         11    1    3    3    0    0  0.12890728669E+02  0.16170574818E+02  0.34151491870E+02  0.39924713809E+02  0.51100000000E-03 0.  1.
         22    1    1    0    0    0  0.31230294114E+02 -0.26265041496E+01 -0.94860274783E+01  0.32744686772E+02  0.00000000000E+00 0. -1.
</event>
<event>
 5    1  0.1692178E-003  0.9118800E+02  0.7818608E-02  0.1130116E+00
         25   -1    0    0    0    0  0.00000000000E+00  0.00000000000E+00  0.99999998245E-14  0.12500000000E+03  0.12500000000E+03 0.  0.
        -11    1    3    3    0    0  0.97796792053E+01 -0.49801635639E+02 -0.34675277344E+02  0.61467226200E+02  0.51100000000E-03 0. -1.
         23    2    1    0    0    0  0.12770043965E+02 -0.23834668450E+02 -0.19100720559E+02  0.91894064447E+02  0.85723486348E+02 0.  0.
         11    1    3    3    0    0  0.29903647595E+01  0.25966967188E+02  0.15574556785E+02  0.30426838246E+02  0.51100000000E-03 0.  1.
         22    1    1    0    0    0 -0.12770043965E+02  0.23834668450E+02  0.19100720559E+02  0.33105935553E+02  0.00000000000E+00 0. -1.
</event>
<event>
 5    1  0.1692178E-003  0.9118800E+02  0.7818608E-02  0.1130116E+00
         25   -1    0    0    0    0  0.00000000000E+00  0.00000000000E+00  0.99999998245E-14  0.12500000000E+03  0.12500000000E+03 0.  0.
        -11    1    3    3    0    0  0.11905413971E+02 -0.34611494549E+02  0.47761593887E+02  0.60173617870E+02  0.51100000000E-03 0.  1.
         23    2    1    0    0    0 -0.10469786851E+01 -0.23920028040E+02  0.15697421764E+02  0.96370068882E+02  0.92019113343E+02 0.  0.
         11    1    3    3    0    0 -0.12952392657E+02  0.10691466509E+02 -0.32064172123E+02  0.36196451012E+02  0.51100000000E-03 0. -1.
         22    1    1    0    0    0  0.10469786851E+01  0.23920028040E+02 -0.15697421764E+02  0.28629931118E+02  0.00000000000E+00 0.  1.
</event>
<event>
 5    1  0.1692178E-003  0.9118800E+02  0.7818608E-02  0.1130116E+00
         25   -1    0    0    0    0  0.00000000000E+00  0.00000000000E+00  0.99999998245E-14  0.12500000000E+03  0.12500000000E+03 0.  0.
        -11    1    3    3    0    0  0.12569805471E+02 -0.13341476177E+02 -0.31691661257E+02  0.36610878024E+02  0.51100000000E-03 0. -1.
         23    2    1    0    0    0 -0.24872788957E+01 -0.23987927117E+02  0.21364996212E+02  0.92780902141E+02  0.87007043021E+02 0.  0.
         11    1    3    3    0    0 -0.15057084367E+02 -0.10646450941E+02  0.53056657470E+02  0.56170024118E+02  0.51100000000E-03 0.  1.
         22    1    1    0    0    0  0.24872788957E+01  0.23987927117E+02 -0.21364996212E+02  0.32219097859E+02  0.00000000000E+00 0.  1.
</event>
<event>
 5    1  0.1692178E-003  0.9118800E+02  0.7818608E-02  0.1130116E+00
         25   -1    0    0    0    0  0.00000000000E+00  0.00000000000E+00  0.99999998245E-14  0.12500000000E+03  0.12500000000E+03 0.  0.
        -11    1    3    3    0    0  0.28014585651E+02 -0.22104957136E+02 -0.19054643633E+02  0.40453993417E+02  0.51100000000E-03 0. -1.
         23    2    1    0    0    0 -0.45094146154E+01 -0.21863444334E+02  0.22553944505E+02  0.93266335997E+02  0.87701676149E+02 0.  0.
         11    1    3    3    0    0 -0.32524000266E+02  0.24151280200E+00  0.41608588137E+02  0.52812342580E+02  0.51100000000E-03 0.  1.
         22    1    1    0    0    0  0.45094146154E+01  0.21863444334E+02 -0.22553944505E+02  0.31733664003E+02  0.00000000000E+00 0. -1.
</event>
<event>
 5    1  0.1692178E-003  0.9118800E+02  0.7818608E-02  0.1130116E+00
         25   -1    0    0    0    0  0.00000000000E+00  0.00000000000E+00  0.99999998245E-14  0.12500000000E+03  0.12500000000E+03 0.  0.
        -11    1    3    3    0    0 -0.11909747684E+02  0.22143546135E+02  0.48628423496E+02  0.54743970420E+02  0.51100000000E-03 0. -1.
         23    2    1    0    0    0  0.63782914448E+01 -0.76567665186E+01  0.27859921428E+02  0.95411422858E+02  0.90707528434E+02 0.  0.
         11    1    3    3    0    0  0.18288039129E+02 -0.29800312654E+02 -0.20768502068E+02  0.40667452439E+02  0.51100000000E-03 0.  1.
         22    1    1    0    0    0 -0.63782914448E+01  0.76567665186E+01 -0.27859921428E+02  0.29588577142E+02  0.00000000000E+00 0. -1.
</event>
<event>
 5    1  0.1692178E-003  0.9118800E+02  0.7818608E-02  0.1130116E+00
         25   -1    0    0    0    0  0.00000000000E+00  0.00000000000E+00  0.99999998245E-14  0.12500000000E+03  0.12500000000E+03 0.  0.
        -11    1    3    3    0    0  0.34449284019E+02 -0.19781398840E+02 -0.13483845194E+02  0.41950816332E+02  0.51100000000E-03 0. -1.
         23    2    1    0    0    0 -0.14353705557E+02 -0.24753016450E+02  0.76748234568E+01  0.95374949761E+02  0.90657252552E+02 0.  0.
         11    1    3    3    0    0 -0.48802989576E+02 -0.49716176100E+01  0.21158668651E+02  0.53424133428E+02  0.51100000000E-03 0.  1.
         22    1    1    0    0    0  0.14353705557E+02  0.24753016450E+02 -0.76748234568E+01  0.29625050239E+02  0.00000000000E+00 0.  1.
</event>
<event>
 5    1  0.1692178E-003  0.9118800E+02  0.7818608E-02  0.1130116E+00
         25   -1    0    0    0    0  0.00000000000E+00  0.00000000000E+00  0.99999998245E-14  0.12500000000E+03  0.12500000000E+03 0.  0.
        -11    1    3    3    0    0  0.75743732267E+01 -0.30342800629E+02 -0.23105680384E+02  0.38883533096E+02  0.51100000000E-03 0. -1.
         23    2    1    0    0    0 -0.31800729156E+02 -0.16351587120E+01  0.77102337910E+00  0.93147926348E+02  0.87532745798E+02 0.  0.
         11    1    3    3    0    0 -0.39375102383E+02  0.28707641917E+02  0.23876703763E+02  0.54264393252E+02  0.51100000000E-03 0.  1.
         22    1    1    0    0    0  0.31800729156E+02  0.16351587120E+01 -0.77102337910E+00  0.31852073652E+02  0.00000000000E+00 0.  1.
</event>
<event>
 5    1  0.1692178E-003  0.9118800E+02  0.7818608E-02  0.1130116E+00
         25   -1    0    0    0    0  0.00000000000E+00  0.00000000000E+00  0.99999998245E-14  0.12500000000E+03  0.12500000000E+03 0.  0.
        -11    1    3    3    0    0 -0.41077695833E+02 -0.25899043777E+02  0.56722361346E+01  0.48890815360E+02  0.51100000000E-03 0. -1.
         23    2    1    0    0    0  0.35242503614E+01 -0.28598017287E+02 -0.70216751681E+01  0.95342440162E+02  0.90612416591E+02 0.  0.
         11    1    3    3    0    0  0.44601946194E+02 -0.26989735102E+01 -0.12693911303E+02  0.46451624802E+02  0.51100000000E-03 0.  1.
         22    1    1    0    0    0 -0.35242503614E+01  0.28598017287E+02  0.70216751681E+01  0.29657559838E+02  0.00000000000E+00 0.  1.
</event>
<event>
 5    1  0.1692178E-003  0.9118800E+02  0.7818608E-02  0.1130116E+00
         25   -1    0    0    0    0  0.00000000000E+00  0.00000000000E+00  0.99999998245E-14  0.12500000000E+03  0.12500000000E+03 0.  0.
        -11    1    3    3    0    0 -0.12435840265E+02 -0.38122785973E+02 -0.14575717646E+02  0.42666713942E+02  0.51100000000E-03 0.  1.
         23    2    1    0    0    0 -0.14962883151E+01 -0.57178607137E+01  0.27489992011E+02  0.96881812458E+02  0.92711666550E+02 0.  0.
         11    1    3    3    0    0  0.10939551950E+02  0.32404925259E+02  0.42065709658E+02  0.54215098516E+02  0.51100000000E-03 0. -1.
         22    1    1    0    0    0  0.14962883151E+01  0.57178607137E+01 -0.27489992011E+02  0.28118187542E+02  0.00000000000E+00 0. -1.
</event>
<event>
 5    1  0.1692178E-003  0.9118800E+02  0.7818608E-02  0.1130116E+00
         25   -1    0    0    0    0  0.00000000000E+00  0.00000000000E+00  0.99999998245E-14  0.12500000000E+03  0.12500000000E+03 0.  0.
        -11    1    3    3    0    0  0.44996350409E+02  0.13723845432E+02  0.79580461116E+01  0.47711067707E+02  0.51100000000E-03 0.  1.
         23    2    1    0    0    0  0.16075525085E+02 -0.37423649968E+01 -0.25086816632E+02  0.94970411737E+02  0.90097741005E+02 0.  0.
         11    1    3    3    0    0 -0.28920825324E+02 -0.17466210429E+02 -0.33044862743E+02  0.47259344030E+02  0.51100000000E-03 0. -1.
         22    1    1    0    0    0 -0.16075525085E+02  0.37423649968E+01  0.25086816632E+02  0.30029588263E+02  0.00000000000E+00 0. -1.
</event>
<event>
 5    1  0.1692178E-003  0.9118800E+02  0.7818608E-02  0.1130116E+00
         25   -1    0    0    0    0  0.00000000000E+00  0.00000000000E+00  0.99999998245E-14  0.12500000000E+03  0.12500000000E+03 0.  0.
        -11    1    3    3    0    0  0.19837522592E+02 -0.10162129838E+02  0.55437943362E+02  0.59750830538E+02  0.51100000000E-03 0.  1.
         23    2    1    0    0    0  0.39691735225E+01 -0.16717899203E+02  0.25824435145E+02  0.93981554797E+02  0.88715211206E+02 0.  0.
         11    1    3    3    0    0 -0.15868349070E+02 -0.65557693642E+01 -0.29613508217E+02  0.34230724260E+02  0.51100000000E-03 0. -1.
         22    1    1    0    0    0 -0.39691735225E+01  0.16717899203E+02 -0.25824435145E+02  0.31018445203E+02  0.00000000000E+00 0.  1.
</event>
<event>
 5    1  0.1692178E-003  0.9118800E+02  0.7818608E-02  0.1130116E+00
         25   -1    0    0    0    0  0.00000000000E+00  0.00000000000E+00  0.99999998245E-14  0.12500000000E+03  0.12500000000E+03 0.  0.
        -11    1    3    3    0    0  0.52079069649E+02 -0.82193895440E+01  0.29844896456E+02  0.60584698602E+02  0.51100000000E-03 0. -1.
         23    2    1    0    0    0  0.28751292084E+02 -0.95814888429E+01  0.57426473211E+01  0.94154907631E+02  0.88959130548E+02 0.  0.
         11    1    3    3    0    0 -0.23327777565E+02 -0.13620992989E+01 -0.24102249135E+02  0.33570209029E+02  0.51100000000E-03 0.  1.
         22    1    1    0    0    0 -0.28751292084E+02  0.95814888429E+01 -0.57426473211E+01  0.30845092369E+02  0.00000000000E+00 0. -1.
</event>
<event>
 5    1  0.1692178E-003  0.9118800E+02  0.7818608E-02  0.1130116E+00
         25   -1    0    0    0    0  0.00000000000E+00  0.00000000000E+00  0.99999998245E-14  0.12500000000E+03  0.12500000000E+03 0.  0.
        -11    1    3    3    0    0  0.60573094243E+01  0.26982070309E+02 -0.23322463337E+02  0.36175411704E+02  0.51100000000E-03 0. -1.
         23    2    1    0    0    0  0.17508588035E+02 -0.11957467193E+02  0.20220203614E+02  0.95701735361E+02  0.91106716768E+02 0.  0.
         11    1    3    3    0    0  0.11451278611E+02 -0.38939537502E+02  0.43542666950E+02  0.59526323657E+02  0.51100000000E-03 0.  1.
         22    1    1    0    0    0 -0.17508588035E+02  0.11957467193E+02 -0.20220203614E+02  0.29298264639E+02  0.00000000000E+00 0.  1.
</event>
<event>
 5    1  0.1692178E-003  0.9118800E+02  0.7818608E-02  0.1130116E+00
         25   -1    0    0    0    0  0.00000000000E+00  0.00000000000E+00  0.99999998245E-14  0.12500000000E+03  0.12500000000E+03 0.  0.
        -11    1    3    3    0    0  0.99504042294E+01  0.11731895141E+02  0.33901022067E+02  0.37228043265E+02  0.51100000000E-03 0. -1.
         23    2    1    0    0    0  0.18572959882E+02  0.92837537047E+01 -0.22526856095E+02  0.94363385188E+02  0.89251589885E+02 0.  0.
         11    1    3    3    0    0  0.86225556528E+01 -0.24481414362E+01 -0.56427878162E+02  0.57135341922E+02  0.51100000000E-03 0.  1.
         22    1    1    0    0    0 -0.18572959882E+02 -0.92837537047E+01  0.22526856095E+02  0.30636614812E+02  0.00000000000E+00 0.  1.
</event>
<event>
 5    1  0.1692178E-003  0.9118800E+02  0.7818608E-02  0.1130116E+00
         25   -1    0    0    0    0  0.00000000000E+00  0.00000000000E+00  0.99999998245E-14  0.12500000000E+03  0.12500000000E+03 0.  0.
        -11    1    3    3    0    0 -0.66884807411E+01  0.45171951023E+02 -0.18885604248E+02  0.49415655231E+02  0.51100000000E-03 0.  1.
         23    2    1    0    0    0 -0.15786703044E+02 -0.69096205369E+00 -0.23802152211E+02  0.96430088005E+02  0.92100608039E+02 0.  0.
         11    1    3    3    0    0 -0.90982223029E+01 -0.45862913076E+02 -0.49165479632E+01  0.47014432774E+02  0.51100000000E-03 0. -1.
         22    1    1    0    0    0  0.15786703044E+02  0.69096205369E+00  0.23802152211E+02  0.28569911995E+02  0.00000000000E+00 0.  1.
</event>
<event>
 5    1  0.1692178E-003  0.9118800E+02  0.7818608E-02  0.1130116E+00
         25   -1    0    0    0    0  0.00000000000E+00  0.00000000000E+00  0.99999998245E-14  0.12500000000E+03  0.12500000000E+03 0.  0.
        -11    1    3    3    0    0 -0.29618892326E+02  0.87605976347E+00  0.18883399523E+02  0.35137288471E+02  0.51100000000E-03 0.  1.
         23    2    1    0    0    0  0.29045311740E+02 -0.20608735874E+01  0.61552984255E+01  0.95238195070E+02  0.90468495994E+02 0.  0.
         11    1    3    3    0    0  0.58664204065E+02 -0.29369333509E+01 -0.12728101098E+02  0.60100906598E+02  0.51100000000E-03 0. -1.
         22    1    1    0    0    0 -0.29045311740E+02  0.20608735874E+01 -0.61552984255E+01  0.29761804930E+02  0.00000000000E+00 0. -1.
</event>
<event>
 5    1  0.1692178E-003  0.9118800E+02  0.7818608E-02  0.1130116E+00
         25   -1    0    0    0    0  0.00000000000E+00  0.00000000000E+00  0.99999998245E-14  0.12500000000E+03  0.12500000000E+03 0.  0.
        -11    1    3    3    0    0 -0.24657571952E+02  0.17799760445E+02 -0.12786664845E+02  0.32989788187E+02  0.51100000000E-03 0. -1.
         23    2    1    0    0    0  0.25913938399E+02 -0.61017557025E+01  0.13902275167E+02  0.94966071172E+02  0.90091718782E+02 0.  0.
         11    1    3    3    0    0  0.50571510352E+02 -0.23901516148E+02  0.26688940012E+02  0.61976282985E+02  0.51100000000E-03 0.  1.
         22    1    1    0    0    0 -0.25913938399E+02  0.61017557025E+01 -0.13902275167E+02  0.30033928828E+02  0.00000000000E+00 0.  1.
</event>
<event>
 5    1  0.1692178E-003  0.9118800E+02  0.7818608E-02  0.1130116E+00
         25   -1    0    0    0    0  0.00000000000E+00  0.00000000000E+00  0.99999998245E-14  0.12500000000E+03  0.12500000000E+03 0.  0.
        -11    1    3    3    0    0 -0.12719876146E+02 -0.23139059685E+02  0.38774052014E+02  0.46910962921E+02  0.51100000000E-03 0.  1.
         23    2    1    0    0    0 -0.82294222697E+01  0.21094288664E+02  0.18428934690E+02  0.95805513552E+02  0.91248991162E+02 0.  0.
         11    1    3    3    0    0  0.44904538763E+01  0.44233348350E+02 -0.20345117324E+02  0.48894550631E+02  0.51100000000E-03 0. -1.
         22    1    1    0    0    0  0.82294222697E+01 -0.21094288664E+02 -0.18428934690E+02  0.29194486448E+02  0.00000000000E+00 0. -1.
</event>
<event>
 5    1  0.1692178E-003  0.9118800E+02  0.7818608E-02  0.1130116E+00
         25   -1    0    0    0    0  0.00000000000E+00  0.00000000000E+00  0.99999998245E-14  0.12500000000E+03  0.12500000000E+03 0.  0.
        -11    1    3    3    0    0 -0.42700481194E+02 -0.32023121182E+02 -0.30717751317E+02  0.61582397085E+02  0.51100000000E-03 0.  1.
         23    2    1    0    0    0 -0.13628696594E+02 -0.18601397035E+02 -0.16653496137E+02  0.96555452613E+02  0.92270597447E+02 0.  0.
         11    1    3    3    0    0  0.29071784600E+02  0.13421724147E+02  0.14064255180E+02  0.34973055528E+02  0.51100000000E-03 0. -1.
         22    1    1    0    0    0  0.13628696594E+02  0.18601397035E+02  0.16653496137E+02  0.28444547387E+02  0.00000000000E+00 0.  1.
</event>
<event>
 5    1  0.1692178E-003  0.9118800E+02  0.7818608E-02  0.1130116E+00
         25   -1    0    0    0    0  0.00000000000E+00  0.00000000000E+00  0.99999998245E-14  0.12500000000E+03  0.12500000000E+03 0.  0.
        -11    1    3    3    0    0  0.34453582823E+02 -0.40792199624E+02 -0.19826897907E+02  0.56957517506E+02  0.51100000000E-03 0. -1.
         23    2    1    0    0    0  0.27683438714E+02 -0.68164065928E+01 -0.80850024949E+00  0.96478256531E+02  0.92165959729E+02 0.  0.
         11    1    3    3    0    0 -0.67701441095E+01  0.33975793031E+02  0.19018397657E+02  0.39520739025E+02  0.51100000000E-03 0.  1.
         22    1    1    0    0    0 -0.27683438714E+02  0.68164065928E+01  0.80850024949E+00  0.28521743469E+02  0.00000000000E+00 0. -1.
</event>
<event>
 5    1  0.1692178E-003  0.9118800E+02  0.7818608E-02  0.1130116E+00
         25   -1    0    0    0    0  0.00000000000E+00  0.00000000000E+00  0.99999998245E-14  0.12500000000E+03  0.12500000000E+03 0.  0.
        -11    1    3    3    0    0  0.19524143566E+02 -0.22351752004E+02  0.51811188587E+02  0.59709230967E+02  0.51100000000E-03 0.  1.
         23    2    1    0    0    0  0.17175627828E+02 -0.10806963793E-01  0.20282867979E+02  0.98421869112E+02  0.94765327404E+02 0.  0.
         11    1    3    3    0    0 -0.23485157379E+01  0.22340945040E+02 -0.31528320609E+02  0.38712638145E+02  0.51100000000E-03 0. -1.
         22    1    1    0    0    0 -0.17175627828E+02  0.10806963793E-01 -0.20282867979E+02  0.26578130888E+02  0.00000000000E+00 0.  1.
</event>
<event>
 5    1  0.1692178E-003  0.9118800E+02  0.7818608E-02  0.1130116E+00
         25   -1    0    0    0    0  0.00000000000E+00  0.00000000000E+00  0.99999998245E-14  0.12500000000E+03  0.12500000000E+03 0.  0.
        -11    1    3    3    0    0  0.22211642157E+02 -0.14687976788E+02 -0.19863351293E+02  0.33221174486E+02  0.51100000000E-03 0. -1.
         23    2    1    0    0    0 -0.24339524177E+02  0.74319035908E+01  0.15013885232E+02  0.95452371027E+02  0.90763939738E+02 0.  0.
         11    1    3    3    0    0 -0.46551166334E+02  0.22119880378E+02  0.34877236525E+02  0.62231196541E+02  0.51100000000E-03 0.  1.
         22    1    1    0    0    0  0.24339524177E+02 -0.74319035908E+01 -0.15013885232E+02  0.29547628973E+02  0.00000000000E+00 0.  1.
</event>
<event>
 5    1  0.1692178E-003  0.9118800E+02  0.7818608E-02  0.1130116E+00
         25   -1    0    0    0    0  0.00000000000E+00  0.00000000000E+00  0.99999998245E-14  0.12500000000E+03  0.12500000000E+03 0.  0.
        -11    1    3    3    0    0 -0.10670391817E+02  0.31612314959E+02 -0.24482583680E+01  0.33454292518E+02  0.51100000000E-03 0.  1.
         23    2    1    0    0    0  0.18733535898E+02 -0.22516723038E+02 -0.57808409274E+01  0.95144241670E+02  0.90338587644E+02 0.  0.
         11    1    3    3    0    0  0.29403927716E+02 -0.54129037997E+02 -0.33325825594E+01  0.61689949152E+02  0.51100000000E-03 0. -1.
         22    1    1    0    0    0 -0.18733535898E+02  0.22516723038E+02  0.57808409274E+01  0.29855758330E+02  0.00000000000E+00 0. -1.
</event>
<event>
 5    1  0.1692178E-003  0.9118800E+02  0.7818608E-02  0.1130116E+00
         25   -1    0    0    0    0  0.00000000000E+00  0.00000000000E+00  0.99999998245E-14  0.12500000000E+03  0.12500000000E+03 0.  0.
        -11    1    3    3    0    0  0.13173931612E+01  0.22041244688E+02 -0.31205420583E+02  0.38227349714E+02  0.51100000000E-03 0.  1.
         23    2    1    0    0    0 -0.21433902025E+02 -0.19710750972E+02  0.13445013920E+01  0.95849810569E+02  0.91309652514E+02 0.  0.
         11    1    3    3    0    0 -0.22751295186E+02 -0.41751995660E+02  0.32549921975E+02  0.57622460855E+02  0.51100000000E-03 0. -1.
         22    1    1    0    0    0  0.21433902025E+02  0.19710750972E+02 -0.13445013920E+01  0.29150189431E+02  0.00000000000E+00 0. -1.
</event>
<event>
 5    1  0.1692178E-003  0.9118800E+02  0.7818608E-02  0.1130116E+00
         25   -1    0    0    0    0  0.00000000000E+00  0.00000000000E+00  0.99999998245E-14  0.12500000000E+03  0.12500000000E+03 0.  0.
        -11    1    3    3    0    0  0.28614425215E+02  0.26049500764E+01 -0.31737974504E+02  0.42812032435E+02  0.51100000000E-03 0. -1.
         23    2    1    0    0    0 -0.60525367380E+00  0.30838389814E+02 -0.35253811421E+00  0.94153656595E+02  0.88957372650E+02 0.  0.
         11    1    3    3    0    0 -0.29219678889E+02  0.28233439738E+02  0.31385436390E+02  0.51341624160E+02  0.51100000000E-03 0.  1.
         22    1    1    0    0    0  0.60525367380E+00 -0.30838389814E+02  0.35253811421E+00  0.30846343405E+02  0.00000000000E+00 0.  1.
</event>
<event>
 5    1  0.1692178E-003  0.9118800E+02  0.7818608E-02  0.1130116E+00
         25   -1    0    0    0    0  0.00000000000E+00  0.00000000000E+00  0.99999998245E-14  0.12500000000E+03  0.12500000000E+03 0.  0.
        -11    1    3    3    0    0 -0.49463958949E+02 -0.15732650853E+02 -0.39709468114E-01  0.51905694436E+02  0.51100000000E-03 0.  1.
         23    2    1    0    0    0 -0.21425959876E+02  0.44900181546E+01  0.22841364905E+02  0.93362048576E+02  0.87837988045E+02 0.  0.
         11    1    3    3    0    0  0.28037999073E+02  0.20222669008E+02  0.22881074373E+02  0.41456354139E+02  0.51100000000E-03 0. -1.
         22    1    1    0    0    0  0.21425959876E+02 -0.44900181546E+01 -0.22841364905E+02  0.31637951424E+02  0.00000000000E+00 0.  1.
</event>
<event>
 5    1  0.1692178E-003  0.9118800E+02  0.7818608E-02  0.1130116E+00
         25   -1    0    0    0    0  0.00000000000E+00  0.00000000000E+00  0.99999998245E-14  0.12500000000E+03  0.12500000000E+03 0.  0.
        -11    1    3    3    0    0 -0.42122986244E+02  0.15827942752E+01 -0.26272717603E+01  0.42234509172E+02  0.51100000000E-03 0.  1.
         23    2    1    0    0    0  0.43635233909E+01 -0.24184303807E+02 -0.14182626270E+02  0.96626283731E+02  0.92366503304E+02 0.  0.
         11    1    3    3    0    0  0.46486509635E+02 -0.25767098082E+02 -0.11555354510E+02  0.54391774559E+02  0.51100000000E-03 0. -1.
         22    1    1    0    0    0 -0.43635233909E+01  0.24184303807E+02  0.14182626270E+02  0.28373716269E+02  0.00000000000E+00 0. -1.
</event>
<event>
 5    1  0.1692178E-003  0.9118800E+02  0.7818608E-02  0.1130116E+00
         25   -1    0    0    0    0  0.00000000000E+00  0.00000000000E+00  0.99999998245E-14  0.12500000000E+03  0.12500000000E+03 0.  0.
        -11    1    3    3    0    0  0.10635490078E+02 -0.36549075137E+02 -0.86311338022E+00  0.38074840874E+02  0.51100000000E-03 0.  1.
         23    2    1    0    0    0 -0.12130215029E+01  0.14666082034E+02 -0.25055530911E+02  0.95942384601E+02  0.91436295585E+02 0.  0.
         11    1    3    3    0    0 -0.11848511581E+02  0.51215157172E+02 -0.24192417531E+02  0.57867543728E+02  0.51100000000E-03 0. -1.
         22    1    1    0    0    0  0.12130215029E+01 -0.14666082034E+02  0.25055530911E+02  0.29057615399E+02  0.00000000000E+00 0. -1.
</event>
<event>
 5    1  0.1692178E-003  0.9118800E+02  0.7818608E-02  0.1130116E+00
         25   -1    0    0    0    0  0.00000000000E+00  0.00000000000E+00  0.99999998245E-14  0.12500000000E+03  0.12500000000E+03 0.  0.
        -11    1    3    3    0    0 -0.10034701644E+02 -0.33439724640E+02  0.10213667015E+01  0.34927834335E+02  0.51100000000E-03 0. -1.
         23    2    1    0    0    0  0.16214344856E+01  0.19977241313E+02  0.23562392677E+02  0.94066109702E+02  0.88834269432E+02 0.  0.
         11    1    3    3    0    0  0.11656136130E+02  0.53416965953E+02  0.22541025976E+02  0.59138275368E+02  0.51100000000E-03 0.  1.
         22    1    1    0    0    0 -0.16214344856E+01 -0.19977241313E+02 -0.23562392677E+02  0.30933890298E+02  0.00000000000E+00 0.  1.
</event>
<event>
 5    1  0.1692178E-003  0.9118800E+02  0.7818608E-02  0.1130116E+00
         25   -1    0    0    0    0  0.00000000000E+00  0.00000000000E+00  0.99999998245E-14  0.12500000000E+03  0.12500000000E+03 0.  0.
        -11    1    3    3    0    0  0.72962075454E+00  0.40005607627E+02 -0.34896387624E+02  0.53091796518E+02  0.51100000000E-03 0. -1.
         23    2    1    0    0    0 -0.20000273596E+02  0.61233738641E+01 -0.21483168471E+02  0.95016118014E+02  0.90161130779E+02 0.  0.
         11    1    3    3    0    0 -0.20729894351E+02 -0.33882233763E+02  0.13413219152E+02  0.41924321496E+02  0.51100000000E-03 0.  1.
         22    1    1    0    0    0  0.20000273596E+02 -0.61233738641E+01  0.21483168471E+02  0.29983881986E+02  0.00000000000E+00 0. -1.
</event>
<event>
 5    1  0.1692178E-003  0.9118800E+02  0.7818608E-02  0.1130116E+00
         25   -1    0    0    0    0  0.00000000000E+00  0.00000000000E+00  0.99999998245E-14  0.12500000000E+03  0.12500000000E+03 0.  0.
        -11    1    3    3    0    0  0.26700401819E+02  0.69048209861E+01  0.35596295828E+02  0.45029815535E+02  0.51100000000E-03 0.  1.
         23    2    1    0    0    0  0.15143824228E+02 -0.23704186958E+02 -0.42115348851E+01  0.96557761732E+02  0.92273725583E+02 0.  0.
         11    1    3    3    0    0 -0.11556577591E+02 -0.30609007945E+02 -0.39807830713E+02  0.51527946197E+02  0.51100000000E-03 0. -1.
         22    1    1    0    0    0 -0.15143824228E+02  0.23704186958E+02  0.42115348851E+01  0.28442238268E+02  0.00000000000E+00 0. -1.
</event>
<event>
 5    1  0.1692178E-003  0.9118800E+02  0.7818608E-02  0.1130116E+00
         25   -1    0    0    0    0  0.00000000000E+00  0.00000000000E+00  0.99999998245E-14  0.12500000000E+03  0.12500000000E+03 0.  0.
        -11    1    3    3    0    0  0.10361530447E+02 -0.34214380994E+02 -0.18111339103E+02  0.40075001989E+02  0.51100000000E-03 0.  1.
         23    2    1    0    0    0 -0.13435864412E+01 -0.65545384990E+01  0.28610344295E+02  0.95617709413E+02  0.90991358673E+02 0.  0.
         11    1    3    3    0    0 -0.11705116888E+02  0.27659842495E+02  0.46721683398E+02  0.55542707424E+02  0.51100000000E-03 0. -1.
         22    1    1    0    0    0  0.13435864412E+01  0.65545384990E+01 -0.28610344295E+02  0.29382290587E+02  0.00000000000E+00 0. -1.
</event>
<event>
 5    1  0.1692178E-003  0.9118800E+02  0.7818608E-02  0.1130116E+00
         25   -1    0    0    0    0  0.00000000000E+00  0.00000000000E+00  0.99999998245E-14  0.12500000000E+03  0.12500000000E+03 0.  0.
        -11    1    3    3    0    0  0.15804069816E+02  0.26335153806E+02  0.21407385359E+02  0.37437749624E+02  0.51100000000E-03 0.  1.
         23    2    1    0    0    0 -0.27388141347E+02  0.69419940565E+01 -0.10856365879E+02  0.94731827805E+02  0.89766123628E+02 0.  0.
         11    1    3    3    0    0 -0.43192211164E+02 -0.19393159750E+02 -0.32263751238E+02  0.57294078180E+02  0.51100000000E-03 0. -1.
         22    1    1    0    0    0  0.27388141347E+02 -0.69419940565E+01  0.10856365879E+02  0.30268172195E+02  0.00000000000E+00 0. -1.
</event>
<event>
 5    1  0.1692178E-003  0.9118800E+02  0.7818608E-02  0.1130116E+00
         25   -1    0    0    0    0  0.00000000000E+00  0.00000000000E+00  0.99999998245E-14  0.12500000000E+03  0.12500000000E+03 0.  0.
        -11    1    3    3    0    0 -0.37789164992E+02 -0.25892379612E+02 -0.95400378390E+01  0.46791544482E+02  0.51100000000E-03 0.  1.
         23    2    1    0    0    0  0.12362938346E+02 -0.23274924751E+02 -0.94213205051E+01  0.97012044612E+02  0.92887088194E+02 0.  0.
         11    1    3    3    0    0  0.50152103339E+02  0.26174548610E+01  0.11871733387E+00  0.50220500130E+02  0.51100000000E-03 0. -1.
         22    1    1    0    0    0 -0.12362938346E+02  0.23274924751E+02  0.94213205051E+01  0.27987955388E+02  0.00000000000E+00 0.  1.
</event>
<event>
 5    1  0.1692178E-003  0.9118800E+02  0.7818608E-02  0.1130116E+00
         25   -1    0    0    0    0  0.00000000000E+00  0.00000000000E+00  0.99999998245E-14  0.12500000000E+03  0.12500000000E+03 0.  0.
        -11    1    3    3    0    0 -0.10900868635E+02 -0.33797596196E+02  0.30435954782E+02  0.46770223319E+02  0.51100000000E-03 0. -1.
         23    2    1    0    0    0 -0.12721683196E+02 -0.20783093246E+02 -0.16539699531E+02  0.95549365902E+02  0.90897422821E+02 0.  0.
         11    1    3    3    0    0 -0.18208145617E+01  0.13014502950E+02 -0.46975654313E+02  0.48779142582E+02  0.51100000000E-03 0.  1.
         22    1    1    0    0    0  0.12721683196E+02  0.20783093246E+02  0.16539699531E+02  0.29450634098E+02  0.00000000000E+00 0.  1.
</event>
<event>
 5    1  0.1692178E-003  0.9118800E+02  0.7818608E-02  0.1130116E+00
         25   -1    0    0    0    0  0.00000000000E+00  0.00000000000E+00  0.99999998245E-14  0.12500000000E+03  0.12500000000E+03 0.  0.
        -11    1    3    3    0    0  0.41694081963E+02  0.71070365323E+00 -0.66878597989E+00  0.41705501380E+02  0.51100000000E-03 0.  1.
         23    2    1    0    0    0 -0.20061286402E+01  0.88784578533E+00 -0.30374433537E+02  0.94546444626E+02  0.89507603903E+02 0.  0.
         11    1    3    3    0    0 -0.43700210603E+02  0.17714213210E+00 -0.29705647557E+02  0.52840943246E+02  0.51100000000E-03 0. -1.
         22    1    1    0    0    0  0.20061286402E+01 -0.88784578533E+00  0.30374433537E+02  0.30453555374E+02  0.00000000000E+00 0. -1.
</event>
<event>
 5    1  0.1692178E-003  0.9118800E+02  0.7818608E-02  0.1130116E+00
         25   -1    0    0    0    0  0.00000000000E+00  0.00000000000E+00  0.99999998245E-14  0.12500000000E+03  0.12500000000E+03 0.  0.
        -11    1    3    3    0    0  0.31785751404E+02  0.46242658951E+01 -0.22313084143E+02  0.39109992989E+02  0.51100000000E-03 0.  1.
         23    2    1    0    0    0 -0.62746875600E+01  0.16382041021E+01  0.24580071207E+02  0.99578841152E+02  0.96279334688E+02 0.  0.
         11    1    3    3    0    0 -0.38060438964E+02 -0.29860617930E+01  0.46893155350E+02  0.60468848163E+02  0.51100000000E-03 0. -1.
         22    1    1    0    0    0  0.62746875600E+01 -0.16382041021E+01 -0.24580071207E+02  0.25421158848E+02  0.00000000000E+00 0. -1.
</event>
<event>
 5    1  0.1692178E-003  0.9118800E+02  0.7818608E-02  0.1130116E+00
         25   -1    0    0    0    0  0.00000000000E+00  0.00000000000E+00  0.99999998245E-14  0.12500000000E+03  0.12500000000E+03 0.  0.
        -11    1    3    3    0    0  0.18121901146E+02  0.16312387906E+02 -0.57264509540E+02  0.62239226807E+02  0.51100000000E-03 0.  1.
         23    2    1    0    0    0  0.79202865736E+01  0.36728962686E+01 -0.27501989063E+02  0.96145528790E+02  0.91713587856E+02 0.  0.
         11    1    3    3    0    0 -0.10201614572E+02 -0.12639491637E+02  0.29762520477E+02  0.33906301983E+02  0.51100000000E-03 0. -1.
         22    1    1    0    0    0 -0.79202865736E+01 -0.36728962686E+01  0.27501989063E+02  0.28854471210E+02  0.00000000000E+00 0.  1.
</event>
<event>
 5    1  0.1692178E-003  0.9118800E+02  0.7818608E-02  0.1130116E+00
         25   -1    0    0    0    0  0.00000000000E+00  0.00000000000E+00  0.99999998245E-14  0.12500000000E+03  0.12500000000E+03 0.  0.
        -11    1    3    3    0    0 -0.33170033368E+02 -0.47752274021E+02  0.15849542232E+02  0.60263909407E+02  0.51100000000E-03 0. -1.
         23    2    1    0    0    0 -0.11933765497E+02 -0.26583895542E+02 -0.30395522915E+01  0.95702267336E+02  0.91107446644E+02 0.  0.
         11    1    3    3    0    0  0.21236267871E+02  0.21168378479E+02 -0.18889094523E+02  0.35438357929E+02  0.51100000000E-03 0.  1.
         22    1    1    0    0    0  0.11933765497E+02  0.26583895542E+02  0.30395522915E+01  0.29297732664E+02  0.00000000000E+00 0. -1.
</event>
<event>
 5    1  0.1692178E-003  0.9118800E+02  0.7818608E-02  0.1130116E+00
         25   -1    0    0    0    0  0.00000000000E+00  0.00000000000E+00  0.99999998245E-14  0.12500000000E+03  0.12500000000E+03 0.  0.
        -11    1    3    3    0    0 -0.26810634608E+02  0.34584169902E+02 -0.97109963115E+01  0.44823859556E+02  0.51100000000E-03 0.  1.
         23    2    1    0    0    0 -0.24613084095E+02 -0.10530516835E+02  0.12840314302E+02  0.95308766195E+02  0.90565951376E+02 0.  0.
         11    1    3    3    0    0  0.21975505135E+01 -0.45114686737E+02  0.22551310614E+02  0.50484906639E+02  0.51100000000E-03 0. -1.
         22    1    1    0    0    0  0.24613084095E+02  0.10530516835E+02 -0.12840314302E+02  0.29691233805E+02  0.00000000000E+00 0. -1.
</event>
<event>
 5    1  0.1692178E-003  0.9118800E+02  0.7818608E-02  0.1130116E+00
         25   -1    0    0    0    0  0.00000000000E+00  0.00000000000E+00  0.99999998245E-14  0.12500000000E+03  0.12500000000E+03 0.  0.
        -11    1    3    3    0    0 -0.13632728621E+02 -0.43604758741E+02 -0.63961271875E+01  0.46131732222E+02  0.51100000000E-03 0.  1.
         23    2    1    0    0    0  0.23402987967E+02 -0.15190863825E+02  0.96270080704E+01  0.95484894140E+02  0.90808719487E+02 0.  0.
         11    1    3    3    0    0  0.37035716589E+02  0.28413894916E+02  0.16023135258E+02  0.49353161918E+02  0.51100000000E-03 0. -1.
         22    1    1    0    0    0 -0.23402987967E+02  0.15190863825E+02 -0.96270080704E+01  0.29515105860E+02  0.00000000000E+00 0.  1.
</event>
<event>
 5    1  0.1692178E-003  0.9118800E+02  0.7818608E-02  0.1130116E+00
         25   -1    0    0    0    0  0.00000000000E+00  0.00000000000E+00  0.99999998245E-14  0.12500000000E+03  0.12500000000E+03 0.  0.
        -11    1    3    3    0    0  0.17970596267E+02  0.28708319589E+02 -0.30202177552E+02  0.45379306661E+02  0.51100000000E-03 0. -1.
         23    2    1    0    0    0  0.74365104182E+01  0.29914909727E+02  0.14222485597E+02  0.91051765765E+02  0.84486338784E+02 0.  0.
         11    1    3    3    0    0 -0.10534085849E+02  0.12065901374E+01  0.44424663149E+02  0.45672459104E+02  0.51100000000E-03 0.  1.
         22    1    1    0    0    0 -0.74365104182E+01 -0.29914909727E+02 -0.14222485597E+02  0.33948234235E+02  0.00000000000E+00 0. -1.
</event>
<event>
 5    1  0.1692178E-003  0.9118800E+02  0.7818608E-02  0.1130116E+00
         25   -1    0    0    0    0  0.00000000000E+00  0.00000000000E+00  0.99999998245E-14  0.12500000000E+03  0.12500000000E+03 0.  0.
        -11    1    3    3    0    0  0.39903356469E+02  0.25820425198E+02 -0.15763939676E+02  0.50074684315E+02  0.51100000000E-03 0.  1.
         23    2    1    0    0    0 -0.40974514961E+01  0.13054723128E+02 -0.24709540594E+02  0.96755065922E+02  0.92540620705E+02 0.  0.
         11    1    3    3    0    0 -0.44000807965E+02 -0.12765702070E+02 -0.89456009185E+01  0.46680381607E+02  0.51100000000E-03 0. -1.
         22    1    1    0    0    0  0.40974514961E+01 -0.13054723128E+02  0.24709540594E+02  0.28244934078E+02  0.00000000000E+00 0. -1.
</event>
<event>
 5    1  0.1692178E-003  0.9118800E+02  0.7818608E-02  0.1130116E+00
         25   -1    0    0    0    0  0.00000000000E+00  0.00000000000E+00  0.99999998245E-14  0.12500000000E+03  0.12500000000E+03 0.  0.
        -11    1    3    3    0    0  0.10103654113E+00 -0.31191600364E+02 -0.34223525133E+02  0.46305246079E+02  0.51100000000E-03 0. -1.
         23    2    1    0    0    0 -0.28627665981E+02 -0.41233528977E+01 -0.44732716916E+01  0.95733031276E+02  0.91149645195E+02 0.  0.
         11    1    3    3    0    0 -0.28728702522E+02  0.27068247466E+02  0.29750253441E+02  0.49427785198E+02  0.51100000000E-03 0.  1.
         22    1    1    0    0    0  0.28627665981E+02  0.41233528977E+01  0.44732716916E+01  0.29266968724E+02  0.00000000000E+00 0.  1.
</event>
<event>
 5    1  0.1692178E-003  0.9118800E+02  0.7818608E-02  0.1130116E+00
         25   -1    0    0    0    0  0.00000000000E+00  0.00000000000E+00  0.99999998245E-14  0.12500000000E+03  0.12500000000E+03 0.  0.
        -11    1    3    3    0    0  0.43651177949E+02 -0.41158624619E+02 -0.14616919526E+02  0.61750401242E+02  0.51100000000E-03 0. -1.
         23    2    1    0    0    0  0.16442142996E+02 -0.22422816539E+02 -0.19667649927E+01  0.97125371170E+02  0.93039469004E+02 0.  0.
         11    1    3    3    0    0 -0.27209034953E+02  0.18735808079E+02  0.12650154534E+02  0.35374969929E+02  0.51100000000E-03 0.  1.
         22    1    1    0    0    0 -0.16442142996E+02  0.22422816539E+02  0.19667649927E+01  0.27874628830E+02  0.00000000000E+00 0. -1.
</event>
<event>
 5    1  0.1692178E-003  0.9118800E+02  0.7818608E-02  0.1130116E+00
         25   -1    0    0    0    0  0.00000000000E+00  0.00000000000E+00  0.99999998245E-14  0.12500000000E+03  0.12500000000E+03 0.  0.
        -11    1    3    3    0    0 -0.14247873897E+02  0.36456546929E+02  0.42016412599E+01  0.39366680253E+02  0.51100000000E-03 0. -1.
         23    2    1    0    0    0 -0.17073236840E+02 -0.15596002362E+02 -0.17669166843E+02  0.95897935420E+02  0.91375510149E+02 0.  0.
         11    1    3    3    0    0 -0.28253629429E+01 -0.52052549291E+02 -0.21870808103E+02  0.56531255167E+02  0.51100000000E-03 0.  1.
         22    1    1    0    0    0  0.17073236840E+02  0.15596002362E+02  0.17669166843E+02  0.29102064580E+02  0.00000000000E+00 0.  1.
</event>
<event>
 5    1  0.1692178E-003  0.9118800E+02  0.7818608E-02  0.1130116E+00
         25   -1    0    0    0    0  0.00000000000E+00  0.00000000000E+00  0.99999998245E-14  0.12500000000E+03  0.12500000000E+03 0.  0.
        -11    1    3    3    0    0  0.20342636197E+02  0.11804852396E+02  0.32612689345E+02  0.40209015085E+02  0.51100000000E-03 0. -1.
         23    2    1    0    0    0 -0.10280408199E+02  0.30884969218E+02 -0.46977872000E+01  0.92111744940E+02  0.86040317496E+02 0.  0.
         11    1    3    3    0    0 -0.30623044396E+02  0.19080116822E+02 -0.37310476545E+02  0.51902729854E+02  0.51100000000E-03 0.  1.
         22    1    1    0    0    0  0.10280408199E+02 -0.30884969218E+02  0.46977872000E+01  0.32888255060E+02  0.00000000000E+00 0.  1.
</event>
<event>
 5    1  0.1692178E-003  0.9118800E+02  0.7818608E-02  0.1130116E+00
         25   -1    0    0    0    0  0.00000000000E+00  0.00000000000E+00  0.99999998245E-14  0.12500000000E+03  0.12500000000E+03 0.  0.
        -11    1    3    3    0    0  0.17347141556E+02 -0.68510653457E+01 -0.53754102427E+02  0.56897837784E+02  0.51100000000E-03 0. -1.
         23    2    1    0    0    0  0.55511940365E+01 -0.21646410100E+02 -0.23588886948E+02  0.92506640480E+02  0.86612124556E+02 0.  0.
         11    1    3    3    0    0 -0.11795947519E+02 -0.14795344754E+02  0.30165215479E+02  0.35608802696E+02  0.51100000000E-03 0.  1.
         22    1    1    0    0    0 -0.55511940365E+01  0.21646410100E+02  0.23588886948E+02  0.32493359520E+02  0.00000000000E+00 0. -1.
</event>
<event>
 5    1  0.1692178E-003  0.9118800E+02  0.7818608E-02  0.1130116E+00
         25   -1    0    0    0    0  0.00000000000E+00  0.00000000000E+00  0.99999998245E-14  0.12500000000E+03  0.12500000000E+03 0.  0.
        -11    1    3    3    0    0  0.32773738242E+02 -0.17521265896E+02  0.24568475121E+02  0.44550226116E+02  0.51100000000E-03 0.  1.
         23    2    1    0    0    0  0.29111968811E+01  0.24464528232E+02  0.12060193285E+02  0.97569424524E+02  0.93634161132E+02 0.  0.
         11    1    3    3    0    0 -0.29862541361E+02  0.41985794128E+02 -0.12508281836E+02  0.53019198408E+02  0.51100000000E-03 0. -1.
         22    1    1    0    0    0 -0.29111968811E+01 -0.24464528232E+02 -0.12060193285E+02  0.27430575476E+02  0.00000000000E+00 0. -1.
</event>
<event>
 5    1  0.1692178E-003  0.9118800E+02  0.7818608E-02  0.1130116E+00
         25   -1    0    0    0    0  0.00000000000E+00  0.00000000000E+00  0.99999998245E-14  0.12500000000E+03  0.12500000000E+03 0.  0.
        -11    1    3    3    0    0 -0.41013607495E+02 -0.25020130285E+02 -0.36582282800E+02  0.60385315552E+02  0.51100000000E-03 0.  1.
         23    2    1    0    0    0 -0.11634268704E+02 -0.10810131283E+02 -0.25703238797E+02  0.94786234407E+02  0.89841853286E+02 0.  0.
         11    1    3    3    0    0  0.29379338790E+02  0.14209999002E+02  0.10879044003E+02  0.34400918855E+02  0.51100000000E-03 0. -1.
         22    1    1    0    0    0  0.11634268704E+02  0.10810131283E+02  0.25703238797E+02  0.30213765593E+02  0.00000000000E+00 0.  1.
</event>
<event>
 5    1  0.1692178E-003  0.9118800E+02  0.7818608E-02  0.1130116E+00
         25   -1    0    0    0    0  0.00000000000E+00  0.00000000000E+00  0.99999998245E-14  0.12500000000E+03  0.12500000000E+03 0.  0.
        -11    1    3    3    0    0 -0.37749789080E+01 -0.30125954936E+02 -0.38669912389E+02  0.49164883311E+02  0.51100000000E-03 0.  1.
         23    2    1    0    0    0 -0.24930137137E+02 -0.15377305829E+02  0.76253343245E-01  0.95708719953E+02  0.91116299245E+02 0.  0.
         11    1    3    3    0    0 -0.21155158229E+02  0.14748649106E+02  0.38746165732E+02  0.46543836642E+02  0.51100000000E-03 0. -1.
         22    1    1    0    0    0  0.24930137137E+02  0.15377305829E+02 -0.76253343245E-01  0.29291280047E+02  0.00000000000E+00 0. -1.
</event>
<event>
 5    1  0.1692178E-003  0.9118800E+02  0.7818608E-02  0.1130116E+00
         25   -1    0    0    0    0  0.00000000000E+00  0.00000000000E+00  0.99999998245E-14  0.12500000000E+03  0.12500000000E+03 0.  0.
        -11    1    3    3    0    0  0.40944658933E+02  0.15712736682E+02 -0.21356448160E+02  0.48779637837E+02  0.51100000000E-03 0. -1.
         23    2    1    0    0    0 -0.22808551737E+01  0.25579426500E+02 -0.18767228410E+02  0.93192481666E+02  0.87596349333E+02 0.  0.
         11    1    3    3    0    0 -0.43225514107E+02  0.98666898182E+01  0.25892197508E+01  0.44412843829E+02  0.51100000000E-03 0.  1.
         22    1    1    0    0    0  0.22808551737E+01 -0.25579426500E+02  0.18767228410E+02  0.31807518334E+02  0.00000000000E+00 0. -1.
</event>
<event>
 5    1  0.1692178E-003  0.9118800E+02  0.7818608E-02  0.1130116E+00
         25   -1    0    0    0    0  0.00000000000E+00  0.00000000000E+00  0.99999998245E-14  0.12500000000E+03  0.12500000000E+03 0.  0.
        -11    1    3    3    0    0 -0.14195717239E+02  0.30352345760E+02  0.19598176460E+02  0.38818446670E+02  0.51100000000E-03 0. -1.
         23    2    1    0    0    0  0.26368176867E+02  0.64395726920E+01 -0.11787984159E+02  0.95407679741E+02  0.90702370065E+02 0.  0.
         11    1    3    3    0    0  0.40563894106E+02 -0.23912773068E+02 -0.31386160619E+02  0.56589233071E+02  0.51100000000E-03 0.  1.
         22    1    1    0    0    0 -0.26368176867E+02 -0.64395726920E+01  0.11787984159E+02  0.29592320259E+02  0.00000000000E+00 0.  1.
</event>
<event>
 5    1  0.1692178E-003  0.9118800E+02  0.7818608E-02  0.1130116E+00
         25   -1    0    0    0    0  0.00000000000E+00  0.00000000000E+00  0.99999998245E-14  0.12500000000E+03  0.12500000000E+03 0.  0.
        -11    1    3    3    0    0 -0.18651882545E+02 -0.11003005389E+02  0.24463791710E+02  0.32671638391E+02  0.51100000000E-03 0. -1.
         23    2    1    0    0    0  0.10289673378E+02  0.69143344366E+01 -0.27524789430E+02  0.94812263548E+02  0.89878061211E+02 0.  0.
         11    1    3    3    0    0  0.28941555923E+02  0.17917339826E+02 -0.51988581140E+02  0.62140625157E+02  0.51100000000E-03 0.  1.
         22    1    1    0    0    0 -0.10289673378E+02 -0.69143344366E+01  0.27524789430E+02  0.30187736452E+02  0.00000000000E+00 0.  1.
</event>
<event>
 5    1  0.1692178E-003  0.9118800E+02  0.7818608E-02  0.1130116E+00
         25   -1    0    0    0    0  0.00000000000E+00  0.00000000000E+00  0.99999998245E-14  0.12500000000E+03  0.12500000000E+03 0.  0.
        -11    1    3    3    0    0 -0.17629070414E+02  0.57321652898E+02 -0.16082352664E+02  0.62090241440E+02  0.51100000000E-03 0.  1.
         23    2    1    0    0    0 -0.15778770715E+02  0.38820650602E+02 -0.81247883953E+01  0.82314818673E+02  0.70382559404E+02 0.  0.
         11    1    3    3    0    0  0.18502996990E+01 -0.18501002295E+02  0.79575642685E+01  0.20224577233E+02  0.51100000000E-03 0. -1.
         22    1    1    0    0    0  0.15778770715E+02 -0.38820650602E+02  0.81247883953E+01  0.42685181327E+02  0.00000000000E+00 0.  1.
</event>
<event>
 5    1  0.1692178E-003  0.9118800E+02  0.7818608E-02  0.1130116E+00
         25   -1    0    0    0    0  0.00000000000E+00  0.00000000000E+00  0.99999998245E-14  0.12500000000E+03  0.12500000000E+03 0.  0.
        -11    1    3    3    0    0 -0.19932756381E+02 -0.65520088708E+01  0.29388678545E+02  0.36110082028E+02  0.51100000000E-03 0.  1.
         23    2    1    0    0    0  0.20097873861E+02 -0.24347193779E+02 -0.65306151851E+01  0.92760903962E+02  0.86978307586E+02 0.  0.
         11    1    3    3    0    0  0.40030630242E+02 -0.17795184908E+02 -0.35919293730E+02  0.56650821934E+02  0.51100000000E-03 0. -1.
         22    1    1    0    0    0 -0.20097873861E+02  0.24347193779E+02  0.65306151851E+01  0.32239096038E+02  0.00000000000E+00 0. -1.
</event>
<event>
 5    1  0.1692178E-003  0.9118800E+02  0.7818608E-02  0.1130116E+00
         25   -1    0    0    0    0  0.00000000000E+00  0.00000000000E+00  0.99999998245E-14  0.12500000000E+03  0.12500000000E+03 0.  0.
        -11    1    3    3    0    0 -0.21630200367E+02  0.40985991018E+02 -0.40774396373E+01  0.46522495010E+02  0.51100000000E-03 0. -1.
         23    2    1    0    0    0  0.91746320022E+01  0.43644741614E+02  0.79491915800E+01  0.79698487997E+02  0.65571502952E+02 0.  0.
         11    1    3    3    0    0  0.30804832369E+02  0.26587505960E+01  0.12026631217E+02  0.33175992988E+02  0.51100000000E-03 0.  1.
         22    1    1    0    0    0 -0.91746320022E+01 -0.43644741614E+02 -0.79491915800E+01  0.45301512003E+02  0.00000000000E+00 0. -1.
</event>
<event>
 5    1  0.1692178E-003  0.9118800E+02  0.7818608E-02  0.1130116E+00
         25   -1    0    0    0    0  0.00000000000E+00  0.00000000000E+00  0.99999998245E-14  0.12500000000E+03  0.12500000000E+03 0.  0.
        -11    1    3    3    0    0 -0.44973159456E+02 -0.13130360707E+01  0.24937355088E+01  0.45061378721E+02  0.51100000000E-03 0. -1.
         23    2    1    0    0    0 -0.19789570272E+01 -0.14529063999E+02  0.25501143496E+02  0.95583707045E+02  0.90944635693E+02 0.  0.
         11    1    3    3    0    0  0.42994202429E+02 -0.13216027928E+02  0.23007407988E+02  0.50522328324E+02  0.51100000000E-03 0.  1.
         22    1    1    0    0    0  0.19789570272E+01  0.14529063999E+02 -0.25501143496E+02  0.29416292955E+02  0.00000000000E+00 0.  1.
</event>
<event>
 5    1  0.1692178E-003  0.9118800E+02  0.7818608E-02  0.1130116E+00
         25   -1    0    0    0    0  0.00000000000E+00  0.00000000000E+00  0.99999998245E-14  0.12500000000E+03  0.12500000000E+03 0.  0.
        -11    1    3    3    0    0 -0.17277465504E+02 -0.30659501949E+02  0.37849489274E+01  0.35395504131E+02  0.51100000000E-03 0.  1.
         23    2    1    0    0    0  0.22520180720E+01  0.25198597337E+02  0.14950810796E+02  0.95613478658E+02  0.90985546459E+02 0.  0.
         11    1    3    3    0    0  0.19529483576E+02  0.55858099286E+02  0.11165861869E+02  0.60217974527E+02  0.51100000000E-03 0. -1.
         22    1    1    0    0    0 -0.22520180720E+01 -0.25198597337E+02 -0.14950810796E+02  0.29386521342E+02  0.00000000000E+00 0. -1.
</event>
<event>
 5    1  0.1692178E-003  0.9118800E+02  0.7818608E-02  0.1130116E+00
         25   -1    0    0    0    0  0.00000000000E+00  0.00000000000E+00  0.99999998245E-14  0.12500000000E+03  0.12500000000E+03 0.  0.
        -11    1    3    3    0    0 -0.28524068234E+02 -0.32692505264E+02  0.36682608054E+02  0.56815808566E+02  0.51100000000E-03 0.  1.
         23    2    1    0    0    0 -0.15208532648E+01 -0.28829894980E+02  0.11554782258E+02  0.93903555955E+02  0.88605242445E+02 0.  0.
         11    1    3    3    0    0  0.27003214969E+02  0.38626102837E+01 -0.25127825796E+02  0.37087747389E+02  0.51100000000E-03 0. -1.
         22    1    1    0    0    0  0.15208532648E+01  0.28829894980E+02 -0.11554782258E+02  0.31096444045E+02  0.00000000000E+00 0.  1.
</event>
<event>
 5    1  0.1692178E-003  0.9118800E+02  0.7818608E-02  0.1130116E+00
         25   -1    0    0    0    0  0.00000000000E+00  0.00000000000E+00  0.99999998245E-14  0.12500000000E+03  0.12500000000E+03 0.  0.
        -11    1    3    3    0    0 -0.86019035275E+01  0.17724805769E+02  0.54734473357E+02  0.58172365069E+02  0.51100000000E-03 0.  1.
         23    2    1    0    0    0  0.11202567920E+02  0.12961798047E+02  0.18174921509E+02  0.10002334073E+03  0.96854711716E+02 0.  0.
         11    1    3    3    0    0  0.19804471448E+02 -0.47630077218E+01 -0.36559551848E+02  0.41850975657E+02  0.51100000000E-03 0. -1.
         22    1    1    0    0    0 -0.11202567920E+02 -0.12961798047E+02 -0.18174921509E+02  0.24976659274E+02  0.00000000000E+00 0.  1.
</event>
<event>
 5    1  0.1692178E-003  0.9118800E+02  0.7818608E-02  0.1130116E+00
         25   -1    0    0    0    0  0.00000000000E+00  0.00000000000E+00  0.99999998245E-14  0.12500000000E+03  0.12500000000E+03 0.  0.
        -11    1    3    3    0    0  0.34117426214E+02  0.26397929020E+02 -0.67656062149E-01  0.43137617060E+02  0.51100000000E-03 0.  1.
         23    2    1    0    0    0 -0.15963089893E+02  0.21923607362E+02  0.12760742985E+02  0.95028324034E+02  0.90178051700E+02 0.  0.
         11    1    3    3    0    0 -0.50080516107E+02 -0.44743216574E+01  0.12828399047E+02  0.51890706974E+02  0.51100000000E-03 0. -1.
         22    1    1    0    0    0  0.15963089893E+02 -0.21923607362E+02 -0.12760742985E+02  0.29971675966E+02  0.00000000000E+00 0.  1.
</event>
<event>
 5    1  0.1692178E-003  0.9118800E+02  0.7818608E-02  0.1130116E+00
         25   -1    0    0    0    0  0.00000000000E+00  0.00000000000E+00  0.99999998245E-14  0.12500000000E+03  0.12500000000E+03 0.  0.
        -11    1    3    3    0    0  0.38646314813E+02  0.24588225347E+02 -0.38221793681E+02  0.59657555991E+02  0.51100000000E-03 0. -1.
         23    2    1    0    0    0  0.63661945985E+01  0.17284062925E+02 -0.21338649375E+02  0.96811257176E+02  0.92616490400E+02 0.  0.
         11    1    3    3    0    0 -0.32280120215E+02 -0.73041624227E+01  0.16883144306E+02  0.37153701184E+02  0.51100000000E-03 0.  1.
         22    1    1    0    0    0 -0.63661945985E+01 -0.17284062925E+02  0.21338649375E+02  0.28188742824E+02  0.00000000000E+00 0. -1.
</event>
<event>
 5    1  0.1692178E-003  0.9118800E+02  0.7818608E-02  0.1130116E+00
         25   -1    0    0    0    0  0.00000000000E+00  0.00000000000E+00  0.99999998245E-14  0.12500000000E+03  0.12500000000E+03 0.  0.
        -11    1    3    3    0    0 -0.23612745445E+01 -0.52552521063E+02 -0.12079760631E+02  0.53974657986E+02  0.51100000000E-03 0.  1.
         23    2    1    0    0    0  0.21421179810E+02 -0.18483519886E+02 -0.26279024309E+01  0.96584980679E+02  0.92310590778E+02 0.  0.
         11    1    3    3    0    0  0.23782454354E+02  0.34069001177E+02  0.94518581999E+01  0.42610322693E+02  0.51100000000E-03 0. -1.
         22    1    1    0    0    0 -0.21421179810E+02  0.18483519886E+02  0.26279024309E+01  0.28415019321E+02  0.00000000000E+00 0.  1.
</event>
<event>
 5    1  0.1692178E-003  0.9118800E+02  0.7818608E-02  0.1130116E+00
         25   -1    0    0    0    0  0.00000000000E+00  0.00000000000E+00  0.99999998245E-14  0.12500000000E+03  0.12500000000E+03 0.  0.
        -11    1    3    3    0    0 -0.13341246160E+02  0.35076753442E+02  0.45790790478E+02  0.59204425291E+02  0.51100000000E-03 0. -1.
         23    2    1    0    0    0  0.51961533223E+01  0.95417500040E+01  0.26918068604E+02  0.95971954598E+02  0.91476710968E+02 0.  0.
         11    1    3    3    0    0  0.18537399482E+02 -0.25535003438E+02 -0.18872721874E+02  0.36767529307E+02  0.51100000000E-03 0.  1.
         22    1    1    0    0    0 -0.51961533223E+01 -0.95417500040E+01 -0.26918068604E+02  0.29028045402E+02  0.00000000000E+00 0. -1.
</event>
<event>
 5    1  0.1692178E-003  0.9118800E+02  0.7818608E-02  0.1130116E+00
         25   -1    0    0    0    0  0.00000000000E+00  0.00000000000E+00  0.99999998245E-14  0.12500000000E+03  0.12500000000E+03 0.  0.
        -11    1    3    3    0    0  0.48590428076E+02  0.27061896613E+02  0.67495122569E+00  0.55622221354E+02  0.51100000000E-03 0.  1.
         23    2    1    0    0    0  0.20511983149E+02  0.12170616781E+01  0.18139463625E+02  0.97590825761E+02  0.93662727060E+02 0.  0.
         11    1    3    3    0    0 -0.28078444927E+02 -0.25844834935E+02  0.17464512399E+02  0.41968604408E+02  0.51100000000E-03 0. -1.
         22    1    1    0    0    0 -0.20511983149E+02 -0.12170616781E+01 -0.18139463625E+02  0.27409174239E+02  0.00000000000E+00 0.  1.
</event>
<event>
 5    1  0.1692178E-003  0.9118800E+02  0.7818608E-02  0.1130116E+00
         25   -1    0    0    0    0  0.00000000000E+00  0.00000000000E+00  0.99999998245E-14  0.12500000000E+03  0.12500000000E+03 0.  0.
        -11    1    3    3    0    0 -0.22352415607E+02 -0.31096135765E+02  0.80599619639E+01  0.39135190431E+02  0.51100000000E-03 0. -1.
         23    2    1    0    0    0 -0.11593528276E+02  0.24962617255E+02  0.84173788695E+01  0.96218158065E+02  0.91812523744E+02 0.  0.
         11    1    3    3    0    0  0.10758887331E+02  0.56058753020E+02  0.35741690553E+00  0.57082967634E+02  0.51100000000E-03 0.  1.
         22    1    1    0    0    0  0.11593528276E+02 -0.24962617255E+02 -0.84173788695E+01  0.28781841935E+02  0.00000000000E+00 0.  1.
</event>
<event>
 5    1  0.1692178E-003  0.9118800E+02  0.7818608E-02  0.1130116E+00
         25   -1    0    0    0    0  0.00000000000E+00  0.00000000000E+00  0.99999998245E-14  0.12500000000E+03  0.12500000000E+03 0.  0.
        -11    1    3    3    0    0  0.60776129449E-02 -0.41187814099E+02 -0.36184952098E+02  0.54825056551E+02  0.51100000000E-03 0. -1.
         23    2    1    0    0    0  0.20202382349E+02 -0.10183675425E+02 -0.18188132571E+02  0.95971536999E+02  0.91476140331E+02 0.  0.
         11    1    3    3    0    0  0.20196304737E+02  0.31004138674E+02  0.17996819526E+02  0.41146480448E+02  0.51100000000E-03 0.  1.
         22    1    1    0    0    0 -0.20202382349E+02  0.10183675425E+02  0.18188132571E+02  0.29028463001E+02  0.00000000000E+00 0. -1.
</event>
<event>
 5    1  0.1692178E-003  0.9118800E+02  0.7818608E-02  0.1130116E+00
         25   -1    0    0    0    0  0.00000000000E+00  0.00000000000E+00  0.99999998245E-14  0.12500000000E+03  0.12500000000E+03 0.  0.
        -11    1    3    3    0    0  0.70440510006E+01 -0.32984386294E+02  0.23555580920E+01  0.33810309786E+02  0.51100000000E-03 0. -1.
         23    2    1    0    0    0 -0.18896934754E+01  0.23891679358E+02 -0.18160896582E+02  0.94930057389E+02  0.90041736696E+02 0.  0.
         11    1    3    3    0    0 -0.89337444760E+01  0.56876065651E+02 -0.20516454674E+02  0.61119747603E+02  0.51100000000E-03 0.  1.
         22    1    1    0    0    0  0.18896934754E+01 -0.23891679358E+02  0.18160896582E+02  0.30069942611E+02  0.00000000000E+00 0.  1.
</event>
<event>
 5    1  0.1692178E-003  0.9118800E+02  0.7818608E-02  0.1130116E+00
         25   -1    0    0    0    0  0.00000000000E+00  0.00000000000E+00  0.99999998245E-14  0.12500000000E+03  0.12500000000E+03 0.  0.
        -11    1    3    3    0    0 -0.13071682744E+02 -0.39637894813E+02  0.35881164561E+02  0.55040799100E+02  0.51100000000E-03 0.  1.
         23    2    1    0    0    0 -0.27725048712E+01 -0.29499731739E+02 -0.17167733252E+01  0.95320575029E+02  0.90582248577E+02 0.  0.
         11    1    3    3    0    0  0.10299177872E+02  0.10138163074E+02 -0.37597937887E+02  0.40279775930E+02  0.51100000000E-03 0. -1.
         22    1    1    0    0    0  0.27725048712E+01  0.29499731739E+02  0.17167733252E+01  0.29679424971E+02  0.00000000000E+00 0.  1.
</event>
<event>
 5    1  0.1692178E-003  0.9118800E+02  0.7818608E-02  0.1130116E+00
         25   -1    0    0    0    0  0.00000000000E+00  0.00000000000E+00  0.99999998245E-14  0.12500000000E+03  0.12500000000E+03 0.  0.
        -11    1    3    3    0    0  0.72639090873E+01 -0.31508838741E+02  0.23214535676E+02  0.39805602130E+02  0.51100000000E-03 0. -1.
         23    2    1    0    0    0  0.38896762476E+00 -0.86038927349E+01 -0.27665149391E+02  0.96025204801E+02  0.91549446750E+02 0.  0.
         11    1    3    3    0    0 -0.68749414625E+01  0.22904946006E+02 -0.50879685067E+02  0.56219602670E+02  0.51100000000E-03 0.  1.
         22    1    1    0    0    0 -0.38896762476E+00  0.86038927349E+01  0.27665149391E+02  0.28974795199E+02  0.00000000000E+00 0.  1.
</event>
<event>
 5    1  0.1692178E-003  0.9118800E+02  0.7818608E-02  0.1130116E+00
         25   -1    0    0    0    0  0.00000000000E+00  0.00000000000E+00  0.99999998245E-14  0.12500000000E+03  0.12500000000E+03 0.  0.
        -11    1    3    3    0    0 -0.13422756989E+02 -0.25863043152E+02  0.24078433242E+02  0.37799978226E+02  0.51100000000E-03 0. -1.
         23    2    1    0    0    0 -0.13337185418E+02 -0.16365838853E+01 -0.27282489556E+02  0.94587943870E+02  0.89565540067E+02 0.  0.
         11    1    3    3    0    0  0.85571570615E-01  0.24226459267E+02 -0.51360922797E+02  0.56787965644E+02  0.51100000000E-03 0.  1.
         22    1    1    0    0    0  0.13337185418E+02  0.16365838853E+01  0.27282489556E+02  0.30412056130E+02  0.00000000000E+00 0.  1.
</event>
<event>
 5    1  0.1692178E-003  0.9118800E+02  0.7818608E-02  0.1130116E+00
         25   -1    0    0    0    0  0.00000000000E+00  0.00000000000E+00  0.99999998245E-14  0.12500000000E+03  0.12500000000E+03 0.  0.
        -11    1    3    3    0    0  0.21439898653E+02  0.55920271758E+02  0.58300254363E+01  0.60172545605E+02  0.51100000000E-03 0. -1.
         23    2    1    0    0    0 -0.17414783868E+01  0.28829269484E+02  0.35530587820E+01  0.95900450989E+02  0.91378951335E+02 0.  0.
         11    1    3    3    0    0 -0.23181377039E+02 -0.27091002274E+02 -0.22769666543E+01  0.35727905383E+02  0.51100000000E-03 0.  1.
         22    1    1    0    0    0  0.17414783868E+01 -0.28829269484E+02 -0.35530587820E+01  0.29099549011E+02  0.00000000000E+00 0. -1.
</event>
<event>
 5    1  0.1692178E-003  0.9118800E+02  0.7818608E-02  0.1130116E+00
         25   -1    0    0    0    0  0.00000000000E+00  0.00000000000E+00  0.99999998245E-14  0.12500000000E+03  0.12500000000E+03 0.  0.
        -11    1    3    3    0    0 -0.21408660565E+02  0.18612832490E+02  0.15101254982E+01  0.28408603622E+02  0.51100000000E-03 0.  1.
         23    2    1    0    0    0  0.13415597394E+02 -0.30719330798E+02 -0.10288137668E+02  0.89935754467E+02  0.82818709340E+02 0.  0.
         11    1    3    3    0    0  0.34824257959E+02 -0.49332163288E+02 -0.11798263167E+02  0.61527150845E+02  0.51100000000E-03 0. -1.
         22    1    1    0    0    0 -0.13415597394E+02  0.30719330798E+02  0.10288137668E+02  0.35064245533E+02  0.00000000000E+00 0. -1.
</event>
<event>
 5    1  0.1692178E-003  0.9118800E+02  0.7818608E-02  0.1130116E+00
         25   -1    0    0    0    0  0.00000000000E+00  0.00000000000E+00  0.99999998245E-14  0.12500000000E+03  0.12500000000E+03 0.  0.
        -11    1    3    3    0    0 -0.23868403352E+02  0.33118977097E+02  0.69633439265E+01  0.41413228338E+02  0.51100000000E-03 0.  1.
         23    2    1    0    0    0 -0.15994498882E+02 -0.17982675836E+02 -0.13944750036E+02  0.97185315420E+02  0.93119970227E+02 0.  0.
         11    1    3    3    0    0  0.78739044697E+01 -0.51101652932E+02 -0.20908093963E+02  0.55772087082E+02  0.51100000000E-03 0. -1.
         22    1    1    0    0    0  0.15994498882E+02  0.17982675836E+02  0.13944750036E+02  0.27814684580E+02  0.00000000000E+00 0. -1.
</event>
<event>
 5    1  0.1692178E-003  0.9118800E+02  0.7818608E-02  0.1130116E+00
         25   -1    0    0    0    0  0.00000000000E+00  0.00000000000E+00  0.99999998245E-14  0.12500000000E+03  0.12500000000E+03 0.  0.
        -11    1    3    3    0    0 -0.48093777261E+02  0.36966320510E+02  0.33650096743E+01  0.60752313155E+02  0.51100000000E-03 0.  1.
         23    2    1    0    0    0 -0.20879888993E+02  0.15735440009E+02  0.11848221049E+02  0.96295397953E+02  0.91917623382E+02 0.  0.
         11    1    3    3    0    0  0.27213888267E+02 -0.21230880501E+02  0.84832113751E+01  0.35543084798E+02  0.51100000000E-03 0. -1.
         22    1    1    0    0    0  0.20879888993E+02 -0.15735440009E+02 -0.11848221049E+02  0.28704602047E+02  0.00000000000E+00 0.  1.
</event>
<event>
 5    1  0.1692178E-003  0.9118800E+02  0.7818608E-02  0.1130116E+00
         25   -1    0    0    0    0  0.00000000000E+00  0.00000000000E+00  0.99999998245E-14  0.12500000000E+03  0.12500000000E+03 0.  0.
        -11    1    3    3    0    0 -0.13248485853E+01 -0.60333812099E+02  0.39348292976E+01  0.60476499469E+02  0.51100000000E-03 0.  1.
         23    2    1    0    0    0  0.74924614679E+01 -0.25261546381E+02  0.93451941827E+01  0.97042615310E+02  0.92928218682E+02 0.  0.
         11    1    3    3    0    0  0.88173100532E+01  0.35072265718E+02  0.54103648851E+01  0.36566115840E+02  0.51100000000E-03 0. -1.
         22    1    1    0    0    0 -0.74924614679E+01  0.25261546381E+02 -0.93451941827E+01  0.27957384690E+02  0.00000000000E+00 0.  1.
</event>
<event>
 5    1  0.1692178E-003  0.9118800E+02  0.7818608E-02  0.1130116E+00
         25   -1    0    0    0    0  0.00000000000E+00  0.00000000000E+00  0.99999998245E-14  0.12500000000E+03  0.12500000000E+03 0.  0.
        -11    1    3    3    0    0  0.26528062471E+02  0.20963286069E+02  0.47947631587E+01  0.34149483382E+02  0.51100000000E-03 0. -1.
         23    2    1    0    0    0 -0.83103806168E+01 -0.26729365169E+02 -0.10407270892E+02  0.95136432300E+02  0.90327781303E+02 0.  0.
         11    1    3    3    0    0 -0.34838443088E+02 -0.47692651237E+02 -0.15202034051E+02  0.60986948918E+02  0.51100000000E-03 0.  1.
         22    1    1    0    0    0  0.83103806168E+01  0.26729365169E+02  0.10407270892E+02  0.29863567700E+02  0.00000000000E+00 0.  1.
</event>
<event>
 5    1  0.1692178E-003  0.9118800E+02  0.7818608E-02  0.1130116E+00
         25   -1    0    0    0    0  0.00000000000E+00  0.00000000000E+00  0.99999998245E-14  0.12500000000E+03  0.12500000000E+03 0.  0.
        -11    1    3    3    0    0 -0.28616122172E+02 -0.62387159255E+01  0.54633396160E+02  0.61988805448E+02  0.51100000000E-03 0. -1.
         23    2    1    0    0    0 -0.15793530410E+02 -0.76533289401E+01  0.23658704562E+02  0.95542516261E+02  0.90888002868E+02 0.  0.
         11    1    3    3    0    0  0.12822591762E+02 -0.14146130146E+01 -0.30974691599E+02  0.33553710814E+02  0.51100000000E-03 0.  1.
         22    1    1    0    0    0  0.15793530410E+02  0.76533289401E+01 -0.23658704562E+02  0.29457483739E+02  0.00000000000E+00 0. -1.
</event>
<event>
 5    1  0.1692178E-003  0.9118800E+02  0.7818608E-02  0.1130116E+00
         25   -1    0    0    0    0  0.00000000000E+00  0.00000000000E+00  0.99999998245E-14  0.12500000000E+03  0.12500000000E+03 0.  0.
        -11    1    3    3    0    0 -0.57218052108E+02 -0.11961881218E+02 -0.64109526428E+01  0.58805547386E+02  0.51100000000E-03 0. -1.
         23    2    1    0    0    0 -0.27101367607E+02  0.68636557274E+01  0.59599373907E+01  0.96414780920E+02  0.92079830745E+02 0.  0.
         11    1    3    3    0    0  0.30116684500E+02  0.18825536946E+02  0.12370890034E+02  0.37609233535E+02  0.51100000000E-03 0.  1.
         22    1    1    0    0    0  0.27101367607E+02 -0.68636557274E+01 -0.59599373907E+01  0.28585219080E+02  0.00000000000E+00 0. -1.
</event>
<event>
 5    1  0.1692178E-003  0.9118800E+02  0.7818608E-02  0.1130116E+00
         25   -1    0    0    0    0  0.00000000000E+00  0.00000000000E+00  0.99999998245E-14  0.12500000000E+03  0.12500000000E+03 0.  0.
        -11    1    3    3    0    0  0.73744427796E+01  0.77827161158E+00 -0.48391545890E+02  0.48956407414E+02  0.51100000000E-03 0. -1.
         23    2    1    0    0    0 -0.22021318006E+02  0.13192987766E+02 -0.14453697801E+02  0.95539810709E+02  0.90884281795E+02 0.  0.
         11    1    3    3    0    0 -0.29395760786E+02  0.12414716154E+02  0.33937848089E+02  0.46583403295E+02  0.51100000000E-03 0.  1.
         22    1    1    0    0    0  0.22021318006E+02 -0.13192987766E+02  0.14453697801E+02  0.29460189291E+02  0.00000000000E+00 0.  1.
</event>
<event>
 5    1  0.1692178E-003  0.9118800E+02  0.7818608E-02  0.1130116E+00
         25   -1    0    0    0    0  0.00000000000E+00  0.00000000000E+00  0.99999998245E-14  0.12500000000E+03  0.12500000000E+03 0.  0.
        -11    1    3    3    0    0 -0.28162345757E+02  0.23408847169E+02 -0.18613286913E+02  0.41079755285E+02  0.51100000000E-03 0.  1.
         23    2    1    0    0    0 -0.12467542084E+02  0.17979095699E+01  0.27715610858E+02  0.94556163683E+02  0.89521175823E+02 0.  0.
         11    1    3    3    0    0  0.15694803673E+02 -0.21610937599E+02  0.46328897771E+02  0.53476408398E+02  0.51100000000E-03 0. -1.
         22    1    1    0    0    0  0.12467542084E+02 -0.17979095699E+01 -0.27715610858E+02  0.30443836317E+02  0.00000000000E+00 0. -1.
</event>
<event>
 5    1  0.1692178E-003  0.9118800E+02  0.7818608E-02  0.1130116E+00
         25   -1    0    0    0    0  0.00000000000E+00  0.00000000000E+00  0.99999998245E-14  0.12500000000E+03  0.12500000000E+03 0.  0.
        -11    1    3    3    0    0 -0.19881385602E+02 -0.19348631892E+02 -0.36759908974E+02  0.46053555319E+02  0.51100000000E-03 0.  1.
         23    2    1    0    0    0  0.10904482431E+02  0.16652582948E+02 -0.21216282902E+02  0.95907957856E+02  0.91389219626E+02 0.  0.
         11    1    3    3    0    0  0.30785868033E+02  0.36001214841E+02  0.15543626071E+02  0.49854402536E+02  0.51100000000E-03 0. -1.
         22    1    1    0    0    0 -0.10904482431E+02 -0.16652582948E+02  0.21216282902E+02  0.29092042144E+02  0.00000000000E+00 0. -1.
</event>
<event>
 5    1  0.1692178E-003  0.9118800E+02  0.7818608E-02  0.1130116E+00
         25   -1    0    0    0    0  0.00000000000E+00  0.00000000000E+00  0.99999998245E-14  0.12500000000E+03  0.12500000000E+03 0.  0.
        -11    1    3    3    0    0 -0.40742356796E+02 -0.11765127053E+02  0.19468574702E+02  0.46662439425E+02  0.51100000000E-03 0. -1.
         23    2    1    0    0    0 -0.88791670081E+01 -0.22856630862E+02 -0.16083627585E+02  0.95675125620E+02  0.91070200422E+02 0.  0.
         11    1    3    3    0    0  0.31863189788E+02 -0.11091503809E+02 -0.35552202288E+02  0.49012686194E+02  0.51100000000E-03 0.  1.
         22    1    1    0    0    0  0.88791670081E+01  0.22856630862E+02  0.16083627585E+02  0.29324874380E+02  0.00000000000E+00 0. -1.
</event>
<event>
 5    1  0.1692178E-003  0.9118800E+02  0.7818608E-02  0.1130116E+00
         25   -1    0    0    0    0  0.00000000000E+00  0.00000000000E+00  0.99999998245E-14  0.12500000000E+03  0.12500000000E+03 0.  0.
        -11    1    3    3    0    0 -0.25863545679E+02 -0.49202024816E+02 -0.23393167282E+02  0.60307566000E+02  0.51100000000E-03 0.  1.
         23    2    1    0    0    0 -0.15768080080E+02 -0.14857344175E+02 -0.18640848673E+02  0.96419337576E+02  0.92086016278E+02 0.  0.
         11    1    3    3    0    0  0.10095465598E+02  0.34344680641E+02  0.47523186094E+01  0.36111771576E+02  0.51100000000E-03 0. -1.
         22    1    1    0    0    0  0.15768080080E+02  0.14857344175E+02  0.18640848673E+02  0.28580662424E+02  0.00000000000E+00 0.  1.
</event>
<event>
 5    1  0.1692178E-003  0.9118800E+02  0.7818608E-02  0.1130116E+00
         25   -1    0    0    0    0  0.00000000000E+00  0.00000000000E+00  0.99999998245E-14  0.12500000000E+03  0.12500000000E+03 0.  0.
        -11    1    3    3    0    0  0.37548491983E+02  0.23486480164E+02 -0.18146034833E+02  0.47862120524E+02  0.51100000000E-03 0.  1.
         23    2    1    0    0    0  0.11794590890E+02 -0.16454029896E+02 -0.21455640448E+02  0.95500983387E+02  0.90830863955E+02 0.  0.
         11    1    3    3    0    0 -0.25753901093E+02 -0.39940510060E+02 -0.33096056150E+01  0.47638862863E+02  0.51100000000E-03 0. -1.
         22    1    1    0    0    0 -0.11794590890E+02  0.16454029896E+02  0.21455640448E+02  0.29499016613E+02  0.00000000000E+00 0. -1.
</event>
<event>
 5    1  0.1692178E-003  0.9118800E+02  0.7818608E-02  0.1130116E+00
         25   -1    0    0    0    0  0.00000000000E+00  0.00000000000E+00  0.99999998245E-14  0.12500000000E+03  0.12500000000E+03 0.  0.
        -11    1    3    3    0    0 -0.42546621051E+01  0.37919882957E+02 -0.15229930890E+02  0.41084917771E+02  0.51100000000E-03 0.  1.
         23    2    1    0    0    0 -0.17613552935E+02 -0.13656060142E+02 -0.20622856483E+02  0.94635095338E+02  0.89631321727E+02 0.  0.
         11    1    3    3    0    0 -0.13358890830E+02 -0.51575943099E+02 -0.53929255927E+01  0.53550177567E+02  0.51100000000E-03 0. -1.
         22    1    1    0    0    0  0.17613552935E+02  0.13656060142E+02  0.20622856483E+02  0.30364904662E+02  0.00000000000E+00 0. -1.
</event>
<event>
 5    1  0.1692178E-003  0.9118800E+02  0.7818608E-02  0.1130116E+00
         25   -1    0    0    0    0  0.00000000000E+00  0.00000000000E+00  0.99999998245E-14  0.12500000000E+03  0.12500000000E+03 0.  0.
        -11    1    3    3    0    0 -0.14987683370E+02 -0.54475332706E+02 -0.16164139511E+02  0.58766248243E+02  0.51100000000E-03 0.  1.
         23    2    1    0    0    0 -0.12947330914E+02 -0.25770746615E+02  0.65472788568E+01  0.95425828510E+02  0.90727378048E+02 0.  0.
         11    1    3    3    0    0  0.20403524555E+01  0.28704586091E+02  0.22711418368E+02  0.36659580267E+02  0.51100000000E-03 0. -1.
         22    1    1    0    0    0  0.12947330914E+02  0.25770746615E+02 -0.65472788568E+01  0.29574171490E+02  0.00000000000E+00 0.  1.
</event>
<event>
 5    1  0.1692178E-003  0.9118800E+02  0.7818608E-02  0.1130116E+00
         25   -1    0    0    0    0  0.00000000000E+00  0.00000000000E+00  0.99999998245E-14  0.12500000000E+03  0.12500000000E+03 0.  0.
        -11    1    3    3    0    0  0.38663784601E+02 -0.23908258261E+01 -0.45349468458E+02  0.59642087300E+02  0.51100000000E-03 0. -1.
         23    2    1    0    0    0  0.11930806176E+02 -0.12532273929E+02 -0.24399420451E+02  0.95087899703E+02  0.90260594534E+02 0.  0.
         11    1    3    3    0    0 -0.26732978425E+02 -0.10141448103E+02  0.20950048008E+02  0.35445812402E+02  0.51100000000E-03 0.  1.
         22    1    1    0    0    0 -0.11930806176E+02  0.12532273929E+02  0.24399420451E+02  0.29912100297E+02  0.00000000000E+00 0. -1.
</event>
<event>
 5    1  0.1692178E-003  0.9118800E+02  0.7818608E-02  0.1130116E+00
         25   -1    0    0    0    0  0.00000000000E+00  0.00000000000E+00  0.99999998245E-14  0.12500000000E+03  0.12500000000E+03 0.  0.
        -11    1    3    3    0    0  0.43684895066E+02 -0.18207592954E+02 -0.14669918501E+02  0.49548895116E+02  0.51100000000E-03 0. -1.
         23    2    1    0    0    0  0.19255911176E+02 -0.44893662657E+00  0.21144565576E+02  0.96397826784E+02  0.92056812328E+02 0.  0.
         11    1    3    3    0    0 -0.24428983891E+02  0.17758656328E+02  0.35814484076E+02  0.46848931668E+02  0.51100000000E-03 0.  1.
         22    1    1    0    0    0 -0.19255911176E+02  0.44893662657E+00 -0.21144565576E+02  0.28602173216E+02  0.00000000000E+00 0. -1.
</event>
<event>
 5    1  0.1692178E-003  0.9118800E+02  0.7818608E-02  0.1130116E+00
         25   -1    0    0    0    0  0.00000000000E+00  0.00000000000E+00  0.99999998245E-14  0.12500000000E+03  0.12500000000E+03 0.  0.
        -11    1    3    3    0    0 -0.22576885625E+02  0.20591633311E+02 -0.53862107906E+02  0.61926228654E+02  0.51100000000E-03 0.  1.
         23    2    1    0    0    0 -0.13544220186E+02  0.49074012246E+01 -0.19596980744E+02  0.10067778502E+03  0.97695681866E+02 0.  0.
         11    1    3    3    0    0  0.90326654397E+01 -0.15684232087E+02  0.34265127163E+02  0.38751556367E+02  0.51100000000E-03 0. -1.
         22    1    1    0    0    0  0.13544220186E+02 -0.49074012246E+01  0.19596980744E+02  0.24322214979E+02  0.00000000000E+00 0.  1.
</event>
<event>
 5    1  0.1692178E-003  0.9118800E+02  0.7818608E-02  0.1130116E+00
         25   -1    0    0    0    0  0.00000000000E+00  0.00000000000E+00  0.99999998245E-14  0.12500000000E+03  0.12500000000E+03 0.  0.
        -11    1    3    3    0    0  0.37550539649E+01  0.50330991418E+02  0.13825275314E+02  0.52330176430E+02  0.51100000000E-03 0.  1.
         23    2    1    0    0    0 -0.32060341128E+01  0.87156238350E+01  0.26931458014E+02  0.96512385422E+02  0.92212235390E+02 0.  0.
         11    1    3    3    0    0 -0.69610880777E+01 -0.41615367583E+02  0.13106182700E+02  0.44182208993E+02  0.51100000000E-03 0. -1.
         22    1    1    0    0    0  0.32060341128E+01 -0.87156238350E+01 -0.26931458014E+02  0.28487614578E+02  0.00000000000E+00 0.  1.
</event>
<event>
 5    1  0.1692178E-003  0.9118800E+02  0.7818608E-02  0.1130116E+00
         25   -1    0    0    0    0  0.00000000000E+00  0.00000000000E+00  0.99999998245E-14  0.12500000000E+03  0.12500000000E+03 0.  0.
        -11    1    3    3    0    0  0.17245895634E+02 -0.58283084189E+01 -0.27517502051E+02  0.32993984522E+02  0.51100000000E-03 0. -1.
         23    2    1    0    0    0 -0.13930492000E+02  0.34198967139E+01  0.25820039571E+02  0.95463095213E+02  0.90778707874E+02 0.  0.
         11    1    3    3    0    0 -0.31176387634E+02  0.92482051329E+01  0.53337541622E+02  0.62469110692E+02  0.51100000000E-03 0.  1.
         22    1    1    0    0    0  0.13930492000E+02 -0.34198967139E+01 -0.25820039571E+02  0.29536904787E+02  0.00000000000E+00 0.  1.
</event>
<event>
 5    1  0.1692178E-003  0.9118800E+02  0.7818608E-02  0.1130116E+00
         25   -1    0    0    0    0  0.00000000000E+00  0.00000000000E+00  0.99999998245E-14  0.12500000000E+03  0.12500000000E+03 0.  0.
        -11    1    3    3    0    0  0.16781467323E+02 -0.34660756055E+01 -0.54464520174E+02  0.57096543535E+02  0.51100000000E-03 0.  1.
         23    2    1    0    0    0  0.22136269898E+02 -0.98239748698E+01 -0.17153586732E+02  0.95322222708E+02  0.90584522281E+02 0.  0.
         11    1    3    3    0    0  0.53548025750E+01 -0.63578992643E+01  0.37310933442E+02  0.38225679173E+02  0.51100000000E-03 0. -1.
         22    1    1    0    0    0 -0.22136269898E+02  0.98239748698E+01  0.17153586732E+02  0.29677777292E+02  0.00000000000E+00 0. -1.
</event>
<event>
 5    1  0.1692178E-003  0.9118800E+02  0.7818608E-02  0.1130116E+00
         25   -1    0    0    0    0  0.00000000000E+00  0.00000000000E+00  0.99999998245E-14  0.12500000000E+03  0.12500000000E+03 0.  0.
        -11    1    3    3    0    0 -0.21015667872E+02  0.52097526871E+02  0.52660812698E+00  0.56179070111E+02  0.51100000000E-03 0.  1.
         23    2    1    0    0    0 -0.75075192653E+01  0.22710636088E+02  0.19903980592E+02  0.93882412040E+02  0.88575408608E+02 0.  0.
         11    1    3    3    0    0  0.13508148606E+02 -0.29386890783E+02  0.19377372465E+02  0.37703341929E+02  0.51100000000E-03 0. -1.
         22    1    1    0    0    0  0.75075192653E+01 -0.22710636088E+02 -0.19903980592E+02  0.31117587960E+02  0.00000000000E+00 0.  1.
</event>
<event>
 5    1  0.1692178E-003  0.9118800E+02  0.7818608E-02  0.1130116E+00
         25   -1    0    0    0    0  0.00000000000E+00  0.00000000000E+00  0.99999998245E-14  0.12500000000E+03  0.12500000000E+03 0.  0.
        -11    1    3    3    0    0  0.31673339552E+02 -0.67001059760E+01 -0.39668526320E+02  0.51202381186E+02  0.51100000000E-03 0. -1.
         23    2    1    0    0    0  0.53616234052E+01 -0.26957506462E+02 -0.99391506729E+01  0.95772600590E+02  0.91203893269E+02 0.  0.
         11    1    3    3    0    0 -0.26311716147E+02 -0.20257400486E+02  0.29729375647E+02  0.44570219404E+02  0.51100000000E-03 0.  1.
         22    1    1    0    0    0 -0.53616234052E+01  0.26957506462E+02  0.99391506729E+01  0.29227399410E+02  0.00000000000E+00 0. -1.
</event>
<event>
 5    1  0.1692178E-003  0.9118800E+02  0.7818608E-02  0.1130116E+00
         25   -1    0    0    0    0  0.00000000000E+00  0.00000000000E+00  0.99999998245E-14  0.12500000000E+03  0.12500000000E+03 0.  0.
        -11    1    3    3    0    0 -0.41103265767E+02  0.29407968161E+02 -0.30735246071E+01  0.50633522511E+02  0.51100000000E-03 0.  1.
         23    2    1    0    0    0 -0.14638434582E+01  0.16851192886E+02  0.20492828376E+02  0.98428181203E+02  0.94773652988E+02 0.  0.
         11    1    3    3    0    0  0.39639422309E+02 -0.12556775275E+02  0.23566352983E+02  0.47794658692E+02  0.51100000000E-03 0. -1.
         22    1    1    0    0    0  0.14638434582E+01 -0.16851192886E+02 -0.20492828376E+02  0.26571818797E+02  0.00000000000E+00 0.  1.
</event>
<event>
 5    1  0.1692178E-003  0.9118800E+02  0.7818608E-02  0.1130116E+00
         25   -1    0    0    0    0  0.00000000000E+00  0.00000000000E+00  0.99999998245E-14  0.12500000000E+03  0.12500000000E+03 0.  0.
        -11    1    3    3    0    0 -0.27021695202E+02 -0.33081734086E+02 -0.11259557932E+02  0.44174096333E+02  0.51100000000E-03 0. -1.
         23    2    1    0    0    0  0.32594304455E+01  0.44049288901E+01 -0.28971220027E+02  0.95515107678E+02  0.90850299502E+02 0.  0.
         11    1    3    3    0    0  0.30281125647E+02  0.37486662976E+02 -0.17711662095E+02  0.51341011346E+02  0.51100000000E-03 0.  1.
         22    1    1    0    0    0 -0.32594304455E+01 -0.44049288901E+01  0.28971220027E+02  0.29484892322E+02  0.00000000000E+00 0.  1.
</event>
<event>
 5    1  0.1692178E-003  0.9118800E+02  0.7818608E-02  0.1130116E+00
         25   -1    0    0    0    0  0.00000000000E+00  0.00000000000E+00  0.99999998245E-14  0.12500000000E+03  0.12500000000E+03 0.  0.
        -11    1    3    3    0    0  0.23646723613E+02  0.20320162820E+02 -0.18375390143E+02  0.36190213012E+02  0.51100000000E-03 0.  1.
         23    2    1    0    0    0 -0.10137869117E+02 -0.26684058365E+02 -0.10382426178E+02  0.94625501907E+02  0.89617941713E+02 0.  0.
         11    1    3    3    0    0 -0.33784592730E+02 -0.47004221185E+02  0.79929639645E+01  0.58435288896E+02  0.51100000000E-03 0. -1.
         22    1    1    0    0    0  0.10137869117E+02  0.26684058365E+02  0.10382426178E+02  0.30374498093E+02  0.00000000000E+00 0. -1.
</event>
<event>
 5    1  0.1692178E-003  0.9118800E+02  0.7818608E-02  0.1130116E+00
         25   -1    0    0    0    0  0.00000000000E+00  0.00000000000E+00  0.99999998245E-14  0.12500000000E+03  0.12500000000E+03 0.  0.
        -11    1    3    3    0    0 -0.22234891483E+02 -0.14520498085E+02  0.24690038334E+02  0.36260629574E+02  0.51100000000E-03 0.  1.
         23    2    1    0    0    0  0.11384258813E+01 -0.22488222009E+00 -0.28703254770E+02  0.96273297789E+02  0.91887564160E+02 0.  0.
         11    1    3    3    0    0  0.23373317364E+02  0.14295615865E+02 -0.53393293104E+02  0.60012668215E+02  0.51100000000E-03 0. -1.
         22    1    1    0    0    0 -0.11384258813E+01  0.22488222009E+00  0.28703254770E+02  0.28726702211E+02  0.00000000000E+00 0. -1.
</event>
<event>
 5    1  0.1692178E-003  0.9118800E+02  0.7818608E-02  0.1130116E+00
         25   -1    0    0    0    0  0.00000000000E+00  0.00000000000E+00  0.99999998245E-14  0.12500000000E+03  0.12500000000E+03 0.  0.
        -11    1    3    3    0    0  0.26410260369E+01  0.35344796957E+02  0.18521603399E+02  0.39990992525E+02  0.51100000000E-03 0. -1.
         23    2    1    0    0    0 -0.27479763411E+02 -0.68082296631E+01 -0.38600193499E+01  0.96427475826E+02  0.92097062692E+02 0.  0.
         11    1    3    3    0    0 -0.30120789448E+02 -0.42153026620E+02 -0.22381622749E+02  0.56436483301E+02  0.51100000000E-03 0.  1.
         22    1    1    0    0    0  0.27479763411E+02  0.68082296631E+01  0.38600193499E+01  0.28572524174E+02  0.00000000000E+00 0. -1.
</event>
<event>
 5    1  0.1692178E-003  0.9118800E+02  0.7818608E-02  0.1130116E+00
         25   -1    0    0    0    0  0.00000000000E+00  0.00000000000E+00  0.99999998245E-14  0.12500000000E+03  0.12500000000E+03 0.  0.
        -11    1    3    3    0    0 -0.51266276251E+02 -0.34178537178E+01 -0.27524442480E+02  0.58288144066E+02  0.51100000000E-03 0.  1.
         23    2    1    0    0    0 -0.20113198971E+02  0.14524640787E+02 -0.11804682824E+02  0.97525348057E+02  0.93575301304E+02 0.  0.
         11    1    3    3    0    0  0.31153077280E+02  0.17942494505E+02  0.15719759656E+02  0.39237203990E+02  0.51100000000E-03 0. -1.
         22    1    1    0    0    0  0.20113198971E+02 -0.14524640787E+02  0.11804682824E+02  0.27474651943E+02  0.00000000000E+00 0.  1.
</event>
<event>
 5    1  0.1692178E-003  0.9118800E+02  0.7818608E-02  0.1130116E+00
         25   -1    0    0    0    0  0.00000000000E+00  0.00000000000E+00  0.99999998245E-14  0.12500000000E+03  0.12500000000E+03 0.  0.
        -11    1    3    3    0    0  0.32406966188E+02 -0.11469970296E+01 -0.16096405760E+02  0.36202504586E+02  0.51100000000E-03 0.  1.
         23    2    1    0    0    0 -0.26448281786E+02 -0.85277548387E+01 -0.80941911943E+01  0.96056086251E+02  0.91591602032E+02 0.  0.
         11    1    3    3    0    0 -0.58855247974E+02 -0.73807578091E+01  0.80022145656E+01  0.59853581665E+02  0.51100000000E-03 0. -1.
         22    1    1    0    0    0  0.26448281786E+02  0.85277548387E+01  0.80941911943E+01  0.28943913749E+02  0.00000000000E+00 0. -1.
</event>
<event>
 5    1  0.1692178E-003  0.9118800E+02  0.7818608E-02  0.1130116E+00
         25   -1    0    0    0    0  0.00000000000E+00  0.00000000000E+00  0.99999998245E-14  0.12500000000E+03  0.12500000000E+03 0.  0.
        -11    1    3    3    0    0 -0.36690245144E+02  0.42740063447E+02  0.54760190117E+01  0.56593938692E+02  0.51100000000E-03 0.  1.
         23    2    1    0    0    0 -0.83164638690E+01  0.23136561843E+02 -0.14507927697E+02  0.96452775419E+02  0.92131394512E+02 0.  0.
         11    1    3    3    0    0  0.28373781275E+02 -0.19603501604E+02 -0.19983946708E+02  0.39858836727E+02  0.51100000000E-03 0. -1.
         22    1    1    0    0    0  0.83164638690E+01 -0.23136561843E+02  0.14507927697E+02  0.28547224581E+02  0.00000000000E+00 0.  1.
</event>
<event>
 5    1  0.1692178E-003  0.9118800E+02  0.7818608E-02  0.1130116E+00
         25   -1    0    0    0    0  0.00000000000E+00  0.00000000000E+00  0.99999998245E-14  0.12500000000E+03  0.12500000000E+03 0.  0.
        -11    1    3    3    0    0 -0.23152528164E+02 -0.49283975504E+02 -0.19119707146E+02  0.57710596978E+02  0.51100000000E-03 0.  1.
         23    2    1    0    0    0 -0.46186807519E+01 -0.16114038695E+02 -0.23687839670E+02  0.95980899339E+02  0.91488932854E+02 0.  0.
         11    1    3    3    0    0  0.18533847412E+02  0.33169936809E+02 -0.45681325235E+01  0.38270302361E+02  0.51100000000E-03 0. -1.
         22    1    1    0    0    0  0.46186807519E+01  0.16114038695E+02  0.23687839670E+02  0.29019100661E+02  0.00000000000E+00 0.  1.
</event>
<event>
 5    1  0.1692178E-003  0.9118800E+02  0.7818608E-02  0.1130116E+00
         25   -1    0    0    0    0  0.00000000000E+00  0.00000000000E+00  0.99999998245E-14  0.12500000000E+03  0.12500000000E+03 0.  0.
        -11    1    3    3    0    0 -0.15347391251E+02  0.39061210369E+02 -0.25478368715E+02  0.49096515623E+02  0.51100000000E-03 0.  1.
         23    2    1    0    0    0 -0.28114409734E+02  0.18151609320E+02  0.80101692669E+01  0.90589772345E+02  0.83800018415E+02 0.  0.
         11    1    3    3    0    0 -0.12767018483E+02 -0.20909601049E+02  0.33488537982E+02  0.41493256722E+02  0.51100000000E-03 0. -1.
         22    1    1    0    0    0  0.28114409734E+02 -0.18151609320E+02 -0.80101692669E+01  0.34410227655E+02  0.00000000000E+00 0.  1.
</event>
<event>
 5    1  0.1692178E-003  0.9118800E+02  0.7818608E-02  0.1130116E+00
         25   -1    0    0    0    0  0.00000000000E+00  0.00000000000E+00  0.99999998245E-14  0.12500000000E+03  0.12500000000E+03 0.  0.
        -11    1    3    3    0    0 -0.41730094469E+02  0.11272987686E+02  0.18726498510E+02  0.47107990644E+02  0.51100000000E-03 0. -1.
         23    2    1    0    0    0  0.45978469495E+01 -0.16717170455E+02  0.16164705614E+02  0.10129553434E+03  0.98482910118E+02 0.  0.
         11    1    3    3    0    0  0.46327941419E+02 -0.27990158140E+02 -0.25617928958E+01  0.54187543697E+02  0.51100000000E-03 0.  1.
         22    1    1    0    0    0 -0.45978469495E+01  0.16717170455E+02 -0.16164705614E+02  0.23704465659E+02  0.00000000000E+00 0.  1.
</event>
<event>
 5    1  0.1692178E-003  0.9118800E+02  0.7818608E-02  0.1130116E+00
         25   -1    0    0    0    0  0.00000000000E+00  0.00000000000E+00  0.99999998245E-14  0.12500000000E+03  0.12500000000E+03 0.  0.
        -11    1    3    3    0    0  0.10016117562E+02 -0.23461564444E+02 -0.25585462354E+02  0.36130091355E+02  0.51100000000E-03 0. -1.
         23    2    1    0    0    0  0.45934985503E+01  0.18305918954E+01  0.28495414010E+02  0.96078729018E+02  0.91622498627E+02 0.  0.
         11    1    3    3    0    0 -0.54226190114E+01  0.25292156339E+02  0.54080876364E+02  0.59948637664E+02  0.51100000000E-03 0.  1.
         22    1    1    0    0    0 -0.45934985503E+01 -0.18305918954E+01 -0.28495414010E+02  0.28921270982E+02  0.00000000000E+00 0.  1.
</event>
<event>
 5    1  0.1692178E-003  0.9118800E+02  0.7818608E-02  0.1130116E+00
         25   -1    0    0    0    0  0.00000000000E+00  0.00000000000E+00  0.99999998245E-14  0.12500000000E+03  0.12500000000E+03 0.  0.
        -11    1    3    3    0    0 -0.98501098049E+01 -0.46190036785E+02  0.23678997853E+02  0.52832178650E+02  0.51100000000E-03 0. -1.
         23    2    1    0    0    0 -0.25515649479E+02 -0.13685253938E+02  0.21416943616E+02  0.88985835876E+02  0.81372347693E+02 0.  0.
         11    1    3    3    0    0 -0.15665539674E+02  0.32504782847E+02 -0.22620542367E+01  0.36153657226E+02  0.51100000000E-03 0.  1.
         22    1    1    0    0    0  0.25515649479E+02  0.13685253938E+02 -0.21416943616E+02  0.36014164124E+02  0.00000000000E+00 0. -1.
</event>
<event>
 5    1  0.1692178E-003  0.9118800E+02  0.7818608E-02  0.1130116E+00
         25   -1    0    0    0    0  0.00000000000E+00  0.00000000000E+00  0.99999998245E-14  0.12500000000E+03  0.12500000000E+03 0.  0.
        -11    1    3    3    0    0 -0.29369564604E+02  0.22961677939E+02 -0.65460711634E+01  0.37850508936E+02  0.51100000000E-03 0.  1.
         23    2    1    0    0    0  0.40557746070E+01 -0.39796190424E+01  0.30144733051E+02  0.94324413517E+02  0.89196991985E+02 0.  0.
         11    1    3    3    0    0  0.33425339211E+02 -0.26941296981E+02  0.36690804214E+02  0.56473904580E+02  0.51100000000E-03 0. -1.
         22    1    1    0    0    0 -0.40557746070E+01  0.39796190424E+01 -0.30144733051E+02  0.30675586483E+02  0.00000000000E+00 0. -1.
</event>
<event>
 5    1  0.1692178E-003  0.9118800E+02  0.7818608E-02  0.1130116E+00
         25   -1    0    0    0    0  0.00000000000E+00  0.00000000000E+00  0.99999998245E-14  0.12500000000E+03  0.12500000000E+03 0.  0.
        -11    1    3    3    0    0  0.34438139266E+02 -0.44031631804E+02 -0.23711570262E+02  0.60720742749E+02  0.51100000000E-03 0.  1.
         23    2    1    0    0    0  0.22004070535E+02 -0.20629485748E+02 -0.23723175274E+01  0.94744708021E+02  0.89784057634E+02 0.  0.
         11    1    3    3    0    0 -0.12434068731E+02  0.23402146056E+02  0.21339252735E+02  0.34023965272E+02  0.51100000000E-03 0. -1.
         22    1    1    0    0    0 -0.22004070535E+02  0.20629485748E+02  0.23723175274E+01  0.30255291979E+02  0.00000000000E+00 0.  1.
</event>
<event>
 5    1  0.1692178E-003  0.9118800E+02  0.7818608E-02  0.1130116E+00
         25   -1    0    0    0    0  0.00000000000E+00  0.00000000000E+00  0.99999998245E-14  0.12500000000E+03  0.12500000000E+03 0.  0.
        -11    1    3    3    0    0  0.45025591355E+02  0.29225525918E+02 -0.31853373061E+01  0.53773428532E+02  0.51100000000E-03 0. -1.
         23    2    1    0    0    0  0.30746834534E+02 -0.42212355250E+01 -0.12860665023E+02  0.91405605110E+02  0.85008242409E+02 0.  0.
         11    1    3    3    0    0 -0.14278756821E+02 -0.33446761443E+02 -0.96753277165E+01  0.37632176579E+02  0.51100000000E-03 0.  1.
         22    1    1    0    0    0 -0.30746834534E+02  0.42212355250E+01  0.12860665023E+02  0.33594394890E+02  0.00000000000E+00 0. -1.
</event>
<event>
 5    1  0.1692178E-003  0.9118800E+02  0.7818608E-02  0.1130116E+00
         25   -1    0    0    0    0  0.00000000000E+00  0.00000000000E+00  0.99999998245E-14  0.12500000000E+03  0.12500000000E+03 0.  0.
        -11    1    3    3    0    0  0.29263961305E+02 -0.45573675077E+02 -0.29515566118E+02  0.61680693372E+02  0.51100000000E-03 0.  1.
         23    2    1    0    0    0  0.17323820586E+02 -0.15185829375E+02 -0.15633385089E+02  0.97158899037E+02  0.93084503325E+02 0.  0.
         11    1    3    3    0    0 -0.11940140719E+02  0.30387845702E+02  0.13882181029E+02  0.35478205665E+02  0.51100000000E-03 0. -1.
         22    1    1    0    0    0 -0.17323820586E+02  0.15185829375E+02  0.15633385089E+02  0.27841100963E+02  0.00000000000E+00 0.  1.
</event>
<event>
 5    1  0.1692178E-003  0.9118800E+02  0.7818608E-02  0.1130116E+00
         25   -1    0    0    0    0  0.00000000000E+00  0.00000000000E+00  0.99999998245E-14  0.12500000000E+03  0.12500000000E+03 0.  0.
        -11    1    3    3    0    0 -0.25955569865E+02  0.43032682341E+01 -0.30115646025E+02  0.39989521881E+02  0.51100000000E-03 0.  1.
         23    2    1    0    0    0  0.22489277459E+02  0.17564833880E+02 -0.54417701519E+01  0.95949976726E+02  0.91446673977E+02 0.  0.
         11    1    3    3    0    0  0.48444847323E+02  0.13261565646E+02  0.24673875873E+02  0.55960454845E+02  0.51100000000E-03 0. -1.
         22    1    1    0    0    0 -0.22489277459E+02 -0.17564833880E+02  0.54417701519E+01  0.29050023274E+02  0.00000000000E+00 0. -1.
</event>
<event>
 5    1  0.1692178E-003  0.9118800E+02  0.7818608E-02  0.1130116E+00
         25   -1    0    0    0    0  0.00000000000E+00  0.00000000000E+00  0.99999998245E-14  0.12500000000E+03  0.12500000000E+03 0.  0.
        -11    1    3    3    0    0  0.41220159631E+01  0.24607068695E+01  0.36275265583E+02  0.36591542565E+02  0.51100000000E-03 0.  1.
         23    2    1    0    0    0  0.29266579723E+01  0.21572662165E+02 -0.19630618731E+02  0.95686073761E+02  0.91085226245E+02 0.  0.
         11    1    3    3    0    0 -0.11953579908E+01  0.19111955296E+02 -0.55905884315E+02  0.59094531196E+02  0.51100000000E-03 0. -1.
         22    1    1    0    0    0 -0.29266579723E+01 -0.21572662165E+02  0.19630618731E+02  0.29313926239E+02  0.00000000000E+00 0. -1.
</event>
<event>
 5    1  0.1692178E-003  0.9118800E+02  0.7818608E-02  0.1130116E+00
         25   -1    0    0    0    0  0.00000000000E+00  0.00000000000E+00  0.99999998245E-14  0.12500000000E+03  0.12500000000E+03 0.  0.
        -11    1    3    3    0    0  0.62684408802E+01  0.32836244248E+02  0.21691582692E+02  0.39850182526E+02  0.51100000000E-03 0. -1.
         23    2    1    0    0    0 -0.71911019171E+01  0.84104330809E+01 -0.26920463284E+02  0.95894009641E+02  0.91370139598E+02 0.  0.
         11    1    3    3    0    0 -0.13459542797E+02 -0.24425811167E+02 -0.48612045976E+02  0.56043827115E+02  0.51100000000E-03 0.  1.
         22    1    1    0    0    0  0.71911019171E+01 -0.84104330809E+01  0.26920463284E+02  0.29105990359E+02  0.00000000000E+00 0. -1.
</event>
<event>
 5    1  0.1692178E-003  0.9118800E+02  0.7818608E-02  0.1130116E+00
         25   -1    0    0    0    0  0.00000000000E+00  0.00000000000E+00  0.99999998245E-14  0.12500000000E+03  0.12500000000E+03 0.  0.
        -11    1    3    3    0    0 -0.53276838966E+02 -0.22352528653E+02 -0.87435871787E+01  0.58433786668E+02  0.51100000000E-03 0.  1.
         23    2    1    0    0    0 -0.14265255362E+02 -0.14353373986E+02 -0.16358476452E+02  0.98978535645E+02  0.95496774351E+02 0.  0.
         11    1    3    3    0    0  0.39011583604E+02  0.79991546669E+01 -0.76148892736E+01  0.40544748977E+02  0.51100000000E-03 0. -1.
         22    1    1    0    0    0  0.14265255362E+02  0.14353373986E+02  0.16358476452E+02  0.26021464355E+02  0.00000000000E+00 0.  1.
</event>
<event>
 5    1  0.1692178E-003  0.9118800E+02  0.7818608E-02  0.1130116E+00
         25   -1    0    0    0    0  0.00000000000E+00  0.00000000000E+00  0.99999998245E-14  0.12500000000E+03  0.12500000000E+03 0.  0.
        -11    1    3    3    0    0  0.18334400492E+02  0.25192996748E+02  0.15256624471E+02  0.34692966392E+02  0.51100000000E-03 0.  1.
         23    2    1    0    0    0 -0.16725000981E+02 -0.22689629706E+02 -0.26675586328E+01  0.96686384494E+02  0.92447802156E+02 0.  0.
         11    1    3    3    0    0 -0.35059401473E+02 -0.47882626453E+02 -0.17924183104E+02  0.61993418102E+02  0.51100000000E-03 0. -1.
         22    1    1    0    0    0  0.16725000981E+02  0.22689629706E+02  0.26675586328E+01  0.28313615506E+02  0.00000000000E+00 0. -1.
</event>
<event>
 5    1  0.1692178E-003  0.9118800E+02  0.7818608E-02  0.1130116E+00
         25   -1    0    0    0    0  0.00000000000E+00  0.00000000000E+00  0.99999998245E-14  0.12500000000E+03  0.12500000000E+03 0.  0.
        -11    1    3    3    0    0  0.26230728833E+02 -0.15386625703E+02  0.23712925393E+02  0.38562964312E+02  0.51100000000E-03 0. -1.
         23    2    1    0    0    0  0.10915141493E+01 -0.82914162439E+01 -0.27610208797E+02  0.96151037865E+02  0.91721096080E+02 0.  0.
         11    1    3    3    0    0 -0.25139214683E+02  0.70952094589E+01 -0.51323134190E+02  0.57588073552E+02  0.51100000000E-03 0.  1.
         22    1    1    0    0    0 -0.10915141493E+01  0.82914162439E+01  0.27610208797E+02  0.28848962135E+02  0.00000000000E+00 0.  1.
</event>
<event>
 5    1  0.1692178E-003  0.9118800E+02  0.7818608E-02  0.1130116E+00
         25   -1    0    0    0    0  0.00000000000E+00  0.00000000000E+00  0.99999998245E-14  0.12500000000E+03  0.12500000000E+03 0.  0.
        -11    1    3    3    0    0  0.23477713033E+02  0.34718175987E+02  0.28411255641E+02  0.50633528422E+02  0.51100000000E-03 0.  1.
         23    2    1    0    0    0  0.25148487024E+02 -0.74645014912E+01  0.76734475325E+01  0.97667839838E+02  0.93765451844E+02 0.  0.
         11    1    3    3    0    0  0.16707739905E+01 -0.42182677478E+02 -0.20737808108E+02  0.47034311416E+02  0.51100000000E-03 0. -1.
         22    1    1    0    0    0 -0.25148487024E+02  0.74645014912E+01 -0.76734475325E+01  0.27332160162E+02  0.00000000000E+00 0.  1.
</event>
<event>
 5    1  0.1692178E-003  0.9118800E+02  0.7818608E-02  0.1130116E+00
         25   -1    0    0    0    0  0.00000000000E+00  0.00000000000E+00  0.99999998245E-14  0.12500000000E+03  0.12500000000E+03 0.  0.
        -11    1    3    3    0    0  0.27231711832E+02 -0.68073489409E+01  0.21352252467E+02  0.35267900627E+02  0.51100000000E-03 0.  1.
         23    2    1    0    0    0  0.91426244872E+01  0.10870406360E+02 -0.29608888598E+02  0.92160395847E+02  0.86110968881E+02 0.  0.
         11    1    3    3    0    0 -0.18089087345E+02  0.17677755301E+02 -0.50961141065E+02  0.56892495220E+02  0.51100000000E-03 0. -1.
         22    1    1    0    0    0 -0.91426244872E+01 -0.10870406360E+02  0.29608888598E+02  0.32839604153E+02  0.00000000000E+00 0. -1.
</event>
<event>
 5    1  0.1692178E-003  0.9118800E+02  0.7818608E-02  0.1130116E+00
         25   -1    0    0    0    0  0.00000000000E+00  0.00000000000E+00  0.99999998245E-14  0.12500000000E+03  0.12500000000E+03 0.  0.
        -11    1    3    3    0    0 -0.22240577767E+02 -0.25737759487E+02 -0.14809586818E+02  0.37099857477E+02  0.51100000000E-03 0.  1.
         23    2    1    0    0    0  0.19008895879E+02 -0.56291076452E+01  0.21601588718E+02  0.95680149889E+02  0.91077096310E+02 0.  0.
         11    1    3    3    0    0  0.41249473646E+02  0.20108651841E+02  0.36411175536E+02  0.58580292412E+02  0.51100000000E-03 0. -1.
         22    1    1    0    0    0 -0.19008895879E+02  0.56291076452E+01 -0.21601588718E+02  0.29319850111E+02  0.00000000000E+00 0. -1.
</event>
<event>
 5    1  0.1692178E-003  0.9118800E+02  0.7818608E-02  0.1130116E+00
         25   -1    0    0    0    0  0.00000000000E+00  0.00000000000E+00  0.99999998245E-14  0.12500000000E+03  0.12500000000E+03 0.  0.
        -11    1    3    3    0    0  0.34760186476E+02  0.79180521990E+01  0.38908032669E+02  0.52771214889E+02  0.51100000000E-03 0. -1.
         23    2    1    0    0    0 -0.16406478349E+01  0.21128327456E+02  0.19984008821E+02  0.95871688085E+02  0.91339597226E+02 0.  0.
         11    1    3    3    0    0 -0.36400834310E+02  0.13210275257E+02 -0.18924023848E+02  0.43100473196E+02  0.51100000000E-03 0.  1.
         22    1    1    0    0    0  0.16406478349E+01 -0.21128327456E+02 -0.19984008821E+02  0.29128311915E+02  0.00000000000E+00 0. -1.
</event>
<event>
 5    1  0.1692178E-003  0.9118800E+02  0.7818608E-02  0.1130116E+00
         25   -1    0    0    0    0  0.00000000000E+00  0.00000000000E+00  0.99999998245E-14  0.12500000000E+03  0.12500000000E+03 0.  0.
        -11    1    3    3    0    0  0.25972206332E+02 -0.29764719358E+02 -0.46161224970E+02  0.60756503448E+02  0.51100000000E-03 0. -1.
         23    2    1    0    0    0  0.21500726487E+02 -0.11653007734E+02 -0.17603493984E+02  0.94867677999E+02  0.89955097130E+02 0.  0.
         11    1    3    3    0    0 -0.44714798443E+01  0.18111711624E+02  0.28557730986E+02  0.34111174551E+02  0.51100000000E-03 0.  1.
         22    1    1    0    0    0 -0.21500726487E+02  0.11653007734E+02  0.17603493984E+02  0.30132322001E+02  0.00000000000E+00 0. -1.
</event>
<event>
 5    1  0.1692178E-003  0.9118800E+02  0.7818608E-02  0.1130116E+00
         25   -1    0    0    0    0  0.00000000000E+00  0.00000000000E+00  0.99999998245E-14  0.12500000000E+03  0.12500000000E+03 0.  0.
        -11    1    3    3    0    0  0.28945605877E+02  0.16100053720E+02 -0.13029861519E+01  0.33147512766E+02  0.51100000000E-03 0.  1.
         23    2    1    0    0    0 -0.22816760403E+02 -0.18020360719E+02 -0.59680125401E+01  0.95319111715E+02  0.90580229237E+02 0.  0.
         11    1    3    3    0    0 -0.51762366280E+02 -0.34120414438E+02 -0.46650263882E+01  0.62171598949E+02  0.51100000000E-03 0. -1.
         22    1    1    0    0    0  0.22816760403E+02  0.18020360719E+02  0.59680125401E+01  0.29680888285E+02  0.00000000000E+00 0. -1.
</event>
<event>
 5    1  0.1692178E-003  0.9118800E+02  0.7818608E-02  0.1130116E+00
         25   -1    0    0    0    0  0.00000000000E+00  0.00000000000E+00  0.99999998245E-14  0.12500000000E+03  0.12500000000E+03 0.  0.
        -11    1    3    3    0    0 -0.39721778071E+01  0.25688510329E+02  0.23771227868E+02  0.35224267687E+02  0.51100000000E-03 0.  1.
         23    2    1    0    0    0 -0.14855452984E+02 -0.93344015329E+01 -0.23888060078E+02  0.95361259311E+02  0.90638373925E+02 0.  0.
         11    1    3    3    0    0 -0.10883275177E+02 -0.35022911862E+02 -0.47659287946E+02  0.60136991624E+02  0.51100000000E-03 0. -1.
         22    1    1    0    0    0  0.14855452984E+02  0.93344015329E+01  0.23888060078E+02  0.29638740689E+02  0.00000000000E+00 0. -1.
</event>
<event>
 5    1  0.1692178E-003  0.9118800E+02  0.7818608E-02  0.1130116E+00
         25   -1    0    0    0    0  0.00000000000E+00  0.00000000000E+00  0.99999998245E-14  0.12500000000E+03  0.12500000000E+03 0.  0.
        -11    1    3    3    0    0 -0.15367938295E+02  0.19530656494E+02 -0.26825219463E+02  0.36567915856E+02  0.51100000000E-03 0.  1.
         23    2    1    0    0    0  0.23110027553E+02 -0.18850812353E+02 -0.75139456406E+01  0.94244742255E+02  0.89085271307E+02 0.  0.
         11    1    3    3    0    0  0.38477965847E+02 -0.38381468847E+02  0.19311273823E+02  0.57676826400E+02  0.51100000000E-03 0. -1.
         22    1    1    0    0    0 -0.23110027553E+02  0.18850812353E+02  0.75139456406E+01  0.30755257745E+02  0.00000000000E+00 0. -1.
</event>
<event>
 5    1  0.1692178E-003  0.9118800E+02  0.7818608E-02  0.1130116E+00
         25   -1    0    0    0    0  0.00000000000E+00  0.00000000000E+00  0.99999998245E-14  0.12500000000E+03  0.12500000000E+03 0.  0.
        -11    1    3    3    0    0 -0.11439496009E+02  0.35750193685E+02  0.21226956133E+02  0.43122176248E+02  0.51100000000E-03 0. -1.
         23    2    1    0    0    0  0.10002149001E+02 -0.11617768852E+02  0.25451228068E+02  0.95288376889E+02  0.90537805486E+02 0.  0.
         11    1    3    3    0    0  0.21441645010E+02 -0.47367962537E+02  0.42242719348E+01  0.52166200641E+02  0.51100000000E-03 0.  1.
         22    1    1    0    0    0 -0.10002149001E+02  0.11617768852E+02 -0.25451228068E+02  0.29711623111E+02  0.00000000000E+00 0.  1.
</event>
<event>
 5    1  0.1692178E-003  0.9118800E+02  0.7818608E-02  0.1130116E+00
         25   -1    0    0    0    0  0.00000000000E+00  0.00000000000E+00  0.99999998245E-14  0.12500000000E+03  0.12500000000E+03 0.  0.
        -11    1    3    3    0    0 -0.27513840104E+02 -0.24926003630E+02  0.12147921403E+02  0.39062629826E+02  0.51100000000E-03 0. -1.
         23    2    1    0    0    0  0.26770474923E+02 -0.97003729036E+01  0.11594007933E+01  0.96502635696E+02  0.92199018021E+02 0.  0.
         11    1    3    3    0    0  0.54284315027E+02  0.15225630726E+02 -0.10988520609E+02  0.57440005870E+02  0.51100000000E-03 0.  1.
         22    1    1    0    0    0 -0.26770474923E+02  0.97003729036E+01 -0.11594007933E+01  0.28497364304E+02  0.00000000000E+00 0.  1.
</event>
<event>
 5    1  0.1692178E-003  0.9118800E+02  0.7818608E-02  0.1130116E+00
         25   -1    0    0    0    0  0.00000000000E+00  0.00000000000E+00  0.99999998245E-14  0.12500000000E+03  0.12500000000E+03 0.  0.
        -11    1    3    3    0    0  0.20703685875E+02 -0.52015453333E+01 -0.22925313120E+02  0.31325208133E+02  0.51100000000E-03 0.  1.
         23    2    1    0    0    0 -0.10208537685E+02 -0.21331890159E+02  0.24996454435E+02  0.90589441828E+02  0.83799525399E+02 0.  0.
         11    1    3    3    0    0 -0.30912223560E+02 -0.16130344825E+02  0.47921767554E+02  0.59264233695E+02  0.51100000000E-03 0. -1.
         22    1    1    0    0    0  0.10208537685E+02  0.21331890159E+02 -0.24996454435E+02  0.34410558172E+02  0.00000000000E+00 0. -1.
</event>
<event>
 5    1  0.1692178E-003  0.9118800E+02  0.7818608E-02  0.1130116E+00
         25   -1    0    0    0    0  0.00000000000E+00  0.00000000000E+00  0.99999998245E-14  0.12500000000E+03  0.12500000000E+03 0.  0.
        -11    1    3    3    0    0  0.37786063501E+01 -0.49977936708E+02 -0.29875249298E+02  0.58348972094E+02  0.51100000000E-03 0.  1.
         23    2    1    0    0    0  0.87695805164E+01 -0.27633441589E+02  0.25347588703E-01  0.96008392956E+02  0.91526489275E+02 0.  0.
         11    1    3    3    0    0  0.49909741663E+01  0.22344495119E+02  0.29900596887E+02  0.37659420863E+02  0.51100000000E-03 0. -1.
         22    1    1    0    0    0 -0.87695805164E+01  0.27633441589E+02 -0.25347588703E-01  0.28991607044E+02  0.00000000000E+00 0.  1.
</event>
<event>
 5    1  0.1692178E-003  0.9118800E+02  0.7818608E-02  0.1130116E+00
         25   -1    0    0    0    0  0.00000000000E+00  0.00000000000E+00  0.99999998245E-14  0.12500000000E+03  0.12500000000E+03 0.  0.
        -11    1    3    3    0    0 -0.38901143798E+02 -0.42338723282E+02  0.11801928863E+02  0.58695417224E+02  0.51100000000E-03 0.  1.
         23    2    1    0    0    0 -0.73208398664E+01 -0.27022973766E+02 -0.31112679347E+01  0.96830587588E+02  0.92642576048E+02 0.  0.
         11    1    3    3    0    0  0.31580303932E+02  0.15315749516E+02 -0.14913196798E+02  0.38135170364E+02  0.51100000000E-03 0. -1.
         22    1    1    0    0    0  0.73208398664E+01  0.27022973766E+02  0.31112679347E+01  0.28169412412E+02  0.00000000000E+00 0.  1.
</event>
<event>
 5    1  0.1692178E-003  0.9118800E+02  0.7818608E-02  0.1130116E+00
         25   -1    0    0    0    0  0.00000000000E+00  0.00000000000E+00  0.99999998245E-14  0.12500000000E+03  0.12500000000E+03 0.  0.
        -11    1    3    3    0    0 -0.12358258379E+02 -0.59868192098E+01  0.45653431542E+02  0.47673938019E+02  0.51100000000E-03 0.  1.
         23    2    1    0    0    0 -0.66234770605E+01 -0.27524553464E+02  0.20841606164E+01  0.96613115401E+02  0.92348680826E+02 0.  0.
         11    1    3    3    0    0  0.57347813190E+01 -0.21537734254E+02 -0.43569270926E+02  0.48939177382E+02  0.51100000000E-03 0. -1.
         22    1    1    0    0    0  0.66234770605E+01  0.27524553464E+02 -0.20841606164E+01  0.28386884599E+02  0.00000000000E+00 0.  1.
</event>
<event>
 5    1  0.1692178E-003  0.9118800E+02  0.7818608E-02  0.1130116E+00
         25   -1    0    0    0    0  0.00000000000E+00  0.00000000000E+00  0.99999998245E-14  0.12500000000E+03  0.12500000000E+03 0.  0.
        -11    1    3    3    0    0 -0.46879233693E+02 -0.26555161163E+02 -0.28774796295E+02  0.61080504566E+02  0.51100000000E-03 0.  1.
         23    2    1    0    0    0 -0.23807609524E+02 -0.38550346992E+01 -0.16872967621E+02  0.95565995853E+02  0.90920289063E+02 0.  0.
         11    1    3    3    0    0  0.23071624169E+02  0.22700126464E+02  0.11901828674E+02  0.34485491287E+02  0.51100000000E-03 0. -1.
         22    1    1    0    0    0  0.23807609524E+02  0.38550346992E+01  0.16872967621E+02  0.29434004147E+02  0.00000000000E+00 0.  1.
</event>
<event>
 5    1  0.1692178E-003  0.9118800E+02  0.7818608E-02  0.1130116E+00
         25   -1    0    0    0    0  0.00000000000E+00  0.00000000000E+00  0.99999998245E-14  0.12500000000E+03  0.12500000000E+03 0.  0.
        -11    1    3    3    0    0 -0.20169395494E+02  0.47452051881E+02 -0.22581501857E+02  0.56288773025E+02  0.51100000000E-03 0. -1.
         23    2    1    0    0    0  0.67845517630E+01  0.15516510812E+02 -0.20883264525E+02  0.98113144705E+02  0.94357226413E+02 0.  0.
         11    1    3    3    0    0  0.26953947257E+02 -0.31935541069E+02  0.16982373315E+01  0.41824371680E+02  0.51100000000E-03 0.  1.
         22    1    1    0    0    0 -0.67845517630E+01 -0.15516510812E+02  0.20883264525E+02  0.26886855295E+02  0.00000000000E+00 0. -1.
</event>
<event>
 5    1  0.1692178E-003  0.9118800E+02  0.7818608E-02  0.1130116E+00
         25   -1    0    0    0    0  0.00000000000E+00  0.00000000000E+00  0.99999998245E-14  0.12500000000E+03  0.12500000000E+03 0.  0.
        -11    1    3    3    0    0 -0.97548282306E+01 -0.12730408218E+02  0.30957650267E+02  0.34865399431E+02  0.51100000000E-03 0. -1.
         23    2    1    0    0    0  0.93320086845E+01  0.24268808271E+02 -0.13441227513E+02  0.95730083054E+02  0.91145601998E+02 0.  0.
         11    1    3    3    0    0  0.19086836915E+02  0.36999216488E+02 -0.44398877780E+02  0.60864683623E+02  0.51100000000E-03 0.  1.
         22    1    1    0    0    0 -0.93320086845E+01 -0.24268808271E+02  0.13441227513E+02  0.29269916946E+02  0.00000000000E+00 0.  1.
</event>
<event>
 5    1  0.1692178E-003  0.9118800E+02  0.7818608E-02  0.1130116E+00
         25   -1    0    0    0    0  0.00000000000E+00  0.00000000000E+00  0.99999998245E-14  0.12500000000E+03  0.12500000000E+03 0.  0.
        -11    1    3    3    0    0 -0.13416951367E+01 -0.32990279830E+02 -0.34613228210E+02  0.47835491808E+02  0.51100000000E-03 0. -1.
         23    2    1    0    0    0 -0.12403325557E+02 -0.36699928571E+01 -0.42852369545E+02  0.80237997050E+02  0.66592036029E+02 0.  0.
         11    1    3    3    0    0 -0.11061630421E+02  0.29320286973E+02 -0.82391413351E+01  0.32402505242E+02  0.51100000000E-03 0.  1.
         22    1    1    0    0    0  0.12403325557E+02  0.36699928571E+01  0.42852369545E+02  0.44762002950E+02  0.00000000000E+00 0. -1.
</event>
<event>
 5    1  0.1692178E-003  0.9118800E+02  0.7818608E-02  0.1130116E+00
         25   -1    0    0    0    0  0.00000000000E+00  0.00000000000E+00  0.99999998245E-14  0.12500000000E+03  0.12500000000E+03 0.  0.
        -11    1    3    3    0    0  0.49226228472E+02  0.15932088942E+02  0.44636688982E+01  0.51932430792E+02  0.51100000000E-03 0.  1.
         23    2    1    0    0    0  0.23950030132E+02 -0.20745314573E-01 -0.22464555827E+02  0.92163120699E+02  0.86114924228E+02 0.  0.
         11    1    3    3    0    0 -0.25276198340E+02 -0.15952834256E+02 -0.26928224725E+02  0.40230689908E+02  0.51100000000E-03 0. -1.
         22    1    1    0    0    0 -0.23950030132E+02  0.20745314573E-01  0.22464555827E+02  0.32836879301E+02  0.00000000000E+00 0. -1.
</event>
<event>
 5    1  0.1692178E-003  0.9118800E+02  0.7818608E-02  0.1130116E+00
         25   -1    0    0    0    0  0.00000000000E+00  0.00000000000E+00  0.99999998245E-14  0.12500000000E+03  0.12500000000E+03 0.  0.
        -11    1    3    3    0    0  0.36240483406E+02  0.72476381658E+01  0.23156608752E+02  0.43613408783E+02  0.51100000000E-03 0.  1.
         23    2    1    0    0    0 -0.34631319244E+01  0.27715343669E+02 -0.52921048763E+01  0.96572197914E+02  0.92293279704E+02 0.  0.
         11    1    3    3    0    0 -0.39703615331E+02  0.20467705503E+02 -0.28448713629E+02  0.52958789131E+02  0.51100000000E-03 0. -1.
         22    1    1    0    0    0  0.34631319244E+01 -0.27715343669E+02  0.52921048763E+01  0.28427802086E+02  0.00000000000E+00 0. -1.
</event>
<event>
 5    1  0.1692178E-003  0.9118800E+02  0.7818608E-02  0.1130116E+00
         25   -1    0    0    0    0  0.00000000000E+00  0.00000000000E+00  0.99999998245E-14  0.12500000000E+03  0.12500000000E+03 0.  0.
        -11    1    3    3    0    0  0.57437884951E+01  0.54169834445E+02 -0.29828893253E+02  0.62105756119E+02  0.51100000000E-03 0.  1.
         23    2    1    0    0    0 -0.10060725280E+01  0.28432705583E+02 -0.12072249776E+02  0.94094172987E+02  0.88873748918E+02 0.  0.
         11    1    3    3    0    0 -0.67498610231E+01 -0.25737128862E+02  0.17756643477E+02  0.31988416868E+02  0.51100000000E-03 0. -1.
         22    1    1    0    0    0  0.10060725280E+01 -0.28432705583E+02  0.12072249776E+02  0.30905827013E+02  0.00000000000E+00 0.  1.
</event>
<event>
 5    1  0.1692178E-003  0.9118800E+02  0.7818608E-02  0.1130116E+00
         25   -1    0    0    0    0  0.00000000000E+00  0.00000000000E+00  0.99999998245E-14  0.12500000000E+03  0.12500000000E+03 0.  0.
        -11    1    3    3    0    0 -0.51010888732E-01  0.42531637391E+02 -0.39089642223E+02  0.57766278318E+02  0.51100000000E-03 0.  1.
         23    2    1    0    0    0  0.16503089018E+02  0.17967710543E+02 -0.12423430062E+02  0.97622414573E+02  0.93704875238E+02 0.  0.
         11    1    3    3    0    0  0.16554099906E+02 -0.24563926848E+02  0.26666212162E+02  0.39856136255E+02  0.51100000000E-03 0. -1.
         22    1    1    0    0    0 -0.16503089018E+02 -0.17967710543E+02  0.12423430062E+02  0.27377585427E+02  0.00000000000E+00 0.  1.
</event>
<event>
 5    1  0.1692178E-003  0.9118800E+02  0.7818608E-02  0.1130116E+00
         25   -1    0    0    0    0  0.00000000000E+00  0.00000000000E+00  0.99999998245E-14  0.12500000000E+03  0.12500000000E+03 0.  0.
        -11    1    3    3    0    0 -0.48092541734E-01 -0.39049987737E+02 -0.42146631473E+02  0.57456439151E+02  0.51100000000E-03 0. -1.
         23    2    1    0    0    0 -0.12612613774E+02 -0.24871377625E+02 -0.88897553880E+01  0.95730712307E+02  0.91146464971E+02 0.  0.
         11    1    3    3    0    0 -0.12564521232E+02  0.14178610111E+02  0.33256876085E+02  0.38274273156E+02  0.51100000000E-03 0.  1.
         22    1    1    0    0    0  0.12612613774E+02  0.24871377625E+02  0.88897553880E+01  0.29269287693E+02  0.00000000000E+00 0.  1.
</event>
<event>
 4    1  0.1692178E-003  0.9118800E+02  0.7818608E-02  0.1130116E+00
         25   -1    0    0    0    0  0.00000000000E+00  0.00000000000E+00  0.99999998245E-14  0.12500000000E+03  0.12500000000E+03 0.  0.
        -11    1    1    0    0    0 -0.38023687804E+02 -0.81284725181E+01  0.80204014038E+01  0.39701382075E+02  0.51100000000E-03 0.  1.
         11    1    1    0    0    0 -0.13406127192E+02  0.26683705673E+02 -0.67179055918E+01  0.30608408168E+02  0.51100000000E-03 0. -1.
         22    1    1    0    0    0  0.51429814996E+02 -0.18555233155E+02 -0.13024958120E+01  0.54690209758E+02  0.00000000000E+00 0. -1.
</event>
<event>
 5    1  0.1692178E-003  0.9118800E+02  0.7818608E-02  0.1130116E+00
         25   -1    0    0    0    0  0.00000000000E+00  0.00000000000E+00  0.99999998245E-14  0.12500000000E+03  0.12500000000E+03 0.  0.
        -11    1    3    3    0    0  0.14458322235E+01  0.47940193516E+02 -0.34839120148E+01  0.48088358554E+02  0.51100000000E-03 0. -1.
         23    2    1    0    0    0  0.27767077451E+02  0.79736023008E+01 -0.30962543481E+01  0.95945297888E+02  0.91440278171E+02 0.  0.
         11    1    3    3    0    0  0.26321245228E+02 -0.39966591215E+02  0.38765766671E+00  0.47856939334E+02  0.51100000000E-03 0.  1.
         22    1    1    0    0    0 -0.27767077451E+02 -0.79736023008E+01  0.30962543481E+01  0.29054702112E+02  0.00000000000E+00 0. -1.
</event>
<event>
 5    1  0.1692178E-003  0.9118800E+02  0.7818608E-02  0.1130116E+00
         25   -1    0    0    0    0  0.00000000000E+00  0.00000000000E+00  0.99999998245E-14  0.12500000000E+03  0.12500000000E+03 0.  0.
        -11    1    3    3    0    0  0.63995327756E+01  0.25567382685E+02  0.21589066911E+02  0.34069530191E+02  0.51100000000E-03 0.  1.
         23    2    1    0    0    0  0.36000689283E+01 -0.24047453042E+02 -0.15575886815E+02  0.96123560743E+02  0.91683641865E+02 0.  0.
         11    1    3    3    0    0 -0.27994638473E+01 -0.49614835727E+02 -0.37164953726E+02  0.62054030552E+02  0.51100000000E-03 0. -1.
         22    1    1    0    0    0 -0.36000689283E+01  0.24047453042E+02  0.15575886815E+02  0.28876439257E+02  0.00000000000E+00 0. -1.
</event>
<event>
 5    1  0.1692178E-003  0.9118800E+02  0.7818608E-02  0.1130116E+00
         25   -1    0    0    0    0  0.00000000000E+00  0.00000000000E+00  0.99999998245E-14  0.12500000000E+03  0.12500000000E+03 0.  0.
        -11    1    3    3    0    0  0.54594671870E+02 -0.12607050290E+02 -0.26288957572E+02  0.61892044756E+02  0.51100000000E-03 0.  1.
         23    2    1    0    0    0  0.27046546352E+02 -0.33490220362E+01 -0.67134104003E+01  0.96932198209E+02  0.92779575082E+02 0.  0.
         11    1    3    3    0    0 -0.27548125518E+02  0.92580282540E+01  0.19575547171E+02  0.35040153453E+02  0.51100000000E-03 0. -1.
         22    1    1    0    0    0 -0.27046546352E+02  0.33490220362E+01  0.67134104003E+01  0.28067801791E+02  0.00000000000E+00 0.  1.
</event>
<event>
 5    1  0.1692178E-003  0.9118800E+02  0.7818608E-02  0.1130116E+00
         25   -1    0    0    0    0  0.00000000000E+00  0.00000000000E+00  0.99999998245E-14  0.12500000000E+03  0.12500000000E+03 0.  0.
        -11    1    3    3    0    0 -0.35908594529E+02  0.28175909292E+01  0.31357622403E+02  0.47756323799E+02  0.51100000000E-03 0. -1.
         23    2    1    0    0    0 -0.82345495827E+01  0.28671676485E+02  0.31000037711E+01  0.95008620194E+02  0.90150735152E+02 0.  0.
         11    1    3    3    0    0  0.27674044946E+02  0.25854085556E+02 -0.28257618632E+02  0.47252296395E+02  0.51100000000E-03 0.  1.
         22    1    1    0    0    0  0.82345495827E+01 -0.28671676485E+02 -0.31000037711E+01  0.29991379806E+02  0.00000000000E+00 0. -1.
</event>
<event>
 5    1  0.1692178E-003  0.9118800E+02  0.7818608E-02  0.1130116E+00
         25   -1    0    0    0    0  0.00000000000E+00  0.00000000000E+00  0.99999998245E-14  0.12500000000E+03  0.12500000000E+03 0.  0.
        -11    1    3    3    0    0  0.13890276577E+02  0.22334689855E+02  0.37193161455E+01  0.26563348192E+02  0.51100000000E-03 0.  1.
         23    2    1    0    0    0 -0.10185642731E+02 -0.23643953090E+02 -0.27660197744E+02  0.87212827907E+02  0.78601571084E+02 0.  0.
         11    1    3    3    0    0 -0.24075919308E+02 -0.45978642945E+02 -0.31379513889E+02  0.60649479715E+02  0.51100000000E-03 0. -1.
         22    1    1    0    0    0  0.10185642731E+02  0.23643953090E+02  0.27660197744E+02  0.37787172093E+02  0.00000000000E+00 0. -1.
</event>
<event>
 5    1  0.1692178E-003  0.9118800E+02  0.7818608E-02  0.1130116E+00
         25   -1    0    0    0    0  0.00000000000E+00  0.00000000000E+00  0.99999998245E-14  0.12500000000E+03  0.12500000000E+03 0.  0.
        -11    1    3    3    0    0  0.35581687975E+02 -0.59451473547E+01 -0.26860970145E+02  0.44976805284E+02  0.51100000000E-03 0. -1.
         23    2    1    0    0    0  0.18621440782E+01 -0.30112523838E+02  0.76682939487E+00  0.94820210408E+02  0.89889112812E+02 0.  0.
         11    1    3    3    0    0 -0.33719543897E+02 -0.24167376484E+02  0.27627799540E+02  0.49843405124E+02  0.51100000000E-03 0.  1.
         22    1    1    0    0    0 -0.18621440782E+01  0.30112523838E+02 -0.76682939487E+00  0.30179789592E+02  0.00000000000E+00 0.  1.
</event>
<event>
 5    1  0.1692178E-003  0.9118800E+02  0.7818608E-02  0.1130116E+00
         25   -1    0    0    0    0  0.00000000000E+00  0.00000000000E+00  0.99999998245E-14  0.12500000000E+03  0.12500000000E+03 0.  0.
        -11    1    3    3    0    0  0.18182309673E+02 -0.31045114645E+02 -0.14207409124E+02  0.38681339205E+02  0.51100000000E-03 0.  1.
         23    2    1    0    0    0 -0.28636399641E+02  0.45127105858E+00 -0.64923887740E+01  0.95633383887E+02  0.91012889042E+02 0.  0.
         11    1    3    3    0    0 -0.46818709314E+02  0.31496385704E+02  0.77150203498E+01  0.56952044682E+02  0.51100000000E-03 0. -1.
         22    1    1    0    0    0  0.28636399641E+02 -0.45127105858E+00  0.64923887740E+01  0.29366616113E+02  0.00000000000E+00 0. -1.
</event>
<event>
 5    1  0.1692178E-003  0.9118800E+02  0.7818608E-02  0.1130116E+00
         25   -1    0    0    0    0  0.00000000000E+00  0.00000000000E+00  0.99999998245E-14  0.12500000000E+03  0.12500000000E+03 0.  0.
        -11    1    3    3    0    0  0.67208255377E+01  0.37466932002E+02  0.45543715178E+02  0.59356301115E+02  0.51100000000E-03 0. -1.
         23    2    1    0    0    0  0.11366322672E+01  0.25424099176E+02  0.93841335938E+01  0.97875496039E+02  0.94041873704E+02 0.  0.
         11    1    3    3    0    0 -0.55841932705E+01 -0.12042832826E+02 -0.36159581584E+02  0.38519194924E+02  0.51100000000E-03 0.  1.
         22    1    1    0    0    0 -0.11366322672E+01 -0.25424099176E+02 -0.93841335938E+01  0.27124503961E+02  0.00000000000E+00 0. -1.
</event>
<event>
 5    1  0.1692178E-003  0.9118800E+02  0.7818608E-02  0.1130116E+00
         25   -1    0    0    0    0  0.00000000000E+00  0.00000000000E+00  0.99999998245E-14  0.12500000000E+03  0.12500000000E+03 0.  0.
        -11    1    3    3    0    0 -0.11023217099E+02  0.28520603737E+02  0.47348650307E+02  0.56363382075E+02  0.51100000000E-03 0. -1.
         23    2    1    0    0    0 -0.10609904529E+02 -0.77842198730E+01  0.98178050547E+01  0.10858191700E+03  0.10733349548E+03 0.  0.
         11    1    3    3    0    0  0.41331256966E+00 -0.36304823610E+02 -0.37530845252E+02  0.52218534930E+02  0.51100000000E-03 0.  1.
         22    1    1    0    0    0  0.10609904529E+02  0.77842198730E+01 -0.98178050547E+01  0.16418082995E+02  0.00000000000E+00 0. -1.
</event>
<event>
 5    1  0.1692178E-003  0.9118800E+02  0.7818608E-02  0.1130116E+00
         25   -1    0    0    0    0  0.00000000000E+00  0.00000000000E+00  0.99999998245E-14  0.12500000000E+03  0.12500000000E+03 0.  0.
        -11    1    3    3    0    0 -0.29396003628E+02 -0.91041709692E+01 -0.23004489865E+02  0.38421576133E+02  0.51100000000E-03 0. -1.
         23    2    1    0    0    0  0.22398149065E+02  0.13324742532E+02 -0.13469095138E+02  0.95663293148E+02  0.91053958107E+02 0.  0.
         11    1    3    3    0    0  0.51794152693E+02  0.22428913501E+02  0.95353947271E+01  0.57241717015E+02  0.51100000000E-03 0.  1.
         22    1    1    0    0    0 -0.22398149065E+02 -0.13324742532E+02  0.13469095138E+02  0.29336706852E+02  0.00000000000E+00 0.  1.
</event>
<event>
 5    1  0.1692178E-003  0.9118800E+02  0.7818608E-02  0.1130116E+00
         25   -1    0    0    0    0  0.00000000000E+00  0.00000000000E+00  0.99999998245E-14  0.12500000000E+03  0.12500000000E+03 0.  0.
        -11    1    3    3    0    0 -0.45995889999E+02 -0.30856400574E+01  0.33843072304E+02  0.57188255915E+02  0.51100000000E-03 0. -1.
         23    2    1    0    0    0 -0.21985619080E+02 -0.17971223257E+02  0.79437690858E+01  0.95513803585E+02  0.90848505196E+02 0.  0.
         11    1    3    3    0    0  0.24010270919E+02 -0.14885583200E+02 -0.25899303218E+02  0.38325547670E+02  0.51100000000E-03 0.  1.
         22    1    1    0    0    0  0.21985619080E+02  0.17971223257E+02 -0.79437690858E+01  0.29486196415E+02  0.00000000000E+00 0. -1.
</event>
<event>
 5    1  0.1692178E-003  0.9118800E+02  0.7818608E-02  0.1130116E+00
         25   -1    0    0    0    0  0.00000000000E+00  0.00000000000E+00  0.99999998245E-14  0.12500000000E+03  0.12500000000E+03 0.  0.
        -11    1    3    3    0    0  0.13189251654E+02  0.10232429756E+02 -0.31621040640E+02  0.35756806196E+02  0.51100000000E-03 0.  1.
         23    2    1    0    0    0 -0.10000225848E+02 -0.25764908066E+02  0.10131957571E+02  0.95563771150E+02  0.90917230422E+02 0.  0.
         11    1    3    3    0    0 -0.23189477503E+02 -0.35997337823E+02  0.41752998211E+02  0.59806964954E+02  0.51100000000E-03 0. -1.
         22    1    1    0    0    0  0.10000225848E+02  0.25764908066E+02 -0.10131957571E+02  0.29436228850E+02  0.00000000000E+00 0. -1.
</event>
<event>
 5    1  0.1692178E-003  0.9118800E+02  0.7818608E-02  0.1130116E+00
         25   -1    0    0    0    0  0.00000000000E+00  0.00000000000E+00  0.99999998245E-14  0.12500000000E+03  0.12500000000E+03 0.  0.
        -11    1    3    3    0    0  0.29234728551E+02 -0.39268668303E+02 -0.32840102944E+02  0.58950572732E+02  0.51100000000E-03 0. -1.
         23    2    1    0    0    0  0.23489190538E+02 -0.74195630950E+01 -0.17617963650E+02  0.94714943753E+02  0.89742609380E+02 0.  0.
         11    1    3    3    0    0 -0.57455380129E+01  0.31849105208E+02  0.15222139294E+02  0.35764371021E+02  0.51100000000E-03 0.  1.
         22    1    1    0    0    0 -0.23489190538E+02  0.74195630950E+01  0.17617963650E+02  0.30285056247E+02  0.00000000000E+00 0. -1.
</event>
<event>
 5    1  0.1692178E-003  0.9118800E+02  0.7818608E-02  0.1130116E+00
         25   -1    0    0    0    0  0.00000000000E+00  0.00000000000E+00  0.99999998245E-14  0.12500000000E+03  0.12500000000E+03 0.  0.
        -11    1    3    3    0    0 -0.36287974899E+02  0.20570927055E+00 -0.29908363362E+02  0.47025202156E+02  0.51100000000E-03 0.  1.
         23    2    1    0    0    0 -0.15596668180E+02 -0.25126105443E+02  0.51604344106E+01  0.94979884805E+02  0.90110882812E+02 0.  0.
         11    1    3    3    0    0  0.20691306719E+02 -0.25331814713E+02  0.35068797773E+02  0.47954682648E+02  0.51100000000E-03 0. -1.
         22    1    1    0    0    0  0.15596668180E+02  0.25126105443E+02 -0.51604344106E+01  0.30020115195E+02  0.00000000000E+00 0.  1.
</event>
<event>
 5    1  0.1692178E-003  0.9118800E+02  0.7818608E-02  0.1130116E+00
         25   -1    0    0    0    0  0.00000000000E+00  0.00000000000E+00  0.99999998245E-14  0.12500000000E+03  0.12500000000E+03 0.  0.
        -11    1    3    3    0    0  0.21822562905E+02  0.28275686029E+02  0.25211214674E+02  0.43718920592E+02  0.51100000000E-03 0.  1.
         23    2    1    0    0    0  0.28004359474E+02 -0.14870912521E+02  0.16911220120E+01  0.93247077577E+02  0.87674223089E+02 0.  0.
         11    1    3    3    0    0  0.61817965689E+01 -0.43146598549E+02 -0.23520092662E+02  0.49528156985E+02  0.51100000000E-03 0. -1.
         22    1    1    0    0    0 -0.28004359474E+02  0.14870912521E+02 -0.16911220120E+01  0.31752922423E+02  0.00000000000E+00 0. -1.
</event>
<event>
 5    1  0.1692178E-003  0.9118800E+02  0.7818608E-02  0.1130116E+00
         25   -1    0    0    0    0  0.00000000000E+00  0.00000000000E+00  0.99999998245E-14  0.12500000000E+03  0.12500000000E+03 0.  0.
        -11    1    3    3    0    0  0.33615770502E+02  0.60093858168E+00 -0.25901489281E+02  0.42441351308E+02  0.51100000000E-03 0. -1.
         23    2    1    0    0    0 -0.18862496347E+02  0.99390951490E+01 -0.19463218267E+02  0.96131396880E+02  0.91694324906E+02 0.  0.
         11    1    3    3    0    0 -0.52478266849E+02  0.93381565673E+01  0.64382710141E+01  0.53690045571E+02  0.51100000000E-03 0.  1.
         22    1    1    0    0    0  0.18862496347E+02 -0.99390951490E+01  0.19463218267E+02  0.28868603120E+02  0.00000000000E+00 0.  1.
</event>
<event>
 5    1  0.1692178E-003  0.9118800E+02  0.7818608E-02  0.1130116E+00
         25   -1    0    0    0    0  0.00000000000E+00  0.00000000000E+00  0.99999998245E-14  0.12500000000E+03  0.12500000000E+03 0.  0.
        -11    1    3    3    0    0 -0.12251606030E+02 -0.31135826638E+02 -0.88626428406E+01  0.34613407649E+02  0.51100000000E-03 0.  1.
         23    2    1    0    0    0  0.14515567301E+02  0.23336397703E+02 -0.11129974803E+02  0.95349275036E+02  0.90621844822E+02 0.  0.
         11    1    3    3    0    0  0.26767173330E+02  0.54472224340E+02 -0.22673319622E+01  0.60735867386E+02  0.51100000000E-03 0. -1.
         22    1    1    0    0    0 -0.14515567301E+02 -0.23336397703E+02  0.11129974803E+02  0.29650724964E+02  0.00000000000E+00 0. -1.
</event>
<event>
 5    1  0.1692178E-003  0.9118800E+02  0.7818608E-02  0.1130116E+00
         25   -1    0    0    0    0  0.00000000000E+00  0.00000000000E+00  0.99999998245E-14  0.12500000000E+03  0.12500000000E+03 0.  0.
        -11    1    3    3    0    0  0.12992080338E+02 -0.27286885497E+02  0.11637628626E+02  0.32385223049E+02  0.51100000000E-03 0. -1.
         23    2    1    0    0    0 -0.23712171722E+02  0.19252049327E+02 -0.52347246227E+01  0.94011117592E+02  0.88756855498E+02 0.  0.
         11    1    3    3    0    0 -0.36704252060E+02  0.46538934824E+02 -0.16872353249E+02  0.61625894543E+02  0.51100000000E-03 0.  1.
         22    1    1    0    0    0  0.23712171722E+02 -0.19252049327E+02  0.52347246227E+01  0.30988882408E+02  0.00000000000E+00 0.  1.
</event>
<event>
 5    1  0.1692178E-003  0.9118800E+02  0.7818608E-02  0.1130116E+00
         25   -1    0    0    0    0  0.00000000000E+00  0.00000000000E+00  0.99999998245E-14  0.12500000000E+03  0.12500000000E+03 0.  0.
        -11    1    3    3    0    0  0.30170377505E+01 -0.28929525513E+02 -0.31273288720E+02  0.42708764332E+02  0.51100000000E-03 0. -1.
         23    2    1    0    0    0  0.75969276332E+00 -0.18906234718E+02  0.21434572698E+02  0.96408676998E+02  0.92071544189E+02 0.  0.
         11    1    3    3    0    0 -0.22573449872E+01  0.10023290795E+02  0.52707861418E+02  0.53699912665E+02  0.51100000000E-03 0.  1.
         22    1    1    0    0    0 -0.75969276332E+00  0.18906234718E+02 -0.21434572698E+02  0.28591323002E+02  0.00000000000E+00 0.  1.
</event>
<event>
 5    1  0.1692178E-003  0.9118800E+02  0.7818608E-02  0.1130116E+00
         25   -1    0    0    0    0  0.00000000000E+00  0.00000000000E+00  0.99999998245E-14  0.12500000000E+03  0.12500000000E+03 0.  0.
        -11    1    3    3    0    0 -0.35319262836E+02  0.29724489975E+01 -0.72577058023E+01  0.36179553260E+02  0.51100000000E-03 0. -1.
         23    2    1    0    0    0  0.15084094301E+02 -0.12368681753E+02  0.21307936615E+02  0.96111553313E+02  0.91667269667E+02 0.  0.
         11    1    3    3    0    0  0.50403357137E+02 -0.15341130751E+02  0.28565642417E+02  0.59932000053E+02  0.51100000000E-03 0.  1.
         22    1    1    0    0    0 -0.15084094301E+02  0.12368681753E+02 -0.21307936615E+02  0.28888446687E+02  0.00000000000E+00 0.  1.
</event>
<event>
 5    1  0.1692178E-003  0.9118800E+02  0.7818608E-02  0.1130116E+00
         25   -1    0    0    0    0  0.00000000000E+00  0.00000000000E+00  0.99999998245E-14  0.12500000000E+03  0.12500000000E+03 0.  0.
        -11    1    3    3    0    0 -0.28871765156E+02 -0.40623413485E+01 -0.53685766324E+02  0.61092085792E+02  0.51100000000E-03 0.  1.
         23    2    1    0    0    0 -0.21452489702E+02 -0.74865194682E+01 -0.23713983540E+02  0.92157796915E+02  0.86107196150E+02 0.  0.
         11    1    3    3    0    0  0.74192754539E+01 -0.34241781197E+01  0.29971782784E+02  0.31065711123E+02  0.51100000000E-03 0. -1.
         22    1    1    0    0    0  0.21452489702E+02  0.74865194682E+01  0.23713983540E+02  0.32842203085E+02  0.00000000000E+00 0.  1.
</event>
<event>
 5    1  0.1692178E-003  0.9118800E+02  0.7818608E-02  0.1130116E+00
         25   -1    0    0    0    0  0.00000000000E+00  0.00000000000E+00  0.99999998245E-14  0.12500000000E+03  0.12500000000E+03 0.  0.
        -11    1    3    3    0    0 -0.39360015253E+02  0.12866858331E+02 -0.18684400245E+02  0.45429876257E+02  0.51100000000E-03 0.  1.
         23    2    1    0    0    0 -0.16683438237E+02  0.62467215418E+00  0.24282280617E+02  0.95532111058E+02  0.90873691267E+02 0.  0.
         11    1    3    3    0    0  0.22676577015E+02 -0.12242186177E+02  0.42966680862E+02  0.50102234801E+02  0.51100000000E-03 0. -1.
         22    1    1    0    0    0  0.16683438237E+02 -0.62467215418E+00 -0.24282280617E+02  0.29467888942E+02  0.00000000000E+00 0.  1.
</event>
<event>
 5    1  0.1692178E-003  0.9118800E+02  0.7818608E-02  0.1130116E+00
         25   -1    0    0    0    0  0.00000000000E+00  0.00000000000E+00  0.99999998245E-14  0.12500000000E+03  0.12500000000E+03 0.  0.
        -11    1    3    3    0    0 -0.30646635396E+02 -0.26677471009E+02 -0.34230736144E+02  0.53128589458E+02  0.51100000000E-03 0. -1.
         23    2    1    0    0    0  0.11089065818E+02 -0.17091571302E+02 -0.11069671676E+02  0.10181321882E+03  0.99137806644E+02 0.  0.
         11    1    3    3    0    0  0.41735701214E+02  0.95858997071E+01  0.23161064468E+02  0.48684629367E+02  0.51100000000E-03 0.  1.
         22    1    1    0    0    0 -0.11089065818E+02  0.17091571302E+02  0.11069671676E+02  0.23186781175E+02  0.00000000000E+00 0. -1.
</event>
<event>
 5    1  0.1692178E-003  0.9118800E+02  0.7818608E-02  0.1130116E+00
         25   -1    0    0    0    0  0.00000000000E+00  0.00000000000E+00  0.99999998245E-14  0.12500000000E+03  0.12500000000E+03 0.  0.
        -11    1    3    3    0    0 -0.31820969682E+02 -0.25468310807E+02 -0.86867260263E+00  0.40767187286E+02  0.51100000000E-03 0.  1.
         23    2    1    0    0    0  0.78145257283E+01 -0.34315370791E+02 -0.18730043790E+02  0.85132393786E+02  0.75220332666E+02 0.  0.
         11    1    3    3    0    0  0.39635495410E+02 -0.88470599838E+01 -0.17861371187E+02  0.44365206499E+02  0.51100000000E-03 0. -1.
         22    1    1    0    0    0 -0.78145257283E+01  0.34315370791E+02  0.18730043790E+02  0.39867606214E+02  0.00000000000E+00 0. -1.
</event>
<event>
 5    1  0.1692178E-003  0.9118800E+02  0.7818608E-02  0.1130116E+00
         25   -1    0    0    0    0  0.00000000000E+00  0.00000000000E+00  0.99999998245E-14  0.12500000000E+03  0.12500000000E+03 0.  0.
        -11    1    3    3    0    0  0.10078363157E+02 -0.10415861205E+02  0.32122072708E+02  0.35240475648E+02  0.51100000000E-03 0.  1.
         23    2    1    0    0    0  0.24472349880E+02 -0.51687304919E+01 -0.22123155358E+02  0.91607700191E+02  0.85304894630E+02 0.  0.
         11    1    3    3    0    0  0.14393986722E+02  0.52471307135E+01 -0.54245228066E+02  0.56367224543E+02  0.51100000000E-03 0. -1.
         22    1    1    0    0    0 -0.24472349880E+02  0.51687304919E+01  0.22123155358E+02  0.33392299809E+02  0.00000000000E+00 0. -1.
</event>
<event>
 5    1  0.1692178E-003  0.9118800E+02  0.7818608E-02  0.1130116E+00
         25   -1    0    0    0    0  0.00000000000E+00  0.00000000000E+00  0.99999998245E-14  0.12500000000E+03  0.12500000000E+03 0.  0.
        -11    1    3    3    0    0 -0.11943307668E+02 -0.53263374906E+01 -0.35218051767E+02  0.37567587620E+02  0.51100000000E-03 0. -1.
         23    2    1    0    0    0 -0.54245470608E+00 -0.30662253064E+02  0.11767570676E+02  0.92152720970E+02  0.86099827192E+02 0.  0.
         11    1    3    3    0    0  0.11400852962E+02 -0.25335915573E+02  0.46985622443E+02  0.54585133350E+02  0.51100000000E-03 0.  1.
         22    1    1    0    0    0  0.54245470608E+00  0.30662253064E+02 -0.11767570676E+02  0.32847279030E+02  0.00000000000E+00 0.  1.
</event>
<event>
 5    1  0.1692178E-003  0.9118800E+02  0.7818608E-02  0.1130116E+00
         25   -1    0    0    0    0  0.00000000000E+00  0.00000000000E+00  0.99999998245E-14  0.12500000000E+03  0.12500000000E+03 0.  0.
        -11    1    3    3    0    0 -0.28968109327E+02  0.15400135118E+02 -0.51478882788E+02  0.61044171654E+02  0.51100000000E-03 0.  1.
         23    2    1    0    0    0 -0.16661056428E+02 -0.18088225427E+01 -0.24125745163E+02  0.95624598387E+02  0.91000821956E+02 0.  0.
         11    1    3    3    0    0  0.12307052899E+02 -0.17208957661E+02  0.27353137625E+02  0.34580426733E+02  0.51100000000E-03 0. -1.
         22    1    1    0    0    0  0.16661056428E+02  0.18088225427E+01  0.24125745163E+02  0.29375401613E+02  0.00000000000E+00 0.  1.
</event>
<event>
 5    1  0.1692178E-003  0.9118800E+02  0.7818608E-02  0.1130116E+00
         25   -1    0    0    0    0  0.00000000000E+00  0.00000000000E+00  0.99999998245E-14  0.12500000000E+03  0.12500000000E+03 0.  0.
        -11    1    3    3    0    0 -0.34470316232E+02 -0.19958893250E+02  0.42581648113E+02  0.58307434151E+02  0.51100000000E-03 0. -1.
         23    2    1    0    0    0 -0.23237471330E+02  0.39893873593E+01  0.12682776706E+02  0.98227848232E+02  0.94509058074E+02 0.  0.
         11    1    3    3    0    0  0.11232844903E+02  0.23948280610E+02 -0.29898871407E+02  0.39920414081E+02  0.51100000000E-03 0.  1.
         22    1    1    0    0    0  0.23237471330E+02 -0.39893873593E+01 -0.12682776706E+02  0.26772151768E+02  0.00000000000E+00 0.  1.
</event>
<event>
 5    1  0.1692178E-003  0.9118800E+02  0.7818608E-02  0.1130116E+00
         25   -1    0    0    0    0  0.00000000000E+00  0.00000000000E+00  0.99999998245E-14  0.12500000000E+03  0.12500000000E+03 0.  0.
        -11    1    3    3    0    0  0.29377727315E+02 -0.78370631502E+01  0.50381591613E+02  0.58845349814E+02  0.51100000000E-03 0.  1.
         23    2    1    0    0    0  0.21901242893E+02 -0.13198878350E+02  0.15107295308E+02  0.95299744084E+02  0.90553498116E+02 0.  0.
         11    1    3    3    0    0 -0.74764844228E+01 -0.53618151999E+01 -0.35274296305E+02  0.36454394270E+02  0.51100000000E-03 0. -1.
         22    1    1    0    0    0 -0.21901242893E+02  0.13198878350E+02 -0.15107295308E+02  0.29700255916E+02  0.00000000000E+00 0.  1.
</event>
<event>
 5    1  0.1692178E-003  0.9118800E+02  0.7818608E-02  0.1130116E+00
         25   -1    0    0    0    0  0.00000000000E+00  0.00000000000E+00  0.99999998245E-14  0.12500000000E+03  0.12500000000E+03 0.  0.
        -11    1    3    3    0    0 -0.21355766124E+02  0.14487773945E+02  0.27790747970E+02  0.37924794180E+02  0.51100000000E-03 0. -1.
         23    2    1    0    0    0 -0.71029664659E+01 -0.25667207661E+02 -0.11599185309E+02  0.95951785226E+02  0.91449146013E+02 0.  0.
         11    1    3    3    0    0  0.14252799658E+02 -0.40154981605E+02 -0.39389933279E+02  0.58026991046E+02  0.51100000000E-03 0.  1.
         22    1    1    0    0    0  0.71029664659E+01  0.25667207661E+02  0.11599185309E+02  0.29048214774E+02  0.00000000000E+00 0.  1.
</event>
<event>
 5    1  0.1692178E-003  0.9118800E+02  0.7818608E-02  0.1130116E+00
         25   -1    0    0    0    0  0.00000000000E+00  0.00000000000E+00  0.99999998245E-14  0.12500000000E+03  0.12500000000E+03 0.  0.
        -11    1    3    3    0    0 -0.32939293490E+01 -0.30512257441E+02  0.50345246367E+02  0.58961781323E+02  0.51100000000E-03 0. -1.
         23    2    1    0    0    0 -0.79361117667E+01 -0.24137478395E+02  0.14332669581E+02  0.95827664636E+02  0.91279330404E+02 0.  0.
         11    1    3    3    0    0 -0.46421824177E+01  0.63747790460E+01 -0.36012576786E+02  0.36865883314E+02  0.51100000000E-03 0.  1.
         22    1    1    0    0    0  0.79361117667E+01  0.24137478395E+02 -0.14332669581E+02  0.29172335364E+02  0.00000000000E+00 0. -1.
</event>
<event>
 5    1  0.1692178E-003  0.9118800E+02  0.7818608E-02  0.1130116E+00
         25   -1    0    0    0    0  0.00000000000E+00  0.00000000000E+00  0.99999998245E-14  0.12500000000E+03  0.12500000000E+03 0.  0.
        -11    1    3    3    0    0  0.43374720116E+02 -0.27702557075E+02  0.12643572076E+02  0.52996772814E+02  0.51100000000E-03 0.  1.
         23    2    1    0    0    0  0.27210056941E+02  0.10302270239E+02  0.10794951128E+01  0.95884896007E+02  0.91357670734E+02 0.  0.
         11    1    3    3    0    0 -0.16164663175E+02  0.38004827314E+02 -0.11564076963E+02  0.42888123193E+02  0.51100000000E-03 0. -1.
         22    1    1    0    0    0 -0.27210056941E+02 -0.10302270239E+02 -0.10794951128E+01  0.29115103993E+02  0.00000000000E+00 0.  1.
</event>
<event>
 5    1  0.1692178E-003  0.9118800E+02  0.7818608E-02  0.1130116E+00
         25   -1    0    0    0    0  0.00000000000E+00  0.00000000000E+00  0.99999998245E-14  0.12500000000E+03  0.12500000000E+03 0.  0.
        -11    1    3    3    0    0 -0.20064859594E+02  0.41514226465E+02  0.77861753069E+01  0.46761673576E+02  0.51100000000E-03 0. -1.
         23    2    1    0    0    0  0.22677105075E+02  0.18256020178E+02  0.12300241529E+01  0.95861600478E+02  0.91325791097E+02 0.  0.
         11    1    3    3    0    0  0.42741964669E+02 -0.23258206287E+02 -0.65561511541E+01  0.49099926901E+02  0.51100000000E-03 0.  1.
         22    1    1    0    0    0 -0.22677105075E+02 -0.18256020178E+02 -0.12300241529E+01  0.29138399522E+02  0.00000000000E+00 0.  1.
</event>
<event>
 5    1  0.1692178E-003  0.9118800E+02  0.7818608E-02  0.1130116E+00
         25   -1    0    0    0    0  0.00000000000E+00  0.00000000000E+00  0.99999998245E-14  0.12500000000E+03  0.12500000000E+03 0.  0.
        -11    1    3    3    0    0 -0.44856201113E+02 -0.86626212026E+01 -0.19756300178E+02  0.49773800150E+02  0.51100000000E-03 0.  1.
         23    2    1    0    0    0 -0.37371246886E+01 -0.27213094580E+02 -0.79932924927E+01  0.96392110486E+02  0.92049050085E+02 0.  0.
         11    1    3    3    0    0  0.41119076425E+02 -0.18550473377E+02  0.11763007685E+02  0.46618310336E+02  0.51100000000E-03 0. -1.
         22    1    1    0    0    0  0.37371246886E+01  0.27213094580E+02  0.79932924927E+01  0.28607889514E+02  0.00000000000E+00 0. -1.
</event>
<event>
 5    1  0.1692178E-003  0.9118800E+02  0.7818608E-02  0.1130116E+00
         25   -1    0    0    0    0  0.00000000000E+00  0.00000000000E+00  0.99999998245E-14  0.12500000000E+03  0.12500000000E+03 0.  0.
        -11    1    3    3    0    0 -0.64767909890E+01  0.13902823916E+02  0.56822320391E+02  0.58855869964E+02  0.51100000000E-03 0.  1.
         23    2    1    0    0    0  0.14918254621E+00 -0.84807209254E+01  0.26824948022E+02  0.96865986436E+02  0.92690326405E+02 0.  0.
         11    1    3    3    0    0  0.66259735352E+01 -0.22383544841E+02 -0.29997372369E+02  0.38010116473E+02  0.51100000000E-03 0. -1.
         22    1    1    0    0    0 -0.14918254621E+00  0.84807209254E+01 -0.26824948022E+02  0.28134013564E+02  0.00000000000E+00 0.  1.
</event>
<event>
 5    1  0.1692178E-003  0.9118800E+02  0.7818608E-02  0.1130116E+00
         25   -1    0    0    0    0  0.00000000000E+00  0.00000000000E+00  0.99999998245E-14  0.12500000000E+03  0.12500000000E+03 0.  0.
        -11    1    3    3    0    0 -0.74869872105E+01  0.33082417769E+01  0.33404307119E+02  0.34392545348E+02  0.51100000000E-03 0. -1.
         23    2    1    0    0    0 -0.14642493028E+02  0.15782736450E+02 -0.23525347161E+02  0.93110513786E+02  0.87479302961E+02 0.  0.
         11    1    3    3    0    0 -0.71555058179E+01  0.12474494673E+02 -0.56929654280E+02  0.58717968438E+02  0.51100000000E-03 0.  1.
         22    1    1    0    0    0  0.14642493028E+02 -0.15782736450E+02  0.23525347161E+02  0.31889486214E+02  0.00000000000E+00 0.  1.
</event>
<event>
 5    1  0.1692178E-003  0.9118800E+02  0.7818608E-02  0.1130116E+00
         25   -1    0    0    0    0  0.00000000000E+00  0.00000000000E+00  0.99999998245E-14  0.12500000000E+03  0.12500000000E+03 0.  0.
        -11    1    3    3    0    0  0.50327732958E+02  0.28785960501E+02 -0.15705698540E+02  0.60068137923E+02  0.51100000000E-03 0. -1.
         23    2    1    0    0    0  0.18285727174E+02  0.14010319601E+02 -0.18488221190E+02  0.95462376595E+02  0.90777718350E+02 0.  0.
         11    1    3    3    0    0 -0.32042005784E+02 -0.14775640899E+02 -0.27825226505E+01  0.35394238672E+02  0.51100000000E-03 0.  1.
         22    1    1    0    0    0 -0.18285727174E+02 -0.14010319601E+02  0.18488221190E+02  0.29537623405E+02  0.00000000000E+00 0. -1.
</event>
<event>
 5    1  0.1692178E-003  0.9118800E+02  0.7818608E-02  0.1130116E+00
         25   -1    0    0    0    0  0.00000000000E+00  0.00000000000E+00  0.99999998245E-14  0.12500000000E+03  0.12500000000E+03 0.  0.
        -11    1    3    3    0    0 -0.82885014691E+01  0.35811947184E+02 -0.37193921112E+01  0.36946294748E+02  0.51100000000E-03 0.  1.
         23    2    1    0    0    0  0.24421706913E+01 -0.18166207355E+02 -0.23294737560E+02  0.95358473633E+02  0.90634532096E+02 0.  0.
         11    1    3    3    0    0  0.10730672160E+02 -0.53978154539E+02 -0.19575345449E+02  0.58412178885E+02  0.51100000000E-03 0. -1.
         22    1    1    0    0    0 -0.24421706913E+01  0.18166207355E+02  0.23294737560E+02  0.29641526367E+02  0.00000000000E+00 0. -1.
</event>
<event>
 5    1  0.1692178E-003  0.9118800E+02  0.7818608E-02  0.1130116E+00
         25   -1    0    0    0    0  0.00000000000E+00  0.00000000000E+00  0.99999998245E-14  0.12500000000E+03  0.12500000000E+03 0.  0.
        -11    1    3    3    0    0  0.15553862268E+02  0.10950932932E+02  0.26364455831E+02  0.32510461317E+02  0.51100000000E-03 0.  1.
         23    2    1    0    0    0 -0.11508197673E+02  0.88530262621E+01 -0.28103741578E+02  0.93367185102E+02  0.87845297401E+02 0.  0.
         11    1    3    3    0    0 -0.27062059941E+02 -0.20979066699E+01 -0.54468197409E+02  0.60856723785E+02  0.51100000000E-03 0. -1.
         22    1    1    0    0    0  0.11508197673E+02 -0.88530262621E+01  0.28103741578E+02  0.31632814898E+02  0.00000000000E+00 0. -1.
</event>
<event>
 5    1  0.1692178E-003  0.9118800E+02  0.7818608E-02  0.1130116E+00
         25   -1    0    0    0    0  0.00000000000E+00  0.00000000000E+00  0.99999998245E-14  0.12500000000E+03  0.12500000000E+03 0.  0.
        -11    1    3    3    0    0  0.84892791866E+01 -0.50740840157E+02 -0.19853428393E+02  0.55143987344E+02  0.51100000000E-03 0.  1.
         23    2    1    0    0    0 -0.11574130693E+02 -0.14728336410E+02 -0.21604725933E+02  0.96405444970E+02  0.92067156156E+02 0.  0.
         11    1    3    3    0    0 -0.20063409880E+02  0.36012503747E+02 -0.17512975399E+01  0.41261457627E+02  0.51100000000E-03 0. -1.
         22    1    1    0    0    0  0.11574130693E+02  0.14728336410E+02  0.21604725933E+02  0.28594555030E+02  0.00000000000E+00 0.  1.
</event>
<event>
 5    1  0.1692178E-003  0.9118800E+02  0.7818608E-02  0.1130116E+00
         25   -1    0    0    0    0  0.00000000000E+00  0.00000000000E+00  0.99999998245E-14  0.12500000000E+03  0.12500000000E+03 0.  0.
        -11    1    3    3    0    0 -0.32848197642E+02 -0.16558650171E+02 -0.17606251991E+02  0.40782019240E+02  0.51100000000E-03 0.  1.
         23    2    1    0    0    0  0.21903449402E+02 -0.14419334957E+02 -0.12894447362E+02  0.95777661129E+02  0.91210828755E+02 0.  0.
         11    1    3    3    0    0  0.54751647045E+02  0.21393152139E+01  0.47118046288E+01  0.54995641889E+02  0.51100000000E-03 0. -1.
         22    1    1    0    0    0 -0.21903449402E+02  0.14419334957E+02  0.12894447362E+02  0.29222338871E+02  0.00000000000E+00 0. -1.
</event>
<event>
 5    1  0.1692178E-003  0.9118800E+02  0.7818608E-02  0.1130116E+00
         25   -1    0    0    0    0  0.00000000000E+00  0.00000000000E+00  0.99999998245E-14  0.12500000000E+03  0.12500000000E+03 0.  0.
        -11    1    3    3    0    0  0.26108575230E+02  0.27535623830E+02 -0.25436774338E+02  0.45682576210E+02  0.51100000000E-03 0. -1.
         23    2    1    0    0    0  0.16264407264E+02 -0.14372612248E+02  0.96765854163E+01  0.10123575728E+03  0.98407008496E+02 0.  0.
         11    1    3    3    0    0 -0.98441679653E+01 -0.41908236078E+02  0.35113359754E+02  0.55553181075E+02  0.51100000000E-03 0.  1.
         22    1    1    0    0    0 -0.16264407264E+02  0.14372612248E+02 -0.96765854163E+01  0.23764242715E+02  0.00000000000E+00 0.  1.
</event>
<event>
 5    1  0.1692178E-003  0.9118800E+02  0.7818608E-02  0.1130116E+00
         25   -1    0    0    0    0  0.00000000000E+00  0.00000000000E+00  0.99999998245E-14  0.12500000000E+03  0.12500000000E+03 0.  0.
        -11    1    3    3    0    0  0.38358031815E+02 -0.48376994199E+02  0.66901094864E+01  0.62100158918E+02  0.51100000000E-03 0.  1.
         23    2    1    0    0    0  0.17836188855E+02 -0.22206553544E+02 -0.19166398711E+01  0.96452948286E+02  0.92131629051E+02 0.  0.
         11    1    3    3    0    0 -0.20521842960E+02  0.26170440655E+02 -0.86067493575E+01  0.34352789368E+02  0.51100000000E-03 0. -1.
         22    1    1    0    0    0 -0.17836188855E+02  0.22206553544E+02  0.19166398711E+01  0.28547051714E+02  0.00000000000E+00 0.  1.
</event>
<event>
 5    1  0.1692178E-003  0.9118800E+02  0.7818608E-02  0.1130116E+00
         25   -1    0    0    0    0  0.00000000000E+00  0.00000000000E+00  0.99999998245E-14  0.12500000000E+03  0.12500000000E+03 0.  0.
        -11    1    3    3    0    0 -0.57615954980E+01 -0.36864524955E+02 -0.12392250013E+02  0.39316116842E+02  0.51100000000E-03 0. -1.
         23    2    1    0    0    0 -0.25077351077E+02  0.14809056403E+02  0.89626627774E-01  0.95876303093E+02  0.91345912734E+02 0.  0.
         11    1    3    3    0    0 -0.19315755579E+02  0.51673581358E+02  0.12481876641E+02  0.56560186251E+02  0.51100000000E-03 0.  1.
         22    1    1    0    0    0  0.25077351077E+02 -0.14809056403E+02 -0.89626627774E-01  0.29123696907E+02  0.00000000000E+00 0.  1.
</event>
<event>
 5    1  0.1692178E-003  0.9118800E+02  0.7818608E-02  0.1130116E+00
         25   -1    0    0    0    0  0.00000000000E+00  0.00000000000E+00  0.99999998245E-14  0.12500000000E+03  0.12500000000E+03 0.  0.
        -11    1    3    3    0    0  0.10119473035E+01 -0.53903659777E+02 -0.10025587762E+02  0.54837404980E+02  0.51100000000E-03 0. -1.
         23    2    1    0    0    0 -0.17251196290E+02 -0.18077269623E+02 -0.15760412204E+02  0.95457115184E+02  0.90770473150E+02 0.  0.
         11    1    3    3    0    0 -0.18263143593E+02  0.35826390154E+02 -0.57348244421E+01  0.40619710204E+02  0.51100000000E-03 0.  1.
         22    1    1    0    0    0  0.17251196290E+02  0.18077269623E+02  0.15760412204E+02  0.29542884816E+02  0.00000000000E+00 0.  1.
</event>
<event>
 5    1  0.1692178E-003  0.9118800E+02  0.7818608E-02  0.1130116E+00
         25   -1    0    0    0    0  0.00000000000E+00  0.00000000000E+00  0.99999998245E-14  0.12500000000E+03  0.12500000000E+03 0.  0.
        -11    1    3    3    0    0 -0.48397996434E+01 -0.46603865045E+02 -0.13398803676E+02  0.48732656791E+02  0.51100000000E-03 0. -1.
         23    2    1    0    0    0 -0.33006078197E+01 -0.15335043042E+02  0.23262937055E+02  0.96942526887E+02  0.92793489652E+02 0.  0.
         11    1    3    3    0    0  0.15391918237E+01  0.31268822003E+02  0.36661740731E+02  0.48209870096E+02  0.51100000000E-03 0.  1.
         22    1    1    0    0    0  0.33006078197E+01  0.15335043042E+02 -0.23262937055E+02  0.28057473113E+02  0.00000000000E+00 0. -1.
</event>
<event>
 5    1  0.1692178E-003  0.9118800E+02  0.7818608E-02  0.1130116E+00
         25   -1    0    0    0    0  0.00000000000E+00  0.00000000000E+00  0.99999998245E-14  0.12500000000E+03  0.12500000000E+03 0.  0.
        -11    1    3    3    0    0  0.40697899546E+01 -0.38219130638E+02 -0.40505690219E+02  0.55838840222E+02  0.51100000000E-03 0. -1.
         23    2    1    0    0    0  0.20704110795E+02 -0.97597787080E+01 -0.19534139059E+02  0.94908538204E+02  0.90011857836E+02 0.  0.
         11    1    3    3    0    0  0.16634320840E+02  0.28459351930E+02  0.20971551160E+02  0.39069697982E+02  0.51100000000E-03 0.  1.
         22    1    1    0    0    0 -0.20704110795E+02  0.97597787080E+01  0.19534139059E+02  0.30091461796E+02  0.00000000000E+00 0. -1.
</event>
<event>
 5    1  0.1692178E-003  0.9118800E+02  0.7818608E-02  0.1130116E+00
         25   -1    0    0    0    0  0.00000000000E+00  0.00000000000E+00  0.99999998245E-14  0.12500000000E+03  0.12500000000E+03 0.  0.
        -11    1    3    3    0    0  0.26759732068E+02 -0.29453306768E+02 -0.31406823902E+02  0.50694862933E+02  0.51100000000E-03 0.  1.
         23    2    1    0    0    0 -0.82434648236E+00 -0.18182405146E+02  0.11893513349E+02  0.10325752857E+03  0.10094246947E+03 0.  0.
         11    1    3    3    0    0 -0.27584078550E+02  0.11270901623E+02  0.43300337250E+02  0.52562665639E+02  0.51100000000E-03 0. -1.
         22    1    1    0    0    0  0.82434648236E+00  0.18182405146E+02 -0.11893513349E+02  0.21742471428E+02  0.00000000000E+00 0. -1.
</event>
<event>
 5    1  0.1692178E-003  0.9118800E+02  0.7818608E-02  0.1130116E+00
         25   -1    0    0    0    0  0.00000000000E+00  0.00000000000E+00  0.99999998245E-14  0.12500000000E+03  0.12500000000E+03 0.  0.
        -11    1    3    3    0    0  0.15473957019E+02 -0.48136377364E+02 -0.14344716463E+01  0.50582723144E+02  0.51100000000E-03 0. -1.
         23    2    1    0    0    0 -0.10171486661E+02 -0.17721240985E+02  0.20536317184E+02  0.96030328852E+02  0.91556442772E+02 0.  0.
         11    1    3    3    0    0 -0.25645443680E+02  0.30415136379E+02  0.21970788830E+02  0.45447605708E+02  0.51100000000E-03 0.  1.
         22    1    1    0    0    0  0.10171486661E+02  0.17721240985E+02 -0.20536317184E+02  0.28969671148E+02  0.00000000000E+00 0.  1.
</event>
<event>
 5    1  0.1692178E-003  0.9118800E+02  0.7818608E-02  0.1130116E+00
         25   -1    0    0    0    0  0.00000000000E+00  0.00000000000E+00  0.99999998245E-14  0.12500000000E+03  0.12500000000E+03 0.  0.
        -11    1    3    3    0    0  0.11095279063E+02 -0.20911244266E+02 -0.24050581564E+02  0.33746345404E+02  0.51100000000E-03 0.  1.
         23    2    1    0    0    0 -0.56488988194E+01  0.47371591356E+01  0.29039775307E+02  0.95039037325E+02  0.90192900670E+02 0.  0.
         11    1    3    3    0    0 -0.16744177883E+02  0.25648403402E+02  0.53090356871E+02  0.61292691921E+02  0.51100000000E-03 0. -1.
         22    1    1    0    0    0  0.56488988194E+01 -0.47371591356E+01 -0.29039775307E+02  0.29960962675E+02  0.00000000000E+00 0. -1.
</event>
<event>
 5    1  0.1692178E-003  0.9118800E+02  0.7818608E-02  0.1130116E+00
         25   -1    0    0    0    0  0.00000000000E+00  0.00000000000E+00  0.99999998245E-14  0.12500000000E+03  0.12500000000E+03 0.  0.
        -11    1    3    3    0    0  0.12633337291E+02  0.36626865989E+02 -0.33388771539E+02  0.51146247061E+02  0.51100000000E-03 0.  1.
         23    2    1    0    0    0  0.25840616382E+02 -0.10459573101E+01 -0.15050391534E+02  0.95077671096E+02  0.90246428041E+02 0.  0.
         11    1    3    3    0    0  0.13207279090E+02 -0.37672823299E+02  0.18338380005E+02  0.43931424035E+02  0.51100000000E-03 0. -1.
         22    1    1    0    0    0 -0.25840616382E+02  0.10459573101E+01  0.15050391534E+02  0.29922328904E+02  0.00000000000E+00 0.  1.
</event>
<event>
 5    1  0.1692178E-003  0.9118800E+02  0.7818608E-02  0.1130116E+00
         25   -1    0    0    0    0  0.00000000000E+00  0.00000000000E+00  0.99999998245E-14  0.12500000000E+03  0.12500000000E+03 0.  0.
        -11    1    3    3    0    0 -0.10144371083E+02  0.25744776006E+02 -0.22181855457E+02  0.35464580472E+02  0.51100000000E-03 0. -1.
         23    2    1    0    0    0  0.12762661025E+02 -0.23246878581E+02  0.78718039668E+01  0.97336519057E+02  0.93322718371E+02 0.  0.
         11    1    3    3    0    0  0.22907032108E+02 -0.48991654587E+02  0.30053659424E+02  0.61871938585E+02  0.51100000000E-03 0.  1.
         22    1    1    0    0    0 -0.12762661025E+02  0.23246878581E+02 -0.78718039668E+01  0.27663480943E+02  0.00000000000E+00 0.  1.
</event>
<event>
 5    1  0.1692178E-003  0.9118800E+02  0.7818608E-02  0.1130116E+00
         25   -1    0    0    0    0  0.00000000000E+00  0.00000000000E+00  0.99999998245E-14  0.12500000000E+03  0.12500000000E+03 0.  0.
        -11    1    3    3    0    0 -0.40810535045E+02  0.28185516375E+02  0.13499728229E+02  0.51402001581E+02  0.51100000000E-03 0. -1.
         23    2    1    0    0    0 -0.17657629796E+02  0.11270622236E+02 -0.20371215914E+02  0.95780053844E+02  0.91214107795E+02 0.  0.
         11    1    3    3    0    0  0.23152905249E+02 -0.16914894139E+02 -0.33870944143E+02  0.44378052263E+02  0.51100000000E-03 0.  1.
         22    1    1    0    0    0  0.17657629796E+02 -0.11270622236E+02  0.20371215914E+02  0.29219946156E+02  0.00000000000E+00 0. -1.
</event>
<event>
 5    1  0.1692178E-003  0.9118800E+02  0.7818608E-02  0.1130116E+00
         25   -1    0    0    0    0  0.00000000000E+00  0.00000000000E+00  0.99999998245E-14  0.12500000000E+03  0.12500000000E+03 0.  0.
        -11    1    3    3    0    0 -0.39800290544E+02 -0.47096249906E+02 -0.40532991051E+01  0.61794410075E+02  0.51100000000E-03 0.  1.
         23    2    1    0    0    0 -0.12108718710E+02 -0.24257363860E+02 -0.28095076922E+00  0.97886909000E+02  0.94057042533E+02 0.  0.
         11    1    3    3    0    0  0.27691571834E+02  0.22838886046E+02  0.37723483359E+01  0.36092498926E+02  0.51100000000E-03 0. -1.
         22    1    1    0    0    0  0.12108718710E+02  0.24257363860E+02  0.28095076922E+00  0.27113091000E+02  0.00000000000E+00 0.  1.
</event>
<event>
 5    1  0.1692178E-003  0.9118800E+02  0.7818608E-02  0.1130116E+00
         25   -1    0    0    0    0  0.00000000000E+00  0.00000000000E+00  0.99999998245E-14  0.12500000000E+03  0.12500000000E+03 0.  0.
        -11    1    3    3    0    0  0.12417441841E+02 -0.63692037341E+01 -0.11771614438E+02  0.18257341669E+02  0.51100000000E-03 0.  1.
         23    2    1    0    0    0 -0.88913467422E+01  0.47287355627E+02 -0.89462988765E+01  0.76059359295E+02  0.58222330971E+02 0.  0.
         11    1    3    3    0    0 -0.21308788583E+02  0.53656559361E+02  0.28253155617E+01  0.57802017626E+02  0.51100000000E-03 0. -1.
         22    1    1    0    0    0  0.88913467422E+01 -0.47287355627E+02  0.89462988765E+01  0.48940640705E+02  0.00000000000E+00 0. -1.
</event>
<event>
 5    1  0.1692178E-003  0.9118800E+02  0.7818608E-02  0.1130116E+00
         25   -1    0    0    0    0  0.00000000000E+00  0.00000000000E+00  0.99999998245E-14  0.12500000000E+03  0.12500000000E+03 0.  0.
        -11    1    3    3    0    0 -0.49814496294E+01  0.34141294181E+02  0.89847841992E+01  0.35653459245E+02  0.51100000000E-03 0. -1.
         23    2    1    0    0    0  0.23509674533E+02 -0.13330753094E+02 -0.12730959709E+02  0.95125410300E+02  0.90312527231E+02 0.  0.
         11    1    3    3    0    0  0.28491124162E+02 -0.47472047275E+02 -0.21715743908E+02  0.59471951054E+02  0.51100000000E-03 0.  1.
         22    1    1    0    0    0 -0.23509674533E+02  0.13330753094E+02  0.12730959709E+02  0.29874589700E+02  0.00000000000E+00 0.  1.
</event>
<event>
 5    1  0.1692178E-003  0.9118800E+02  0.7818608E-02  0.1130116E+00
         25   -1    0    0    0    0  0.00000000000E+00  0.00000000000E+00  0.99999998245E-14  0.12500000000E+03  0.12500000000E+03 0.  0.
        -11    1    3    3    0    0 -0.27100767035E+02 -0.27516591816E+02 -0.30485087251E+02  0.49203200547E+02  0.51100000000E-03 0.  1.
         23    2    1    0    0    0 -0.28847537264E+02  0.51235398960E+01  0.24418121843E+01  0.95599430039E+02  0.90966243793E+02 0.  0.
         11    1    3    3    0    0 -0.17467702291E+01  0.32640131712E+02  0.32926899435E+02  0.46396229493E+02  0.51100000000E-03 0. -1.
         22    1    1    0    0    0  0.28847537264E+02 -0.51235398960E+01 -0.24418121843E+01  0.29400569961E+02  0.00000000000E+00 0. -1.
</event>
<event>
 5    1  0.1692178E-003  0.9118800E+02  0.7818608E-02  0.1130116E+00
         25   -1    0    0    0    0  0.00000000000E+00  0.00000000000E+00  0.99999998245E-14  0.12500000000E+03  0.12500000000E+03 0.  0.
        -11    1    3    3    0    0  0.46431812131E+02 -0.62296646880E+00 -0.13225482903E+01  0.46454821055E+02  0.51100000000E-03 0.  1.
         23    2    1    0    0    0  0.38491600773E+01 -0.26710098617E+01 -0.27911038963E+02  0.96698473134E+02  0.92464145935E+02 0.  0.
         11    1    3    3    0    0 -0.42582652054E+02 -0.20480433929E+01 -0.26588490673E+02  0.50243652079E+02  0.51100000000E-03 0. -1.
         22    1    1    0    0    0 -0.38491600773E+01  0.26710098617E+01  0.27911038963E+02  0.28301526866E+02  0.00000000000E+00 0. -1.
</event>
<event>
 5    1  0.1692178E-003  0.9118800E+02  0.7818608E-02  0.1130116E+00
         25   -1    0    0    0    0  0.00000000000E+00  0.00000000000E+00  0.99999998245E-14  0.12500000000E+03  0.12500000000E+03 0.  0.
        -11    1    3    3    0    0 -0.54046922538E+02 -0.55219509205E+00  0.25155158681E+02  0.59616749021E+02  0.51100000000E-03 0.  1.
         23    2    1    0    0    0 -0.21612283793E+02  0.12594233871E+02  0.13920107544E+02  0.96373527434E+02  0.92023811367E+02 0.  0.
         11    1    3    3    0    0  0.32434638745E+02  0.13146428963E+02 -0.11235051137E+02  0.36756778413E+02  0.51100000000E-03 0. -1.
         22    1    1    0    0    0  0.21612283793E+02 -0.12594233871E+02 -0.13920107544E+02  0.28626472566E+02  0.00000000000E+00 0.  1.
</event>
<event>
 5    1  0.1692178E-003  0.9118800E+02  0.7818608E-02  0.1130116E+00
         25   -1    0    0    0    0  0.00000000000E+00  0.00000000000E+00  0.99999998245E-14  0.12500000000E+03  0.12500000000E+03 0.  0.
        -11    1    3    3    0    0  0.33688187029E+02  0.83696821723E+01  0.25649275692E+01  0.34806958768E+02  0.51100000000E-03 0.  1.
         23    2    1    0    0    0 -0.26832035451E+02  0.58883510666E+01  0.98551347499E+01  0.95815166856E+02  0.91262214053E+02 0.  0.
         11    1    3    3    0    0 -0.60520222480E+02 -0.24813311057E+01  0.72902071807E+01  0.61008208088E+02  0.51100000000E-03 0. -1.
         22    1    1    0    0    0  0.26832035451E+02 -0.58883510666E+01 -0.98551347499E+01  0.29184833144E+02  0.00000000000E+00 0. -1.
</event>
<event>
 5    1  0.1692178E-003  0.9118800E+02  0.7818608E-02  0.1130116E+00
         25   -1    0    0    0    0  0.00000000000E+00  0.00000000000E+00  0.99999998245E-14  0.12500000000E+03  0.12500000000E+03 0.  0.
        -11    1    3    3    0    0  0.15967244011E+02 -0.37931326404E+02  0.16436991987E+01  0.41187864128E+02  0.51100000000E-03 0.  1.
         23    2    1    0    0    0 -0.98479844233E+00  0.35565266670E+01 -0.29183619015E+02  0.95583978367E+02  0.90945008614E+02 0.  0.
         11    1    3    3    0    0 -0.16952042454E+02  0.41487853071E+02 -0.30827318213E+02  0.54396114239E+02  0.51100000000E-03 0. -1.
         22    1    1    0    0    0  0.98479844233E+00 -0.35565266670E+01  0.29183619015E+02  0.29416021633E+02  0.00000000000E+00 0.  1.
</event>
<event>
 5    1  0.1692178E-003  0.9118800E+02  0.7818608E-02  0.1130116E+00
         25   -1    0    0    0    0  0.00000000000E+00  0.00000000000E+00  0.99999998245E-14  0.12500000000E+03  0.12500000000E+03 0.  0.
        -11    1    3    3    0    0 -0.45380149892E+01  0.18320701521E+02  0.40271200429E+02  0.44474838600E+02  0.51100000000E-03 0.  1.
         23    2    1    0    0    0 -0.29809140433E+02  0.51403354166E+01 -0.11201796297E+01  0.94730168419E+02  0.89763812891E+02 0.  0.
         11    1    3    3    0    0 -0.25271125443E+02 -0.13180366104E+02 -0.41391380059E+02  0.50255329819E+02  0.51100000000E-03 0. -1.
         22    1    1    0    0    0  0.29809140433E+02 -0.51403354166E+01  0.11201796297E+01  0.30269831581E+02  0.00000000000E+00 0. -1.
</event>
<event>
 5    1  0.1692178E-003  0.9118800E+02  0.7818608E-02  0.1130116E+00
         25   -1    0    0    0    0  0.00000000000E+00  0.00000000000E+00  0.99999998245E-14  0.12500000000E+03  0.12500000000E+03 0.  0.
        -11    1    3    3    0    0 -0.33192287239E+02 -0.34780972394E+02 -0.11257603179E+01  0.48090657194E+02  0.51100000000E-03 0. -1.
         23    2    1    0    0    0 -0.27237207035E+02  0.50142802174E+01 -0.18262136083E+02  0.91826003143E+02  0.85624183417E+02 0.  0.
         11    1    3    3    0    0  0.59550802041E+01  0.39795252612E+02 -0.17136375765E+02  0.43735345949E+02  0.51100000000E-03 0.  1.
         22    1    1    0    0    0  0.27237207035E+02 -0.50142802174E+01  0.18262136083E+02  0.33173996857E+02  0.00000000000E+00 0. -1.
</event>
<event>
 5    1  0.1692178E-003  0.9118800E+02  0.7818608E-02  0.1130116E+00
         25   -1    0    0    0    0  0.00000000000E+00  0.00000000000E+00  0.99999998245E-14  0.12500000000E+03  0.12500000000E+03 0.  0.
        -11    1    3    3    0    0  0.14563226451E+01 -0.47440256548E+01  0.14573073773E+02  0.15394841165E+02  0.51100000000E-03 0. -1.
         23    2    1    0    0    0  0.27121736641E+02  0.72924451648E+01 -0.39550169021E+02  0.76492431266E+02  0.59144803800E+02 0.  0.
         11    1    3    3    0    0  0.25665413996E+02  0.12036470820E+02 -0.54123242794E+02  0.61097590101E+02  0.51100000000E-03 0.  1.
         22    1    1    0    0    0 -0.27121736641E+02 -0.72924451648E+01  0.39550169021E+02  0.48507568734E+02  0.00000000000E+00 0.  1.
</event>
<event>
 5    1  0.1692178E-003  0.9118800E+02  0.7818608E-02  0.1130116E+00
         25   -1    0    0    0    0  0.00000000000E+00  0.00000000000E+00  0.99999998245E-14  0.12500000000E+03  0.12500000000E+03 0.  0.
        -11    1    3    3    0    0  0.44812439553E+02  0.77349590805E+01 -0.32463147519E+02  0.55873430875E+02  0.51100000000E-03 0.  1.
         23    2    1    0    0    0  0.15804335908E+02 -0.16375651382E+02 -0.16783040963E+02  0.96722633509E+02  0.92496801984E+02 0.  0.
         11    1    3    3    0    0 -0.29008103644E+02 -0.24110610463E+02  0.15680106557E+02  0.40849202634E+02  0.51100000000E-03 0. -1.
         22    1    1    0    0    0 -0.15804335908E+02  0.16375651382E+02  0.16783040963E+02  0.28277366491E+02  0.00000000000E+00 0.  1.
</event>
<event>
 5    1  0.1692178E-003  0.9118800E+02  0.7818608E-02  0.1130116E+00
         25   -1    0    0    0    0  0.00000000000E+00  0.00000000000E+00  0.99999998245E-14  0.12500000000E+03  0.12500000000E+03 0.  0.
        -11    1    3    3    0    0 -0.48144500127E+02  0.25602487998E+02 -0.28006003291E+02  0.61300216189E+02  0.51100000000E-03 0. -1.
         23    2    1    0    0    0 -0.27055123862E+02  0.51474461634E+01 -0.10338736712E+02  0.95582906228E+02  0.90943534993E+02 0.  0.
         11    1    3    3    0    0  0.21089376266E+02 -0.20455041834E+02  0.17667266579E+02  0.34282690040E+02  0.51100000000E-03 0.  1.
         22    1    1    0    0    0  0.27055123862E+02 -0.51474461634E+01  0.10338736712E+02  0.29417093772E+02  0.00000000000E+00 0. -1.
</event>
<event>
 5    1  0.1692178E-003  0.9118800E+02  0.7818608E-02  0.1130116E+00
         25   -1    0    0    0    0  0.00000000000E+00  0.00000000000E+00  0.99999998245E-14  0.12500000000E+03  0.12500000000E+03 0.  0.
        -11    1    3    3    0    0 -0.31943621740E+02 -0.34100125113E+01  0.12776665605E+01  0.32150514573E+02  0.51100000000E-03 0.  1.
         23    2    1    0    0    0  0.26536516415E+02 -0.41169965343E-01 -0.16966720552E+02  0.93503047692E+02  0.88038411634E+02 0.  0.
         11    1    3    3    0    0  0.58480138155E+02  0.33688425460E+01 -0.18244387112E+02  0.61352533119E+02  0.51100000000E-03 0. -1.
         22    1    1    0    0    0 -0.26536516415E+02  0.41169965343E-01  0.16966720552E+02  0.31496952308E+02  0.00000000000E+00 0. -1.
</event>
<event>
 5    1  0.1692178E-003  0.9118800E+02  0.7818608E-02  0.1130116E+00
         25   -1    0    0    0    0  0.00000000000E+00  0.00000000000E+00  0.99999998245E-14  0.12500000000E+03  0.12500000000E+03 0.  0.
        -11    1    3    3    0    0 -0.16602880884E+02 -0.48155609292E+02 -0.33154861039E+02  0.60777159943E+02  0.51100000000E-03 0. -1.
         23    2    1    0    0    0 -0.53074105428E+01 -0.16776503099E+02 -0.23775890713E+02  0.95421077739E+02  0.90720832419E+02 0.  0.
         11    1    3    3    0    0  0.11295470341E+02  0.31379106193E+02  0.93789703258E+01  0.34643917797E+02  0.51100000000E-03 0.  1.
         22    1    1    0    0    0  0.53074105428E+01  0.16776503099E+02  0.23775890713E+02  0.29578922261E+02  0.00000000000E+00 0. -1.
</event>
<event>
 5    1  0.1692178E-003  0.9118800E+02  0.7818608E-02  0.1130116E+00
         25   -1    0    0    0    0  0.00000000000E+00  0.00000000000E+00  0.99999998245E-14  0.12500000000E+03  0.12500000000E+03 0.  0.
        -11    1    3    3    0    0 -0.23478841625E+02  0.15503378988E+02  0.16620225332E+02  0.32677861840E+02  0.51100000000E-03 0.  1.
         23    2    1    0    0    0  0.29879435739E+02  0.78521935502E+01 -0.96382548152E+01  0.92637466423E+02  0.86800729293E+02 0.  0.
         11    1    3    3    0    0  0.53358277364E+02 -0.76511854379E+01 -0.26258480147E+02  0.59959604583E+02  0.51100000000E-03 0. -1.
         22    1    1    0    0    0 -0.29879435739E+02 -0.78521935502E+01  0.96382548152E+01  0.32362533577E+02  0.00000000000E+00 0. -1.
</event>
<event>
 5    1  0.1692178E-003  0.9118800E+02  0.7818608E-02  0.1130116E+00
         25   -1    0    0    0    0  0.00000000000E+00  0.00000000000E+00  0.99999998245E-14  0.12500000000E+03  0.12500000000E+03 0.  0.
        -11    1    3    3    0    0  0.18395721391E+01 -0.26068258742E+02 -0.27384376173E+02  0.37852902110E+02  0.51100000000E-03 0. -1.
         23    2    1    0    0    0  0.17883543377E+02  0.99585794787E+01  0.17832683795E+02  0.97852273755E+02  0.94011001689E+02 0.  0.
         11    1    3    3    0    0  0.16043971238E+02  0.36026838221E+02  0.45217059969E+02  0.59999371644E+02  0.51100000000E-03 0.  1.
         22    1    1    0    0    0 -0.17883543377E+02 -0.99585794787E+01 -0.17832683795E+02  0.27147726245E+02  0.00000000000E+00 0. -1.
</event>
<event>
 5    1  0.1692178E-003  0.9118800E+02  0.7818608E-02  0.1130116E+00
         25   -1    0    0    0    0  0.00000000000E+00  0.00000000000E+00  0.99999998245E-14  0.12500000000E+03  0.12500000000E+03 0.  0.
        -11    1    3    3    0    0 -0.27703188342E+02 -0.43528536898E+02  0.34302022179E+02  0.61958283503E+02  0.51100000000E-03 0. -1.
         23    2    1    0    0    0 -0.15594873447E+02 -0.22756095805E+02  0.11443841051E+02  0.95133606308E+02  0.90323870472E+02 0.  0.
         11    1    3    3    0    0  0.12108314895E+02  0.20772441092E+02 -0.22858181128E+02  0.33175322806E+02  0.51100000000E-03 0.  1.
         22    1    1    0    0    0  0.15594873447E+02  0.22756095805E+02 -0.11443841051E+02  0.29866393692E+02  0.00000000000E+00 0. -1.
</event>
<event>
 5    1  0.1692178E-003  0.9118800E+02  0.7818608E-02  0.1130116E+00
         25   -1    0    0    0    0  0.00000000000E+00  0.00000000000E+00  0.99999998245E-14  0.12500000000E+03  0.12500000000E+03 0.  0.
        -11    1    3    3    0    0 -0.75210680618E+01  0.56356917293E+02  0.21130263176E+02  0.60656051748E+02  0.51100000000E-03 0.  1.
         23    2    1    0    0    0 -0.69308103920E+01  0.21196875766E+02  0.18684702833E+02  0.95905983521E+02  0.91386519138E+02 0.  0.
         11    1    3    3    0    0  0.59025766973E+00 -0.35160041527E+02 -0.24455603428E+01  0.35249931773E+02  0.51100000000E-03 0. -1.
         22    1    1    0    0    0  0.69308103920E+01 -0.21196875766E+02 -0.18684702833E+02  0.29094016479E+02  0.00000000000E+00 0.  1.
</event>
<event>
 5    1  0.1692178E-003  0.9118800E+02  0.7818608E-02  0.1130116E+00
         25   -1    0    0    0    0  0.00000000000E+00  0.00000000000E+00  0.99999998245E-14  0.12500000000E+03  0.12500000000E+03 0.  0.
        -11    1    3    3    0    0 -0.24801142481E+02 -0.21581258513E+02 -0.18814938207E+02  0.37879404528E+02  0.51100000000E-03 0.  1.
         23    2    1    0    0    0  0.26830279298E+02 -0.39386488883E+01  0.50212074297E+01  0.97421215286E+02  0.93436094853E+02 0.  0.
         11    1    3    3    0    0  0.51631421779E+02  0.17642609625E+02  0.23836145637E+02  0.59541810758E+02  0.51100000000E-03 0. -1.
         22    1    1    0    0    0 -0.26830279298E+02  0.39386488883E+01 -0.50212074297E+01  0.27578784714E+02  0.00000000000E+00 0. -1.
</event>
<event>
 5    1  0.1692178E-003  0.9118800E+02  0.7818608E-02  0.1130116E+00
         25   -1    0    0    0    0  0.00000000000E+00  0.00000000000E+00  0.99999998245E-14  0.12500000000E+03  0.12500000000E+03 0.  0.
        -11    1    3    3    0    0 -0.12969792908E+02 -0.52308710375E+02  0.20765128435E+02  0.57754716417E+02  0.51100000000E-03 0.  1.
         23    2    1    0    0    0 -0.20234147879E+02 -0.22472556855E+02  0.11485685791E+00  0.94760129893E+02  0.89805525850E+02 0.  0.
         11    1    3    3    0    0 -0.72643549718E+01  0.29836153520E+02 -0.20650271578E+02  0.37005413476E+02  0.51100000000E-03 0. -1.
         22    1    1    0    0    0  0.20234147879E+02  0.22472556855E+02 -0.11485685791E+00  0.30239870107E+02  0.00000000000E+00 0.  1.
</event>
<event>
 5    1  0.1692178E-003  0.9118800E+02  0.7818608E-02  0.1130116E+00
         25   -1    0    0    0    0  0.00000000000E+00  0.00000000000E+00  0.99999998245E-14  0.12500000000E+03  0.12500000000E+03 0.  0.
        -11    1    3    3    0    0 -0.12840039209E+02  0.31494163779E+02 -0.29552065173E+02  0.45056337126E+02  0.51100000000E-03 0.  1.
         23    2    1    0    0    0  0.23158785476E+02  0.12437847220E+02 -0.29092222632E+02  0.85790475572E+02  0.76306086867E+02 0.  0.
         11    1    3    3    0    0  0.35998824685E+02 -0.19056316559E+02  0.45984254089E+00  0.40734138446E+02  0.51100000000E-03 0. -1.
         22    1    1    0    0    0 -0.23158785476E+02 -0.12437847220E+02  0.29092222632E+02  0.39209524428E+02  0.00000000000E+00 0.  1.
</event>
<event>
 5    1  0.1692178E-003  0.9118800E+02  0.7818608E-02  0.1130116E+00
         25   -1    0    0    0    0  0.00000000000E+00  0.00000000000E+00  0.99999998245E-14  0.12500000000E+03  0.12500000000E+03 0.  0.
        -11    1    3    3    0    0  0.24542831348E+02 -0.34822565282E+02  0.20541894015E+02  0.47296205275E+02  0.51100000000E-03 0. -1.
         23    2    1    0    0    0 -0.17559185472E+02 -0.10627037659E+02  0.20691316836E+02  0.95855712117E+02  0.91317731187E+02 0.  0.
         11    1    3    3    0    0 -0.42102016820E+02  0.24195527623E+02  0.14942282099E+00  0.48559506842E+02  0.51100000000E-03 0.  1.
         22    1    1    0    0    0  0.17559185472E+02  0.10627037659E+02 -0.20691316836E+02  0.29144287883E+02  0.00000000000E+00 0.  1.
</event>
<event>
 5    1  0.1692178E-003  0.9118800E+02  0.7818608E-02  0.1130116E+00
         25   -1    0    0    0    0  0.00000000000E+00  0.00000000000E+00  0.99999998245E-14  0.12500000000E+03  0.12500000000E+03 0.  0.
        -11    1    3    3    0    0 -0.14532775743E+02  0.48429513165E+02 -0.31927333341E+02  0.59799447579E+02  0.51100000000E-03 0.  1.
         23    2    1    0    0    0 -0.23382849202E+01  0.15560596989E+02 -0.24884351966E+02  0.95558010804E+02  0.90909310310E+02 0.  0.
         11    1    3    3    0    0  0.12194490823E+02 -0.32868916177E+02  0.70429813742E+01  0.35758563226E+02  0.51100000000E-03 0. -1.
         22    1    1    0    0    0  0.23382849202E+01 -0.15560596989E+02  0.24884351966E+02  0.29441989196E+02  0.00000000000E+00 0.  1.
</event>
<event>
 5    1  0.1692178E-003  0.9118800E+02  0.7818608E-02  0.1130116E+00
         25   -1    0    0    0    0  0.00000000000E+00  0.00000000000E+00  0.99999998245E-14  0.12500000000E+03  0.12500000000E+03 0.  0.
        -11    1    3    3    0    0 -0.38458016063E+02 -0.20432848535E+02  0.21981855984E+01  0.43604498839E+02  0.51100000000E-03 0.  1.
         23    2    1    0    0    0 -0.16616536165E+01  0.27124020979E+01 -0.28182200354E+02  0.96638853431E+02  0.92383512370E+02 0.  0.
         11    1    3    3    0    0  0.36796362447E+02  0.23145250633E+02 -0.30380385953E+02  0.53034354593E+02  0.51100000000E-03 0. -1.
         22    1    1    0    0    0  0.16616536165E+01 -0.27124020979E+01  0.28182200354E+02  0.28361146569E+02  0.00000000000E+00 0. -1.
</event>
<event>
 5    1  0.1692178E-003  0.9118800E+02  0.7818608E-02  0.1130116E+00
         25   -1    0    0    0    0  0.00000000000E+00  0.00000000000E+00  0.99999998245E-14  0.12500000000E+03  0.12500000000E+03 0.  0.
        -11    1    3    3    0    0  0.30792410953E+02 -0.21781321784E+02  0.19362544152E+02  0.42397012481E+02  0.51100000000E-03 0. -1.
         23    2    1    0    0    0  0.22759621931E+02  0.97174477689E+01 -0.19809770597E+02  0.93300533243E+02  0.87750403479E+02 0.  0.
         11    1    3    3    0    0 -0.80327890226E+01  0.31498769553E+02 -0.39172314750E+02  0.50903520762E+02  0.51100000000E-03 0.  1.
         22    1    1    0    0    0 -0.22759621931E+02 -0.97174477689E+01  0.19809770597E+02  0.31699466757E+02  0.00000000000E+00 0.  1.
</event>
<event>
 5    1  0.1692178E-003  0.9118800E+02  0.7818608E-02  0.1130116E+00
         25   -1    0    0    0    0  0.00000000000E+00  0.00000000000E+00  0.99999998245E-14  0.12500000000E+03  0.12500000000E+03 0.  0.
        -11    1    3    3    0    0  0.42901064317E+02  0.38987263128E+02 -0.93106424084E+01  0.58712827117E+02  0.51100000000E-03 0.  1.
         23    2    1    0    0    0  0.28247652787E+02  0.89746578822E+01  0.48085206014E+01  0.94973407745E+02  0.90101897517E+02 0.  0.
         11    1    3    3    0    0 -0.14653411529E+02 -0.30012605246E+02  0.14119163010E+02  0.36260580628E+02  0.51100000000E-03 0. -1.
         22    1    1    0    0    0 -0.28247652787E+02 -0.89746578822E+01 -0.48085206014E+01  0.30026592255E+02  0.00000000000E+00 0.  1.
</event>
<event>
 5    1  0.1692178E-003  0.9118800E+02  0.7818608E-02  0.1130116E+00
         25   -1    0    0    0    0  0.00000000000E+00  0.00000000000E+00  0.99999998245E-14  0.12500000000E+03  0.12500000000E+03 0.  0.
        -11    1    3    3    0    0  0.27454191482E+02 -0.20818290265E+02  0.21072241968E+01  0.34519186456E+02  0.51100000000E-03 0. -1.
         23    2    1    0    0    0 -0.14409886153E+02  0.22390255272E+02  0.12520538697E+02  0.95576671851E+02  0.90934965567E+02 0.  0.
         11    1    3    3    0    0 -0.41864077636E+02  0.43208545537E+02  0.10413314500E+02  0.61057485395E+02  0.51100000000E-03 0.  1.
         22    1    1    0    0    0  0.14409886153E+02 -0.22390255272E+02 -0.12520538697E+02  0.29423328149E+02  0.00000000000E+00 0.  1.
</event>
<event>
 5    1  0.1692178E-003  0.9118800E+02  0.7818608E-02  0.1130116E+00
         25   -1    0    0    0    0  0.00000000000E+00  0.00000000000E+00  0.99999998245E-14  0.12500000000E+03  0.12500000000E+03 0.  0.
        -11    1    3    3    0    0  0.36747403194E+01 -0.45020067444E+02  0.19951281307E+02  0.49379791566E+02  0.51100000000E-03 0. -1.
         23    2    1    0    0    0  0.97926948627E+01 -0.19890916657E+02 -0.18774460415E+02  0.95947877840E+02  0.91443804929E+02 0.  0.
         11    1    3    3    0    0  0.61179545432E+01  0.25129150786E+02 -0.38725741722E+02  0.46568086274E+02  0.51100000000E-03 0.  1.
         22    1    1    0    0    0 -0.97926948627E+01  0.19890916657E+02  0.18774460415E+02  0.29052122160E+02  0.00000000000E+00 0. -1.
</event>
<event>
 5    1  0.1692178E-003  0.9118800E+02  0.7818608E-02  0.1130116E+00
         25   -1    0    0    0    0  0.00000000000E+00  0.00000000000E+00  0.99999998245E-14  0.12500000000E+03  0.12500000000E+03 0.  0.
        -11    1    3    3    0    0 -0.23842592747E+02 -0.14620295966E+02  0.29878084819E+02  0.40925813807E+02  0.51100000000E-03 0. -1.
         23    2    1    0    0    0  0.16455383577E+02 -0.26541790083E+02  0.28103206909E+02  0.82987662431E+02  0.71567559744E+02 0.  0.
         11    1    3    3    0    0  0.40297976324E+02 -0.11921494117E+02 -0.17748779100E+01  0.42061848624E+02  0.51100000000E-03 0.  1.
         22    1    1    0    0    0 -0.16455383577E+02  0.26541790083E+02 -0.28103206909E+02  0.42012337569E+02  0.00000000000E+00 0.  1.
</event>
<event>
 5    1  0.1692178E-003  0.9118800E+02  0.7818608E-02  0.1130116E+00
         25   -1    0    0    0    0  0.00000000000E+00  0.00000000000E+00  0.99999998245E-14  0.12500000000E+03  0.12500000000E+03 0.  0.
        -11    1    3    3    0    0 -0.37454308254E+02 -0.44061600961E+02 -0.22971619051E+02  0.62224956152E+02  0.51100000000E-03 0. -1.
         23    2    1    0    0    0 -0.31966076256E+02 -0.33745605067E+02 -0.15950187643E+02  0.75857305951E+02  0.57786905851E+02 0.  0.
         11    1    3    3    0    0  0.54882319985E+01  0.10315995894E+02  0.70214314082E+01  0.13632349799E+02  0.51100000000E-03 0.  1.
         22    1    1    0    0    0  0.31966076256E+02  0.33745605067E+02  0.15950187643E+02  0.49142694049E+02  0.00000000000E+00 0. -1.
</event>
<event>
 5    1  0.1692178E-003  0.9118800E+02  0.7818608E-02  0.1130116E+00
         25   -1    0    0    0    0  0.00000000000E+00  0.00000000000E+00  0.99999998245E-14  0.12500000000E+03  0.12500000000E+03 0.  0.
        -11    1    3    3    0    0  0.44588352693E+02  0.33561359113E+02 -0.53342124908E+01  0.56061928655E+02  0.51100000000E-03 0.  1.
         23    2    1    0    0    0  0.88187111312E+01  0.25075191161E+02 -0.15533752991E+02  0.94213113835E+02  0.89040880828E+02 0.  0.
         11    1    3    3    0    0 -0.35769641561E+02 -0.84861679519E+01 -0.10199540500E+02  0.38151185180E+02  0.51100000000E-03 0. -1.
         22    1    1    0    0    0 -0.88187111312E+01 -0.25075191161E+02  0.15533752991E+02  0.30786886165E+02  0.00000000000E+00 0.  1.
</event>
<event>
 5    1  0.1692178E-003  0.9118800E+02  0.7818608E-02  0.1130116E+00
         25   -1    0    0    0    0  0.00000000000E+00  0.00000000000E+00  0.99999998245E-14  0.12500000000E+03  0.12500000000E+03 0.  0.
        -11    1    3    3    0    0 -0.35673531557E+01 -0.19484035695E+02 -0.43950522181E+02  0.48207904495E+02  0.51100000000E-03 0. -1.
         23    2    1    0    0    0 -0.26551353798E+02 -0.85308387718E+01 -0.23087682814E+01  0.97016433222E+02  0.92892993845E+02 0.  0.
         11    1    3    3    0    0 -0.22984000642E+02  0.10953196923E+02  0.41641753900E+02  0.48808528727E+02  0.51100000000E-03 0.  1.
         22    1    1    0    0    0  0.26551353798E+02  0.85308387718E+01  0.23087682814E+01  0.27983566778E+02  0.00000000000E+00 0.  1.
</event>
<event>
 5    1  0.1692178E-003  0.9118800E+02  0.7818608E-02  0.1130116E+00
         25   -1    0    0    0    0  0.00000000000E+00  0.00000000000E+00  0.99999998245E-14  0.12500000000E+03  0.12500000000E+03 0.  0.
        -11    1    3    3    0    0  0.48372275513E+02  0.92475196142E+01  0.35500170165E+02  0.60709601706E+02  0.51100000000E-03 0. -1.
         23    2    1    0    0    0  0.16881127053E+02  0.13734275837E+02  0.13391284513E+02  0.99447519020E+02  0.96108687198E+02 0.  0.
         11    1    3    3    0    0 -0.31491148461E+02  0.44867562226E+01 -0.22108885652E+02  0.38737917313E+02  0.51100000000E-03 0.  1.
         22    1    1    0    0    0 -0.16881127053E+02 -0.13734275837E+02 -0.13391284513E+02  0.25552480980E+02  0.00000000000E+00 0. -1.
</event>
<event>
 5    1  0.1692178E-003  0.9118800E+02  0.7818608E-02  0.1130116E+00
         25   -1    0    0    0    0  0.00000000000E+00  0.00000000000E+00  0.99999998245E-14  0.12500000000E+03  0.12500000000E+03 0.  0.
        -11    1    3    3    0    0  0.69260623342E+01  0.37861314755E+02  0.55564206164E+01  0.38888601219E+02  0.51100000000E-03 0.  1.
         23    2    1    0    0    0 -0.28729886343E+02 -0.48220340162E+01 -0.48408470145E+01  0.95468793096E+02  0.90786553377E+02 0.  0.
         11    1    3    3    0    0 -0.35655948678E+02 -0.42683348771E+02 -0.10397267631E+02  0.56580191877E+02  0.51100000000E-03 0. -1.
         22    1    1    0    0    0  0.28729886343E+02  0.48220340162E+01  0.48408470145E+01  0.29531206904E+02  0.00000000000E+00 0. -1.
</event>
<event>
 5    1  0.1692178E-003  0.9118800E+02  0.7818608E-02  0.1130116E+00
         25   -1    0    0    0    0  0.00000000000E+00  0.00000000000E+00  0.99999998245E-14  0.12500000000E+03  0.12500000000E+03 0.  0.
        -11    1    3    3    0    0  0.32492652161E+02  0.39267794035E+01 -0.11357907322E+02  0.34643817629E+02  0.51100000000E-03 0. -1.
         23    2    1    0    0    0 -0.24664559991E+02  0.15323597980E+02  0.57790918342E+01  0.95393394706E+02  0.90682681238E+02 0.  0.
         11    1    3    3    0    0 -0.57157212152E+02  0.11396818577E+02  0.17136999156E+02  0.60749577077E+02  0.51100000000E-03 0.  1.
         22    1    1    0    0    0  0.24664559991E+02 -0.15323597980E+02 -0.57790918342E+01  0.29606605294E+02  0.00000000000E+00 0.  1.
</event>
<event>
 5    1  0.1692178E-003  0.9118800E+02  0.7818608E-02  0.1130116E+00
         25   -1    0    0    0    0  0.00000000000E+00  0.00000000000E+00  0.99999998245E-14  0.12500000000E+03  0.12500000000E+03 0.  0.
        -11    1    3    3    0    0 -0.22719434954E+02  0.32611860151E+02 -0.69453689101E+01  0.40347791720E+02  0.51100000000E-03 0. -1.
         23    2    1    0    0    0 -0.83660711617E+01 -0.15623388457E+02 -0.25466979888E+02  0.93973423035E+02  0.88703752788E+02 0.  0.
         11    1    3    3    0    0  0.14353363792E+02 -0.48235248608E+02 -0.18521610978E+02  0.53625631315E+02  0.51100000000E-03 0.  1.
         22    1    1    0    0    0  0.83660711617E+01  0.15623388457E+02  0.25466979888E+02  0.31026576965E+02  0.00000000000E+00 0.  1.
</event>
<event>
 5    1  0.1692178E-003  0.9118800E+02  0.7818608E-02  0.1130116E+00
         25   -1    0    0    0    0  0.00000000000E+00  0.00000000000E+00  0.99999998245E-14  0.12500000000E+03  0.12500000000E+03 0.  0.
        -11    1    3    3    0    0  0.27892316333E+02 -0.49337393761E+02 -0.16478179446E+02  0.59022793323E+02  0.51100000000E-03 0.  1.
         23    2    1    0    0    0  0.12682492402E+02 -0.15266149216E+02 -0.20397629414E+02  0.96540129812E+02  0.92249837143E+02 0.  0.
         11    1    3    3    0    0 -0.15209823931E+02  0.34071244545E+02 -0.39194499685E+01  0.37517336489E+02  0.51100000000E-03 0. -1.
         22    1    1    0    0    0 -0.12682492402E+02  0.15266149216E+02  0.20397629414E+02  0.28459870188E+02  0.00000000000E+00 0.  1.
</event>
<event>
 5    1  0.1692178E-003  0.9118800E+02  0.7818608E-02  0.1130116E+00
         25   -1    0    0    0    0  0.00000000000E+00  0.00000000000E+00  0.99999998245E-14  0.12500000000E+03  0.12500000000E+03 0.  0.
        -11    1    3    3    0    0  0.16377574141E+02 -0.53280337453E+01  0.32641489562E+02  0.36906364213E+02  0.51100000000E-03 0.  1.
         23    2    1    0    0    0 -0.22418796025E+02 -0.17303932170E+02 -0.92128741642E+01  0.95219040745E+02  0.90442026659E+02 0.  0.
         11    1    3    3    0    0 -0.38796370166E+02 -0.11975898425E+02 -0.41854363726E+02  0.58312676532E+02  0.51100000000E-03 0. -1.
         22    1    1    0    0    0  0.22418796025E+02  0.17303932170E+02  0.92128741642E+01  0.29780959255E+02  0.00000000000E+00 0. -1.
</event>
<event>
 5    1  0.1692178E-003  0.9118800E+02  0.7818608E-02  0.1130116E+00
         25   -1    0    0    0    0  0.00000000000E+00  0.00000000000E+00  0.99999998245E-14  0.12500000000E+03  0.12500000000E+03 0.  0.
        -11    1    3    3    0    0 -0.37367975838E+02  0.18629567144E+02  0.37384668764E-01  0.41754374478E+02  0.51100000000E-03 0.  1.
         23    2    1    0    0    0  0.26601929769E+01 -0.56576157512E+01 -0.27988671881E+02  0.96321593553E+02  0.91953240227E+02 0.  0.
         11    1    3    3    0    0  0.40028168815E+02 -0.24287182895E+02 -0.28026056550E+02  0.54567219075E+02  0.51100000000E-03 0. -1.
         22    1    1    0    0    0 -0.26601929769E+01  0.56576157512E+01  0.27988671881E+02  0.28678406447E+02  0.00000000000E+00 0. -1.
</event>
<event>
 5    1  0.1692178E-003  0.9118800E+02  0.7818608E-02  0.1130116E+00
         25   -1    0    0    0    0  0.00000000000E+00  0.00000000000E+00  0.99999998245E-14  0.12500000000E+03  0.12500000000E+03 0.  0.
        -11    1    3    3    0    0  0.52306310555E+02  0.98256021312E+01  0.32317153191E+01  0.53319195092E+02  0.51100000000E-03 0. -1.
         23    2    1    0    0    0  0.18280261954E+02  0.22588592443E+02 -0.13055630396E+02  0.93143101678E+02  0.87525855720E+02 0.  0.
         11    1    3    3    0    0 -0.34026048601E+02  0.12762990311E+02 -0.16287345715E+02  0.39823906586E+02  0.51100000000E-03 0.  1.
         22    1    1    0    0    0 -0.18280261954E+02 -0.22588592443E+02  0.13055630396E+02  0.31856898322E+02  0.00000000000E+00 0. -1.
</event>
<event>
 5    1  0.1692178E-003  0.9118800E+02  0.7818608E-02  0.1130116E+00
         25   -1    0    0    0    0  0.00000000000E+00  0.00000000000E+00  0.99999998245E-14  0.12500000000E+03  0.12500000000E+03 0.  0.
        -11    1    3    3    0    0  0.20461878187E+02 -0.11217987103E+01 -0.27046902779E+02  0.33933491442E+02  0.51100000000E-03 0. -1.
         23    2    1    0    0    0 -0.27309096869E+02 -0.69350587537E+01  0.10458262512E+02  0.94945764583E+02  0.90063539492E+02 0.  0.
         11    1    3    3    0    0 -0.47770975056E+02 -0.58132600434E+01  0.37505165291E+02  0.61012273141E+02  0.51100000000E-03 0.  1.
         22    1    1    0    0    0  0.27309096869E+02  0.69350587537E+01 -0.10458262512E+02  0.30054235417E+02  0.00000000000E+00 0.  1.
</event>
<event>
 5    1  0.1692178E-003  0.9118800E+02  0.7818608E-02  0.1130116E+00
         25   -1    0    0    0    0  0.00000000000E+00  0.00000000000E+00  0.99999998245E-14  0.12500000000E+03  0.12500000000E+03 0.  0.
        -11    1    3    3    0    0 -0.85403093046E+01  0.20236152034E+02 -0.28344808451E+02  0.35858986301E+02  0.51100000000E-03 0. -1.
         23    2    1    0    0    0  0.18885191567E+02 -0.22168995110E+02  0.36615696136E+01  0.95648306748E+02  0.91033382267E+02 0.  0.
         11    1    3    3    0    0  0.27425500871E+02 -0.42405147145E+02  0.32006378064E+02  0.59789320447E+02  0.51100000000E-03 0.  1.
         22    1    1    0    0    0 -0.18885191567E+02  0.22168995110E+02 -0.36615696136E+01  0.29351693252E+02  0.00000000000E+00 0.  1.
</event>
<event>
 5    1  0.1692178E-003  0.9118800E+02  0.7818608E-02  0.1130116E+00
         25   -1    0    0    0    0  0.00000000000E+00  0.00000000000E+00  0.99999998245E-14  0.12500000000E+03  0.12500000000E+03 0.  0.
        -11    1    3    3    0    0  0.16992529897E+02  0.11079655581E+02 -0.31470080546E+02  0.37441565271E+02  0.51100000000E-03 0.  1.
         23    2    1    0    0    0 -0.21052089228E+02  0.17756971841E+02  0.11441520669E+02  0.95177040639E+02  0.90383959637E+02 0.  0.
         11    1    3    3    0    0 -0.38044619125E+02  0.66773162602E+01  0.42911601215E+02  0.57735475368E+02  0.51100000000E-03 0. -1.
         22    1    1    0    0    0  0.21052089228E+02 -0.17756971841E+02 -0.11441520669E+02  0.29822959361E+02  0.00000000000E+00 0. -1.
</event>
<event>
 5    1  0.1692178E-003  0.9118800E+02  0.7818608E-02  0.1130116E+00
         25   -1    0    0    0    0  0.00000000000E+00  0.00000000000E+00  0.99999998245E-14  0.12500000000E+03  0.12500000000E+03 0.  0.
        -11    1    3    3    0    0  0.45263752159E+02 -0.38614012489E+02 -0.18325738992E+02  0.62254975142E+02  0.51100000000E-03 0. -1.
         23    2    1    0    0    0  0.19097923656E+02 -0.16257807716E+02 -0.37078459304E+01  0.99646595472E+02  0.96367260353E+02 0.  0.
         11    1    3    3    0    0 -0.26165828502E+02  0.22356204773E+02  0.14617893062E+02  0.37391620330E+02  0.51100000000E-03 0.  1.
         22    1    1    0    0    0 -0.19097923656E+02  0.16257807716E+02  0.37078459304E+01  0.25353404528E+02  0.00000000000E+00 0. -1.
</event>
<event>
 5    1  0.1692178E-003  0.9118800E+02  0.7818608E-02  0.1130116E+00
         25   -1    0    0    0    0  0.00000000000E+00  0.00000000000E+00  0.99999998245E-14  0.12500000000E+03  0.12500000000E+03 0.  0.
        -11    1    3    3    0    0  0.52944948539E+01 -0.26611009783E+02  0.50380876003E+02  0.57222462237E+02  0.51100000000E-03 0. -1.
         23    2    1    0    0    0 -0.52258485536E+01  0.31853184241E+01  0.28966304114E+02  0.95394214745E+02  0.90683811599E+02 0.  0.
         11    1    3    3    0    0 -0.10520343408E+02  0.29796328207E+02 -0.21414571889E+02  0.38171752507E+02  0.51100000000E-03 0.  1.
         22    1    1    0    0    0  0.52258485536E+01 -0.31853184241E+01 -0.28966304114E+02  0.29605785255E+02  0.00000000000E+00 0. -1.
</event>
<event>
 5    1  0.1692178E-003  0.9118800E+02  0.7818608E-02  0.1130116E+00
         25   -1    0    0    0    0  0.00000000000E+00  0.00000000000E+00  0.99999998245E-14  0.12500000000E+03  0.12500000000E+03 0.  0.
        -11    1    3    3    0    0  0.45011601918E+02 -0.16453107351E+02  0.40048010256E+02  0.62454720994E+02  0.51100000000E-03 0.  1.
         23    2    1    0    0    0  0.22556641692E+02 -0.82251385450E+01  0.17873375944E+02  0.95068201589E+02  0.90233310907E+02 0.  0.
         11    1    3    3    0    0 -0.22454960225E+02  0.82279688056E+01 -0.22174634312E+02  0.32613480595E+02  0.51100000000E-03 0. -1.
         22    1    1    0    0    0 -0.22556641692E+02  0.82251385450E+01 -0.17873375944E+02  0.29931798411E+02  0.00000000000E+00 0.  1.
</event>
<event>
 5    1  0.1692178E-003  0.9118800E+02  0.7818608E-02  0.1130116E+00
         25   -1    0    0    0    0  0.00000000000E+00  0.00000000000E+00  0.99999998245E-14  0.12500000000E+03  0.12500000000E+03 0.  0.
        -11    1    3    3    0    0  0.17021674783E+02 -0.17231051403E+02 -0.30243138681E+02  0.38746535102E+02  0.51100000000E-03 0. -1.
         23    2    1    0    0    0  0.17151931323E+02  0.18324056090E+02  0.14591090672E+02  0.95967953798E+02  0.91471243839E+02 0.  0.
         11    1    3    3    0    0  0.13025653912E+00  0.35555107493E+02  0.44834229353E+02  0.57221418696E+02  0.51100000000E-03 0.  1.
         22    1    1    0    0    0 -0.17151931323E+02 -0.18324056090E+02 -0.14591090672E+02  0.29032046202E+02  0.00000000000E+00 0.  1.
</event>
<event>
 5    1  0.1692178E-003  0.9118800E+02  0.7818608E-02  0.1130116E+00
         25   -1    0    0    0    0  0.00000000000E+00  0.00000000000E+00  0.99999998245E-14  0.12500000000E+03  0.12500000000E+03 0.  0.
        -11    1    3    3    0    0  0.47755494618E+02 -0.40673368853E+01 -0.62873390215E+01  0.48339022826E+02  0.51100000000E-03 0.  1.
         23    2    1    0    0    0  0.91043788823E+01 -0.21117534221E+00 -0.29864691952E+02  0.93777666083E+02  0.88427464742E+02 0.  0.
         11    1    3    3    0    0 -0.38651115736E+02  0.38561615431E+01 -0.23577352931E+02  0.45438643256E+02  0.51100000000E-03 0. -1.
         22    1    1    0    0    0 -0.91043788823E+01  0.21117534221E+00  0.29864691952E+02  0.31222333917E+02  0.00000000000E+00 0.  1.
</event>
<event>
 5    1  0.1692178E-003  0.9118800E+02  0.7818608E-02  0.1130116E+00
         25   -1    0    0    0    0  0.00000000000E+00  0.00000000000E+00  0.99999998245E-14  0.12500000000E+03  0.12500000000E+03 0.  0.
        -11    1    3    3    0    0  0.31891741161E+02 -0.18603604998E+02 -0.10040709159E+02  0.38262162954E+02  0.51100000000E-03 0.  1.
         23    2    1    0    0    0 -0.18958641383E+02  0.78477130698E+01  0.13726748141E+02  0.10031315536E+03  0.97228024978E+02 0.  0.
         11    1    3    3    0    0 -0.50850382544E+02  0.26451318068E+02  0.23767457300E+02  0.62050992411E+02  0.51100000000E-03 0. -1.
         22    1    1    0    0    0  0.18958641383E+02 -0.78477130698E+01 -0.13726748141E+02  0.24686844635E+02  0.00000000000E+00 0. -1.
</event>
<event>
 5    1  0.1692178E-003  0.9118800E+02  0.7818608E-02  0.1130116E+00
         25   -1    0    0    0    0  0.00000000000E+00  0.00000000000E+00  0.99999998245E-14  0.12500000000E+03  0.12500000000E+03 0.  0.
        -11    1    3    3    0    0 -0.65823788916E+01  0.34429136584E+02 -0.36918014030E+02  0.50908083032E+02  0.51100000000E-03 0.  1.
         23    2    1    0    0    0  0.15676521248E+02  0.24560656101E+02  0.85690282285E+00  0.95850155592E+02  0.91310124838E+02 0.  0.
         11    1    3    3    0    0  0.22258900139E+02 -0.98684804830E+01  0.37774916853E+02  0.44942072560E+02  0.51100000000E-03 0. -1.
         22    1    1    0    0    0 -0.15676521248E+02 -0.24560656101E+02 -0.85690282285E+00  0.29149844408E+02  0.00000000000E+00 0.  1.
</event>
<event>
 5    1  0.1692178E-003  0.9118800E+02  0.7818608E-02  0.1130116E+00
         25   -1    0    0    0    0  0.00000000000E+00  0.00000000000E+00  0.99999998245E-14  0.12500000000E+03  0.12500000000E+03 0.  0.
        -11    1    3    3    0    0 -0.23764224026E+02  0.30894548235E+02 -0.48883723868E+01  0.39282408774E+02  0.51100000000E-03 0.  1.
         23    2    1    0    0    0  0.96634054313E+01 -0.45294891251E+01  0.25957450272E+02  0.96934239705E+02  0.92782325506E+02 0.  0.
         11    1    3    3    0    0  0.33427629458E+02 -0.35424037360E+02  0.30845822659E+02  0.57651830932E+02  0.51100000000E-03 0. -1.
         22    1    1    0    0    0 -0.96634054313E+01  0.45294891251E+01 -0.25957450272E+02  0.28065760295E+02  0.00000000000E+00 0. -1.
</event>
<event>
 5    1  0.1692178E-003  0.9118800E+02  0.7818608E-02  0.1130116E+00
         25   -1    0    0    0    0  0.00000000000E+00  0.00000000000E+00  0.99999998245E-14  0.12500000000E+03  0.12500000000E+03 0.  0.
        -11    1    3    3    0    0 -0.23220083272E+02  0.17711410731E+02 -0.19623344591E+02  0.35184399816E+02  0.51100000000E-03 0.  1.
         23    2    1    0    0    0  0.10434601312E+02 -0.27555858012E+02  0.16958379716E+01  0.95485900289E+02  0.90810104461E+02 0.  0.
         11    1    3    3    0    0  0.33654684584E+02 -0.45267268742E+02  0.21319182563E+02  0.60301500473E+02  0.51100000000E-03 0. -1.
         22    1    1    0    0    0 -0.10434601312E+02  0.27555858012E+02 -0.16958379716E+01  0.29514099711E+02  0.00000000000E+00 0. -1.
</event>
<event>
 5    1  0.1692178E-003  0.9118800E+02  0.7818608E-02  0.1130116E+00
         25   -1    0    0    0    0  0.00000000000E+00  0.00000000000E+00  0.99999998245E-14  0.12500000000E+03  0.12500000000E+03 0.  0.
        -11    1    3    3    0    0 -0.27981977401E+02 -0.20850831488E+02 -0.65176814052E+01  0.35499695832E+02  0.51100000000E-03 0.  1.
         23    2    1    0    0    0  0.81984586415E+01  0.23173271762E+02  0.14762091669E+02  0.96327110388E+02  0.91960739433E+02 0.  0.
         11    1    3    3    0    0  0.36180436043E+02  0.44024103250E+02  0.21279773074E+02  0.60827414556E+02  0.51100000000E-03 0. -1.
         22    1    1    0    0    0 -0.81984586415E+01 -0.23173271762E+02 -0.14762091669E+02  0.28672889612E+02  0.00000000000E+00 0. -1.
</event>
<event>
 5    1  0.1692178E-003  0.9118800E+02  0.7818608E-02  0.1130116E+00
         25   -1    0    0    0    0  0.00000000000E+00  0.00000000000E+00  0.99999998245E-14  0.12500000000E+03  0.12500000000E+03 0.  0.
        -11    1    3    3    0    0  0.28197206380E+02 -0.44532576348E+02  0.27610697661E+02  0.59502801862E+02  0.51100000000E-03 0.  1.
         23    2    1    0    0    0  0.15029675956E+01 -0.27889182443E+02  0.13438769430E+02  0.94005388650E+02  0.88748786823E+02 0.  0.
         11    1    3    3    0    0 -0.26694238785E+02  0.16643393905E+02 -0.14171928232E+02  0.34502586788E+02  0.51100000000E-03 0. -1.
         22    1    1    0    0    0 -0.15029675956E+01  0.27889182443E+02 -0.13438769430E+02  0.30994611350E+02  0.00000000000E+00 0.  1.
</event>
<event>
 5    1  0.1692178E-003  0.9118800E+02  0.7818608E-02  0.1130116E+00
         25   -1    0    0    0    0  0.00000000000E+00  0.00000000000E+00  0.99999998245E-14  0.12500000000E+03  0.12500000000E+03 0.  0.
        -11    1    3    3    0    0  0.76493647011E+00 -0.17672737709E+02 -0.39638004371E+02  0.43406015444E+02  0.51100000000E-03 0. -1.
         23    2    1    0    0    0  0.26648249059E+02 -0.69702532791E+01  0.58644591132E+01  0.96837871363E+02  0.92652403319E+02 0.  0.
         11    1    3    3    0    0  0.25883312589E+02  0.10702484430E+02  0.45502463484E+02  0.53431855919E+02  0.51100000000E-03 0.  1.
         22    1    1    0    0    0 -0.26648249059E+02  0.69702532791E+01 -0.58644591132E+01  0.28162128637E+02  0.00000000000E+00 0.  1.
</event>
<event>
 5    1  0.1692178E-003  0.9118800E+02  0.7818608E-02  0.1130116E+00
         25   -1    0    0    0    0  0.00000000000E+00  0.00000000000E+00  0.99999998245E-14  0.12500000000E+03  0.12500000000E+03 0.  0.
        -11    1    3    3    0    0 -0.19128082340E+01  0.37045992257E+02  0.17773219167E+02  0.41133340461E+02  0.51100000000E-03 0. -1.
         23    2    1    0    0    0 -0.13400370294E+02 -0.17958164108E+02  0.16207186262E+02  0.97346094875E+02  0.93335543705E+02 0.  0.
         11    1    3    3    0    0 -0.11487562060E+02 -0.55004156365E+02 -0.15660329048E+01  0.56212754414E+02  0.51100000000E-03 0.  1.
         22    1    1    0    0    0  0.13400370294E+02  0.17958164108E+02 -0.16207186262E+02  0.27653905125E+02  0.00000000000E+00 0.  1.
</event>
<event>
 5    1  0.1692178E-003  0.9118800E+02  0.7818608E-02  0.1130116E+00
         25   -1    0    0    0    0  0.00000000000E+00  0.00000000000E+00  0.99999998245E-14  0.12500000000E+03  0.12500000000E+03 0.  0.
        -11    1    3    3    0    0 -0.13902045988E+02  0.60611349900E+02 -0.28328128896E+01  0.62249718461E+02  0.51100000000E-03 0.  1.
         23    2    1    0    0    0 -0.86889303943E+01  0.25537610275E+02 -0.40098595155E+01  0.97728292622E+02  0.93846007670E+02 0.  0.
         11    1    3    3    0    0  0.52131155936E+01 -0.35073739625E+02 -0.11770466259E+01  0.35478574161E+02  0.51100000000E-03 0. -1.
         22    1    1    0    0    0  0.86889303943E+01 -0.25537610275E+02  0.40098595155E+01  0.27271707378E+02  0.00000000000E+00 0.  1.
</event>
<event>
 5    1  0.1692178E-003  0.9118800E+02  0.7818608E-02  0.1130116E+00
         25   -1    0    0    0    0  0.00000000000E+00  0.00000000000E+00  0.99999998245E-14  0.12500000000E+03  0.12500000000E+03 0.  0.
        -11    1    3    3    0    0 -0.13143111493E+02  0.81154217344E+01 -0.32250916130E+02  0.35759237144E+02  0.51100000000E-03 0. -1.
         23    2    1    0    0    0  0.26419911339E+02 -0.77732626370E+01  0.99216016990E+01  0.95727598194E+02  0.91142194118E+02 0.  0.
         11    1    3    3    0    0  0.39563022833E+02 -0.15888684371E+02  0.42172517829E+02  0.59968361050E+02  0.51100000000E-03 0.  1.
         22    1    1    0    0    0 -0.26419911339E+02  0.77732626370E+01 -0.99216016990E+01  0.29272401806E+02  0.00000000000E+00 0.  1.
</event>
<event>
 5    1  0.1692178E-003  0.9118800E+02  0.7818608E-02  0.1130116E+00
         25   -1    0    0    0    0  0.00000000000E+00  0.00000000000E+00  0.99999998245E-14  0.12500000000E+03  0.12500000000E+03 0.  0.
        -11    1    3    3    0    0  0.36554173556E+02  0.11263832041E+02 -0.69692976985E+01  0.38879977203E+02  0.51100000000E-03 0.  1.
         23    2    1    0    0    0 -0.14408458426E+02 -0.10112048985E+02 -0.22639169729E+02  0.96322670715E+02  0.91954704495E+02 0.  0.
         11    1    3    3    0    0 -0.50962631983E+02 -0.21375881026E+02 -0.15669872030E+02  0.57442693512E+02  0.51100000000E-03 0. -1.
         22    1    1    0    0    0  0.14408458426E+02  0.10112048985E+02  0.22639169729E+02  0.28677329285E+02  0.00000000000E+00 0. -1.
</event>
<event>
 5    1  0.1692178E-003  0.9118800E+02  0.7818608E-02  0.1130116E+00
         25   -1    0    0    0    0  0.00000000000E+00  0.00000000000E+00  0.99999998245E-14  0.12500000000E+03  0.12500000000E+03 0.  0.
        -11    1    3    3    0    0  0.38577964190E+01 -0.53446835927E+02 -0.63211557288E+01  0.53957426493E+02  0.51100000000E-03 0. -1.
         23    2    1    0    0    0  0.22765903188E+02 -0.22425811008E+02  0.63229105452E+01  0.92424203078E+02  0.86493067754E+02 0.  0.
         11    1    3    3    0    0  0.18908106769E+02  0.31021024919E+02  0.12644066274E+02  0.38466776585E+02  0.51100000000E-03 0.  1.
         22    1    1    0    0    0 -0.22765903188E+02  0.22425811008E+02 -0.63229105452E+01  0.32575796922E+02  0.00000000000E+00 0. -1.
</event>
<event>
 5    1  0.1692178E-003  0.9118800E+02  0.7818608E-02  0.1130116E+00
         25   -1    0    0    0    0  0.00000000000E+00  0.00000000000E+00  0.99999998245E-14  0.12500000000E+03  0.12500000000E+03 0.  0.
        -11    1    3    3    0    0  0.31847763032E+02 -0.19736962333E+02  0.42156915996E+02  0.56400649454E+02  0.51100000000E-03 0. -1.
         23    2    1    0    0    0  0.17238156495E+02  0.98539016963E+01  0.23216885874E+02  0.94450413953E+02  0.89373393626E+02 0.  0.
         11    1    3    3    0    0 -0.14609606536E+02  0.29590864029E+02 -0.18940030122E+02  0.38049764499E+02  0.51100000000E-03 0.  1.
         22    1    1    0    0    0 -0.17238156495E+02 -0.98539016963E+01 -0.23216885874E+02  0.30549586047E+02  0.00000000000E+00 0. -1.
</event>
<event>
 5    1  0.1692178E-003  0.9118800E+02  0.7818608E-02  0.1130116E+00
         25   -1    0    0    0    0  0.00000000000E+00  0.00000000000E+00  0.99999998245E-14  0.12500000000E+03  0.12500000000E+03 0.  0.
        -11    1    3    3    0    0  0.21044449180E+02  0.54385543781E+02 -0.22382439791E+02  0.62463027664E+02  0.51100000000E-03 0.  1.
         23    2    1    0    0    0  0.11196639645E+02  0.25535841018E+02 -0.97344866862E+01  0.95466897439E+02  0.90783943293E+02 0.  0.
         11    1    3    3    0    0 -0.98478095354E+01 -0.28849702763E+02  0.12647953105E+02  0.33003869775E+02  0.51100000000E-03 0. -1.
         22    1    1    0    0    0 -0.11196639645E+02 -0.25535841018E+02  0.97344866862E+01  0.29533102561E+02  0.00000000000E+00 0.  1.
</event>
<event>
 5    1  0.1692178E-003  0.9118800E+02  0.7818608E-02  0.1130116E+00
         25   -1    0    0    0    0  0.00000000000E+00  0.00000000000E+00  0.99999998245E-14  0.12500000000E+03  0.12500000000E+03 0.  0.
        -11    1    3    3    0    0 -0.30269787899E+01  0.40503519267E+02 -0.27163180488E+02  0.48862419590E+02  0.51100000000E-03 0.  1.
         23    2    1    0    0    0 -0.13177999512E+02 -0.24379698284E+01 -0.29028947010E+02  0.93026837308E+02  0.87359655031E+02 0.  0.
         11    1    3    3    0    0 -0.10151020722E+02 -0.42941489096E+02 -0.18657665210E+01  0.44164417719E+02  0.51100000000E-03 0. -1.
         22    1    1    0    0    0  0.13177999512E+02  0.24379698284E+01  0.29028947010E+02  0.31973162692E+02  0.00000000000E+00 0. -1.
</event>
<event>
 5    1  0.1692178E-003  0.9118800E+02  0.7818608E-02  0.1130116E+00
         25   -1    0    0    0    0  0.00000000000E+00  0.00000000000E+00  0.99999998245E-14  0.12500000000E+03  0.12500000000E+03 0.  0.
        -11    1    3    3    0    0  0.13404098442E+02  0.41301937954E+02 -0.62000879536E+01  0.43862980116E+02  0.51100000000E-03 0.  1.
         23    2    1    0    0    0  0.23667914918E+02 -0.98852047727E+01  0.82928827077E+01  0.98043379782E+02  0.94264759829E+02 0.  0.
         11    1    3    3    0    0  0.10263816476E+02 -0.51187142726E+02  0.14492970661E+02  0.54180399666E+02  0.51100000000E-03 0. -1.
         22    1    1    0    0    0 -0.23667914918E+02  0.98852047727E+01 -0.82928827077E+01  0.26956620218E+02  0.00000000000E+00 0. -1.
</event>
<event>
 5    1  0.1692178E-003  0.9118800E+02  0.7818608E-02  0.1130116E+00
         25   -1    0    0    0    0  0.00000000000E+00  0.00000000000E+00  0.99999998245E-14  0.12500000000E+03  0.12500000000E+03 0.  0.
        -11    1    3    3    0    0  0.14807856765E+02 -0.33537583087E+02 -0.31017335144E+02  0.48022048905E+02  0.51100000000E-03 0. -1.
         23    2    1    0    0    0  0.15842919335E+02 -0.29738051210E+02  0.10485470484E+02  0.89711264204E+02  0.82479185563E+02 0.  0.
         11    1    3    3    0    0  0.10350625696E+01  0.37995318779E+01  0.41502805628E+02  0.41689215299E+02  0.51100000000E-03 0.  1.
         22    1    1    0    0    0 -0.15842919335E+02  0.29738051210E+02 -0.10485470484E+02  0.35288735796E+02  0.00000000000E+00 0. -1.
</event>
<event>
 5    1  0.1692178E-003  0.9118800E+02  0.7818608E-02  0.1130116E+00
         25   -1    0    0    0    0  0.00000000000E+00  0.00000000000E+00  0.99999998245E-14  0.12500000000E+03  0.12500000000E+03 0.  0.
        -11    1    3    3    0    0  0.41239392142E+01  0.22939349350E+02 -0.28589216194E+02  0.36885822563E+02  0.51100000000E-03 0. -1.
         23    2    1    0    0    0  0.20575239812E+01 -0.65837003469E+01  0.25522377939E+02  0.98561953725E+02  0.94949925915E+02 0.  0.
         11    1    3    3    0    0 -0.20664152330E+01 -0.29523049697E+02  0.54111594133E+02  0.61676131163E+02  0.51100000000E-03 0.  1.
         22    1    1    0    0    0 -0.20575239812E+01  0.65837003469E+01 -0.25522377939E+02  0.26438046275E+02  0.00000000000E+00 0.  1.
</event>
<event>
 5    1  0.1692178E-003  0.9118800E+02  0.7818608E-02  0.1130116E+00
         25   -1    0    0    0    0  0.00000000000E+00  0.00000000000E+00  0.99999998245E-14  0.12500000000E+03  0.12500000000E+03 0.  0.
        -11    1    3    3    0    0  0.44468621089E+02  0.83872459773E+01  0.26189571804E+00  0.45253428006E+02  0.51100000000E-03 0.  1.
         23    2    1    0    0    0  0.68615023504E+01 -0.81769926620E+01 -0.27938011697E+02  0.95092209693E+02  0.90266563152E+02 0.  0.
         11    1    3    3    0    0 -0.37607118739E+02 -0.16564238639E+02 -0.28199907415E+02  0.49838781687E+02  0.51100000000E-03 0. -1.
         22    1    1    0    0    0 -0.68615023504E+01  0.81769926620E+01  0.27938011697E+02  0.29907790307E+02  0.00000000000E+00 0. -1.
</event>
<event>
 5    1  0.1692178E-003  0.9118800E+02  0.7818608E-02  0.1130116E+00
         25   -1    0    0    0    0  0.00000000000E+00  0.00000000000E+00  0.99999998245E-14  0.12500000000E+03  0.12500000000E+03 0.  0.
        -11    1    3    3    0    0 -0.17560644908E+02  0.26214008337E+01  0.58628538440E+02  0.61258089358E+02  0.51100000000E-03 0. -1.
         23    2    1    0    0    0 -0.15549379555E+02  0.47240961667E+01  0.23959356130E+02  0.96049161751E+02  0.91582151306E+02 0.  0.
         11    1    3    3    0    0  0.20112653530E+01  0.21026953330E+01 -0.34669182310E+02  0.34791072393E+02  0.51100000000E-03 0.  1.
         22    1    1    0    0    0  0.15549379555E+02 -0.47240961667E+01 -0.23959356130E+02  0.28950838249E+02  0.00000000000E+00 0. -1.
</event>
<event>
 5    1  0.1692178E-003  0.9118800E+02  0.7818608E-02  0.1130116E+00
         25   -1    0    0    0    0  0.00000000000E+00  0.00000000000E+00  0.99999998245E-14  0.12500000000E+03  0.12500000000E+03 0.  0.
        -11    1    3    3    0    0  0.19994857836E+01 -0.28286691152E+02 -0.19403526518E+02  0.34360321322E+02  0.51100000000E-03 0.  1.
         23    2    1    0    0    0  0.14311656237E+02  0.17364028641E+02  0.19215855249E+02  0.95409763640E+02  0.90705241910E+02 0.  0.
         11    1    3    3    0    0  0.12312170453E+02  0.45650719793E+02  0.38619381768E+02  0.61049442318E+02  0.51100000000E-03 0. -1.
         22    1    1    0    0    0 -0.14311656237E+02 -0.17364028641E+02 -0.19215855249E+02  0.29590236360E+02  0.00000000000E+00 0. -1.
</event>
<event>
 5    1  0.1692178E-003  0.9118800E+02  0.7818608E-02  0.1130116E+00
         25   -1    0    0    0    0  0.00000000000E+00  0.00000000000E+00  0.99999998245E-14  0.12500000000E+03  0.12500000000E+03 0.  0.
        -11    1    3    3    0    0  0.88932449915E+01  0.52025959778E+02  0.10939159427E+02  0.53902277378E+02  0.51100000000E-03 0.  1.
         23    2    1    0    0    0  0.20484421942E+02  0.17615574399E+02 -0.10436604053E+02  0.96037218575E+02  0.91565848676E+02 0.  0.
         11    1    3    3    0    0  0.11591176951E+02 -0.34410385379E+02 -0.21375763481E+02  0.42134941197E+02  0.51100000000E-03 0. -1.
         22    1    1    0    0    0 -0.20484421942E+02 -0.17615574399E+02  0.10436604053E+02  0.28962781425E+02  0.00000000000E+00 0. -1.
</event>
<event>
 5    1  0.1692178E-003  0.9118800E+02  0.7818608E-02  0.1130116E+00
         25   -1    0    0    0    0  0.00000000000E+00  0.00000000000E+00  0.99999998245E-14  0.12500000000E+03  0.12500000000E+03 0.  0.
        -11    1    3    3    0    0  0.24160513915E+02  0.17695751465E+02  0.34257058493E+02  0.45501825341E+02  0.51100000000E-03 0.  1.
         23    2    1    0    0    0  0.20605813432E+02 -0.21623984530E+02  0.48299922112E+01  0.94742355034E+02  0.89780781677E+02 0.  0.
         11    1    3    3    0    0 -0.35547004830E+01 -0.39319735995E+02 -0.29427066282E+02  0.49240529693E+02  0.51100000000E-03 0. -1.
         22    1    1    0    0    0 -0.20605813432E+02  0.21623984530E+02 -0.48299922112E+01  0.30257644966E+02  0.00000000000E+00 0.  1.
</event>
<event>
 5    1  0.1692178E-003  0.9118800E+02  0.7818608E-02  0.1130116E+00
         25   -1    0    0    0    0  0.00000000000E+00  0.00000000000E+00  0.99999998245E-14  0.12500000000E+03  0.12500000000E+03 0.  0.
        -11    1    3    3    0    0 -0.76946067239E+01  0.25326324117E+02 -0.11057294594E+02  0.28686119116E+02  0.51100000000E-03 0.  1.
         23    2    1    0    0    0  0.20877503767E+02  0.23691816771E+02  0.31776807384E+02  0.80201140272E+02  0.66522816145E+02 0.  0.
         11    1    3    3    0    0  0.28572110491E+02 -0.16345073465E+01  0.42834101978E+02  0.51515021156E+02  0.51100000000E-03 0. -1.
         22    1    1    0    0    0 -0.20877503767E+02 -0.23691816771E+02 -0.31776807384E+02  0.44798859728E+02  0.00000000000E+00 0.  1.
</event>
<event>
 5    1  0.1692178E-003  0.9118800E+02  0.7818608E-02  0.1130116E+00
         25   -1    0    0    0    0  0.00000000000E+00  0.00000000000E+00  0.99999998245E-14  0.12500000000E+03  0.12500000000E+03 0.  0.
        -11    1    3    3    0    0  0.35958866045E+02 -0.37747767771E+02 -0.39703482051E+01  0.52284774878E+02  0.51100000000E-03 0.  1.
         23    2    1    0    0    0 -0.53628379594E+01 -0.26923348375E+02  0.75528593749E+01  0.96527690585E+02  0.92232980253E+02 0.  0.
         11    1    3    3    0    0 -0.41321704004E+02  0.10824419396E+02  0.11523207580E+02  0.44242915707E+02  0.51100000000E-03 0. -1.
         22    1    1    0    0    0  0.53628379594E+01  0.26923348375E+02 -0.75528593749E+01  0.28472309415E+02  0.00000000000E+00 0.  1.
</event>
<event>
 5    1  0.1692178E-003  0.9118800E+02  0.7818608E-02  0.1130116E+00
         25   -1    0    0    0    0  0.00000000000E+00  0.00000000000E+00  0.99999998245E-14  0.12500000000E+03  0.12500000000E+03 0.  0.
        -11    1    3    3    0    0  0.19086850700E+02 -0.32551686446E+02 -0.47105184517E+01  0.38027741774E+02  0.51100000000E-03 0.  1.
         23    2    1    0    0    0  0.21769744323E+02  0.20858027633E+02  0.95514438482E+01  0.93373916394E+02  0.87854875213E+02 0.  0.
         11    1    3    3    0    0  0.26828936232E+01  0.53409714079E+02  0.14261962300E+02  0.55346174620E+02  0.51100000000E-03 0. -1.
         22    1    1    0    0    0 -0.21769744323E+02 -0.20858027633E+02 -0.95514438482E+01  0.31626083606E+02  0.00000000000E+00 0. -1.
</event>
<event>
 5    1  0.1692178E-003  0.9118800E+02  0.7818608E-02  0.1130116E+00
         25   -1    0    0    0    0  0.00000000000E+00  0.00000000000E+00  0.99999998245E-14  0.12500000000E+03  0.12500000000E+03 0.  0.
        -11    1    3    3    0    0  0.19688130035E+02 -0.25638358408E+02 -0.13943855820E+02  0.35204815033E+02  0.51100000000E-03 0.  1.
         23    2    1    0    0    0 -0.73819570286E+01  0.23534761129E+02  0.12607212896E+02  0.97299456901E+02  0.93273062700E+02 0.  0.
         11    1    3    3    0    0 -0.27070087064E+02  0.49173119536E+02  0.26551068716E+02  0.62094641868E+02  0.51100000000E-03 0. -1.
         22    1    1    0    0    0  0.73819570286E+01 -0.23534761129E+02 -0.12607212896E+02  0.27700543099E+02  0.00000000000E+00 0. -1.
</event>
<event>
 5    1  0.1692178E-003  0.9118800E+02  0.7818608E-02  0.1130116E+00
         25   -1    0    0    0    0  0.00000000000E+00  0.00000000000E+00  0.99999998245E-14  0.12500000000E+03  0.12500000000E+03 0.  0.
        -11    1    3    3    0    0  0.26847405057E+02 -0.21715891765E+01 -0.65352895488E+01  0.27716582899E+02  0.51100000000E-03 0.  1.
         23    2    1    0    0    0 -0.21719140933E+02 -0.11934522052E+02 -0.32881874655E+02  0.83825109833E+02  0.73015597362E+02 0.  0.
         11    1    3    3    0    0 -0.48566545990E+02 -0.97629328756E+01 -0.26346585106E+02  0.56108526934E+02  0.51100000000E-03 0. -1.
         22    1    1    0    0    0  0.21719140933E+02  0.11934522052E+02  0.32881874655E+02  0.41174890167E+02  0.00000000000E+00 0. -1.
</event>
<event>
 5    1  0.1692178E-003  0.9118800E+02  0.7818608E-02  0.1130116E+00
         25   -1    0    0    0    0  0.00000000000E+00  0.00000000000E+00  0.99999998245E-14  0.12500000000E+03  0.12500000000E+03 0.  0.
        -11    1    3    3    0    0 -0.42605935978E+02  0.16403022903E+02 -0.46308416766E+01  0.45888665657E+02  0.51100000000E-03 0. -1.
         23    2    1    0    0    0 -0.14707016395E+02 -0.19593354835E+02  0.15846604872E+02  0.95822769650E+02  0.91272626852E+02 0.  0.
         11    1    3    3    0    0  0.27898919583E+02 -0.35996377738E+02  0.20477446549E+02  0.49934103993E+02  0.51100000000E-03 0.  1.
         22    1    1    0    0    0  0.14707016395E+02  0.19593354835E+02 -0.15846604872E+02  0.29177230350E+02  0.00000000000E+00 0. -1.
</event>
<event>
 5    1  0.1692178E-003  0.9118800E+02  0.7818608E-02  0.1130116E+00
         25   -1    0    0    0    0  0.00000000000E+00  0.00000000000E+00  0.99999998245E-14  0.12500000000E+03  0.12500000000E+03 0.  0.
        -11    1    3    3    0    0 -0.32310605103E+02 -0.39928804195E+01 -0.20034907677E+02  0.38227160789E+02  0.51100000000E-03 0.  1.
         23    2    1    0    0    0  0.44129206367E+01 -0.19462684197E+02  0.21416651826E+02  0.95726412585E+02  0.91140568060E+02 0.  0.
         11    1    3    3    0    0  0.36723525739E+02 -0.15469803777E+02  0.41451559503E+02  0.57499251796E+02  0.51100000000E-03 0. -1.
         22    1    1    0    0    0 -0.44129206367E+01  0.19462684197E+02 -0.21416651826E+02  0.29273587415E+02  0.00000000000E+00 0. -1.
</event>
<event>
 5    1  0.1692178E-003  0.9118800E+02  0.7818608E-02  0.1130116E+00
         25   -1    0    0    0    0  0.00000000000E+00  0.00000000000E+00  0.99999998245E-14  0.12500000000E+03  0.12500000000E+03 0.  0.
        -11    1    3    3    0    0  0.24504207493E+01 -0.36522875131E+02 -0.37819410727E+02  0.52633001032E+02  0.51100000000E-03 0.  1.
         23    2    1    0    0    0 -0.17829629545E+02 -0.32916770159E+01 -0.25970216150E+02  0.93326936458E+02  0.87788006667E+02 0.  0.
         11    1    3    3    0    0 -0.20280050294E+02  0.33231198115E+02  0.11849194577E+02  0.40693935426E+02  0.51100000000E-03 0. -1.
         22    1    1    0    0    0  0.17829629545E+02  0.32916770159E+01  0.25970216150E+02  0.31673063542E+02  0.00000000000E+00 0.  1.
</event>
<event>
 5    1  0.1692178E-003  0.9118800E+02  0.7818608E-02  0.1130116E+00
         25   -1    0    0    0    0  0.00000000000E+00  0.00000000000E+00  0.99999998245E-14  0.12500000000E+03  0.12500000000E+03 0.  0.
        -11    1    3    3    0    0  0.19101263608E+02  0.23793656995E+01  0.37857844101E+02  0.42470413381E+02  0.51100000000E-03 0.  1.
         23    2    1    0    0    0  0.12811539812E+02  0.27595010602E+02 -0.65081949741E+01  0.93887675042E+02  0.88582835586E+02 0.  0.
         11    1    3    3    0    0 -0.62897237957E+01  0.25215644902E+02 -0.44366039075E+02  0.51417261661E+02  0.51100000000E-03 0. -1.
         22    1    1    0    0    0 -0.12811539812E+02 -0.27595010602E+02  0.65081949741E+01  0.31112324958E+02  0.00000000000E+00 0. -1.
</event>
<event>
 5    1  0.1692178E-003  0.9118800E+02  0.7818608E-02  0.1130116E+00
         25   -1    0    0    0    0  0.00000000000E+00  0.00000000000E+00  0.99999998245E-14  0.12500000000E+03  0.12500000000E+03 0.  0.
        -11    1    3    3    0    0 -0.31029025667E+02 -0.49341233206E+02  0.14547507391E+02  0.60074850809E+02  0.51100000000E-03 0.  1.
         23    2    1    0    0    0 -0.28710190621E+01 -0.27172317229E+02  0.82199147956E+01  0.96466781231E+02  0.92150395050E+02 0.  0.
         11    1    3    3    0    0  0.28158006605E+02  0.22168915977E+02 -0.63275925956E+01  0.36391930423E+02  0.51100000000E-03 0. -1.
         22    1    1    0    0    0  0.28710190621E+01  0.27172317229E+02 -0.82199147956E+01  0.28533218769E+02  0.00000000000E+00 0.  1.
</event>
<event>
 5    1  0.1692178E-003  0.9118800E+02  0.7818608E-02  0.1130116E+00
         25   -1    0    0    0    0  0.00000000000E+00  0.00000000000E+00  0.99999998245E-14  0.12500000000E+03  0.12500000000E+03 0.  0.
        -11    1    3    3    0    0  0.32485725643E+02  0.15512627931E+02 -0.35423203961E+01  0.36173360778E+02  0.51100000000E-03 0.  1.
         23    2    1    0    0    0 -0.22283110489E+02  0.18447636869E+02  0.12745697685E+02  0.93388212189E+02  0.87875212929E+02 0.  0.
         11    1    3    3    0    0 -0.54768836132E+02  0.29350089382E+01  0.16288018082E+02  0.57214851412E+02  0.51100000000E-03 0. -1.
         22    1    1    0    0    0  0.22283110489E+02 -0.18447636869E+02 -0.12745697685E+02  0.31611787811E+02  0.00000000000E+00 0. -1.
</event>
<event>
 5    1  0.1692178E-003  0.9118800E+02  0.7818608E-02  0.1130116E+00
         25   -1    0    0    0    0  0.00000000000E+00  0.00000000000E+00  0.99999998245E-14  0.12500000000E+03  0.12500000000E+03 0.  0.
        -11    1    3    3    0    0  0.15828637188E+02 -0.54877615812E+02 -0.15220340753E+01  0.57135059818E+02  0.51100000000E-03 0.  1.
         23    2    1    0    0    0 -0.10978983450E+02 -0.27045729533E+02  0.72717536022E-01  0.95810706562E+02  0.91256104675E+02 0.  0.
         11    1    3    3    0    0 -0.26807620637E+02  0.27831886279E+02  0.15947516113E+01  0.38675646744E+02  0.51100000000E-03 0. -1.
         22    1    1    0    0    0  0.10978983450E+02  0.27045729533E+02 -0.72717536022E-01  0.29189293438E+02  0.00000000000E+00 0.  1.
</event>
<event>
 5    1  0.1692178E-003  0.9118800E+02  0.7818608E-02  0.1130116E+00
         25   -1    0    0    0    0  0.00000000000E+00  0.00000000000E+00  0.99999998245E-14  0.12500000000E+03  0.12500000000E+03 0.  0.
        -11    1    3    3    0    0  0.10229104953E+02  0.37337582963E+02 -0.10402771524E+02  0.40086747752E+02  0.51100000000E-03 0.  1.
         23    2    1    0    0    0  0.95125199805E+01 -0.11719472429E+01  0.28560672114E+02  0.94874039628E+02  0.89963936702E+02 0.  0.
         11    1    3    3    0    0 -0.71658497260E+00 -0.38509530206E+02  0.38963443638E+02  0.54787291876E+02  0.51100000000E-03 0. -1.
         22    1    1    0    0    0 -0.95125199805E+01  0.11719472429E+01 -0.28560672114E+02  0.30125960372E+02  0.00000000000E+00 0. -1.
</event>
<event>
 5    1  0.1692178E-003  0.9118800E+02  0.7818608E-02  0.1130116E+00
         25   -1    0    0    0    0  0.00000000000E+00  0.00000000000E+00  0.99999998245E-14  0.12500000000E+03  0.12500000000E+03 0.  0.
        -11    1    3    3    0    0 -0.43516369844E+01 -0.15394577621E+02  0.35677405242E+02  0.39099961760E+02  0.51100000000E-03 0. -1.
         23    2    1    0    0    0  0.28282287583E+02  0.72044696161E+01 -0.43726672465E+01  0.95488775148E+02  0.90814061615E+02 0.  0.
         11    1    3    3    0    0  0.32633924568E+02  0.22599047237E+02 -0.40050072489E+02  0.56388813388E+02  0.51100000000E-03 0.  1.
         22    1    1    0    0    0 -0.28282287583E+02 -0.72044696161E+01  0.43726672465E+01  0.29511224852E+02  0.00000000000E+00 0.  1.
</event>
<event>
 5    1  0.1692178E-003  0.9118800E+02  0.7818608E-02  0.1130116E+00
         25   -1    0    0    0    0  0.00000000000E+00  0.00000000000E+00  0.99999998245E-14  0.12500000000E+03  0.12500000000E+03 0.  0.
        -11    1    3    3    0    0 -0.89055347683E+01 -0.38356839288E+02  0.50247250032E+01  0.39696391918E+02  0.51100000000E-03 0.  1.
         23    2    1    0    0    0  0.29067987876E+02 -0.40363658761E+01 -0.11496696078E+02  0.93481526221E+02  0.88007849396E+02 0.  0.
         11    1    3    3    0    0  0.37973522644E+02  0.34320473412E+02 -0.16521421081E+02  0.53785134303E+02  0.51100000000E-03 0. -1.
         22    1    1    0    0    0 -0.29067987876E+02  0.40363658761E+01  0.11496696078E+02  0.31518473779E+02  0.00000000000E+00 0. -1.
</event>
<event>
 5    1  0.1692178E-003  0.9118800E+02  0.7818608E-02  0.1130116E+00
         25   -1    0    0    0    0  0.00000000000E+00  0.00000000000E+00  0.99999998245E-14  0.12500000000E+03  0.12500000000E+03 0.  0.
        -11    1    3    3    0    0 -0.29303891860E+02 -0.17834480967E+02 -0.11719144294E+02  0.36250863890E+02  0.51100000000E-03 0.  1.
         23    2    1    0    0    0  0.57094394401E+01  0.12919643643E+02  0.25471772480E+02  0.95873962098E+02  0.91342709203E+02 0.  0.
         11    1    3    3    0    0  0.35013331300E+02  0.30754124610E+02  0.37190916774E+02  0.59623098209E+02  0.51100000000E-03 0. -1.
         22    1    1    0    0    0 -0.57094394401E+01 -0.12919643643E+02 -0.25471772480E+02  0.29126037902E+02  0.00000000000E+00 0. -1.
</event>
<event>
 5    1  0.1692178E-003  0.9118800E+02  0.7818608E-02  0.1130116E+00
         25   -1    0    0    0    0  0.00000000000E+00  0.00000000000E+00  0.99999998245E-14  0.12500000000E+03  0.12500000000E+03 0.  0.
        -11    1    3    3    0    0  0.28690211035E+01 -0.46239742486E+02 -0.18976484562E+02  0.50064478763E+02  0.51100000000E-03 0.  1.
         23    2    1    0    0    0  0.22940255121E+02 -0.16300488307E+02  0.87387925523E+01  0.95532599040E+02  0.90874362501E+02 0.  0.
         11    1    3    3    0    0  0.20071234017E+02  0.29939254178E+02  0.27715277114E+02  0.45468120277E+02  0.51100000000E-03 0. -1.
         22    1    1    0    0    0 -0.22940255121E+02  0.16300488307E+02 -0.87387925523E+01  0.29467400960E+02  0.00000000000E+00 0. -1.
</event>
<event>
 5    1  0.1692178E-003  0.9118800E+02  0.7818608E-02  0.1130116E+00
         25   -1    0    0    0    0  0.00000000000E+00  0.00000000000E+00  0.99999998245E-14  0.12500000000E+03  0.12500000000E+03 0.  0.
        -11    1    3    3    0    0  0.19687347620E+02  0.59254305512E+01 -0.28784237485E+02  0.35372796205E+02  0.51100000000E-03 0.  1.
         23    2    1    0    0    0  0.59269199502E+01 -0.14378767649E+02  0.25607807638E+02  0.95039406694E+02  0.90193412584E+02 0.  0.
         11    1    3    3    0    0 -0.13760427670E+02 -0.20304198201E+02  0.54392045123E+02  0.59666610489E+02  0.51100000000E-03 0. -1.
         22    1    1    0    0    0 -0.59269199502E+01  0.14378767649E+02 -0.25607807638E+02  0.29960593306E+02  0.00000000000E+00 0. -1.
</event>
<event>
 5    1  0.1692178E-003  0.9118800E+02  0.7818608E-02  0.1130116E+00
         25   -1    0    0    0    0  0.00000000000E+00  0.00000000000E+00  0.99999998245E-14  0.12500000000E+03  0.12500000000E+03 0.  0.
        -11    1    3    3    0    0  0.20357796296E+02 -0.11450808057E+02 -0.28444135862E+02  0.36805295005E+02  0.51100000000E-03 0.  1.
         23    2    1    0    0    0  0.17373736027E+02  0.94172257049E+01  0.24342657240E+02  0.93645641371E+02  0.88240638839E+02 0.  0.
         11    1    3    3    0    0 -0.29840602693E+01  0.20868033762E+02  0.52786793102E+02  0.56840346366E+02  0.51100000000E-03 0. -1.
         22    1    1    0    0    0 -0.17373736027E+02 -0.94172257049E+01 -0.24342657240E+02  0.31354358629E+02  0.00000000000E+00 0. -1.
</event>
<event>
 5    1  0.1692178E-003  0.9118800E+02  0.7818608E-02  0.1130116E+00
         25   -1    0    0    0    0  0.00000000000E+00  0.00000000000E+00  0.99999998245E-14  0.12500000000E+03  0.12500000000E+03 0.  0.
        -11    1    3    3    0    0 -0.26187027072E+02 -0.26330836979E+02 -0.60617989720E+01  0.37627367300E+02  0.51100000000E-03 0. -1.
         23    2    1    0    0    0 -0.35776314569E+01  0.25548848117E+02  0.11318193342E+02  0.96828301658E+02  0.92639491657E+02 0.  0.
         11    1    3    3    0    0  0.22609395615E+02  0.51879685096E+02  0.17379992314E+02  0.59200934358E+02  0.51100000000E-03 0.  1.
         22    1    1    0    0    0  0.35776314569E+01 -0.25548848117E+02 -0.11318193342E+02  0.28171698342E+02  0.00000000000E+00 0.  1.
</event>
<event>
 5    1  0.1692178E-003  0.9118800E+02  0.7818608E-02  0.1130116E+00
         25   -1    0    0    0    0  0.00000000000E+00  0.00000000000E+00  0.99999998245E-14  0.12500000000E+03  0.12500000000E+03 0.  0.
        -11    1    3    3    0    0  0.33718516253E+02 -0.44918550372E+02 -0.57502000279E+01  0.56459536896E+02  0.51100000000E-03 0.  1.
         23    2    1    0    0    0  0.22249241468E+02 -0.12305648633E+02  0.13691742996E+02  0.96122299945E+02  0.91681922898E+02 0.  0.
         11    1    3    3    0    0 -0.11469274785E+02  0.32612901739E+02  0.19441943024E+02  0.39662763049E+02  0.51100000000E-03 0. -1.
         22    1    1    0    0    0 -0.22249241468E+02  0.12305648633E+02 -0.13691742996E+02  0.28877700055E+02  0.00000000000E+00 0.  1.
</event>
<event>
 5    1  0.1692178E-003  0.9118800E+02  0.7818608E-02  0.1130116E+00
         25   -1    0    0    0    0  0.00000000000E+00  0.00000000000E+00  0.99999998245E-14  0.12500000000E+03  0.12500000000E+03 0.  0.
        -11    1    3    3    0    0 -0.47864665483E+01  0.11780313237E+02  0.60685906527E+02  0.62003752252E+02  0.51100000000E-03 0.  1.
         23    2    1    0    0    0  0.27841186756E+01  0.31488986331E+01  0.28825368278E+02  0.95869796846E+02  0.91337008992E+02 0.  0.
         11    1    3    3    0    0  0.75705852239E+01 -0.86314146037E+01 -0.31860538249E+02  0.33866044595E+02  0.51100000000E-03 0. -1.
         22    1    1    0    0    0 -0.27841186756E+01 -0.31488986331E+01 -0.28825368278E+02  0.29130203154E+02  0.00000000000E+00 0.  1.
</event>
<event>
 5    1  0.1692178E-003  0.9118800E+02  0.7818608E-02  0.1130116E+00
         25   -1    0    0    0    0  0.00000000000E+00  0.00000000000E+00  0.99999998245E-14  0.12500000000E+03  0.12500000000E+03 0.  0.
        -11    1    3    3    0    0 -0.19704477277E+02  0.35344700827E+02 -0.30961561617E+02  0.50952258039E+02  0.51100000000E-03 0.  1.
         23    2    1    0    0    0  0.96468618623E+01  0.30653175485E+01 -0.28618927167E+02  0.94643763283E+02  0.89643409243E+02 0.  0.
         11    1    3    3    0    0  0.29351339139E+02 -0.32279383278E+02  0.23426344501E+01  0.43691505244E+02  0.51100000000E-03 0. -1.
         22    1    1    0    0    0 -0.96468618623E+01 -0.30653175485E+01  0.28618927167E+02  0.30356236717E+02  0.00000000000E+00 0.  1.
</event>
<event>
 5    1  0.1692178E-003  0.9118800E+02  0.7818608E-02  0.1130116E+00
         25   -1    0    0    0    0  0.00000000000E+00  0.00000000000E+00  0.99999998245E-14  0.12500000000E+03  0.12500000000E+03 0.  0.
        -11    1    3    3    0    0  0.59285543027E+02  0.89930416572E+01  0.59570824485E+01  0.60258918359E+02  0.51100000000E-03 0. -1.
         23    2    1    0    0    0  0.30107245339E+02  0.20727898236E+01 -0.86377486405E+01  0.93609661022E+02  0.88189655037E+02 0.  0.
         11    1    3    3    0    0 -0.29178297687E+02 -0.69202518336E+01 -0.14594831089E+02  0.33350742663E+02  0.51100000000E-03 0.  1.
         22    1    1    0    0    0 -0.30107245339E+02 -0.20727898236E+01  0.86377486405E+01  0.31390338978E+02  0.00000000000E+00 0. -1.
</event>
<event>
 5    1  0.1692178E-003  0.9118800E+02  0.7818608E-02  0.1130116E+00
         25   -1    0    0    0    0  0.00000000000E+00  0.00000000000E+00  0.99999998245E-14  0.12500000000E+03  0.12500000000E+03 0.  0.
        -11    1    3    3    0    0 -0.67476830260E+01 -0.36836567255E+02 -0.32419091334E+02  0.49532427727E+02  0.51100000000E-03 0. -1.
         23    2    1    0    0    0  0.23465527323E+02 -0.15149763033E+02 -0.30859899281E+01  0.96898939053E+02  0.92734754883E+02 0.  0.
         11    1    3    3    0    0  0.30213210349E+02  0.21686804221E+02  0.29333101406E+02  0.47366511326E+02  0.51100000000E-03 0.  1.
         22    1    1    0    0    0 -0.23465527323E+02  0.15149763033E+02  0.30859899281E+01  0.28101060947E+02  0.00000000000E+00 0. -1.
</event>
<event>
 5    1  0.1692178E-003  0.9118800E+02  0.7818608E-02  0.1130116E+00
         25   -1    0    0    0    0  0.00000000000E+00  0.00000000000E+00  0.99999998245E-14  0.12500000000E+03  0.12500000000E+03 0.  0.
        -11    1    3    3    0    0  0.37690025829E+02  0.16180908158E+01  0.30097888063E+02  0.48260119467E+02  0.51100000000E-03 0. -1.
         23    2    1    0    0    0  0.64393736790E+01  0.24524995927E+02 -0.33199352515E+01  0.99427301107E+02  0.96082387963E+02 0.  0.
         11    1    3    3    0    0 -0.31250652150E+02  0.22906905111E+02 -0.33417823315E+02  0.51167181640E+02  0.51100000000E-03 0.  1.
         22    1    1    0    0    0 -0.64393736790E+01 -0.24524995927E+02  0.33199352515E+01  0.25572698893E+02  0.00000000000E+00 0.  1.
</event>
<event>
 5    1  0.1692178E-003  0.9118800E+02  0.7818608E-02  0.1130116E+00
         25   -1    0    0    0    0  0.00000000000E+00  0.00000000000E+00  0.99999998245E-14  0.12500000000E+03  0.12500000000E+03 0.  0.
        -11    1    3    3    0    0 -0.33546282168E+02  0.33908286450E+01  0.50505767832E+01  0.34093387809E+02  0.51100000000E-03 0. -1.
         23    2    1    0    0    0  0.17518440756E+02  0.20812195187E+02  0.21308469813E+02  0.90444333015E+02  0.83582792809E+02 0.  0.
         11    1    3    3    0    0  0.51064722925E+02  0.17421366542E+02  0.16257893029E+02  0.56350945206E+02  0.51100000000E-03 0.  1.
         22    1    1    0    0    0 -0.17518440756E+02 -0.20812195187E+02 -0.21308469813E+02  0.34555666985E+02  0.00000000000E+00 0.  1.
</event>
<event>
 5    1  0.1692178E-003  0.9118800E+02  0.7818608E-02  0.1130116E+00
         25   -1    0    0    0    0  0.00000000000E+00  0.00000000000E+00  0.99999998245E-14  0.12500000000E+03  0.12500000000E+03 0.  0.
        -11    1    3    3    0    0 -0.18813508758E+02  0.23047090822E+01 -0.34204627187E+02  0.39105195524E+02  0.51100000000E-03 0. -1.
         23    2    1    0    0    0  0.12891046880E+01  0.23502777362E+02  0.15540540173E+02  0.96794491256E+02  0.92593859483E+02 0.  0.
         11    1    3    3    0    0  0.20102613446E+02  0.21198068280E+02  0.49745167360E+02  0.57689295732E+02  0.51100000000E-03 0.  1.
         22    1    1    0    0    0 -0.12891046880E+01 -0.23502777362E+02 -0.15540540173E+02  0.28205508744E+02  0.00000000000E+00 0.  1.
</event>
<event>
 5    1  0.1692178E-003  0.9118800E+02  0.7818608E-02  0.1130116E+00
         25   -1    0    0    0    0  0.00000000000E+00  0.00000000000E+00  0.99999998245E-14  0.12500000000E+03  0.12500000000E+03 0.  0.
        -11    1    3    3    0    0 -0.11735939580E+02  0.27771228418E+02 -0.65984559690E+00  0.30156405657E+02  0.51100000000E-03 0.  1.
         23    2    1    0    0    0  0.23761723019E+02 -0.20407300486E+02 -0.12703309240E+02  0.91199830480E+02  0.84705121569E+02 0.  0.
         11    1    3    3    0    0  0.35497662598E+02 -0.48178528904E+02 -0.12043463643E+02  0.61043424823E+02  0.51100000000E-03 0. -1.
         22    1    1    0    0    0 -0.23761723019E+02  0.20407300486E+02  0.12703309240E+02  0.33800169520E+02  0.00000000000E+00 0. -1.
</event>
<event>
 5    1  0.1692178E-003  0.9118800E+02  0.7818608E-02  0.1130116E+00
         25   -1    0    0    0    0  0.00000000000E+00  0.00000000000E+00  0.99999998245E-14  0.12500000000E+03  0.12500000000E+03 0.  0.
        -11    1    3    3    0    0 -0.38008469592E+02 -0.16519298377E+02 -0.16003179234E+01  0.41473991818E+02  0.51100000000E-03 0.  1.
         23    2    1    0    0    0  0.58908960154E+01 -0.56648685923E+01  0.28205381277E+02  0.95634426193E+02  0.91014320567E+02 0.  0.
         11    1    3    3    0    0  0.43899365607E+02  0.10854429785E+02  0.29805699200E+02  0.54160434375E+02  0.51100000000E-03 0. -1.
         22    1    1    0    0    0 -0.58908960154E+01  0.56648685923E+01 -0.28205381277E+02  0.29365573807E+02  0.00000000000E+00 0. -1.
</event>
<event>
 5    1  0.1692178E-003  0.9118800E+02  0.7818608E-02  0.1130116E+00
         25   -1    0    0    0    0  0.00000000000E+00  0.00000000000E+00  0.99999998245E-14  0.12500000000E+03  0.12500000000E+03 0.  0.
        -11    1    3    3    0    0  0.17048278353E+00  0.40176758161E+02  0.63142838772E+01  0.40670273442E+02  0.51100000000E-03 0. -1.
         23    2    1    0    0    0 -0.63659338247E+01 -0.11046177665E+02  0.26086638219E+02  0.95964575980E+02  0.91466627766E+02 0.  0.
         11    1    3    3    0    0 -0.65364166082E+01 -0.51222935826E+02  0.19772354342E+02  0.55294302538E+02  0.51100000000E-03 0.  1.
         22    1    1    0    0    0  0.63659338247E+01  0.11046177665E+02 -0.26086638219E+02  0.29035424020E+02  0.00000000000E+00 0.  1.
</event>
<event>
 5    1  0.1692178E-003  0.9118800E+02  0.7818608E-02  0.1130116E+00
         25   -1    0    0    0    0  0.00000000000E+00  0.00000000000E+00  0.99999998245E-14  0.12500000000E+03  0.12500000000E+03 0.  0.
        -11    1    3    3    0    0  0.33856938264E+02  0.60978696974E+01 -0.20850674359E+02  0.40227191115E+02  0.51100000000E-03 0. -1.
         23    2    1    0    0    0 -0.11947067486E+02 -0.24270822527E+02 -0.93766115349E+01  0.96369140922E+02  0.92017852782E+02 0.  0.
         11    1    3    3    0    0 -0.45804005751E+02 -0.30368692224E+02  0.11474062824E+02  0.56141949807E+02  0.51100000000E-03 0.  1.
         22    1    1    0    0    0  0.11947067486E+02  0.24270822527E+02  0.93766115349E+01  0.28630859078E+02  0.00000000000E+00 0.  1.
</event>
<event>
 5    1  0.1692178E-003  0.9118800E+02  0.7818608E-02  0.1130116E+00
         25   -1    0    0    0    0  0.00000000000E+00  0.00000000000E+00  0.99999998245E-14  0.12500000000E+03  0.12500000000E+03 0.  0.
        -11    1    3    3    0    0 -0.25440589436E+02 -0.18059616809E+02  0.52101755840E+02  0.60728628439E+02  0.51100000000E-03 0.  1.
         23    2    1    0    0    0 -0.79304413210E+01 -0.17634474173E+02  0.20776508212E+02  0.96618141844E+02  0.92355484196E+02 0.  0.
         11    1    3    3    0    0  0.17510148115E+02  0.42514263640E+00 -0.31325247628E+02  0.35889513405E+02  0.51100000000E-03 0. -1.
         22    1    1    0    0    0  0.79304413210E+01  0.17634474173E+02 -0.20776508212E+02  0.28381858156E+02  0.00000000000E+00 0.  1.
</event>
<event>
 5    1  0.1692178E-003  0.9118800E+02  0.7818608E-02  0.1130116E+00
         25   -1    0    0    0    0  0.00000000000E+00  0.00000000000E+00  0.99999998245E-14  0.12500000000E+03  0.12500000000E+03 0.  0.
        -11    1    3    3    0    0 -0.20827798682E+01  0.20753222704E+02 -0.41481506073E+02  0.46430050301E+02  0.51100000000E-03 0.  1.
         23    2    1    0    0    0  0.69602756718E+01 -0.21894971647E+02 -0.11791307183E+02  0.99176170967E+02  0.95755118619E+02 0.  0.
         11    1    3    3    0    0  0.90430555400E+01 -0.42648194351E+02  0.29690198890E+02  0.52746120666E+02  0.51100000000E-03 0. -1.
         22    1    1    0    0    0 -0.69602756718E+01  0.21894971647E+02  0.11791307183E+02  0.25823829033E+02  0.00000000000E+00 0. -1.
</event>
<event>
 5    1  0.1692178E-003  0.9118800E+02  0.7818608E-02  0.1130116E+00
         25   -1    0    0    0    0  0.00000000000E+00  0.00000000000E+00  0.99999998245E-14  0.12500000000E+03  0.12500000000E+03 0.  0.
        -11    1    3    3    0    0 -0.28089304650E+02 -0.12861977242E+02  0.96745966614E+01  0.32373404441E+02  0.51100000000E-03 0. -1.
         23    2    1    0    0    0  0.15113284213E+02  0.26636215910E+02 -0.76758931119E+01  0.93427564352E+02  0.87931172447E+02 0.  0.
         11    1    3    3    0    0  0.43202588864E+02  0.39498193151E+02 -0.17350489773E+02  0.61054159910E+02  0.51100000000E-03 0.  1.
         22    1    1    0    0    0 -0.15113284213E+02 -0.26636215910E+02  0.76758931119E+01  0.31572435648E+02  0.00000000000E+00 0.  1.
</event>
<event>
 5    1  0.1692178E-003  0.9118800E+02  0.7818608E-02  0.1130116E+00
         25   -1    0    0    0    0  0.00000000000E+00  0.00000000000E+00  0.99999998245E-14  0.12500000000E+03  0.12500000000E+03 0.  0.
        -11    1    3    3    0    0  0.10058823798E+02  0.26001241522E+02  0.21249438941E+02  0.35054003373E+02  0.51100000000E-03 0.  1.
         23    2    1    0    0    0  0.91672171833E+00 -0.90687308821E+01 -0.27630959966E+02  0.95904429767E+02  0.91384393864E+02 0.  0.
         11    1    3    3    0    0 -0.91421020798E+01 -0.35069972404E+02 -0.48880398907E+02  0.60850426395E+02  0.51100000000E-03 0. -1.
         22    1    1    0    0    0 -0.91672171833E+00  0.90687308821E+01  0.27630959966E+02  0.29095570233E+02  0.00000000000E+00 0. -1.
</event>
<event>
 5    1  0.1692178E-003  0.9118800E+02  0.7818608E-02  0.1130116E+00
         25   -1    0    0    0    0  0.00000000000E+00  0.00000000000E+00  0.99999998245E-14  0.12500000000E+03  0.12500000000E+03 0.  0.
        -11    1    3    3    0    0 -0.12436734443E+02  0.36530645021E+02 -0.76933244942E+00  0.38597308999E+02  0.51100000000E-03 0. -1.
         23    2    1    0    0    0  0.53040110367E+01 -0.12478547416E+02 -0.25371051681E+02  0.96233058173E+02  0.91832807554E+02 0.  0.
         11    1    3    3    0    0  0.17740745480E+02 -0.49009192437E+02 -0.24601719231E+02  0.57635749174E+02  0.51100000000E-03 0.  1.
         22    1    1    0    0    0 -0.53040110367E+01  0.12478547416E+02  0.25371051681E+02  0.28766941827E+02  0.00000000000E+00 0.  1.
</event>
<event>
 5    1  0.1692178E-003  0.9118800E+02  0.7818608E-02  0.1130116E+00
         25   -1    0    0    0    0  0.00000000000E+00  0.00000000000E+00  0.99999998245E-14  0.12500000000E+03  0.12500000000E+03 0.  0.
        -11    1    3    3    0    0  0.21057312603E+02  0.31573983980E+02 -0.21075842838E+02  0.43411035809E+02  0.51100000000E-03 0.  1.
         23    2    1    0    0    0  0.17119309688E+02  0.42126107345E+01  0.23354095344E+02  0.95738581327E+02  0.91157256057E+02 0.  0.
         11    1    3    3    0    0 -0.39380029148E+01 -0.27361373245E+02  0.44429938182E+02  0.52327545518E+02  0.51100000000E-03 0. -1.
         22    1    1    0    0    0 -0.17119309688E+02 -0.42126107345E+01 -0.23354095344E+02  0.29261418673E+02  0.00000000000E+00 0. -1.
</event>
<event>
 5    1  0.1692178E-003  0.9118800E+02  0.7818608E-02  0.1130116E+00
         25   -1    0    0    0    0  0.00000000000E+00  0.00000000000E+00  0.99999998245E-14  0.12500000000E+03  0.12500000000E+03 0.  0.
        -11    1    3    3    0    0  0.36828003710E+02  0.21671498618E+02  0.28356135310E+02  0.51283780278E+02  0.51100000000E-03 0.  1.
         23    2    1    0    0    0  0.62520760577E+01 -0.39461533972E+01  0.32760663620E+02  0.91415455006E+02  0.85022724912E+02 0.  0.
         11    1    3    3    0    0 -0.30575927652E+02 -0.25617652015E+02  0.44045283094E+01  0.40131674728E+02  0.51100000000E-03 0. -1.
         22    1    1    0    0    0 -0.62520760577E+01  0.39461533972E+01 -0.32760663620E+02  0.33584544994E+02  0.00000000000E+00 0.  1.
</event>
<event>
 5    1  0.1692178E-003  0.9118800E+02  0.7818608E-02  0.1130116E+00
         25   -1    0    0    0    0  0.00000000000E+00  0.00000000000E+00  0.99999998245E-14  0.12500000000E+03  0.12500000000E+03 0.  0.
        -11    1    3    3    0    0 -0.96564088837E+01  0.11528680965E+02 -0.34349833137E+02  0.37497569976E+02  0.51100000000E-03 0.  1.
         23    2    1    0    0    0  0.26361707063E+02 -0.51687476641E+01  0.93664631401E+01  0.96550286760E+02  0.92263598944E+02 0.  0.
         11    1    3    3    0    0  0.36018115946E+02 -0.16697428629E+02  0.43716296277E+02  0.59052716784E+02  0.51100000000E-03 0. -1.
         22    1    1    0    0    0 -0.26361707063E+02  0.51687476641E+01 -0.93664631401E+01  0.28449713240E+02  0.00000000000E+00 0. -1.
</event>
<event>
 5    1  0.1692178E-003  0.9118800E+02  0.7818608E-02  0.1130116E+00
         25   -1    0    0    0    0  0.00000000000E+00  0.00000000000E+00  0.99999998245E-14  0.12500000000E+03  0.12500000000E+03 0.  0.
        -11    1    3    3    0    0 -0.15758393301E+02 -0.76298311338E+01 -0.33154700569E+02  0.37493672168E+02  0.51100000000E-03 0.  1.
         23    2    1    0    0    0 -0.11734979173E+01  0.28448848779E+02  0.92630990292E+01  0.95058071240E+02  0.90219276267E+02 0.  0.
         11    1    3    3    0    0  0.14584895384E+02  0.36078679913E+02  0.42417799598E+02  0.57564399073E+02  0.51100000000E-03 0. -1.
         22    1    1    0    0    0  0.11734979173E+01 -0.28448848779E+02 -0.92630990292E+01  0.29941928760E+02  0.00000000000E+00 0. -1.
</event>
<event>
 5    1  0.1692178E-003  0.9118800E+02  0.7818608E-02  0.1130116E+00
         25   -1    0    0    0    0  0.00000000000E+00  0.00000000000E+00  0.99999998245E-14  0.12500000000E+03  0.12500000000E+03 0.  0.
        -11    1    3    3    0    0 -0.18446573616E+02 -0.35849317789E+02 -0.29433666438E+02  0.49917836335E+02  0.51100000000E-03 0.  1.
         23    2    1    0    0    0 -0.13468561173E+02 -0.26006437820E+02  0.12410877918E+02  0.93191717448E+02  0.87595258788E+02 0.  0.
         11    1    3    3    0    0  0.49780124429E+01  0.98428799690E+01  0.41844544356E+02  0.43273881113E+02  0.51100000000E-03 0. -1.
         22    1    1    0    0    0  0.13468561173E+02  0.26006437820E+02 -0.12410877918E+02  0.31808282552E+02  0.00000000000E+00 0.  1.
</event>
<event>
 5    1  0.1692178E-003  0.9118800E+02  0.7818608E-02  0.1130116E+00
         25   -1    0    0    0    0  0.00000000000E+00  0.00000000000E+00  0.99999998245E-14  0.12500000000E+03  0.12500000000E+03 0.  0.
        -11    1    3    3    0    0 -0.18431689817E+02  0.21536094117E+02  0.26725386539E+02  0.38958655332E+02  0.51100000000E-03 0. -1.
         23    2    1    0    0    0  0.17361675629E+02 -0.20040543097E+02  0.12784652230E+02  0.95563653744E+02  0.90917069003E+02 0.  0.
         11    1    3    3    0    0  0.35793365445E+02 -0.41576637214E+02 -0.13940734309E+02  0.56604998412E+02  0.51100000000E-03 0.  1.
         22    1    1    0    0    0 -0.17361675629E+02  0.20040543097E+02 -0.12784652230E+02  0.29436346256E+02  0.00000000000E+00 0.  1.
</event>
<event>
 5    1  0.1692178E-003  0.9118800E+02  0.7818608E-02  0.1130116E+00
         25   -1    0    0    0    0  0.00000000000E+00  0.00000000000E+00  0.99999998245E-14  0.12500000000E+03  0.12500000000E+03 0.  0.
        -11    1    3    3    0    0  0.16936137260E+02  0.35504364812E+02 -0.91791039963E+00  0.39347620331E+02  0.51100000000E-03 0. -1.
         23    2    1    0    0    0 -0.27106266432E+02  0.11430160281E+01 -0.10279545788E+02  0.95987498779E+02  0.91497949128E+02 0.  0.
         11    1    3    3    0    0 -0.44042403691E+02 -0.34361348784E+02 -0.93616353887E+01  0.56639878447E+02  0.51100000000E-03 0.  1.
         22    1    1    0    0    0  0.27106266432E+02 -0.11430160281E+01  0.10279545788E+02  0.29012501221E+02  0.00000000000E+00 0.  1.
</event>
<event>
 5    1  0.1692178E-003  0.9118800E+02  0.7818608E-02  0.1130116E+00
         25   -1    0    0    0    0  0.00000000000E+00  0.00000000000E+00  0.99999998245E-14  0.12500000000E+03  0.12500000000E+03 0.  0.
        -11    1    3    3    0    0 -0.55941274179E+01 -0.61636655509E+02 -0.19699509906E+01  0.61921339384E+02  0.51100000000E-03 0.  1.
         23    2    1    0    0    0  0.17804732952E+01 -0.32463127387E+02  0.27144617872E+01  0.92374963177E+02  0.86421876827E+02 0.  0.
         11    1    3    3    0    0  0.73746007131E+01  0.29173528122E+02  0.46844127778E+01  0.30453623793E+02  0.51100000000E-03 0. -1.
         22    1    1    0    0    0 -0.17804732952E+01  0.32463127387E+02 -0.27144617872E+01  0.32625036823E+02  0.00000000000E+00 0.  1.
</event>
<event>
 5    1  0.1692178E-003  0.9118800E+02  0.7818608E-02  0.1130116E+00
         25   -1    0    0    0    0  0.00000000000E+00  0.00000000000E+00  0.99999998245E-14  0.12500000000E+03  0.12500000000E+03 0.  0.
        -11    1    3    3    0    0 -0.26500555981E+01 -0.44523646007E+02 -0.41118964879E+01  0.44791578912E+02  0.51100000000E-03 0. -1.
         23    2    1    0    0    0  0.11811310399E+02 -0.22912454904E+01 -0.27352112168E+02  0.95118652987E+02  0.90303174069E+02 0.  0.
         11    1    3    3    0    0  0.14461365997E+02  0.42232400517E+02 -0.23240215680E+02  0.50327074076E+02  0.51100000000E-03 0.  1.
         22    1    1    0    0    0 -0.11811310399E+02  0.22912454904E+01  0.27352112168E+02  0.29881347013E+02  0.00000000000E+00 0.  1.
</event>
<event>
 5    1  0.1692178E-003  0.9118800E+02  0.7818608E-02  0.1130116E+00
         25   -1    0    0    0    0  0.00000000000E+00  0.00000000000E+00  0.99999998245E-14  0.12500000000E+03  0.12500000000E+03 0.  0.
        -11    1    3    3    0    0 -0.12710918676E+02 -0.15136020336E+02  0.28968399870E+02  0.35068999935E+02  0.51100000000E-03 0.  1.
         23    2    1    0    0    0  0.49264267908E+00 -0.10069255546E+02 -0.28770342244E+02  0.94514508420E+02  0.89462992936E+02 0.  0.
         11    1    3    3    0    0  0.13203561355E+02  0.50667647902E+01 -0.57738742113E+02  0.59445508485E+02  0.51100000000E-03 0. -1.
         22    1    1    0    0    0 -0.49264267908E+00  0.10069255546E+02  0.28770342244E+02  0.30485491580E+02  0.00000000000E+00 0. -1.
</event>
<event>
 5    1  0.1692178E-003  0.9118800E+02  0.7818608E-02  0.1130116E+00
         25   -1    0    0    0    0  0.00000000000E+00  0.00000000000E+00  0.99999998245E-14  0.12500000000E+03  0.12500000000E+03 0.  0.
        -11    1    3    3    0    0 -0.52994115980E+02 -0.24158743816E+01 -0.29375829414E+02  0.60639526149E+02  0.51100000000E-03 0. -1.
         23    2    1    0    0    0 -0.20535824853E+02 -0.11291350970E+02 -0.95660453253E+01  0.99687474794E+02  0.96420271202E+02 0.  0.
         11    1    3    3    0    0  0.32458291127E+02 -0.88754765884E+01  0.19809784089E+02  0.39047948646E+02  0.51100000000E-03 0.  1.
         22    1    1    0    0    0  0.20535824853E+02  0.11291350970E+02  0.95660453253E+01  0.25312525206E+02  0.00000000000E+00 0. -1.
</event>
<event>
 5    1  0.1692178E-003  0.9118800E+02  0.7818608E-02  0.1130116E+00
         25   -1    0    0    0    0  0.00000000000E+00  0.00000000000E+00  0.99999998245E-14  0.12500000000E+03  0.12500000000E+03 0.  0.
        -11    1    3    3    0    0 -0.21276299723E+02  0.31836440456E+02  0.27230863680E+02  0.46986804614E+02  0.51100000000E-03 0. -1.
         23    2    1    0    0    0  0.20418254349E+02  0.67766765221E+01  0.18946217424E+02  0.96333161841E+02  0.91968964658E+02 0.  0.
         11    1    3    3    0    0  0.41694554073E+02 -0.25059763933E+02 -0.82846462563E+01  0.49346357227E+02  0.51100000000E-03 0.  1.
         22    1    1    0    0    0 -0.20418254349E+02 -0.67766765221E+01 -0.18946217424E+02  0.28666838159E+02  0.00000000000E+00 0.  1.
</event>
<event>
 5    1  0.1692178E-003  0.9118800E+02  0.7818608E-02  0.1130116E+00
         25   -1    0    0    0    0  0.00000000000E+00  0.00000000000E+00  0.99999998245E-14  0.12500000000E+03  0.12500000000E+03 0.  0.
        -11    1    3    3    0    0  0.59137456650E+02 -0.16444042855E+02 -0.31179704799E+01  0.61460288518E+02  0.51100000000E-03 0.  1.
         23    2    1    0    0    0  0.25139306224E+02 -0.14901129342E+02 -0.39931648445E+01  0.95504682769E+02  0.90835954843E+02 0.  0.
         11    1    3    3    0    0 -0.33998150426E+02  0.15429135134E+01 -0.87519436463E+00  0.34044394251E+02  0.51100000000E-03 0. -1.
         22    1    1    0    0    0 -0.25139306224E+02  0.14901129342E+02  0.39931648445E+01  0.29495317231E+02  0.00000000000E+00 0.  1.
</event>
<event>
 5    1  0.1692178E-003  0.9118800E+02  0.7818608E-02  0.1130116E+00
         25   -1    0    0    0    0  0.00000000000E+00  0.00000000000E+00  0.99999998245E-14  0.12500000000E+03  0.12500000000E+03 0.  0.
        -11    1    3    3    0    0 -0.61165177901E+02 -0.89367339281E+01  0.74784491264E+01  0.62265330663E+02  0.51100000000E-03 0. -1.
         23    2    1    0    0    0 -0.28361904246E+02 -0.15697247598E+01  0.56533695609E+00  0.96589064533E+02  0.92316120657E+02 0.  0.
         11    1    3    3    0    0  0.32803273656E+02  0.73670091683E+01 -0.69131121703E+01  0.34323733870E+02  0.51100000000E-03 0.  1.
         22    1    1    0    0    0  0.28361904246E+02  0.15697247598E+01 -0.56533695609E+00  0.28410935467E+02  0.00000000000E+00 0. -1.
</event>
<event>
 5    1  0.1692178E-003  0.9118800E+02  0.7818608E-02  0.1130116E+00
         25   -1    0    0    0    0  0.00000000000E+00  0.00000000000E+00  0.99999998245E-14  0.12500000000E+03  0.12500000000E+03 0.  0.
        -11    1    3    3    0    0  0.88518704899E+01  0.56039025383E+02  0.29613876057E+01  0.56811071050E+02  0.51100000000E-03 0. -1.
         23    2    1    0    0    0 -0.12753461971E+02  0.27062018666E+02 -0.69426741667E+01  0.94288367495E+02  0.89146463047E+02 0.  0.
         11    1    3    3    0    0 -0.21605332461E+02 -0.28977006717E+02 -0.99040617724E+01  0.37477296445E+02  0.51100000000E-03 0.  1.
         22    1    1    0    0    0  0.12753461971E+02 -0.27062018666E+02  0.69426741667E+01  0.30711632505E+02  0.00000000000E+00 0. -1.
</event>
<event>
 5    1  0.1692178E-003  0.9118800E+02  0.7818608E-02  0.1130116E+00
         25   -1    0    0    0    0  0.00000000000E+00  0.00000000000E+00  0.99999998245E-14  0.12500000000E+03  0.12500000000E+03 0.  0.
        -11    1    3    3    0    0  0.61107891760E+01  0.34864600225E+02  0.27223965227E+01  0.35500613181E+02  0.51100000000E-03 0. -1.
         23    2    1    0    0    0  0.11556997647E+02 -0.22298360178E+02  0.17001586544E+02  0.94671218187E+02  0.89681684566E+02 0.  0.
         11    1    3    3    0    0  0.54462084709E+01 -0.57162960403E+02  0.14279190022E+02  0.59170605005E+02  0.51100000000E-03 0.  1.
         22    1    1    0    0    0 -0.11556997647E+02  0.22298360178E+02 -0.17001586544E+02  0.30328781813E+02  0.00000000000E+00 0.  1.
</event>
<event>
 5    1  0.1692178E-003  0.9118800E+02  0.7818608E-02  0.1130116E+00
         25   -1    0    0    0    0  0.00000000000E+00  0.00000000000E+00  0.99999998245E-14  0.12500000000E+03  0.12500000000E+03 0.  0.
        -11    1    3    3    0    0  0.31622015709E+02  0.42533026995E+02  0.53423897006E+01  0.53268671758E+02  0.51100000000E-03 0. -1.
         23    2    1    0    0    0  0.13238462276E+02  0.66743677753E+01  0.23298251864E+02  0.97384558513E+02  0.93387042078E+02 0.  0.
         11    1    3    3    0    0 -0.18383553434E+02 -0.35858659220E+02  0.17955862164E+02  0.44115886755E+02  0.51100000000E-03 0.  1.
         22    1    1    0    0    0 -0.13238462276E+02 -0.66743677753E+01 -0.23298251864E+02  0.27615441487E+02  0.00000000000E+00 0. -1.
</event>
<event>
 5    1  0.1692178E-003  0.9118800E+02  0.7818608E-02  0.1130116E+00
         25   -1    0    0    0    0  0.00000000000E+00  0.00000000000E+00  0.99999998245E-14  0.12500000000E+03  0.12500000000E+03 0.  0.
        -11    1    3    3    0    0  0.35373846674E+02 -0.14345310412E+02  0.66296512804E+01  0.38743376668E+02  0.51100000000E-03 0.  1.
         23    2    1    0    0    0 -0.22712352807E+02 -0.15083096822E+02  0.70616956581E+01  0.96835868106E+02  0.92649700629E+02 0.  0.
         11    1    3    3    0    0 -0.58086199480E+02 -0.73778640984E+00  0.43204437766E+00  0.58092491438E+02  0.51100000000E-03 0. -1.
         22    1    1    0    0    0  0.22712352807E+02  0.15083096822E+02 -0.70616956581E+01  0.28164131894E+02  0.00000000000E+00 0. -1.
</event>
<event>
 5    1  0.1692178E-003  0.9118800E+02  0.7818608E-02  0.1130116E+00
         25   -1    0    0    0    0  0.00000000000E+00  0.00000000000E+00  0.99999998245E-14  0.12500000000E+03  0.12500000000E+03 0.  0.
        -11    1    3    3    0    0  0.34055596275E+02  0.17546826135E+02 -0.43921426791E+02  0.58281785119E+02  0.51100000000E-03 0.  1.
         23    2    1    0    0    0  0.28506216425E+01  0.17032230612E+02 -0.24447636450E+02  0.95068246771E+02  0.90233373498E+02 0.  0.
         11    1    3    3    0    0 -0.31204974632E+02 -0.51459552354E+00  0.19473790341E+02  0.36786461652E+02  0.51100000000E-03 0. -1.
         22    1    1    0    0    0 -0.28506216425E+01 -0.17032230612E+02  0.24447636450E+02  0.29931753229E+02  0.00000000000E+00 0.  1.
</event>
<event>
 5    1  0.1692178E-003  0.9118800E+02  0.7818608E-02  0.1130116E+00
         25   -1    0    0    0    0  0.00000000000E+00  0.00000000000E+00  0.99999998245E-14  0.12500000000E+03  0.12500000000E+03 0.  0.
        -11    1    3    3    0    0  0.11283136508E+02 -0.42114208097E+02 -0.30729436634E+02  0.53340547140E+02  0.51100000000E-03 0.  1.
         23    2    1    0    0    0  0.14708021882E+02 -0.20231374950E+02  0.86602158731E+01  0.98530512301E+02  0.94908524777E+02 0.  0.
         11    1    3    3    0    0  0.34248853735E+01  0.21882833147E+02  0.39389652507E+02  0.45189965161E+02  0.51100000000E-03 0. -1.
         22    1    1    0    0    0 -0.14708021882E+02  0.20231374950E+02 -0.86602158731E+01  0.26469487699E+02  0.00000000000E+00 0. -1.
</event>
<event>
 5    1  0.1692178E-003  0.9118800E+02  0.7818608E-02  0.1130116E+00
         25   -1    0    0    0    0  0.00000000000E+00  0.00000000000E+00  0.99999998245E-14  0.12500000000E+03  0.12500000000E+03 0.  0.
        -11    1    3    3    0    0  0.16983264341E+02  0.91515884961E+01 -0.48057571364E+02  0.51785258571E+02  0.51100000000E-03 0.  1.
         23    2    1    0    0    0  0.13247697664E+02  0.27018193112E+02 -0.11241980305E+02  0.92877323063E+02  0.87145457517E+02 0.  0.
         11    1    3    3    0    0 -0.37355666773E+01  0.17866604616E+02  0.36815591059E+02  0.41092064492E+02  0.51100000000E-03 0. -1.
         22    1    1    0    0    0 -0.13247697664E+02 -0.27018193112E+02  0.11241980305E+02  0.32122676937E+02  0.00000000000E+00 0.  1.
</event>
<event>
 5    1  0.1692178E-003  0.9118800E+02  0.7818608E-02  0.1130116E+00
         25   -1    0    0    0    0  0.00000000000E+00  0.00000000000E+00  0.99999998245E-14  0.12500000000E+03  0.12500000000E+03 0.  0.
        -11    1    3    3    0    0 -0.21227026986E+02  0.47870864729E+02  0.23466218686E+02  0.57383532344E+02  0.51100000000E-03 0.  1.
         23    2    1    0    0    0 -0.22269045592E+02  0.20305611652E+02 -0.18252459955E+01  0.94807951724E+02  0.89872064242E+02 0.  0.
         11    1    3    3    0    0 -0.10420186057E+01 -0.27565253076E+02 -0.25291464682E+02  0.37424419380E+02  0.51100000000E-03 0. -1.
         22    1    1    0    0    0  0.22269045592E+02 -0.20305611652E+02  0.18252459955E+01  0.30192048276E+02  0.00000000000E+00 0.  1.
</event>
<event>
 5    1  0.1692178E-003  0.9118800E+02  0.7818608E-02  0.1130116E+00
         25   -1    0    0    0    0  0.00000000000E+00  0.00000000000E+00  0.99999998245E-14  0.12500000000E+03  0.12500000000E+03 0.  0.
        -11    1    3    3    0    0  0.10443395385E+02 -0.23444874465E+02  0.21969098303E+02  0.33784137201E+02  0.51100000000E-03 0. -1.
         23    2    1    0    0    0 -0.15323925223E+02  0.90869194798E+01 -0.23607702611E+02  0.95424361166E+02  0.90725356386E+02 0.  0.
         11    1    3    3    0    0 -0.25767320608E+02  0.32531793945E+02 -0.45576800915E+02  0.61640223965E+02  0.51100000000E-03 0.  1.
         22    1    1    0    0    0  0.15323925223E+02 -0.90869194798E+01  0.23607702611E+02  0.29575638834E+02  0.00000000000E+00 0.  1.
</event>
<event>
 5    1  0.1692178E-003  0.9118800E+02  0.7818608E-02  0.1130116E+00
         25   -1    0    0    0    0  0.00000000000E+00  0.00000000000E+00  0.99999998245E-14  0.12500000000E+03  0.12500000000E+03 0.  0.
        -11    1    3    3    0    0  0.30626541282E+02  0.95858393072E+01 -0.79082057972E+01  0.33051672655E+02  0.51100000000E-03 0. -1.
         23    2    1    0    0    0 -0.21427009235E+02 -0.21842192309E+02 -0.55543641736E+01  0.93902587712E+02  0.88603876485E+02 0.  0.
         11    1    3    3    0    0 -0.52053550517E+02 -0.31428031616E+02  0.23538416237E+01  0.60850915057E+02  0.51100000000E-03 0.  1.
         22    1    1    0    0    0  0.21427009235E+02  0.21842192309E+02  0.55543641736E+01  0.31097412288E+02  0.00000000000E+00 0.  1.
</event>
<event>
 5    1  0.1692178E-003  0.9118800E+02  0.7818608E-02  0.1130116E+00
         25   -1    0    0    0    0  0.00000000000E+00  0.00000000000E+00  0.99999998245E-14  0.12500000000E+03  0.12500000000E+03 0.  0.
        -11    1    3    3    0    0  0.37053614570E+02  0.12532365173E+02  0.44756338399E+02  0.59440393309E+02  0.51100000000E-03 0. -1.
         23    2    1    0    0    0  0.25403607467E+02 -0.57496950764E+01  0.21577237789E+02  0.91177234643E+02  0.84671770152E+02 0.  0.
         11    1    3    3    0    0 -0.11650007104E+02 -0.18282060250E+02 -0.23179100610E+02  0.31736841333E+02  0.51100000000E-03 0.  1.
         22    1    1    0    0    0 -0.25403607467E+02  0.57496950764E+01 -0.21577237789E+02  0.33822765357E+02  0.00000000000E+00 0. -1.
</event>
<event>
 5    1  0.1692178E-003  0.9118800E+02  0.7818608E-02  0.1130116E+00
         25   -1    0    0    0    0  0.00000000000E+00  0.00000000000E+00  0.99999998245E-14  0.12500000000E+03  0.12500000000E+03 0.  0.
        -11    1    3    3    0    0 -0.30038072167E+02 -0.46168887160E+02 -0.70482323646E+00  0.55084922594E+02  0.51100000000E-03 0. -1.
         23    2    1    0    0    0 -0.30011157862E+02 -0.71185693743E+01  0.46207165363E+00  0.94152680240E+02  0.88956000697E+02 0.  0.
         11    1    3    3    0    0  0.26914304830E-01  0.39050317786E+02  0.11668948901E+01  0.39067757646E+02  0.51100000000E-03 0.  1.
         22    1    1    0    0    0  0.30011157862E+02  0.71185693743E+01 -0.46207165363E+00  0.30847319760E+02  0.00000000000E+00 0. -1.
</event>
<event>
 5    1  0.1692178E-003  0.9118800E+02  0.7818608E-02  0.1130116E+00
         25   -1    0    0    0    0  0.00000000000E+00  0.00000000000E+00  0.99999998245E-14  0.12500000000E+03  0.12500000000E+03 0.  0.
        -11    1    3    3    0    0 -0.15100222210E+00 -0.90584808423E+00 -0.43540233978E+02  0.43549917767E+02  0.51100000000E-03 0. -1.
         23    2    1    0    0    0  0.28819896909E+02  0.57160710605E+01 -0.79836252363E+00  0.95607869949E+02  0.90977840638E+02 0.  0.
         11    1    3    3    0    0  0.28970899131E+02  0.66219191447E+01  0.42741871454E+02  0.52057952181E+02  0.51100000000E-03 0.  1.
         22    1    1    0    0    0 -0.28819896909E+02 -0.57160710605E+01  0.79836252363E+00  0.29392130051E+02  0.00000000000E+00 0.  1.
</event>
<event>
 5    1  0.1692178E-003  0.9118800E+02  0.7818608E-02  0.1130116E+00
         25   -1    0    0    0    0  0.00000000000E+00  0.00000000000E+00  0.99999998245E-14  0.12500000000E+03  0.12500000000E+03 0.  0.
        -11    1    3    3    0    0  0.17006858919E+02 -0.23204689184E+02  0.17913467481E+02  0.33890753427E+02  0.51100000000E-03 0. -1.
         23    2    1    0    0    0 -0.95003613422E+01  0.27820727247E+02 -0.38073585948E+01  0.95356354650E+02  0.90631609621E+02 0.  0.
         11    1    3    3    0    0 -0.26507220261E+02  0.51025416431E+02 -0.21720826076E+02  0.61465601222E+02  0.51100000000E-03 0.  1.
         22    1    1    0    0    0  0.95003613422E+01 -0.27820727247E+02  0.38073585948E+01  0.29643645350E+02  0.00000000000E+00 0.  1.
</event>
<event>
 5    1  0.1692178E-003  0.9118800E+02  0.7818608E-02  0.1130116E+00
         25   -1    0    0    0    0  0.00000000000E+00  0.00000000000E+00  0.99999998245E-14  0.12500000000E+03  0.12500000000E+03 0.  0.
        -11    1    3    3    0    0  0.36941768063E+02  0.28154399396E+02 -0.40706284966E+02  0.61760554312E+02  0.51100000000E-03 0. -1.
         23    2    1    0    0    0  0.22823780802E+02  0.95417831069E+01 -0.24426476405E+02  0.90234739401E+02  0.83268750743E+02 0.  0.
         11    1    3    3    0    0 -0.14117987261E+02 -0.18612616289E+02  0.16279808561E+02  0.28474185089E+02  0.51100000000E-03 0.  1.
         22    1    1    0    0    0 -0.22823780802E+02 -0.95417831069E+01  0.24426476405E+02  0.34765260599E+02  0.00000000000E+00 0. -1.
</event>
<event>
 5    1  0.1692178E-003  0.9118800E+02  0.7818608E-02  0.1130116E+00
         25   -1    0    0    0    0  0.00000000000E+00  0.00000000000E+00  0.99999998245E-14  0.12500000000E+03  0.12500000000E+03 0.  0.
        -11    1    3    3    0    0 -0.88841322959E+00  0.47596208369E+02 -0.23661591733E+02  0.53160692742E+02  0.51100000000E-03 0.  1.
         23    2    1    0    0    0  0.20088989447E+02  0.18488878087E+02  0.25278091992E+01  0.97581102697E+02  0.93649749996E+02 0.  0.
         11    1    3    3    0    0  0.20977402677E+02 -0.29107330282E+02  0.26189400932E+02  0.44420409956E+02  0.51100000000E-03 0. -1.
         22    1    1    0    0    0 -0.20088989447E+02 -0.18488878087E+02 -0.25278091992E+01  0.27418897303E+02  0.00000000000E+00 0.  1.
</event>
<event>
 5    1  0.1692178E-003  0.9118800E+02  0.7818608E-02  0.1130116E+00
         25   -1    0    0    0    0  0.00000000000E+00  0.00000000000E+00  0.99999998245E-14  0.12500000000E+03  0.12500000000E+03 0.  0.
        -11    1    3    3    0    0 -0.13570243198E+02 -0.57209181292E+02 -0.12278762437E+02  0.60065047505E+02  0.51100000000E-03 0.  1.
         23    2    1    0    0    0 -0.15680383017E+02 -0.24726167672E+02  0.20894701228E+01  0.95646573203E+02  0.91031001867E+02 0.  0.
         11    1    3    3    0    0 -0.21101398189E+01  0.32483013620E+02  0.14368232559E+02  0.35581525698E+02  0.51100000000E-03 0. -1.
         22    1    1    0    0    0  0.15680383017E+02  0.24726167672E+02 -0.20894701228E+01  0.29353426797E+02  0.00000000000E+00 0.  1.
</event>
<event>
 5    1  0.1692178E-003  0.9118800E+02  0.7818608E-02  0.1130116E+00
         25   -1    0    0    0    0  0.00000000000E+00  0.00000000000E+00  0.99999998245E-14  0.12500000000E+03  0.12500000000E+03 0.  0.
        -11    1    3    3    0    0 -0.17347779722E+02  0.42077737966E+00 -0.53078815103E+02  0.55843380341E+02  0.51100000000E-03 0. -1.
         23    2    1    0    0    0 -0.73302160288E+01  0.19911092132E+02 -0.18144160552E+02  0.97082367238E+02  0.92981674589E+02 0.  0.
         11    1    3    3    0    0  0.10017563693E+02  0.19490314752E+02  0.34934654551E+02  0.41238986897E+02  0.51100000000E-03 0.  1.
         22    1    1    0    0    0  0.73302160288E+01 -0.19911092132E+02  0.18144160552E+02  0.27917632762E+02  0.00000000000E+00 0.  1.
</event>
<event>
 5    1  0.1692178E-003  0.9118800E+02  0.7818608E-02  0.1130116E+00
         25   -1    0    0    0    0  0.00000000000E+00  0.00000000000E+00  0.99999998245E-14  0.12500000000E+03  0.12500000000E+03 0.  0.
        -11    1    3    3    0    0  0.10408206998E+02  0.22163946493E+01 -0.52244605615E+02  0.53317370474E+02  0.51100000000E-03 0. -1.
         23    2    1    0    0    0  0.39751315308E+01 -0.22364746171E+02 -0.17686513193E+02  0.96211177674E+02  0.91803019659E+02 0.  0.
         11    1    3    3    0    0 -0.64330754669E+01 -0.24581140820E+02  0.34558092422E+02  0.42893807200E+02  0.51100000000E-03 0.  1.
         22    1    1    0    0    0 -0.39751315308E+01  0.22364746171E+02  0.17686513193E+02  0.28788822326E+02  0.00000000000E+00 0. -1.
</event>
<event>
 5    1  0.1692178E-003  0.9118800E+02  0.7818608E-02  0.1130116E+00
         25   -1    0    0    0    0  0.00000000000E+00  0.00000000000E+00  0.99999998245E-14  0.12500000000E+03  0.12500000000E+03 0.  0.
        -11    1    3    3    0    0 -0.89018621739E+01  0.35366377200E+02 -0.28368819368E+02  0.46204044185E+02  0.51100000000E-03 0. -1.
         23    2    1    0    0    0  0.13057488234E+02  0.25116766554E+02  0.12765998515E+02  0.93946486846E+02  0.88665786590E+02 0.  0.
         11    1    3    3    0    0  0.21959350408E+02 -0.10249610646E+02  0.41134817883E+02  0.47742442662E+02  0.51100000000E-03 0.  1.
         22    1    1    0    0    0 -0.13057488234E+02 -0.25116766554E+02 -0.12765998515E+02  0.31053513154E+02  0.00000000000E+00 0.  1.
</event>
<event>
 5    1  0.1692178E-003  0.9118800E+02  0.7818608E-02  0.1130116E+00
         25   -1    0    0    0    0  0.00000000000E+00  0.00000000000E+00  0.99999998245E-14  0.12500000000E+03  0.12500000000E+03 0.  0.
        -11    1    3    3    0    0  0.36462188581E+02  0.22283072446E+02  0.26768990425E+02  0.50424253712E+02  0.51100000000E-03 0.  1.
         23    2    1    0    0    0 -0.75624820957E+01  0.19541642149E+02  0.21716530485E+02  0.94822614267E+02  0.89892455561E+02 0.  0.
         11    1    3    3    0    0 -0.44024670677E+02 -0.27414302968E+01 -0.50524599400E+01  0.44398360555E+02  0.51100000000E-03 0. -1.
         22    1    1    0    0    0  0.75624820957E+01 -0.19541642149E+02 -0.21716530485E+02  0.30177385733E+02  0.00000000000E+00 0.  1.
</event>
<event>
 5    1  0.1692178E-003  0.9118800E+02  0.7818608E-02  0.1130116E+00
         25   -1    0    0    0    0  0.00000000000E+00  0.00000000000E+00  0.99999998245E-14  0.12500000000E+03  0.12500000000E+03 0.  0.
        -11    1    3    3    0    0 -0.40935606226E+02  0.22102281472E+02  0.41001950413E+02  0.62011246087E+02  0.51100000000E-03 0.  1.
         23    2    1    0    0    0 -0.21983739512E+02  0.11953505147E+02  0.14711285140E+02  0.95972547499E+02  0.91477521144E+02 0.  0.
         11    1    3    3    0    0  0.18951866714E+02 -0.10148776324E+02 -0.26290665272E+02  0.33961301411E+02  0.51100000000E-03 0. -1.
         22    1    1    0    0    0  0.21983739512E+02 -0.11953505147E+02 -0.14711285140E+02  0.29027452501E+02  0.00000000000E+00 0.  1.
</event>
<event>
 5    1  0.1692178E-003  0.9118800E+02  0.7818608E-02  0.1130116E+00
         25   -1    0    0    0    0  0.00000000000E+00  0.00000000000E+00  0.99999998245E-14  0.12500000000E+03  0.12500000000E+03 0.  0.
        -11    1    3    3    0    0 -0.22695714720E+02 -0.17918888725E+02 -0.13718974849E+02  0.32006129272E+02  0.51100000000E-03 0.  1.
         23    2    1    0    0    0  0.25662972476E+02  0.11100384165E+02  0.12706252203E+02  0.94287534616E+02  0.89145295186E+02 0.  0.
         11    1    3    3    0    0  0.48358687197E+02  0.29019272890E+02  0.26425227053E+02  0.62281405343E+02  0.51100000000E-03 0. -1.
         22    1    1    0    0    0 -0.25662972476E+02 -0.11100384165E+02 -0.12706252203E+02  0.30712465384E+02  0.00000000000E+00 0. -1.
</event>
<event>
 5    1  0.1692178E-003  0.9118800E+02  0.7818608E-02  0.1130116E+00
         25   -1    0    0    0    0  0.00000000000E+00  0.00000000000E+00  0.99999998245E-14  0.12500000000E+03  0.12500000000E+03 0.  0.
        -11    1    3    3    0    0 -0.27811145972E+02 -0.23626246131E+02  0.18644771025E+02  0.40979102398E+02  0.51100000000E-03 0.  1.
         23    2    1    0    0    0 -0.20899003731E+02  0.15102482018E+02 -0.17040298555E+02  0.94093283984E+02  0.88872498536E+02 0.  0.
         11    1    3    3    0    0  0.69121422408E+01  0.38728728148E+02 -0.35685069580E+02  0.53114181586E+02  0.51100000000E-03 0. -1.
         22    1    1    0    0    0  0.20899003731E+02 -0.15102482018E+02  0.17040298555E+02  0.30906716016E+02  0.00000000000E+00 0. -1.
</event>
<event>
 5    1  0.1692178E-003  0.9118800E+02  0.7818608E-02  0.1130116E+00
         25   -1    0    0    0    0  0.00000000000E+00  0.00000000000E+00  0.99999998245E-14  0.12500000000E+03  0.12500000000E+03 0.  0.
        -11    1    3    3    0    0 -0.31313461098E+02  0.34147825528E+02 -0.20299287274E+02  0.50583276864E+02  0.51100000000E-03 0.  1.
         23    2    1    0    0    0  0.11741818536E+02  0.23370318144E+02 -0.13762780499E+02  0.95445707592E+02  0.90754762398E+02 0.  0.
         11    1    3    3    0    0  0.43055279634E+02 -0.10777507384E+02  0.65365067745E+01  0.44862430728E+02  0.51100000000E-03 0. -1.
         22    1    1    0    0    0 -0.11741818536E+02 -0.23370318144E+02  0.13762780499E+02  0.29554292408E+02  0.00000000000E+00 0.  1.
</event>
<event>
 5    1  0.1692178E-003  0.9118800E+02  0.7818608E-02  0.1130116E+00
         25   -1    0    0    0    0  0.00000000000E+00  0.00000000000E+00  0.99999998245E-14  0.12500000000E+03  0.12500000000E+03 0.  0.
        -11    1    3    3    0    0  0.41014884015E+02 -0.23272570688E+02  0.17087953350E+01  0.47188486296E+02  0.51100000000E-03 0.  1.
         23    2    1    0    0    0 -0.45106769152E+01 -0.25147586689E+02 -0.14588331136E+02  0.95579484575E+02  0.90938831881E+02 0.  0.
         11    1    3    3    0    0 -0.45525560930E+02 -0.18750160013E+01 -0.16297126471E+02  0.48390998279E+02  0.51100000000E-03 0. -1.
         22    1    1    0    0    0  0.45106769152E+01  0.25147586689E+02  0.14588331136E+02  0.29420515425E+02  0.00000000000E+00 0.  1.
</event>
<event>
 5    1  0.1692178E-003  0.9118800E+02  0.7818608E-02  0.1130116E+00
         25   -1    0    0    0    0  0.00000000000E+00  0.00000000000E+00  0.99999998245E-14  0.12500000000E+03  0.12500000000E+03 0.  0.
        -11    1    3    3    0    0 -0.28181326076E+01  0.57527053491E+02 -0.14906343490E+02  0.59493720940E+02  0.51100000000E-03 0. -1.
         23    2    1    0    0    0  0.98664177834E+01  0.26973483989E+02  0.11275730535E+01  0.96256540581E+02  0.91864765526E+02 0.  0.
         11    1    3    3    0    0  0.12684550391E+02 -0.30553569502E+02  0.16033916543E+02  0.36762819641E+02  0.51100000000E-03 0.  1.
         22    1    1    0    0    0 -0.98664177834E+01 -0.26973483989E+02 -0.11275730535E+01  0.28743459419E+02  0.00000000000E+00 0. -1.
</event>
<event>
 5    1  0.1692178E-003  0.9118800E+02  0.7818608E-02  0.1130116E+00
         25   -1    0    0    0    0  0.00000000000E+00  0.00000000000E+00  0.99999998245E-14  0.12500000000E+03  0.12500000000E+03 0.  0.
        -11    1    3    3    0    0  0.20174406965E+02  0.17505213321E+02 -0.23605090363E+02  0.35646030370E+02  0.51100000000E-03 0.  1.
         23    2    1    0    0    0 -0.23455988431E+02 -0.11919016097E+02  0.85713652832E+01  0.97328450697E+02  0.93311910678E+02 0.  0.
         11    1    3    3    0    0 -0.43630395396E+02 -0.29424229418E+02  0.32176455646E+02  0.61682420328E+02  0.51100000000E-03 0. -1.
         22    1    1    0    0    0  0.23455988431E+02  0.11919016097E+02 -0.85713652832E+01  0.27671549303E+02  0.00000000000E+00 0. -1.
</event>
<event>
 5    1  0.1692178E-003  0.9118800E+02  0.7818608E-02  0.1130116E+00
         25   -1    0    0    0    0  0.00000000000E+00  0.00000000000E+00  0.99999998245E-14  0.12500000000E+03  0.12500000000E+03 0.  0.
        -11    1    3    3    0    0 -0.18606984077E+02  0.37025321534E+01 -0.29753032955E+02  0.35286988693E+02  0.51100000000E-03 0.  1.
         23    2    1    0    0    0  0.18216471808E+02 -0.15233702051E+02  0.15513306489E+02  0.96635088550E+02  0.92378418138E+02 0.  0.
         11    1    3    3    0    0  0.36823455885E+02 -0.18936234204E+02  0.45266339444E+02  0.61348099857E+02  0.51100000000E-03 0. -1.
         22    1    1    0    0    0 -0.18216471808E+02  0.15233702051E+02 -0.15513306489E+02  0.28364911450E+02  0.00000000000E+00 0. -1.
</event>
<event>
 5    1  0.1692178E-003  0.9118800E+02  0.7818608E-02  0.1130116E+00
         25   -1    0    0    0    0  0.00000000000E+00  0.00000000000E+00  0.99999998245E-14  0.12500000000E+03  0.12500000000E+03 0.  0.
        -11    1    3    3    0    0  0.30647202147E+02  0.19331063596E+02 -0.19127497817E+02  0.40973188700E+02  0.51100000000E-03 0. -1.
         23    2    1    0    0    0 -0.22042135376E+02  0.16065781209E+02  0.15772799881E+01  0.97678710317E+02  0.93779942308E+02 0.  0.
         11    1    3    3    0    0 -0.52689337523E+02 -0.32652823871E+01  0.20704777805E+02  0.56705521618E+02  0.51100000000E-03 0.  1.
         22    1    1    0    0    0  0.22042135376E+02 -0.16065781209E+02 -0.15772799881E+01  0.27321289683E+02  0.00000000000E+00 0.  1.
</event>
<event>
 5    1  0.1692178E-003  0.9118800E+02  0.7818608E-02  0.1130116E+00
         25   -1    0    0    0    0  0.00000000000E+00  0.00000000000E+00  0.99999998245E-14  0.12500000000E+03  0.12500000000E+03 0.  0.
        -11    1    3    3    0    0  0.25449132389E+02 -0.46277371617E+02  0.85843919311E+01  0.53506497253E+02  0.51100000000E-03 0.  1.
         23    2    1    0    0    0  0.29756661607E+01 -0.21944511158E+02 -0.18382683198E+02  0.96219117446E+02  0.91813829903E+02 0.  0.
         11    1    3    3    0    0 -0.22473466229E+02  0.24332860459E+02 -0.26967075129E+02  0.42712620193E+02  0.51100000000E-03 0. -1.
         22    1    1    0    0    0 -0.29756661607E+01  0.21944511158E+02  0.18382683198E+02  0.28780882554E+02  0.00000000000E+00 0.  1.
</event>
<event>
 5    1  0.1692178E-003  0.9118800E+02  0.7818608E-02  0.1130116E+00
         25   -1    0    0    0    0  0.00000000000E+00  0.00000000000E+00  0.99999998245E-14  0.12500000000E+03  0.12500000000E+03 0.  0.
        -11    1    3    3    0    0 -0.30135348795E+02 -0.20010098655E+02 -0.47039706104E+02  0.59340350907E+02  0.51100000000E-03 0. -1.
         23    2    1    0    0    0 -0.18919190142E+01 -0.83424343350E+01 -0.28862646478E+02  0.94896380120E+02  0.89994972248E+02 0.  0.
         11    1    3    3    0    0  0.28243429780E+02  0.11667664320E+02  0.18177059626E+02  0.35556029213E+02  0.51100000000E-03 0.  1.
         22    1    1    0    0    0  0.18919190142E+01  0.83424343350E+01  0.28862646478E+02  0.30103619880E+02  0.00000000000E+00 0. -1.
</event>
<event>
 5    1  0.1692178E-003  0.9118800E+02  0.7818608E-02  0.1130116E+00
         25   -1    0    0    0    0  0.00000000000E+00  0.00000000000E+00  0.99999998245E-14  0.12500000000E+03  0.12500000000E+03 0.  0.
        -11    1    3    3    0    0  0.27445192221E+02 -0.24597915760E+02 -0.48702524603E+02  0.61075624751E+02  0.51100000000E-03 0.  1.
         23    2    1    0    0    0  0.12970082659E+02 -0.23070531889E+02 -0.27136057732E+02  0.87094352464E+02  0.78412933347E+02 0.  0.
         11    1    3    3    0    0 -0.14475109561E+02  0.15273838706E+01  0.21566466870E+02  0.26018727714E+02  0.51100000000E-03 0. -1.
         22    1    1    0    0    0 -0.12970082659E+02  0.23070531889E+02  0.27136057732E+02  0.37905647536E+02  0.00000000000E+00 0.  1.
</event>
<event>
 5    1  0.1692178E-003  0.9118800E+02  0.7818608E-02  0.1130116E+00
         25   -1    0    0    0    0  0.00000000000E+00  0.00000000000E+00  0.99999998245E-14  0.12500000000E+03  0.12500000000E+03 0.  0.
        -11    1    3    3    0    0 -0.43525001903E+02  0.84511875716E+01  0.34108823432E+02  0.55939790831E+02  0.51100000000E-03 0. -1.
         23    2    1    0    0    0 -0.14122467643E+02 -0.14938102522E+02  0.20686619518E+02  0.95836200070E+02  0.91291018274E+02 0.  0.
         11    1    3    3    0    0  0.29402534260E+02 -0.23389290094E+02 -0.13422203914E+02  0.39896409239E+02  0.51100000000E-03 0.  1.
         22    1    1    0    0    0  0.14122467643E+02  0.14938102522E+02 -0.20686619518E+02  0.29163799930E+02  0.00000000000E+00 0. -1.
</event>
<event>
 5    1  0.1692178E-003  0.9118800E+02  0.7818608E-02  0.1130116E+00
         25   -1    0    0    0    0  0.00000000000E+00  0.00000000000E+00  0.99999998245E-14  0.12500000000E+03  0.12500000000E+03 0.  0.
        -11    1    3    3    0    0 -0.30881298126E+02  0.76372243061E+01 -0.18523609645E+02  0.36811762842E+02  0.51100000000E-03 0. -1.
         23    2    1    0    0    0  0.25315002890E+02 -0.86448514329E+00 -0.18476473139E+02  0.93647539722E+02  0.88243327965E+02 0.  0.
         11    1    3    3    0    0  0.56196301015E+02 -0.85017094494E+01  0.47136506112E-01  0.56835776879E+02  0.51100000000E-03 0.  1.
         22    1    1    0    0    0 -0.25315002890E+02  0.86448514329E+00  0.18476473139E+02  0.31352460278E+02  0.00000000000E+00 0.  1.
</event>
<event>
 5    1  0.1692178E-003  0.9118800E+02  0.7818608E-02  0.1130116E+00
         25   -1    0    0    0    0  0.00000000000E+00  0.00000000000E+00  0.99999998245E-14  0.12500000000E+03  0.12500000000E+03 0.  0.
        -11    1    3    3    0    0 -0.32514368206E+02  0.77237927061E+01 -0.35506731780E+02  0.48760323169E+02  0.51100000000E-03 0.  1.
         23    2    1    0    0    0  0.33237245466E+01 -0.20149794590E+02 -0.19107572983E+02  0.97032863712E+02  0.92915100645E+02 0.  0.
         11    1    3    3    0    0  0.35838092753E+02 -0.27873587296E+02  0.16399158797E+02  0.48272540542E+02  0.51100000000E-03 0. -1.
         22    1    1    0    0    0 -0.33237245466E+01  0.20149794590E+02  0.19107572983E+02  0.27967136288E+02  0.00000000000E+00 0. -1.
</event>
<event>
 5    1  0.1692178E-003  0.9118800E+02  0.7818608E-02  0.1130116E+00
         25   -1    0    0    0    0  0.00000000000E+00  0.00000000000E+00  0.99999998245E-14  0.12500000000E+03  0.12500000000E+03 0.  0.
        -11    1    3    3    0    0  0.34743754803E+02  0.12256682986E+00  0.16600406065E+02  0.38506064486E+02  0.51100000000E-03 0.  1.
         23    2    1    0    0    0 -0.10856058652E+02 -0.28730961478E+02  0.31039993161E+01  0.94129998888E+02  0.88924123397E+02 0.  0.
         11    1    3    3    0    0 -0.45599813455E+02 -0.28853528308E+02 -0.13496406749E+02  0.55623934402E+02  0.51100000000E-03 0. -1.
         22    1    1    0    0    0  0.10856058652E+02  0.28730961478E+02 -0.31039993161E+01  0.30870001112E+02  0.00000000000E+00 0. -1.
</event>
<event>
 5    1  0.1692178E-003  0.9118800E+02  0.7818608E-02  0.1130116E+00
         25   -1    0    0    0    0  0.00000000000E+00  0.00000000000E+00  0.99999998245E-14  0.12500000000E+03  0.12500000000E+03 0.  0.
        -11    1    3    3    0    0  0.40062738704E+02 -0.11109604504E+02 -0.11037331822E+02  0.43014753733E+02  0.51100000000E-03 0.  1.
         23    2    1    0    0    0  0.66391971437E+01  0.27637690184E+02 -0.11881054215E+02  0.94192852993E+02  0.89012433111E+02 0.  0.
         11    1    3    3    0    0 -0.33423541560E+02  0.38747294689E+02 -0.84372239306E+00  0.51178099260E+02  0.51100000000E-03 0. -1.
         22    1    1    0    0    0 -0.66391971437E+01 -0.27637690184E+02  0.11881054215E+02  0.30807147007E+02  0.00000000000E+00 0. -1.
</event>
<event>
 5    1  0.1692178E-003  0.9118800E+02  0.7818608E-02  0.1130116E+00
         25   -1    0    0    0    0  0.00000000000E+00  0.00000000000E+00  0.99999998245E-14  0.12500000000E+03  0.12500000000E+03 0.  0.
        -11    1    3    3    0    0  0.23651031779E+02 -0.28917896041E+01  0.35844219471E+02  0.43041164262E+02  0.51100000000E-03 0.  1.
         23    2    1    0    0    0  0.30764278585E+02  0.27516576915E+02  0.13025735134E+02  0.81718680499E+02  0.69315727830E+02 0.  0.
         11    1    3    3    0    0  0.71132468061E+01  0.30408366519E+02 -0.22818484337E+02  0.38677516236E+02  0.51100000000E-03 0. -1.
         22    1    1    0    0    0 -0.30764278585E+02 -0.27516576915E+02 -0.13025735134E+02  0.43281319501E+02  0.00000000000E+00 0.  1.
</event>
<event>
 5    1  0.1692178E-003  0.9118800E+02  0.7818608E-02  0.1130116E+00
         25   -1    0    0    0    0  0.00000000000E+00  0.00000000000E+00  0.99999998245E-14  0.12500000000E+03  0.12500000000E+03 0.  0.
        -11    1    3    3    0    0 -0.14965490174E+02 -0.32184537952E+02 -0.50741474009E+02  0.61923400780E+02  0.51100000000E-03 0. -1.
         23    2    1    0    0    0 -0.16950327498E+01 -0.17627975907E+02 -0.22208405706E+02  0.96595212470E+02  0.92324444854E+02 0.  0.
         11    1    3    3    0    0  0.13270457424E+02  0.14556562045E+02  0.28533068303E+02  0.34671811690E+02  0.51100000000E-03 0.  1.
         22    1    1    0    0    0  0.16950327498E+01  0.17627975907E+02  0.22208405706E+02  0.28404787530E+02  0.00000000000E+00 0. -1.
</event>
<event>
 5    1  0.1692178E-003  0.9118800E+02  0.7818608E-02  0.1130116E+00
         25   -1    0    0    0    0  0.00000000000E+00  0.00000000000E+00  0.99999998245E-14  0.12500000000E+03  0.12500000000E+03 0.  0.
        -11    1    3    3    0    0  0.58346342329E+02 -0.74964462137E+01  0.99569818335E+01  0.59662667193E+02  0.51100000000E-03 0. -1.
         23    2    1    0    0    0  0.22203197881E+02 -0.12709495919E+02  0.12993813114E+02  0.96305881058E+02  0.91931878390E+02 0.  0.
         11    1    3    3    0    0 -0.36143144449E+02 -0.52130497051E+01  0.30368312803E+01  0.36643213865E+02  0.51100000000E-03 0.  1.
         22    1    1    0    0    0 -0.22203197881E+02  0.12709495919E+02 -0.12993813114E+02  0.28694118942E+02  0.00000000000E+00 0. -1.
</event>
<event>
 5    1  0.1692178E-003  0.9118800E+02  0.7818608E-02  0.1130116E+00
         25   -1    0    0    0    0  0.00000000000E+00  0.00000000000E+00  0.99999998245E-14  0.12500000000E+03  0.12500000000E+03 0.  0.
        -11    1    3    3    0    0 -0.33927786195E+02  0.30933208272E+02  0.38466249603E+02  0.59896664422E+02  0.51100000000E-03 0.  1.
         23    2    1    0    0    0 -0.25637104064E+02  0.93615789586E+01  0.11574308983E+02  0.95354344436E+02  0.90628837072E+02 0.  0.
         11    1    3    3    0    0  0.82906821313E+01 -0.21571629313E+02 -0.26891940620E+02  0.35457680014E+02  0.51100000000E-03 0. -1.
         22    1    1    0    0    0  0.25637104064E+02 -0.93615789586E+01 -0.11574308983E+02  0.29645655564E+02  0.00000000000E+00 0.  1.
</event>
<event>
 5    1  0.1692178E-003  0.9118800E+02  0.7818608E-02  0.1130116E+00
         25   -1    0    0    0    0  0.00000000000E+00  0.00000000000E+00  0.99999998245E-14  0.12500000000E+03  0.12500000000E+03 0.  0.
        -11    1    3    3    0    0  0.24755037543E+02  0.36110450979E+02 -0.38827495554E+02  0.58517954210E+02  0.51100000000E-03 0. -1.
         23    2    1    0    0    0  0.24337575682E+02  0.95587603796E+01 -0.12120618293E+02  0.96179922313E+02  0.91760452147E+02 0.  0.
         11    1    3    3    0    0 -0.41746186097E+00 -0.26551690599E+02  0.26706877261E+02  0.37661968103E+02  0.51100000000E-03 0.  1.
         22    1    1    0    0    0 -0.24337575682E+02 -0.95587603796E+01  0.12120618293E+02  0.28820077687E+02  0.00000000000E+00 0. -1.
</event>
<event>
 5    1  0.1692178E-003  0.9118800E+02  0.7818608E-02  0.1130116E+00
         25   -1    0    0    0    0  0.00000000000E+00  0.00000000000E+00  0.99999998245E-14  0.12500000000E+03  0.12500000000E+03 0.  0.
        -11    1    3    3    0    0  0.14468839652E+02 -0.24271926619E+02 -0.15224929128E+02  0.32097853665E+02  0.51100000000E-03 0. -1.
         23    2    1    0    0    0  0.93014497667E+00  0.25082154884E+02 -0.30494401825E+02  0.85504579937E+02  0.75836303868E+02 0.  0.
         11    1    3    3    0    0 -0.13538694676E+02  0.49354081502E+02 -0.15269472697E+02  0.53406726273E+02  0.51100000000E-03 0.  1.
         22    1    1    0    0    0 -0.93014497667E+00 -0.25082154884E+02  0.30494401825E+02  0.39495420063E+02  0.00000000000E+00 0.  1.
</event>
<event>
 5    1  0.1692178E-003  0.9118800E+02  0.7818608E-02  0.1130116E+00
         25   -1    0    0    0    0  0.00000000000E+00  0.00000000000E+00  0.99999998245E-14  0.12500000000E+03  0.12500000000E+03 0.  0.
        -11    1    3    3    0    0 -0.48948105961E+02 -0.15043419233E+02  0.32510100100E+02  0.60655817101E+02  0.51100000000E-03 0.  1.
         23    2    1    0    0    0 -0.31039110611E+02 -0.27284115338E+01  0.92342115803E+01  0.92501672651E+02  0.86604954608E+02 0.  0.
         11    1    3    3    0    0  0.17908995350E+02  0.12315007699E+02 -0.23275888519E+02  0.31845855550E+02  0.51100000000E-03 0. -1.
         22    1    1    0    0    0  0.31039110611E+02  0.27284115338E+01 -0.92342115803E+01  0.32498327349E+02  0.00000000000E+00 0.  1.
</event>
<event>
 5    1  0.1692178E-003  0.9118800E+02  0.7818608E-02  0.1130116E+00
         25   -1    0    0    0    0  0.00000000000E+00  0.00000000000E+00  0.99999998245E-14  0.12500000000E+03  0.12500000000E+03 0.  0.
        -11    1    3    3    0    0 -0.44039171513E+02  0.13104306924E+02  0.72454755621E+01  0.46515249154E+02  0.51100000000E-03 0. -1.
         23    2    1    0    0    0 -0.18964283436E+00  0.30850146187E+01  0.28548564249E+02  0.96284606910E+02  0.91902947328E+02 0.  0.
         11    1    3    3    0    0  0.43849528678E+02 -0.10019292305E+02  0.21303088687E+02  0.49769357756E+02  0.51100000000E-03 0.  1.
         22    1    1    0    0    0  0.18964283436E+00 -0.30850146187E+01 -0.28548564249E+02  0.28715393090E+02  0.00000000000E+00 0. -1.
</event>
<event>
 5    1  0.1692178E-003  0.9118800E+02  0.7818608E-02  0.1130116E+00
         25   -1    0    0    0    0  0.00000000000E+00  0.00000000000E+00  0.99999998245E-14  0.12500000000E+03  0.12500000000E+03 0.  0.
        -11    1    3    3    0    0  0.20794379541E+02  0.34270690810E+02  0.13419321459E+01  0.40108443640E+02  0.51100000000E-03 0. -1.
         23    2    1    0    0    0  0.14158256791E+02 -0.19778618786E+02 -0.14323517859E+02  0.96772120868E+02  0.92563654946E+02 0.  0.
         11    1    3    3    0    0 -0.66361227502E+01 -0.54049309595E+02 -0.15665450005E+02  0.56663677228E+02  0.51100000000E-03 0.  1.
         22    1    1    0    0    0 -0.14158256791E+02  0.19778618786E+02  0.14323517859E+02  0.28227879132E+02  0.00000000000E+00 0.  1.
</event>
<event>
 5    1  0.1692178E-003  0.9118800E+02  0.7818608E-02  0.1130116E+00
         25   -1    0    0    0    0  0.00000000000E+00  0.00000000000E+00  0.99999998245E-14  0.12500000000E+03  0.12500000000E+03 0.  0.
        -11    1    3    3    0    0  0.48337432894E+01  0.30981906854E+02  0.10024176566E+02  0.32920020391E+02  0.51100000000E-03 0.  1.
         23    2    1    0    0    0 -0.36709991551E+01 -0.13801540901E+02 -0.28836826488E+02  0.92820482789E+02  0.87063888595E+02 0.  0.
         11    1    3    3    0    0 -0.85047424445E+01 -0.44783447755E+02 -0.38861003053E+02  0.59900462398E+02  0.51100000000E-03 0. -1.
         22    1    1    0    0    0  0.36709991551E+01  0.13801540901E+02  0.28836826488E+02  0.32179517211E+02  0.00000000000E+00 0. -1.
</event>
<event>
 5    1  0.1692178E-003  0.9118800E+02  0.7818608E-02  0.1130116E+00
         25   -1    0    0    0    0  0.00000000000E+00  0.00000000000E+00  0.99999998245E-14  0.12500000000E+03  0.12500000000E+03 0.  0.
        -11    1    3    3    0    0  0.12570782080E+01 -0.27659441212E+02  0.15132636695E+02  0.31553472510E+02  0.51100000000E-03 0.  1.
         23    2    1    0    0    0  0.30947908635E+01  0.27164295509E+02 -0.14661224428E+02  0.93976973347E+02  0.88708755694E+02 0.  0.
         11    1    3    3    0    0  0.18377126555E+01  0.54823736721E+02 -0.29793861123E+02  0.62423500837E+02  0.51100000000E-03 0. -1.
         22    1    1    0    0    0 -0.30947908635E+01 -0.27164295509E+02  0.14661224428E+02  0.31023026653E+02  0.00000000000E+00 0. -1.
</event>
<event>
 5    1  0.1692178E-003  0.9118800E+02  0.7818608E-02  0.1130116E+00
         25   -1    0    0    0    0  0.00000000000E+00  0.00000000000E+00  0.99999998245E-14  0.12500000000E+03  0.12500000000E+03 0.  0.
        -11    1    3    3    0    0  0.35640540081E+02 -0.19967216645E+02  0.30962331085E+02  0.51260157864E+02  0.51100000000E-03 0. -1.
         23    2    1    0    0    0  0.50211374292E+01 -0.30507245886E+02  0.31950486336E+01  0.93917654394E+02  0.88625129610E+02 0.  0.
         11    1    3    3    0    0 -0.30619402652E+02 -0.10540029241E+02 -0.27767282451E+02  0.42657496529E+02  0.51100000000E-03 0.  1.
         22    1    1    0    0    0 -0.50211374292E+01  0.30507245886E+02 -0.31950486336E+01  0.31082345606E+02  0.00000000000E+00 0.  1.
</event>
<event>
 5    1  0.1692178E-003  0.9118800E+02  0.7818608E-02  0.1130116E+00
         25   -1    0    0    0    0  0.00000000000E+00  0.00000000000E+00  0.99999998245E-14  0.12500000000E+03  0.12500000000E+03 0.  0.
        -11    1    3    3    0    0 -0.50536664860E+02 -0.57440837016E+01 -0.28974306464E+02  0.58535966961E+02  0.51100000000E-03 0. -1.
         23    2    1    0    0    0 -0.26541052546E+02  0.11272179204E+02 -0.68014080605E+01  0.95373176920E+02  0.90654808091E+02 0.  0.
         11    1    3    3    0    0  0.23995612315E+02  0.17016262905E+02  0.22172898404E+02  0.36837209958E+02  0.51100000000E-03 0.  1.
         22    1    1    0    0    0  0.26541052546E+02 -0.11272179204E+02  0.68014080605E+01  0.29626823080E+02  0.00000000000E+00 0. -1.
</event>
<event>
 5    1  0.1692178E-003  0.9118800E+02  0.7818608E-02  0.1130116E+00
         25   -1    0    0    0    0  0.00000000000E+00  0.00000000000E+00  0.99999998245E-14  0.12500000000E+03  0.12500000000E+03 0.  0.
        -11    1    3    3    0    0  0.34730314553E+02 -0.17619183708E+02  0.11901256209E+02  0.40721864926E+02  0.51100000000E-03 0.  1.
         23    2    1    0    0    0 -0.18883010303E+02 -0.11484665593E+02  0.19881930778E+02  0.95271952749E+02  0.90515126842E+02 0.  0.
         11    1    3    3    0    0 -0.53613324856E+02  0.61345181153E+01  0.79806745693E+01  0.54550087823E+02  0.51100000000E-03 0. -1.
         22    1    1    0    0    0  0.18883010303E+02  0.11484665593E+02 -0.19881930778E+02  0.29728047251E+02  0.00000000000E+00 0. -1.
</event>
<event>
 5    1  0.1692178E-003  0.9118800E+02  0.7818608E-02  0.1130116E+00
         25   -1    0    0    0    0  0.00000000000E+00  0.00000000000E+00  0.99999998245E-14  0.12500000000E+03  0.12500000000E+03 0.  0.
        -11    1    3    3    0    0 -0.19876850277E+02  0.24742087009E+02  0.18925137694E+02  0.36951601907E+02  0.51100000000E-03 0. -1.
         23    2    1    0    0    0  0.96163671085E+01  0.27128767968E+01 -0.27233225651E+02  0.95991677121E+02  0.91503657196E+02 0.  0.
         11    1    3    3    0    0  0.29493217385E+02 -0.22029210212E+02 -0.46158363345E+02  0.59040075214E+02  0.51100000000E-03 0.  1.
         22    1    1    0    0    0 -0.96163671085E+01 -0.27128767968E+01  0.27233225651E+02  0.29008322879E+02  0.00000000000E+00 0.  1.
</event>
<event>
 5    1  0.1692178E-003  0.9118800E+02  0.7818608E-02  0.1130116E+00
         25   -1    0    0    0    0  0.00000000000E+00  0.00000000000E+00  0.99999998245E-14  0.12500000000E+03  0.12500000000E+03 0.  0.
        -11    1    3    3    0    0 -0.21483951706E+02  0.24945565295E+02 -0.17924768579E+02  0.37485180241E+02  0.51100000000E-03 0. -1.
         23    2    1    0    0    0 -0.17341748857E+02 -0.25397552983E+02 -0.20460721959E+02  0.88062037224E+02  0.79940661156E+02 0.  0.
         11    1    3    3    0    0  0.41422028498E+01 -0.50343118279E+02 -0.25359533803E+01  0.50576856983E+02  0.51100000000E-03 0.  1.
         22    1    1    0    0    0  0.17341748857E+02  0.25397552983E+02  0.20460721959E+02  0.36937962776E+02  0.00000000000E+00 0.  1.
</event>
<event>
 5    1  0.1692178E-003  0.9118800E+02  0.7818608E-02  0.1130116E+00
         25   -1    0    0    0    0  0.00000000000E+00  0.00000000000E+00  0.99999998245E-14  0.12500000000E+03  0.12500000000E+03 0.  0.
        -11    1    3    3    0    0  0.10856428921E+02  0.14103973485E+02 -0.52947121583E+02  0.55858587533E+02  0.51100000000E-03 0. -1.
         23    2    1    0    0    0  0.14813491014E+00 -0.12684706629E+02 -0.28980861417E+02  0.93364354682E+02  0.87841269746E+02 0.  0.
         11    1    3    3    0    0 -0.10708294011E+02 -0.26788680114E+02  0.23966260166E+02  0.37505767149E+02  0.51100000000E-03 0.  1.
         22    1    1    0    0    0 -0.14813491014E+00  0.12684706629E+02  0.28980861417E+02  0.31635645318E+02  0.00000000000E+00 0. -1.
</event>
<event>
 5    1  0.1692178E-003  0.9118800E+02  0.7818608E-02  0.1130116E+00
         25   -1    0    0    0    0  0.00000000000E+00  0.00000000000E+00  0.99999998245E-14  0.12500000000E+03  0.12500000000E+03 0.  0.
        -11    1    3    3    0    0  0.14143574899E+02 -0.11144773163E+02  0.58443988997E+02  0.61155102239E+02  0.51100000000E-03 0. -1.
         23    2    1    0    0    0 -0.28994934318E+01 -0.52272376779E+01  0.26428739975E+02  0.97903701866E+02  0.94079357282E+02 0.  0.
         11    1    3    3    0    0 -0.17043068331E+02  0.59175354846E+01 -0.32015249022E+02  0.36748599627E+02  0.51100000000E-03 0.  1.
         22    1    1    0    0    0  0.28994934318E+01  0.52272376779E+01 -0.26428739975E+02  0.27096298134E+02  0.00000000000E+00 0. -1.
</event>
<event>
 5    1  0.1692178E-003  0.9118800E+02  0.7818608E-02  0.1130116E+00
         25   -1    0    0    0    0  0.00000000000E+00  0.00000000000E+00  0.99999998245E-14  0.12500000000E+03  0.12500000000E+03 0.  0.
        -11    1    3    3    0    0  0.14007127935E+02  0.35065444310E+02 -0.25652160308E+02  0.45648859201E+02  0.51100000000E-03 0.  1.
         23    2    1    0    0    0  0.14755974639E+02  0.18823775882E+02  0.19817910430E+02  0.93938401525E+02  0.88654387265E+02 0.  0.
         11    1    3    3    0    0  0.74884670456E+00 -0.16241668428E+02  0.45470070738E+02  0.48289542324E+02  0.51100000000E-03 0. -1.
         22    1    1    0    0    0 -0.14755974639E+02 -0.18823775882E+02 -0.19817910430E+02  0.31061598475E+02  0.00000000000E+00 0. -1.
</event>
<event>
 5    1  0.1692178E-003  0.9118800E+02  0.7818608E-02  0.1130116E+00
         25   -1    0    0    0    0  0.00000000000E+00  0.00000000000E+00  0.99999998245E-14  0.12500000000E+03  0.12500000000E+03 0.  0.
        -11    1    3    3    0    0 -0.41199960910E+02 -0.19797121615E+02 -0.13321898776E+02  0.47611298980E+02  0.51100000000E-03 0.  1.
         23    2    1    0    0    0 -0.48437380699E-01 -0.29646401953E+02  0.69793006473E+01  0.94543110262E+02  0.89502947245E+02 0.  0.
         11    1    3    3    0    0  0.41151523530E+02 -0.98492803385E+01  0.20301199424E+02  0.46931811283E+02  0.51100000000E-03 0. -1.
         22    1    1    0    0    0  0.48437380699E-01  0.29646401953E+02 -0.69793006473E+01  0.30456889738E+02  0.00000000000E+00 0.  1.
</event>
<event>
 5    1  0.1692178E-003  0.9118800E+02  0.7818608E-02  0.1130116E+00
         25   -1    0    0    0    0  0.00000000000E+00  0.00000000000E+00  0.99999998245E-14  0.12500000000E+03  0.12500000000E+03 0.  0.
        -11    1    3    3    0    0 -0.56429107697E+02 -0.13483493124E+02  0.48091058513E+00  0.58019652339E+02  0.51100000000E-03 0.  1.
         23    2    1    0    0    0 -0.22273179593E+02 -0.16316903172E+02  0.12966712265E+02  0.94496369310E+02  0.89437644913E+02 0.  0.
         11    1    3    3    0    0  0.34155928104E+02 -0.28334100476E+01  0.12485801680E+02  0.36476716971E+02  0.51100000000E-03 0. -1.
         22    1    1    0    0    0  0.22273179593E+02  0.16316903172E+02 -0.12966712265E+02  0.30503630690E+02  0.00000000000E+00 0.  1.
</event>
<event>
 5    1  0.1692178E-003  0.9118800E+02  0.7818608E-02  0.1130116E+00
         25   -1    0    0    0    0  0.00000000000E+00  0.00000000000E+00  0.99999998245E-14  0.12500000000E+03  0.12500000000E+03 0.  0.
        -11    1    3    3    0    0 -0.13150221993E+02  0.44064577961E+02 -0.64451759778E+01  0.46434423255E+02  0.51100000000E-03 0. -1.
         23    2    1    0    0    0 -0.63861976511E+01  0.15033446400E+02  0.28367961086E+02  0.92265778652E+02  0.86263808535E+02 0.  0.
         11    1    3    3    0    0  0.67640243414E+01 -0.29031131561E+02  0.34813137064E+02  0.45831355397E+02  0.51100000000E-03 0.  1.
         22    1    1    0    0    0  0.63861976511E+01 -0.15033446400E+02 -0.28367961086E+02  0.32734221348E+02  0.00000000000E+00 0. -1.
</event>
<event>
 5    1  0.1692178E-003  0.9118800E+02  0.7818608E-02  0.1130116E+00
         25   -1    0    0    0    0  0.00000000000E+00  0.00000000000E+00  0.99999998245E-14  0.12500000000E+03  0.12500000000E+03 0.  0.
        -11    1    3    3    0    0 -0.10038402443E+02  0.32516254780E+02  0.33586458482E+02  0.47813455660E+02  0.51100000000E-03 0. -1.
         23    2    1    0    0    0  0.25631436992E+02  0.14728724182E+02  0.16084113446E+02  0.91345808825E+02  0.84920269702E+02 0.  0.
         11    1    3    3    0    0  0.35669839435E+02 -0.17787530598E+02 -0.17502345036E+02  0.43532353165E+02  0.51100000000E-03 0.  1.
         22    1    1    0    0    0 -0.25631436992E+02 -0.14728724182E+02 -0.16084113446E+02  0.33654191175E+02  0.00000000000E+00 0.  1.
</event>
<event>
 5    1  0.1692178E-003  0.9118800E+02  0.7818608E-02  0.1130116E+00
         25   -1    0    0    0    0  0.00000000000E+00  0.00000000000E+00  0.99999998245E-14  0.12500000000E+03  0.12500000000E+03 0.  0.
        -11    1    3    3    0    0 -0.34025717011E+02 -0.55680872207E+01  0.18478071582E+02  0.39117670471E+02  0.51100000000E-03 0.  1.
         23    2    1    0    0    0  0.16367476416E+00 -0.11065030216E+02 -0.26733312634E+02  0.96066771914E+02  0.91606184172E+02 0.  0.
         11    1    3    3    0    0  0.34189391775E+02 -0.54969429953E+01 -0.45211384216E+02  0.56949101443E+02  0.51100000000E-03 0. -1.
         22    1    1    0    0    0 -0.16367476416E+00  0.11065030216E+02  0.26733312634E+02  0.28933228086E+02  0.00000000000E+00 0. -1.
</event>
<event>
 5    1  0.1692178E-003  0.9118800E+02  0.7818608E-02  0.1130116E+00
         25   -1    0    0    0    0  0.00000000000E+00  0.00000000000E+00  0.99999998245E-14  0.12500000000E+03  0.12500000000E+03 0.  0.
        -11    1    3    3    0    0 -0.36383621127E+02 -0.70692543323E+01  0.50121220290E+02  0.62336818709E+02  0.51100000000E-03 0. -1.
         23    2    1    0    0    0 -0.18923342933E+02 -0.45803185114E+01  0.21160707091E+02  0.96245039558E+02  0.91849114800E+02 0.  0.
         11    1    3    3    0    0  0.17460278194E+02  0.24889358209E+01 -0.28960513200E+02  0.33908220850E+02  0.51100000000E-03 0.  1.
         22    1    1    0    0    0  0.18923342933E+02  0.45803185114E+01 -0.21160707091E+02  0.28754960442E+02  0.00000000000E+00 0. -1.
</event>
<event>
 5    1  0.1692178E-003  0.9118800E+02  0.7818608E-02  0.1130116E+00
         25   -1    0    0    0    0  0.00000000000E+00  0.00000000000E+00  0.99999998245E-14  0.12500000000E+03  0.12500000000E+03 0.  0.
        -11    1    3    3    0    0 -0.41055813144E+02  0.11716557115E+02 -0.29279365459E+02  0.51770056456E+02  0.51100000000E-03 0.  1.
         23    2    1    0    0    0 -0.46614019524E+01  0.26334931127E+02 -0.53142554245E+01  0.97732829697E+02  0.93852050719E+02 0.  0.
         11    1    3    3    0    0  0.36394411192E+02  0.14618374012E+02  0.23965110034E+02  0.45962773241E+02  0.51100000000E-03 0. -1.
         22    1    1    0    0    0  0.46614019524E+01 -0.26334931127E+02  0.53142554245E+01  0.27267170303E+02  0.00000000000E+00 0. -1.
</event>
<event>
 5    1  0.1692178E-003  0.9118800E+02  0.7818608E-02  0.1130116E+00
         25   -1    0    0    0    0  0.00000000000E+00  0.00000000000E+00  0.99999998245E-14  0.12500000000E+03  0.12500000000E+03 0.  0.
        -11    1    3    3    0    0 -0.37337994813E+02 -0.16606867546E+02 -0.45471147719E+02  0.61135416752E+02  0.51100000000E-03 0.  1.
         23    2    1    0    0    0 -0.22667553811E+02 -0.38021949413E-01 -0.21546330602E+02  0.93725988363E+02  0.88354383541E+02 0.  0.
         11    1    3    3    0    0  0.14670441002E+02  0.16568845596E+02  0.23924817117E+02  0.32590571611E+02  0.51100000000E-03 0. -1.
         22    1    1    0    0    0  0.22667553811E+02  0.38021949413E-01  0.21546330602E+02  0.31274011637E+02  0.00000000000E+00 0.  1.
</event>
<event>
 5    1  0.1692178E-003  0.9118800E+02  0.7818608E-02  0.1130116E+00
         25   -1    0    0    0    0  0.00000000000E+00  0.00000000000E+00  0.99999998245E-14  0.12500000000E+03  0.12500000000E+03 0.  0.
        -11    1    3    3    0    0 -0.11503569736E+02  0.14013754819E+02 -0.53129194356E+02  0.56137587533E+02  0.51100000000E-03 0. -1.
         23    2    1    0    0    0 -0.22444087296E+02 -0.22561788585E+01 -0.18957027609E+02  0.95534829147E+02  0.90877430019E+02 0.  0.
         11    1    3    3    0    0 -0.10940517561E+02 -0.16269933678E+02  0.34172166747E+02  0.39397241614E+02  0.51100000000E-03 0.  1.
         22    1    1    0    0    0  0.22444087296E+02  0.22561788585E+01  0.18957027609E+02  0.29465170853E+02  0.00000000000E+00 0. -1.
</event>
<event>
 5    1  0.1692178E-003  0.9118800E+02  0.7818608E-02  0.1130116E+00
         25   -1    0    0    0    0  0.00000000000E+00  0.00000000000E+00  0.99999998245E-14  0.12500000000E+03  0.12500000000E+03 0.  0.
        -11    1    3    3    0    0  0.11775104671E+02  0.54773994653E+02 -0.72598849913E+01  0.56493800639E+02  0.51100000000E-03 0. -1.
         23    2    1    0    0    0  0.10445466948E+02  0.18062861242E+02 -0.20698070366E+02  0.95609783041E+02  0.90980469114E+02 0.  0.
         11    1    3    3    0    0 -0.13296377234E+01 -0.36711133411E+02 -0.13438185375E+02  0.39115982402E+02  0.51100000000E-03 0.  1.
         22    1    1    0    0    0 -0.10445466948E+02 -0.18062861242E+02  0.20698070366E+02  0.29390216959E+02  0.00000000000E+00 0. -1.
</event>
<event>
 5    1  0.1692178E-003  0.9118800E+02  0.7818608E-02  0.1130116E+00
         25   -1    0    0    0    0  0.00000000000E+00  0.00000000000E+00  0.99999998245E-14  0.12500000000E+03  0.12500000000E+03 0.  0.
        -11    1    3    3    0    0 -0.25635032322E+02 -0.11802527485E+02  0.31334689286E+02  0.42170099479E+02  0.51100000000E-03 0.  1.
         23    2    1    0    0    0  0.21095587565E+02 -0.16421214684E+02  0.66217729400E+00  0.98258298761E+02  0.94549324113E+02 0.  0.
         11    1    3    3    0    0  0.46730619887E+02 -0.46186871988E+01 -0.30672511992E+02  0.56088199281E+02  0.51100000000E-03 0. -1.
         22    1    1    0    0    0 -0.21095587565E+02  0.16421214684E+02 -0.66217729400E+00  0.26741701239E+02  0.00000000000E+00 0. -1.
</event>
<event>
 5    1  0.1692178E-003  0.9118800E+02  0.7818608E-02  0.1130116E+00
         25   -1    0    0    0    0  0.00000000000E+00  0.00000000000E+00  0.99999998245E-14  0.12500000000E+03  0.12500000000E+03 0.  0.
        -11    1    3    3    0    0 -0.22609949943E+02  0.56713262698E+02  0.57754498197E+01  0.61326664863E+02  0.51100000000E-03 0.  1.
         23    2    1    0    0    0 -0.53830749183E+01  0.26530425691E+02  0.95722757328E+01  0.96286424019E+02  0.91905418800E+02 0.  0.
         11    1    3    3    0    0  0.17226875025E+02 -0.30182837008E+02  0.37968259131E+01  0.34959759156E+02  0.51100000000E-03 0. -1.
         22    1    1    0    0    0  0.53830749183E+01 -0.26530425691E+02 -0.95722757328E+01  0.28713575981E+02  0.00000000000E+00 0.  1.
</event>
<event>
 5    1  0.1692178E-003  0.9118800E+02  0.7818608E-02  0.1130116E+00
         25   -1    0    0    0    0  0.00000000000E+00  0.00000000000E+00  0.99999998245E-14  0.12500000000E+03  0.12500000000E+03 0.  0.
        -11    1    3    3    0    0 -0.23627933067E+02 -0.18516723352E+02 -0.11834499155E+02  0.32267687168E+02  0.51100000000E-03 0. -1.
         23    2    1    0    0    0  0.16001558794E+02  0.20234234528E+02  0.16359518542E+02  0.94453183837E+02  0.89377267575E+02 0.  0.
         11    1    3    3    0    0  0.39629491861E+02  0.38750957880E+02  0.28194017697E+02  0.62185496668E+02  0.51100000000E-03 0.  1.
         22    1    1    0    0    0 -0.16001558794E+02 -0.20234234528E+02 -0.16359518542E+02  0.30546816163E+02  0.00000000000E+00 0.  1.
</event>
<event>
 5    1  0.1692178E-003  0.9118800E+02  0.7818608E-02  0.1130116E+00
         25   -1    0    0    0    0  0.00000000000E+00  0.00000000000E+00  0.99999998245E-14  0.12500000000E+03  0.12500000000E+03 0.  0.
        -11    1    3    3    0    0  0.23829702064E+02  0.63479470777E+01 -0.35277203095E+01  0.24911763154E+02  0.51100000000E-03 0. -1.
         23    2    1    0    0    0 -0.15869191333E+02 -0.26286298747E+02 -0.29436523279E+02  0.82464019488E+02  0.70647044325E+02 0.  0.
         11    1    3    3    0    0 -0.39698893397E+02 -0.32634245825E+02 -0.25908802969E+02  0.57552256334E+02  0.51100000000E-03 0.  1.
         22    1    1    0    0    0  0.15869191333E+02  0.26286298747E+02  0.29436523279E+02  0.42535980512E+02  0.00000000000E+00 0.  1.
</event>
<event>
 5    1  0.1692178E-003  0.9118800E+02  0.7818608E-02  0.1130116E+00
         25   -1    0    0    0    0  0.00000000000E+00  0.00000000000E+00  0.99999998245E-14  0.12500000000E+03  0.12500000000E+03 0.  0.
        -11    1    3    3    0    0  0.12909319049E+02  0.94022690233E+01 -0.53662543869E+02  0.55988586300E+02  0.51100000000E-03 0.  1.
         23    2    1    0    0    0 -0.23581441655E+01  0.22677758416E+02 -0.32836412508E+02  0.85024112804E+02  0.75040177245E+02 0.  0.
         11    1    3    3    0    0 -0.15267463215E+02  0.13275489393E+02  0.20826131361E+02  0.29035526504E+02  0.51100000000E-03 0. -1.
         22    1    1    0    0    0  0.23581441655E+01 -0.22677758416E+02  0.32836412508E+02  0.39975887196E+02  0.00000000000E+00 0.  1.
</event>
<event>
 5    1  0.1692178E-003  0.9118800E+02  0.7818608E-02  0.1130116E+00
         25   -1    0    0    0    0  0.00000000000E+00  0.00000000000E+00  0.99999998245E-14  0.12500000000E+03  0.12500000000E+03 0.  0.
        -11    1    3    3    0    0  0.46517620203E+01  0.19387637377E+02  0.57208682126E+02  0.60583435722E+02  0.51100000000E-03 0. -1.
         23    2    1    0    0    0  0.43102170641E+01 -0.13993859409E+01  0.29122795718E+02  0.95526732747E+02  0.90866292907E+02 0.  0.
         11    1    3    3    0    0 -0.34154495621E+00 -0.20787023318E+02 -0.28085886408E+02  0.34943297025E+02  0.51100000000E-03 0.  1.
         22    1    1    0    0    0 -0.43102170641E+01  0.13993859409E+01 -0.29122795718E+02  0.29473267253E+02  0.00000000000E+00 0. -1.
</event>
<event>
 5    1  0.1692178E-003  0.9118800E+02  0.7818608E-02  0.1130116E+00
         25   -1    0    0    0    0  0.00000000000E+00  0.00000000000E+00  0.99999998245E-14  0.12500000000E+03  0.12500000000E+03 0.  0.
        -11    1    3    3    0    0  0.18956019101E+02 -0.24439072980E+02  0.16099132646E+02  0.34868051573E+02  0.51100000000E-03 0. -1.
         23    2    1    0    0    0 -0.19303273729E+01  0.23927420087E+02 -0.15617218721E+02  0.96361824144E+02  0.92007912898E+02 0.  0.
         11    1    3    3    0    0 -0.20886346474E+02  0.48366493067E+02 -0.31716351367E+02  0.61493772571E+02  0.51100000000E-03 0.  1.
         22    1    1    0    0    0  0.19303273729E+01 -0.23927420087E+02  0.15617218721E+02  0.28638175856E+02  0.00000000000E+00 0.  1.
</event>
<event>
 5    1  0.1692178E-003  0.9118800E+02  0.7818608E-02  0.1130116E+00
         25   -1    0    0    0    0  0.00000000000E+00  0.00000000000E+00  0.99999998245E-14  0.12500000000E+03  0.12500000000E+03 0.  0.
        -11    1    3    3    0    0  0.46223098417E+02  0.23340450515E+02 -0.28253284812E+02  0.58988130674E+02  0.51100000000E-03 0.  1.
         23    2    1    0    0    0  0.23552229584E+02  0.17524676759E+02 -0.43355575063E-01  0.95643166152E+02  0.91026323325E+02 0.  0.
         11    1    3    3    0    0 -0.22670868833E+02 -0.58157737567E+01  0.28209929237E+02  0.36655035478E+02  0.51100000000E-03 0. -1.
         22    1    1    0    0    0 -0.23552229584E+02 -0.17524676759E+02  0.43355575063E-01  0.29356833848E+02  0.00000000000E+00 0.  1.
</event>
<event>
 5    1  0.1692178E-003  0.9118800E+02  0.7818608E-02  0.1130116E+00
         25   -1    0    0    0    0  0.00000000000E+00  0.00000000000E+00  0.99999998245E-14  0.12500000000E+03  0.12500000000E+03 0.  0.
        -11    1    3    3    0    0  0.31782809963E+02 -0.16132993563E+00 -0.14568900560E+02  0.34963207809E+02  0.51100000000E-03 0.  1.
         23    2    1    0    0    0 -0.26695535316E+02  0.11476870005E+02 -0.73737395912E+01  0.95020970888E+02  0.90167858587E+02 0.  0.
         11    1    3    3    0    0 -0.58478345279E+02  0.11638199941E+02  0.71951609686E+01  0.60057763079E+02  0.51100000000E-03 0. -1.
         22    1    1    0    0    0  0.26695535316E+02 -0.11476870005E+02  0.73737395912E+01  0.29979029112E+02  0.00000000000E+00 0. -1.
</event>
<event>
 5    1  0.1692178E-003  0.9118800E+02  0.7818608E-02  0.1130116E+00
         25   -1    0    0    0    0  0.00000000000E+00  0.00000000000E+00  0.99999998245E-14  0.12500000000E+03  0.12500000000E+03 0.  0.
        -11    1    3    3    0    0 -0.37597994732E+02 -0.80813110184E+00  0.42206929060E+02  0.56530409026E+02  0.51100000000E-03 0.  1.
         23    2    1    0    0    0 -0.21434964264E+02 -0.16994112898E+02  0.10340896692E+02  0.95756338968E+02  0.91181603089E+02 0.  0.
         11    1    3    3    0    0  0.16163030468E+02 -0.16185981796E+02 -0.31866032368E+02  0.39225929942E+02  0.51100000000E-03 0. -1.
         22    1    1    0    0    0  0.21434964264E+02  0.16994112898E+02 -0.10340896692E+02  0.29243661032E+02  0.00000000000E+00 0.  1.
</event>
<event>
 5    1  0.1692178E-003  0.9118800E+02  0.7818608E-02  0.1130116E+00
         25   -1    0    0    0    0  0.00000000000E+00  0.00000000000E+00  0.99999998245E-14  0.12500000000E+03  0.12500000000E+03 0.  0.
        -11    1    3    3    0    0 -0.19828410167E+01 -0.66198785227E+01  0.39111619261E+02  0.39717416981E+02  0.51100000000E-03 0.  1.
         23    2    1    0    0    0  0.19494882570E+02  0.19187497200E+02 -0.70069825307E+01  0.96763351838E+02  0.92551812298E+02 0.  0.
         11    1    3    3    0    0  0.21477723586E+02  0.25807375723E+02 -0.46118601792E+02  0.57045934857E+02  0.51100000000E-03 0. -1.
         22    1    1    0    0    0 -0.19494882570E+02 -0.19187497200E+02  0.70069825307E+01  0.28236648162E+02  0.00000000000E+00 0. -1.
</event>
<event>
 5    1  0.1692178E-003  0.9118800E+02  0.7818608E-02  0.1130116E+00
         25   -1    0    0    0    0  0.00000000000E+00  0.00000000000E+00  0.99999998245E-14  0.12500000000E+03  0.12500000000E+03 0.  0.
        -11    1    3    3    0    0 -0.33825246786E+02 -0.94246650099E+01  0.13992743018E+02  0.37799054064E+02  0.51100000000E-03 0.  1.
         23    2    1    0    0    0  0.19207750122E+01  0.20706715126E+02 -0.20423810346E+02  0.95852282131E+02  0.91313035940E+02 0.  0.
         11    1    3    3    0    0  0.35746021798E+02  0.30131380136E+02 -0.34416553364E+02  0.58053228067E+02  0.51100000000E-03 0. -1.
         22    1    1    0    0    0 -0.19207750122E+01 -0.20706715126E+02  0.20423810346E+02  0.29147717869E+02  0.00000000000E+00 0. -1.
</event>
<event>
 5    1  0.1692178E-003  0.9118800E+02  0.7818608E-02  0.1130116E+00
         25   -1    0    0    0    0  0.00000000000E+00  0.00000000000E+00  0.99999998245E-14  0.12500000000E+03  0.12500000000E+03 0.  0.
        -11    1    3    3    0    0 -0.17658954968E+00  0.49595694925E+02  0.35031015934E+02  0.60720146711E+02  0.51100000000E-03 0. -1.
         23    2    1    0    0    0  0.46929786532E+01  0.27311369641E+02  0.78624632557E+01  0.96194561473E+02  0.91780392068E+02 0.  0.
         11    1    3    3    0    0  0.48695682029E+01 -0.22284325284E+02 -0.27168552678E+02  0.35474414762E+02  0.51100000000E-03 0.  1.
         22    1    1    0    0    0 -0.46929786532E+01 -0.27311369641E+02 -0.78624632557E+01  0.28805438527E+02  0.00000000000E+00 0.  1.
</event>
<event>
 5    1  0.1692178E-003  0.9118800E+02  0.7818608E-02  0.1130116E+00
         25   -1    0    0    0    0  0.00000000000E+00  0.00000000000E+00  0.99999998245E-14  0.12500000000E+03  0.12500000000E+03 0.  0.
        -11    1    3    3    0    0 -0.36689657135E+02  0.82451866380E+01 -0.23663862486E+02  0.44430759969E+02  0.51100000000E-03 0.  1.
         23    2    1    0    0    0 -0.15249931272E+02  0.54418518342E+01  0.23584883982E+02  0.96391943309E+02  0.92048823063E+02 0.  0.
         11    1    3    3    0    0  0.21439725863E+02 -0.28033348038E+01  0.47248746468E+02  0.51961183340E+02  0.51100000000E-03 0. -1.
         22    1    1    0    0    0  0.15249931272E+02 -0.54418518342E+01 -0.23584883982E+02  0.28608056691E+02  0.00000000000E+00 0. -1.
</event>
<event>
 5    1  0.1692178E-003  0.9118800E+02  0.7818608E-02  0.1130116E+00
         25   -1    0    0    0    0  0.00000000000E+00  0.00000000000E+00  0.99999998245E-14  0.12500000000E+03  0.12500000000E+03 0.  0.
        -11    1    3    3    0    0 -0.41833599678E+02 -0.17748298335E+02  0.41463399122E+02  0.61516384995E+02  0.51100000000E-03 0. -1.
         23    2    1    0    0    0 -0.22007866721E+02 -0.12414748649E+02  0.13078444265E+02  0.96547972198E+02  0.92260463090E+02 0.  0.
         11    1    3    3    0    0  0.19825732957E+02  0.53335496859E+01 -0.28384954857E+02  0.35031587204E+02  0.51100000000E-03 0.  1.
         22    1    1    0    0    0  0.22007866721E+02  0.12414748649E+02 -0.13078444265E+02  0.28452027802E+02  0.00000000000E+00 0. -1.
</event>
<event>
 5    1  0.1692178E-003  0.9118800E+02  0.7818608E-02  0.1130116E+00
         25   -1    0    0    0    0  0.00000000000E+00  0.00000000000E+00  0.99999998245E-14  0.12500000000E+03  0.12500000000E+03 0.  0.
        -11    1    3    3    0    0 -0.27866113348E+02 -0.32583381098E+02  0.41671937505E+02  0.59789191101E+02  0.51100000000E-03 0.  1.
         23    2    1    0    0    0 -0.10268239381E+02 -0.45411221780E+01  0.26525500439E+02  0.96196168585E+02  0.91782580844E+02 0.  0.
         11    1    3    3    0    0  0.17597873967E+02  0.28042258919E+02 -0.15146437066E+02  0.36406977484E+02  0.51100000000E-03 0. -1.
         22    1    1    0    0    0  0.10268239381E+02  0.45411221780E+01 -0.26525500439E+02  0.28803831415E+02  0.00000000000E+00 0.  1.
</event>
<event>
 5    1  0.1692178E-003  0.9118800E+02  0.7818608E-02  0.1130116E+00
         25   -1    0    0    0    0  0.00000000000E+00  0.00000000000E+00  0.99999998245E-14  0.12500000000E+03  0.12500000000E+03 0.  0.
        -11    1    3    3    0    0 -0.10058130323E+02  0.22649377554E+02 -0.21158562211E+02  0.32585963915E+02  0.51100000000E-03 0. -1.
         23    2    1    0    0    0  0.19524119351E+02  0.29466981040E+02  0.20503965034E+02  0.84135506975E+02  0.73545066074E+02 0.  0.
         11    1    3    3    0    0  0.29582249674E+02  0.68176034856E+01  0.41662527245E+02  0.51549543060E+02  0.51100000000E-03 0.  1.
         22    1    1    0    0    0 -0.19524119351E+02 -0.29466981040E+02 -0.20503965034E+02  0.40864493025E+02  0.00000000000E+00 0.  1.
</event>
<event>
 5    1  0.1692178E-003  0.9118800E+02  0.7818608E-02  0.1130116E+00
         25   -1    0    0    0    0  0.00000000000E+00  0.00000000000E+00  0.99999998245E-14  0.12500000000E+03  0.12500000000E+03 0.  0.
        -11    1    3    3    0    0 -0.31646890642E+02 -0.14719102145E+02  0.49831389602E+02  0.60838680502E+02  0.51100000000E-03 0.  1.
         23    2    1    0    0    0 -0.97997302308E+01  0.73451215637E+00  0.27841942648E+02  0.95474621236E+02  0.90794577531E+02 0.  0.
         11    1    3    3    0    0  0.21847160411E+02  0.15453614301E+02 -0.21989446954E+02  0.34635940735E+02  0.51100000000E-03 0. -1.
         22    1    1    0    0    0  0.97997302308E+01 -0.73451215637E+00 -0.27841942648E+02  0.29525378764E+02  0.00000000000E+00 0.  1.
</event>
<event>
 5    1  0.1692178E-003  0.9118800E+02  0.7818608E-02  0.1130116E+00
         25   -1    0    0    0    0  0.00000000000E+00  0.00000000000E+00  0.99999998245E-14  0.12500000000E+03  0.12500000000E+03 0.  0.
        -11    1    3    3    0    0 -0.18733717134E+02 -0.29687294425E+02 -0.48201720620E+02  0.59629635911E+02  0.51100000000E-03 0. -1.
         23    2    1    0    0    0 -0.42833015758E+01 -0.25163898570E+02 -0.16942405012E+02  0.94363199397E+02  0.89251329678E+02 0.  0.
         11    1    3    3    0    0  0.14450415558E+02  0.45233958556E+01  0.31259315608E+02  0.34733563486E+02  0.51100000000E-03 0.  1.
         22    1    1    0    0    0  0.42833015758E+01  0.25163898570E+02  0.16942405012E+02  0.30636800603E+02  0.00000000000E+00 0. -1.
</event>
<event>
 5    1  0.1692178E-003  0.9118800E+02  0.7818608E-02  0.1130116E+00
         25   -1    0    0    0    0  0.00000000000E+00  0.00000000000E+00  0.99999998245E-14  0.12500000000E+03  0.12500000000E+03 0.  0.
        -11    1    3    3    0    0 -0.54706593445E+02  0.19703316350E+02  0.21928072410E+02  0.62143965124E+02  0.51100000000E-03 0.  1.
         23    2    1    0    0    0 -0.27434670962E+02  0.50796588498E+01  0.89721118530E+01  0.95691931215E+02  0.91093264316E+02 0.  0.
         11    1    3    3    0    0  0.27271922483E+02 -0.14623657500E+02 -0.12955960557E+02  0.33547966091E+02  0.51100000000E-03 0. -1.
         22    1    1    0    0    0  0.27434670962E+02 -0.50796588498E+01 -0.89721118530E+01  0.29308068785E+02  0.00000000000E+00 0.  1.
</event>
<event>
 5    1  0.1692178E-003  0.9118800E+02  0.7818608E-02  0.1130116E+00
         25   -1    0    0    0    0  0.00000000000E+00  0.00000000000E+00  0.99999998245E-14  0.12500000000E+03  0.12500000000E+03 0.  0.
        -11    1    3    3    0    0 -0.54170458077E+02  0.17255666454E+02 -0.10991064921E+02  0.57905095297E+02  0.51100000000E-03 0. -1.
         23    2    1    0    0    0 -0.27894082490E+02  0.11282726209E+01  0.10157874932E+02  0.95292504983E+02  0.90543504713E+02 0.  0.
         11    1    3    3    0    0  0.26276375586E+02 -0.16127393833E+02  0.21148939853E+02  0.37387409685E+02  0.51100000000E-03 0.  1.
         22    1    1    0    0    0  0.27894082490E+02 -0.11282726209E+01 -0.10157874932E+02  0.29707495017E+02  0.00000000000E+00 0. -1.
</event>
<event>
 5    1  0.1692178E-003  0.9118800E+02  0.7818608E-02  0.1130116E+00
         25   -1    0    0    0    0  0.00000000000E+00  0.00000000000E+00  0.99999998245E-14  0.12500000000E+03  0.12500000000E+03 0.  0.
        -11    1    3    3    0    0  0.17254311058E+02  0.46583889136E+02 -0.10221692366E+02  0.50717383334E+02  0.51100000000E-03 0.  1.
         23    2    1    0    0    0  0.91806172642E+01  0.66712057544E+01 -0.27726066308E+02  0.95041303892E+02  0.90196041892E+02 0.  0.
         11    1    3    3    0    0 -0.80736937942E+01 -0.39912683382E+02 -0.17504373942E+02  0.44323920558E+02  0.51100000000E-03 0. -1.
         22    1    1    0    0    0 -0.91806172642E+01 -0.66712057544E+01  0.27726066308E+02  0.29958696108E+02  0.00000000000E+00 0.  1.
</event>
<event>
 5    1  0.1692178E-003  0.9118800E+02  0.7818608E-02  0.1130116E+00
         25   -1    0    0    0    0  0.00000000000E+00  0.00000000000E+00  0.99999998245E-14  0.12500000000E+03  0.12500000000E+03 0.  0.
        -11    1    3    3    0    0  0.40138863241E+02 -0.92519242715E+00 -0.34580445735E+01  0.40298168642E+02  0.51100000000E-03 0.  1.
         23    2    1    0    0    0 -0.10422796353E+02  0.77684339195E+01 -0.25687417520E+02  0.96210650091E+02  0.91802301293E+02 0.  0.
         11    1    3    3    0    0 -0.50561659594E+02  0.86936263467E+01 -0.22229372946E+02  0.55912481449E+02  0.51100000000E-03 0. -1.
         22    1    1    0    0    0  0.10422796353E+02 -0.77684339195E+01  0.25687417520E+02  0.28789349909E+02  0.00000000000E+00 0. -1.
</event>
<event>
 5    1  0.1692178E-003  0.9118800E+02  0.7818608E-02  0.1130116E+00
         25   -1    0    0    0    0  0.00000000000E+00  0.00000000000E+00  0.99999998245E-14  0.12500000000E+03  0.12500000000E+03 0.  0.
        -11    1    3    3    0    0 -0.34846033604E+02  0.62077970176E+01 -0.12965727176E+02  0.37694732831E+02  0.51100000000E-03 0.  1.
         23    2    1    0    0    0  0.57238819746E+01  0.29236093816E+01  0.28491241352E+02  0.95792789410E+02  0.91231558972E+02 0.  0.
         11    1    3    3    0    0  0.40569915578E+02 -0.32841876360E+01  0.41456968528E+02  0.58098056579E+02  0.51100000000E-03 0. -1.
         22    1    1    0    0    0 -0.57238819746E+01 -0.29236093816E+01 -0.28491241352E+02  0.29207210590E+02  0.00000000000E+00 0. -1.
</event>
<event>
 5    1  0.1692178E-003  0.9118800E+02  0.7818608E-02  0.1130116E+00
         25   -1    0    0    0    0  0.00000000000E+00  0.00000000000E+00  0.99999998245E-14  0.12500000000E+03  0.12500000000E+03 0.  0.
        -11    1    3    3    0    0 -0.17349088898E+01  0.12487259592E+02  0.44212923132E+02  0.45975255661E+02  0.51100000000E-03 0. -1.
         23    2    1    0    0    0 -0.26215682897E+02 -0.10215919964E+02  0.69291531085E+01  0.96023454084E+02  0.91547056320E+02 0.  0.
         11    1    3    3    0    0 -0.24480774007E+02 -0.22703179555E+02 -0.37283770024E+02  0.50048198422E+02  0.51100000000E-03 0.  1.
         22    1    1    0    0    0  0.26215682897E+02  0.10215919964E+02 -0.69291531085E+01  0.28976545916E+02  0.00000000000E+00 0.  1.
</event>
<event>
 5    1  0.1692178E-003  0.9118800E+02  0.7818608E-02  0.1130116E+00
         25   -1    0    0    0    0  0.00000000000E+00  0.00000000000E+00  0.99999998245E-14  0.12500000000E+03  0.12500000000E+03 0.  0.
        -11    1    3    3    0    0  0.21437490941E+02  0.45941060828E+02  0.10187455291E+02  0.51710069942E+02  0.51100000000E-03 0. -1.
         23    2    1    0    0    0 -0.30414118359E+01  0.85983450740E+01  0.24707862335E+02  0.98662570643E+02  0.95082294149E+02 0.  0.
         11    1    3    3    0    0 -0.24478902777E+02 -0.37342715754E+02  0.14520407044E+02  0.46952500701E+02  0.51100000000E-03 0.  1.
         22    1    1    0    0    0  0.30414118359E+01 -0.85983450740E+01 -0.24707862335E+02  0.26337429357E+02  0.00000000000E+00 0. -1.
</event>
<event>
 5    1  0.1692178E-003  0.9118800E+02  0.7818608E-02  0.1130116E+00
         25   -1    0    0    0    0  0.00000000000E+00  0.00000000000E+00  0.99999998245E-14  0.12500000000E+03  0.12500000000E+03 0.  0.
        -11    1    3    3    0    0  0.59305291559E+02 -0.13469031037E+02 -0.13187937377E+02  0.62229045441E+02  0.51100000000E-03 0.  1.
         23    2    1    0    0    0  0.26907481693E+02 -0.80426277709E+01 -0.98135466347E+01  0.95251014638E+02  0.90486207012E+02 0.  0.
         11    1    3    3    0    0 -0.32397809866E+02  0.54264032660E+01  0.33743907426E+01  0.33021969197E+02  0.51100000000E-03 0. -1.
         22    1    1    0    0    0 -0.26907481693E+02  0.80426277709E+01  0.98135466347E+01  0.29748985362E+02  0.00000000000E+00 0.  1.
</event>
<event>
 5    1  0.1692178E-003  0.9118800E+02  0.7818608E-02  0.1130116E+00
         25   -1    0    0    0    0  0.00000000000E+00  0.00000000000E+00  0.99999998245E-14  0.12500000000E+03  0.12500000000E+03 0.  0.
        -11    1    3    3    0    0 -0.31297581989E+02  0.69803130203E+01  0.76229307195E+00  0.32075605984E+02  0.51100000000E-03 0. -1.
         23    2    1    0    0    0 -0.42634465106E+01 -0.16510489276E+02 -0.37085268762E+02  0.84182229465E+02  0.73624434574E+02 0.  0.
         11    1    3    3    0    0  0.27034135479E+02 -0.23490802296E+02 -0.37847561834E+02  0.52106623481E+02  0.51100000000E-03 0.  1.
         22    1    1    0    0    0  0.42634465106E+01  0.16510489276E+02  0.37085268762E+02  0.40817770535E+02  0.00000000000E+00 0. -1.
</event>
<event>
 5    1  0.1692178E-003  0.9118800E+02  0.7818608E-02  0.1130116E+00
         25   -1    0    0    0    0  0.00000000000E+00  0.00000000000E+00  0.99999998245E-14  0.12500000000E+03  0.12500000000E+03 0.  0.
        -11    1    3    3    0    0  0.26090917609E+02 -0.11932572268E+02 -0.20888732162E+02  0.35488891138E+02  0.51100000000E-03 0.  1.
         23    2    1    0    0    0 -0.28509848516E+02  0.65025878134E+01 -0.44121068066E+01  0.95427008992E+02  0.90729004448E+02 0.  0.
         11    1    3    3    0    0 -0.54600766124E+02  0.18435160082E+02  0.16476625355E+02  0.59938117855E+02  0.51100000000E-03 0. -1.
         22    1    1    0    0    0  0.28509848516E+02 -0.65025878134E+01  0.44121068066E+01  0.29572991008E+02  0.00000000000E+00 0. -1.
</event>
<event>
 5    1  0.1692178E-003  0.9118800E+02  0.7818608E-02  0.1130116E+00
         25   -1    0    0    0    0  0.00000000000E+00  0.00000000000E+00  0.99999998245E-14  0.12500000000E+03  0.12500000000E+03 0.  0.
        -11    1    3    3    0    0  0.16555927301E+02  0.37722562765E+02  0.16326646840E+02  0.44313089123E+02  0.51100000000E-03 0.  1.
         23    2    1    0    0    0 -0.21201135866E+02  0.44668899816E+01  0.20977732789E+02  0.94841973853E+02  0.89919372013E+02 0.  0.
         11    1    3    3    0    0 -0.37757063166E+02 -0.33255672784E+02  0.46510859490E+01  0.50528884729E+02  0.51100000000E-03 0. -1.
         22    1    1    0    0    0  0.21201135866E+02 -0.44668899816E+01 -0.20977732789E+02  0.30158026147E+02  0.00000000000E+00 0.  1.
</event>
<event>
 5    1  0.1692178E-003  0.9118800E+02  0.7818608E-02  0.1130116E+00
         25   -1    0    0    0    0  0.00000000000E+00  0.00000000000E+00  0.99999998245E-14  0.12500000000E+03  0.12500000000E+03 0.  0.
        -11    1    3    3    0    0  0.31722136751E+02 -0.26804857051E+02 -0.28829954743E+02  0.50556509100E+02  0.51100000000E-03 0.  1.
         23    2    1    0    0    0 -0.16914242726E+01  0.43460425162E+01 -0.28378626538E+02  0.96240732871E+02  0.91843253523E+02 0.  0.
         11    1    3    3    0    0 -0.33413561024E+02  0.31150899568E+02  0.45132820517E+00  0.45684223771E+02  0.51100000000E-03 0. -1.
         22    1    1    0    0    0  0.16914242726E+01 -0.43460425162E+01  0.28378626538E+02  0.28759267129E+02  0.00000000000E+00 0.  1.
</event>
<event>
 5    1  0.1692178E-003  0.9118800E+02  0.7818608E-02  0.1130116E+00
         25   -1    0    0    0    0  0.00000000000E+00  0.00000000000E+00  0.99999998245E-14  0.12500000000E+03  0.12500000000E+03 0.  0.
        -11    1    3    3    0    0  0.15880364768E+02  0.64458953181E+01 -0.29616393498E+02  0.34217923896E+02  0.51100000000E-03 0. -1.
         23    2    1    0    0    0 -0.10352419657E+02 -0.16035220712E+02  0.21712784666E+02  0.96090729618E+02  0.91638869507E+02 0.  0.
         11    1    3    3    0    0 -0.26232784425E+02 -0.22481116031E+02  0.51329178164E+02  0.61872805722E+02  0.51100000000E-03 0.  1.
         22    1    1    0    0    0  0.10352419657E+02  0.16035220712E+02 -0.21712784666E+02  0.28909270382E+02  0.00000000000E+00 0.  1.
</event>
<event>
 5    1  0.1692178E-003  0.9118800E+02  0.7818608E-02  0.1130116E+00
         25   -1    0    0    0    0  0.00000000000E+00  0.00000000000E+00  0.99999998245E-14  0.12500000000E+03  0.12500000000E+03 0.  0.
        -11    1    3    3    0    0  0.47138553460E+02  0.17902737901E+02  0.76625163177E+01  0.51002601926E+02  0.51100000000E-03 0.  1.
         23    2    1    0    0    0  0.11329382512E+02  0.17912172547E+02 -0.19695928970E+02  0.96066793274E+02  0.91606213318E+02 0.  0.
         11    1    3    3    0    0 -0.35809170948E+02  0.94346462387E-02 -0.27358445288E+02  0.45064191348E+02  0.51100000000E-03 0. -1.
         22    1    1    0    0    0 -0.11329382512E+02 -0.17912172547E+02  0.19695928970E+02  0.28933206726E+02  0.00000000000E+00 0. -1.
</event>
<event>
 4    1  0.1692178E-003  0.9118800E+02  0.7818608E-02  0.1130116E+00
         25   -1    0    0    0    0  0.00000000000E+00  0.00000000000E+00  0.99999998245E-14  0.12500000000E+03  0.12500000000E+03 0.  0.
        -11    1    1    0    0    0 -0.54348658077E-01 -0.60100746535E+01  0.16780593761E+02  0.17824485360E+02  0.51100000000E-03 0.  1.
         11    1    1    0    0    0  0.48478916857E+02 -0.11505819567E+02 -0.23775578490E+02  0.55207494023E+02  0.51100000000E-03 0. -1.
         22    1    1    0    0    0 -0.48424568199E+02  0.17515894220E+02  0.69949847293E+01  0.51968020618E+02  0.00000000000E+00 0. -1.
</event>
<event>
 5    1  0.1692178E-003  0.9118800E+02  0.7818608E-02  0.1130116E+00
         25   -1    0    0    0    0  0.00000000000E+00  0.00000000000E+00  0.99999998245E-14  0.12500000000E+03  0.12500000000E+03 0.  0.
        -11    1    3    3    0    0  0.11984433327E+02  0.41268159550E+02  0.12896150953E+02  0.44866450099E+02  0.51100000000E-03 0.  1.
         23    2    1    0    0    0  0.45144853114E+01 -0.73811227264E+01  0.27471129003E+02  0.96198533388E+02  0.91785801445E+02 0.  0.
         11    1    3    3    0    0 -0.74699480159E+01 -0.48649282276E+02  0.14574978050E+02  0.51332083289E+02  0.51100000000E-03 0. -1.
         22    1    1    0    0    0 -0.45144853114E+01  0.73811227264E+01 -0.27471129003E+02  0.28801466612E+02  0.00000000000E+00 0.  1.
</event>
<event>
 5    1  0.1692178E-003  0.9118800E+02  0.7818608E-02  0.1130116E+00
         25   -1    0    0    0    0  0.00000000000E+00  0.00000000000E+00  0.99999998245E-14  0.12500000000E+03  0.12500000000E+03 0.  0.
        -11    1    3    3    0    0 -0.26506230908E+02 -0.47664642489E+02 -0.14515402394E+02  0.56437534739E+02  0.51100000000E-03 0.  1.
         23    2    1    0    0    0 -0.16441709602E+02 -0.20386004697E+02  0.12367305739E+02  0.96036760309E+02  0.91565223078E+02 0.  0.
         11    1    3    3    0    0  0.10064521306E+02  0.27278637792E+02  0.26882708133E+02  0.39599225570E+02  0.51100000000E-03 0. -1.
         22    1    1    0    0    0  0.16441709602E+02  0.20386004697E+02 -0.12367305739E+02  0.28963239691E+02  0.00000000000E+00 0.  1.
</event>
<event>
 5    1  0.1692178E-003  0.9118800E+02  0.7818608E-02  0.1130116E+00
         25   -1    0    0    0    0  0.00000000000E+00  0.00000000000E+00  0.99999998245E-14  0.12500000000E+03  0.12500000000E+03 0.  0.
        -11    1    3    3    0    0  0.35483073861E+02  0.13245381275E+02  0.12210787994E+02  0.39794371454E+02  0.51100000000E-03 0.  1.
         23    2    1    0    0    0  0.18829293713E+01 -0.29685963035E+02  0.58972600018E+01  0.94675430755E+02  0.89687555931E+02 0.  0.
         11    1    3    3    0    0 -0.33600144490E+02 -0.42931344311E+02 -0.63135279919E+01  0.54881059301E+02  0.51100000000E-03 0. -1.
         22    1    1    0    0    0 -0.18829293713E+01  0.29685963035E+02 -0.58972600018E+01  0.30324569245E+02  0.00000000000E+00 0. -1.
</event>
<event>
 5    1  0.1692178E-003  0.9118800E+02  0.7818608E-02  0.1130116E+00
         25   -1    0    0    0    0  0.00000000000E+00  0.00000000000E+00  0.99999998245E-14  0.12500000000E+03  0.12500000000E+03 0.  0.
        -11    1    3    3    0    0 -0.90074843623E+01 -0.12616910905E+02 -0.32847447500E+02  0.36321839475E+02  0.51100000000E-03 0. -1.
         23    2    1    0    0    0  0.23309438832E+02 -0.21095040075E+02  0.11217552229E+02  0.91620902762E+02  0.85324238587E+02 0.  0.
         11    1    3    3    0    0  0.32316923194E+02 -0.84781291700E+01  0.44064999729E+02  0.55299063286E+02  0.51100000000E-03 0.  1.
         22    1    1    0    0    0 -0.23309438832E+02  0.21095040075E+02 -0.11217552229E+02  0.33379097238E+02  0.00000000000E+00 0.  1.
</event>
<event>
 5    1  0.1692178E-003  0.9118800E+02  0.7818608E-02  0.1130116E+00
         25   -1    0    0    0    0  0.00000000000E+00  0.00000000000E+00  0.99999998245E-14  0.12500000000E+03  0.12500000000E+03 0.  0.
        -11    1    3    3    0    0  0.80198946279E+01 -0.20439951373E+02  0.36315819375E+02  0.42437590166E+02  0.51100000000E-03 0.  1.
         23    2    1    0    0    0 -0.25572171131E+02 -0.24023804890E+02  0.31617949070E+01  0.89771090213E+02  0.82569804125E+02 0.  0.
         11    1    3    3    0    0 -0.33592065759E+02 -0.35838535170E+01 -0.33154024468E+02  0.47333500047E+02  0.51100000000E-03 0. -1.
         22    1    1    0    0    0  0.25572171131E+02  0.24023804890E+02 -0.31617949070E+01  0.35228909787E+02  0.00000000000E+00 0.  1.
</event>
<event>
 5    1  0.1692178E-003  0.9118800E+02  0.7818608E-02  0.1130116E+00
         25   -1    0    0    0    0  0.00000000000E+00  0.00000000000E+00  0.99999998245E-14  0.12500000000E+03  0.12500000000E+03 0.  0.
        -11    1    3    3    0    0  0.29301510306E+02 -0.14749420927E+02 -0.63105508190E+01  0.33405792548E+02  0.51100000000E-03 0.  1.
         23    2    1    0    0    0 -0.24888957893E+02  0.13504655802E+02  0.67279196965E+01  0.95895002890E+02  0.91371498414E+02 0.  0.
         11    1    3    3    0    0 -0.54190468199E+02  0.28254076729E+02  0.13038470515E+02  0.62489210341E+02  0.51100000000E-03 0. -1.
         22    1    1    0    0    0  0.24888957893E+02 -0.13504655802E+02 -0.67279196965E+01  0.29104997110E+02  0.00000000000E+00 0. -1.
</event>
<event>
 5    1  0.1692178E-003  0.9118800E+02  0.7818608E-02  0.1130116E+00
         25   -1    0    0    0    0  0.00000000000E+00  0.00000000000E+00  0.99999998245E-14  0.12500000000E+03  0.12500000000E+03 0.  0.
        -11    1    3    3    0    0 -0.28172112862E+02  0.49754074922E+02  0.18733479462E+02  0.60167093726E+02  0.51100000000E-03 0.  1.
         23    2    1    0    0    0 -0.62456144945E+01  0.28618412010E+02  0.41800717107E+00  0.95705018580E+02  0.91111221290E+02 0.  0.
         11    1    3    3    0    0  0.21926498367E+02 -0.21135662912E+02 -0.18315472291E+02  0.35537924853E+02  0.51100000000E-03 0. -1.
         22    1    1    0    0    0  0.62456144945E+01 -0.28618412010E+02 -0.41800717107E+00  0.29294981420E+02  0.00000000000E+00 0.  1.
</event>
<event>
 5    1  0.1692178E-003  0.9118800E+02  0.7818608E-02  0.1130116E+00
         25   -1    0    0    0    0  0.00000000000E+00  0.00000000000E+00  0.99999998245E-14  0.12500000000E+03  0.12500000000E+03 0.  0.
        -11    1    3    3    0    0  0.43515438767E+02  0.14288388853E+02  0.84730304377E+01  0.46578360986E+02  0.51100000000E-03 0.  1.
         23    2    1    0    0    0  0.15652701265E+02 -0.23077824091E+02 -0.79594205910E+01  0.96000941432E+02  0.91516311978E+02 0.  0.
         11    1    3    3    0    0 -0.27862737502E+02 -0.37366212944E+02 -0.16432451029E+02  0.49422580446E+02  0.51100000000E-03 0. -1.
         22    1    1    0    0    0 -0.15652701265E+02  0.23077824091E+02  0.79594205910E+01  0.28999058568E+02  0.00000000000E+00 0.  1.
</event>
<event>
 5    1  0.1692178E-003  0.9118800E+02  0.7818608E-02  0.1130116E+00
         25   -1    0    0    0    0  0.00000000000E+00  0.00000000000E+00  0.99999998245E-14  0.12500000000E+03  0.12500000000E+03 0.  0.
        -11    1    3    3    0    0  0.19097586163E+02 -0.35591546605E+02  0.42235954445E+02  0.58441011585E+02  0.51100000000E-03 0.  1.
         23    2    1    0    0    0 -0.54984087390E+01 -0.17300340475E+02  0.26452449738E+02  0.92917818398E+02  0.87203524009E+02 0.  0.
         11    1    3    3    0    0 -0.24595994902E+02  0.18291206130E+02 -0.15783504707E+02  0.34476806813E+02  0.51100000000E-03 0. -1.
         22    1    1    0    0    0  0.54984087390E+01  0.17300340475E+02 -0.26452449738E+02  0.32082181602E+02  0.00000000000E+00 0.  1.
</event>
<event>
 5    1  0.1692178E-003  0.9118800E+02  0.7818608E-02  0.1130116E+00
         25   -1    0    0    0    0  0.00000000000E+00  0.00000000000E+00  0.99999998245E-14  0.12500000000E+03  0.12500000000E+03 0.  0.
        -11    1    3    3    0    0 -0.28481955605E+02 -0.11137924261E+01 -0.18587023262E+02  0.34028513964E+02  0.51100000000E-03 0.  1.
         23    2    1    0    0    0  0.24488569328E+02 -0.55272508614E+01  0.13880007579E+02  0.96313851074E+02  0.91942714602E+02 0.  0.
         11    1    3    3    0    0  0.52970524932E+02 -0.44134584353E+01  0.32467030841E+02  0.62285337110E+02  0.51100000000E-03 0. -1.
         22    1    1    0    0    0 -0.24488569328E+02  0.55272508614E+01 -0.13880007579E+02  0.28686148926E+02  0.00000000000E+00 0. -1.
</event>
<event>
 5    1  0.1692178E-003  0.9118800E+02  0.7818608E-02  0.1130116E+00
         25   -1    0    0    0    0  0.00000000000E+00  0.00000000000E+00  0.99999998245E-14  0.12500000000E+03  0.12500000000E+03 0.  0.
        -11    1    3    3    0    0  0.15110349773E+02 -0.20628167131E+02 -0.23624100987E+02  0.34812958753E+02  0.51100000000E-03 0. -1.
         23    2    1    0    0    0  0.14013554515E+01  0.93722217120E+01  0.27644995051E+02  0.95775898846E+02  0.91208413600E+02 0.  0.
         11    1    3    3    0    0 -0.13708994322E+02  0.30000388843E+02  0.51269096037E+02  0.60962940093E+02  0.51100000000E-03 0.  1.
         22    1    1    0    0    0 -0.14013554515E+01 -0.93722217120E+01 -0.27644995051E+02  0.29224101154E+02  0.00000000000E+00 0.  1.
</event>
<event>
 5    1  0.1692178E-003  0.9118800E+02  0.7818608E-02  0.1130116E+00
         25   -1    0    0    0    0  0.00000000000E+00  0.00000000000E+00  0.99999998245E-14  0.12500000000E+03  0.12500000000E+03 0.  0.
        -11    1    3    3    0    0  0.19011374364E+02  0.50318373101E+01  0.37991470386E+02  0.42779709726E+02  0.51100000000E-03 0. -1.
         23    2    1    0    0    0 -0.88761961897E+00  0.28995413622E+02 -0.46857497349E+01  0.95615001612E+02  0.90987638737E+02 0.  0.
         11    1    3    3    0    0 -0.19898993983E+02  0.23963576312E+02 -0.42677220121E+02  0.52835291886E+02  0.51100000000E-03 0.  1.
         22    1    1    0    0    0  0.88761961897E+00 -0.28995413622E+02  0.46857497349E+01  0.29384998388E+02  0.00000000000E+00 0.  1.
</event>
<event>
 5    1  0.1692178E-003  0.9118800E+02  0.7818608E-02  0.1130116E+00
         25   -1    0    0    0    0  0.00000000000E+00  0.00000000000E+00  0.99999998245E-14  0.12500000000E+03  0.12500000000E+03 0.  0.
        -11    1    3    3    0    0 -0.29119168891E+01  0.27375765184E+00  0.34952213299E+02  0.35074369816E+02  0.51100000000E-03 0.  1.
         23    2    1    0    0    0  0.23746106892E+02 -0.12002620594E+02 -0.16056292605E+02  0.93923561564E+02  0.88633460900E+02 0.  0.
         11    1    3    3    0    0  0.26658023781E+02 -0.12276378246E+02 -0.51008505903E+02  0.58849191749E+02  0.51100000000E-03 0. -1.
         22    1    1    0    0    0 -0.23746106892E+02  0.12002620594E+02  0.16056292605E+02  0.31076438436E+02  0.00000000000E+00 0. -1.
</event>
<event>
 5    1  0.1692178E-003  0.9118800E+02  0.7818608E-02  0.1130116E+00
         25   -1    0    0    0    0  0.00000000000E+00  0.00000000000E+00  0.99999998245E-14  0.12500000000E+03  0.12500000000E+03 0.  0.
        -11    1    3    3    0    0 -0.12912046060E+02  0.45730728924E+02 -0.13731769415E+02  0.49462935547E+02  0.51100000000E-03 0. -1.
         23    2    1    0    0    0  0.17304013296E+02  0.11751340286E+02 -0.20825011946E+02  0.95483834984E+02  0.90807261527E+02 0.  0.
         11    1    3    3    0    0  0.30216059356E+02 -0.33979388637E+02 -0.70932425316E+01  0.46020899438E+02  0.51100000000E-03 0.  1.
         22    1    1    0    0    0 -0.17304013296E+02 -0.11751340286E+02  0.20825011946E+02  0.29516165016E+02  0.00000000000E+00 0. -1.
</event>
<event>
 5    1  0.1692178E-003  0.9118800E+02  0.7818608E-02  0.1130116E+00
         25   -1    0    0    0    0  0.00000000000E+00  0.00000000000E+00  0.99999998245E-14  0.12500000000E+03  0.12500000000E+03 0.  0.
        -11    1    3    3    0    0 -0.15843163779E+02 -0.43632799948E+02  0.19309889129E+02  0.50276225875E+02  0.51100000000E-03 0.  1.
         23    2    1    0    0    0 -0.31153735696E+02 -0.66034818223E+01  0.53515012091E+01  0.92707589356E+02  0.86901653258E+02 0.  0.
         11    1    3    3    0    0 -0.15310571917E+02  0.37029318125E+02 -0.13958387920E+02  0.42431363481E+02  0.51100000000E-03 0. -1.
         22    1    1    0    0    0  0.31153735696E+02  0.66034818223E+01 -0.53515012091E+01  0.32292410644E+02  0.00000000000E+00 0.  1.
</event>
<event>
 5    1  0.1692178E-003  0.9118800E+02  0.7818608E-02  0.1130116E+00
         25   -1    0    0    0    0  0.00000000000E+00  0.00000000000E+00  0.99999998245E-14  0.12500000000E+03  0.12500000000E+03 0.  0.
        -11    1    3    3    0    0 -0.25189815166E+02 -0.19447838657E+02  0.19122229433E+02  0.37126875377E+02  0.51100000000E-03 0.  1.
         23    2    1    0    0    0  0.11947798562E+02  0.25073762491E+02  0.69648965747E+01  0.96365174346E+02  0.92012464300E+02 0.  0.
         11    1    3    3    0    0  0.37137613729E+02  0.44521601148E+02 -0.12157332858E+02  0.59238298969E+02  0.51100000000E-03 0. -1.
         22    1    1    0    0    0 -0.11947798562E+02 -0.25073762491E+02 -0.69648965747E+01  0.28634825654E+02  0.00000000000E+00 0. -1.
</event>
<event>
 5    1  0.1692178E-003  0.9118800E+02  0.7818608E-02  0.1130116E+00
         25   -1    0    0    0    0  0.00000000000E+00  0.00000000000E+00  0.99999998245E-14  0.12500000000E+03  0.12500000000E+03 0.  0.
        -11    1    3    3    0    0 -0.26691539645E+02 -0.47945911198E+02 -0.12971867416E+00  0.54874999011E+02  0.51100000000E-03 0. -1.
         23    2    1    0    0    0 -0.14825353818E+02 -0.14934054873E+02 -0.20651141719E+02  0.95516330536E+02  0.90851982003E+02 0.  0.
         11    1    3    3    0    0  0.11866185827E+02  0.33011856325E+02 -0.20521423045E+02  0.40641331525E+02  0.51100000000E-03 0.  1.
         22    1    1    0    0    0  0.14825353818E+02  0.14934054873E+02  0.20651141719E+02  0.29483669464E+02  0.00000000000E+00 0. -1.
</event>
<event>
 5    1  0.1692178E-003  0.9118800E+02  0.7818608E-02  0.1130116E+00
         25   -1    0    0    0    0  0.00000000000E+00  0.00000000000E+00  0.99999998245E-14  0.12500000000E+03  0.12500000000E+03 0.  0.
        -11    1    3    3    0    0  0.29061104887E+02  0.17793638928E+02 -0.14778786927E+02  0.37142616317E+02  0.51100000000E-03 0.  1.
         23    2    1    0    0    0 -0.60950021869E+01 -0.26369763632E+02  0.59724357894E+01  0.97283876986E+02  0.93252180920E+02 0.  0.
         11    1    3    3    0    0 -0.35156107074E+02 -0.44163402561E+02  0.20751222717E+02  0.60141260669E+02  0.51100000000E-03 0. -1.
         22    1    1    0    0    0  0.60950021869E+01  0.26369763632E+02 -0.59724357894E+01  0.27716123014E+02  0.00000000000E+00 0. -1.
</event>
<event>
 5    1  0.1692178E-003  0.9118800E+02  0.7818608E-02  0.1130116E+00
         25   -1    0    0    0    0  0.00000000000E+00  0.00000000000E+00  0.99999998245E-14  0.12500000000E+03  0.12500000000E+03 0.  0.
        -11    1    3    3    0    0 -0.26210814677E+02 -0.18847665950E+02 -0.26756371557E+02  0.41930236548E+02  0.51100000000E-03 0. -1.
         23    2    1    0    0    0 -0.14515332066E+02 -0.23554801883E+01  0.24161514726E+02  0.96715340805E+02  0.92486946113E+02 0.  0.
         11    1    3    3    0    0  0.11695482611E+02  0.16492185762E+02  0.50917886283E+02  0.54785104257E+02  0.51100000000E-03 0.  1.
         22    1    1    0    0    0  0.14515332066E+02  0.23554801883E+01 -0.24161514726E+02  0.28284659195E+02  0.00000000000E+00 0.  1.
</event>
<event>
 5    1  0.1692178E-003  0.9118800E+02  0.7818608E-02  0.1130116E+00
         25   -1    0    0    0    0  0.00000000000E+00  0.00000000000E+00  0.99999998245E-14  0.12500000000E+03  0.12500000000E+03 0.  0.
        -11    1    3    3    0    0 -0.30554324825E+02 -0.14297246908E+02 -0.19390398903E+02  0.38909710929E+02  0.51100000000E-03 0.  1.
         23    2    1    0    0    0 -0.55815334749E+01  0.31841143812E+00  0.29094918831E+02  0.95372829977E+02  0.90654329706E+02 0.  0.
         11    1    3    3    0    0  0.24972791350E+02  0.14615658346E+02  0.48485317734E+02  0.56463119049E+02  0.51100000000E-03 0. -1.
         22    1    1    0    0    0  0.55815334749E+01 -0.31841143812E+00 -0.29094918831E+02  0.29627170023E+02  0.00000000000E+00 0. -1.
</event>
<event>
 5    1  0.1692178E-003  0.9118800E+02  0.7818608E-02  0.1130116E+00
         25   -1    0    0    0    0  0.00000000000E+00  0.00000000000E+00  0.99999998245E-14  0.12500000000E+03  0.12500000000E+03 0.  0.
        -11    1    3    3    0    0 -0.49608911951E+02 -0.16516010152E+02  0.13117571696E+01  0.52302422921E+02  0.51100000000E-03 0.  1.
         23    2    1    0    0    0 -0.23043361554E+02  0.15853751349E+02  0.10411273148E+02  0.95154857143E+02  0.90353274904E+02 0.  0.
         11    1    3    3    0    0  0.26565550396E+02  0.32369761501E+02  0.90995159784E+01  0.42852434222E+02  0.51100000000E-03 0. -1.
         22    1    1    0    0    0  0.23043361554E+02 -0.15853751349E+02 -0.10411273148E+02  0.29845142857E+02  0.00000000000E+00 0.  1.
</event>
<event>
 5    1  0.1692178E-003  0.9118800E+02  0.7818608E-02  0.1130116E+00
         25   -1    0    0    0    0  0.00000000000E+00  0.00000000000E+00  0.99999998245E-14  0.12500000000E+03  0.12500000000E+03 0.  0.
        -11    1    3    3    0    0  0.12884884795E+02 -0.13423415589E+01  0.52969214412E+02  0.54530356800E+02  0.51100000000E-03 0. -1.
         23    2    1    0    0    0 -0.14187932788E+02 -0.10592344475E+02  0.23159880068E+02  0.95847380168E+02  0.91306325313E+02 0.  0.
         11    1    3    3    0    0 -0.27072817583E+02 -0.92500029160E+01 -0.29809334343E+02  0.41317023369E+02  0.51100000000E-03 0.  1.
         22    1    1    0    0    0  0.14187932788E+02  0.10592344475E+02 -0.23159880068E+02  0.29152619832E+02  0.00000000000E+00 0. -1.
</event>
<event>
 5    1  0.1692178E-003  0.9118800E+02  0.7818608E-02  0.1130116E+00
         25   -1    0    0    0    0  0.00000000000E+00  0.00000000000E+00  0.99999998245E-14  0.12500000000E+03  0.12500000000E+03 0.  0.
        -11    1    3    3    0    0  0.93469481617E+01  0.36033913776E+01 -0.33462893009E+02  0.34930145693E+02  0.51100000000E-03 0.  1.
         23    2    1    0    0    0 -0.27333249216E+01 -0.76272950528E+01  0.26587883138E+02  0.97204996408E+02  0.93146385340E+02 0.  0.
         11    1    3    3    0    0 -0.12080273083E+02 -0.11230686430E+02  0.60050776147E+02  0.62274850715E+02  0.51100000000E-03 0. -1.
         22    1    1    0    0    0  0.27333249216E+01  0.76272950528E+01 -0.26587883138E+02  0.27795003592E+02  0.00000000000E+00 0. -1.
</event>
<event>
 5    1  0.1692178E-003  0.9118800E+02  0.7818608E-02  0.1130116E+00
         25   -1    0    0    0    0  0.00000000000E+00  0.00000000000E+00  0.99999998245E-14  0.12500000000E+03  0.12500000000E+03 0.  0.
        -11    1    3    3    0    0 -0.92448899615E+01  0.37623805171E+02 -0.10366555865E+02  0.40105912117E+02  0.51100000000E-03 0.  1.
         23    2    1    0    0    0 -0.13141216380E+02 -0.20779354295E+02 -0.94915670881E+01  0.98645437232E+02  0.95059767032E+02 0.  0.
         11    1    3    3    0    0 -0.38963264189E+01 -0.58403159466E+02  0.87498877729E+00  0.58539525116E+02  0.51100000000E-03 0. -1.
         22    1    1    0    0    0  0.13141216380E+02  0.20779354295E+02  0.94915670881E+01  0.26354562768E+02  0.00000000000E+00 0. -1.
</event>
<event>
 5    1  0.1692178E-003  0.9118800E+02  0.7818608E-02  0.1130116E+00
         25   -1    0    0    0    0  0.00000000000E+00  0.00000000000E+00  0.99999998245E-14  0.12500000000E+03  0.12500000000E+03 0.  0.
        -11    1    3    3    0    0 -0.20844647952E+02  0.31316277678E+02 -0.28105352176E+02  0.46958699056E+02  0.51100000000E-03 0.  1.
         23    2    1    0    0    0  0.11322306319E+00 -0.13038685096E+02 -0.25826381821E+02  0.96068665318E+02  0.91608767755E+02 0.  0.
         11    1    3    3    0    0  0.20957871015E+02 -0.44354962773E+02  0.22789703551E+01  0.49109966262E+02  0.51100000000E-03 0. -1.
         22    1    1    0    0    0 -0.11322306319E+00  0.13038685096E+02  0.25826381821E+02  0.28931334682E+02  0.00000000000E+00 0. -1.
</event>
<event>
 5    1  0.1692178E-003  0.9118800E+02  0.7818608E-02  0.1130116E+00
         25   -1    0    0    0    0  0.00000000000E+00  0.00000000000E+00  0.99999998245E-14  0.12500000000E+03  0.12500000000E+03 0.  0.
        -11    1    3    3    0    0  0.11337237168E+02  0.31540736947E+02  0.18727956041E+02  0.38393845490E+02  0.51100000000E-03 0.  1.
         23    2    1    0    0    0 -0.12820100157E+02 -0.14096330533E+00 -0.24602865541E+02  0.97256967874E+02  0.93216103590E+02 0.  0.
         11    1    3    3    0    0 -0.24157337326E+02 -0.31681700252E+02 -0.43330821583E+02  0.58863122384E+02  0.51100000000E-03 0. -1.
         22    1    1    0    0    0  0.12820100157E+02  0.14096330533E+00  0.24602865541E+02  0.27743032126E+02  0.00000000000E+00 0. -1.
</event>
<event>
 5    1  0.1692178E-003  0.9118800E+02  0.7818608E-02  0.1130116E+00
         25   -1    0    0    0    0  0.00000000000E+00  0.00000000000E+00  0.99999998245E-14  0.12500000000E+03  0.12500000000E+03 0.  0.
        -11    1    3    3    0    0 -0.54137696501E+02  0.73833416405E+01 -0.26440935525E+02  0.60700304677E+02  0.51100000000E-03 0.  1.
         23    2    1    0    0    0 -0.23889914860E+02  0.13909129208E+02 -0.13393475146E+02  0.94282300154E+02  0.89137955095E+02 0.  0.
         11    1    3    3    0    0  0.30247781641E+02  0.65257875678E+01  0.13047460379E+02  0.33581995476E+02  0.51100000000E-03 0. -1.
         22    1    1    0    0    0  0.23889914860E+02 -0.13909129208E+02  0.13393475146E+02  0.30717699846E+02  0.00000000000E+00 0.  1.
</event>
<event>
 5    1  0.1692178E-003  0.9118800E+02  0.7818608E-02  0.1130116E+00
         25   -1    0    0    0    0  0.00000000000E+00  0.00000000000E+00  0.99999998245E-14  0.12500000000E+03  0.12500000000E+03 0.  0.
        -11    1    3    3    0    0  0.19607428623E+02 -0.42670096919E+02  0.35555973599E+02  0.58901746045E+02  0.51100000000E-03 0. -1.
         23    2    1    0    0    0 -0.58654861772E+01 -0.22388393159E+02  0.15538619100E+02  0.97123616449E+02  0.93037111479E+02 0.  0.
         11    1    3    3    0    0 -0.25472914800E+02  0.20281703760E+02 -0.20017354499E+02  0.38221870405E+02  0.51100000000E-03 0.  1.
         22    1    1    0    0    0  0.58654861772E+01  0.22388393159E+02 -0.15538619100E+02  0.27876383551E+02  0.00000000000E+00 0. -1.
</event>
<event>
 5    1  0.1692178E-003  0.9118800E+02  0.7818608E-02  0.1130116E+00
         25   -1    0    0    0    0  0.00000000000E+00  0.00000000000E+00  0.99999998245E-14  0.12500000000E+03  0.12500000000E+03 0.  0.
        -11    1    3    3    0    0  0.48214701877E+02  0.49319443195E+01  0.20290447691E+02  0.52542209886E+02  0.51100000000E-03 0.  1.
         23    2    1    0    0    0  0.27896484177E+02 -0.65459901853E+01  0.34722876296E+02  0.79980649103E+02  0.66107202904E+02 0.  0.
         11    1    3    3    0    0 -0.20318217700E+02 -0.11477934505E+02  0.14432428605E+02  0.27438439217E+02  0.51100000000E-03 0. -1.
         22    1    1    0    0    0 -0.27896484177E+02  0.65459901853E+01 -0.34722876296E+02  0.45019350897E+02  0.00000000000E+00 0.  1.
</event>
<event>
 5    1  0.1692178E-003  0.9118800E+02  0.7818608E-02  0.1130116E+00
         25   -1    0    0    0    0  0.00000000000E+00  0.00000000000E+00  0.99999998245E-14  0.12500000000E+03  0.12500000000E+03 0.  0.
        -11    1    3    3    0    0 -0.26594085256E+02  0.20810690102E+02  0.14043421508E+02  0.36572501706E+02  0.51100000000E-03 0.  1.
         23    2    1    0    0    0 -0.33513708032E+02  0.41613052048E+01 -0.27234024875E+02  0.81615933824E+02  0.69130192073E+02 0.  0.
         11    1    3    3    0    0 -0.69196227761E+01 -0.16649384897E+02 -0.41277446383E+02  0.45043432118E+02  0.51100000000E-03 0. -1.
         22    1    1    0    0    0  0.33513708032E+02 -0.41613052048E+01  0.27234024875E+02  0.43384066176E+02  0.00000000000E+00 0. -1.
</event>
<event>
 5    1  0.1692178E-003  0.9118800E+02  0.7818608E-02  0.1130116E+00
         25   -1    0    0    0    0  0.00000000000E+00  0.00000000000E+00  0.99999998245E-14  0.12500000000E+03  0.12500000000E+03 0.  0.
        -11    1    3    3    0    0 -0.13658966151E+02 -0.45672583023E+02  0.13859927577E+02  0.49645239339E+02  0.51100000000E-03 0.  1.
         23    2    1    0    0    0 -0.27613767403E+02 -0.18384617555E+01  0.89773903333E+01  0.95905436435E+02  0.91385770823E+02 0.  0.
         11    1    3    3    0    0 -0.13954801252E+02  0.43834121267E+02 -0.48825372435E+01  0.46260197097E+02  0.51100000000E-03 0. -1.
         22    1    1    0    0    0  0.27613767403E+02  0.18384617555E+01 -0.89773903333E+01  0.29094563565E+02  0.00000000000E+00 0. -1.
</event>
<event>
 5    1  0.1692178E-003  0.9118800E+02  0.7818608E-02  0.1130116E+00
         25   -1    0    0    0    0  0.00000000000E+00  0.00000000000E+00  0.99999998245E-14  0.12500000000E+03  0.12500000000E+03 0.  0.
        -11    1    3    3    0    0  0.67063957526E+01 -0.36764255806E+02 -0.27758416365E+02  0.46552292407E+02  0.51100000000E-03 0.  1.
         23    2    1    0    0    0  0.27405857698E+02 -0.61422901723E+01  0.56230923125E+01  0.96356886833E+02  0.92001204929E+02 0.  0.
         11    1    3    3    0    0  0.20699461945E+02  0.30621965634E+02  0.33381508678E+02  0.49804594426E+02  0.51100000000E-03 0. -1.
         22    1    1    0    0    0 -0.27405857698E+02  0.61422901723E+01 -0.56230923125E+01  0.28643113167E+02  0.00000000000E+00 0. -1.
</event>
<event>
 5    1  0.1692178E-003  0.9118800E+02  0.7818608E-02  0.1130116E+00
         25   -1    0    0    0    0  0.00000000000E+00  0.00000000000E+00  0.99999998245E-14  0.12500000000E+03  0.12500000000E+03 0.  0.
        -11    1    3    3    0    0  0.91931138672E+01 -0.15897585502E+02  0.31994014372E+02  0.36889883752E+02  0.51100000000E-03 0.  1.
         23    2    1    0    0    0 -0.80318817127E+01  0.28311324158E+02 -0.23742766196E+01  0.95475783010E+02  0.90796176971E+02 0.  0.
         11    1    3    3    0    0 -0.17224995580E+02  0.44208909659E+02 -0.34368290991E+02  0.58585899258E+02  0.51100000000E-03 0. -1.
         22    1    1    0    0    0  0.80318817127E+01 -0.28311324158E+02  0.23742766196E+01  0.29524216990E+02  0.00000000000E+00 0. -1.
</event>
<event>
 5    1  0.1692178E-003  0.9118800E+02  0.7818608E-02  0.1130116E+00
         25   -1    0    0    0    0  0.00000000000E+00  0.00000000000E+00  0.99999998245E-14  0.12500000000E+03  0.12500000000E+03 0.  0.
        -11    1    3    3    0    0 -0.19012611047E+02  0.17543472772E+02 -0.48921369685E+02  0.55340339969E+02  0.51100000000E-03 0.  1.
         23    2    1    0    0    0 -0.21064054357E+02  0.17622165601E+02 -0.78862310618E+01  0.96426800200E+02  0.92096145685E+02 0.  0.
         11    1    3    3    0    0 -0.20514433105E+01  0.78692828976E-01  0.41035138624E+02  0.41086460231E+02  0.51100000000E-03 0. -1.
         22    1    1    0    0    0  0.21064054357E+02 -0.17622165601E+02  0.78862310618E+01  0.28573199800E+02  0.00000000000E+00 0.  1.
</event>
<event>
 5    1  0.1692178E-003  0.9118800E+02  0.7818608E-02  0.1130116E+00
         25   -1    0    0    0    0  0.00000000000E+00  0.00000000000E+00  0.99999998245E-14  0.12500000000E+03  0.12500000000E+03 0.  0.
        -11    1    3    3    0    0 -0.32386386890E+02  0.37843981881E+02  0.13852182829E+02  0.51700367405E+02  0.51100000000E-03 0.  1.
         23    2    1    0    0    0 -0.12445015079E+02  0.17398441074E+02 -0.19809357149E+02  0.95845330001E+02  0.91303518553E+02 0.  0.
         11    1    3    3    0    0  0.19941371811E+02 -0.20445540808E+02 -0.33661539978E+02  0.44144962596E+02  0.51100000000E-03 0. -1.
         22    1    1    0    0    0  0.12445015079E+02 -0.17398441074E+02  0.19809357149E+02  0.29154669999E+02  0.00000000000E+00 0.  1.
</event>
<event>
 5    1  0.1692178E-003  0.9118800E+02  0.7818608E-02  0.1130116E+00
         25   -1    0    0    0    0  0.00000000000E+00  0.00000000000E+00  0.99999998245E-14  0.12500000000E+03  0.12500000000E+03 0.  0.
        -11    1    3    3    0    0  0.10674762392E+01  0.33584177216E+02  0.12127041807E+02  0.35722564410E+02  0.51100000000E-03 0.  1.
         23    2    1    0    0    0  0.72517170729E+01 -0.25330958127E+02  0.14338615834E+02  0.95002654381E+02  0.90142462776E+02 0.  0.
         11    1    3    3    0    0  0.61842408338E+01 -0.58915135342E+02  0.22115740272E+01  0.59280089971E+02  0.51100000000E-03 0. -1.
         22    1    1    0    0    0 -0.72517170729E+01  0.25330958127E+02 -0.14338615834E+02  0.29997345619E+02  0.00000000000E+00 0. -1.
</event>
<event>
 5    1  0.1692178E-003  0.9118800E+02  0.7818608E-02  0.1130116E+00
         25   -1    0    0    0    0  0.00000000000E+00  0.00000000000E+00  0.99999998245E-14  0.12500000000E+03  0.12500000000E+03 0.  0.
        -11    1    3    3    0    0 -0.24499954250E+02 -0.44476658167E+01 -0.34499013185E+02  0.42546579186E+02  0.51100000000E-03 0.  1.
         23    2    1    0    0    0  0.13356051093E+02 -0.26449759751E+02 -0.60633270899E+01  0.94755366971E+02  0.89798896111E+02 0.  0.
         11    1    3    3    0    0  0.37856005343E+02 -0.22002093934E+02  0.28435686095E+02  0.52208787785E+02  0.51100000000E-03 0. -1.
         22    1    1    0    0    0 -0.13356051093E+02  0.26449759751E+02  0.60633270899E+01  0.30244633029E+02  0.00000000000E+00 0. -1.
</event>
<event>
 5    1  0.1692178E-003  0.9118800E+02  0.7818608E-02  0.1130116E+00
         25   -1    0    0    0    0  0.00000000000E+00  0.00000000000E+00  0.99999998245E-14  0.12500000000E+03  0.12500000000E+03 0.  0.
        -11    1    3    3    0    0  0.19524154688E+02  0.29835787533E+02  0.75709586179E+01  0.36451148798E+02  0.51100000000E-03 0.  1.
         23    2    1    0    0    0 -0.18174927949E+02 -0.94959323270E+01 -0.18980464041E+02  0.97057939376E+02  0.92948829170E+02 0.  0.
         11    1    3    3    0    0 -0.37699082637E+02 -0.39331719860E+02 -0.26551422658E+02  0.60606790579E+02  0.51100000000E-03 0. -1.
         22    1    1    0    0    0  0.18174927949E+02  0.94959323270E+01  0.18980464041E+02  0.27942060624E+02  0.00000000000E+00 0. -1.
</event>
<event>
 5    1  0.1692178E-003  0.9118800E+02  0.7818608E-02  0.1130116E+00
         25   -1    0    0    0    0  0.00000000000E+00  0.00000000000E+00  0.99999998245E-14  0.12500000000E+03  0.12500000000E+03 0.  0.
        -11    1    3    3    0    0 -0.28313960360E+02  0.55871525156E+01  0.23116219796E+02  0.36976428199E+02  0.51100000000E-03 0. -1.
         23    2    1    0    0    0 -0.71611022550E+01 -0.12754278533E+02 -0.26948457922E+02  0.94337769312E+02  0.89215706733E+02 0.  0.
         11    1    3    3    0    0  0.21152858105E+02 -0.18341431048E+02 -0.50064677718E+02  0.57361341112E+02  0.51100000000E-03 0.  1.
         22    1    1    0    0    0  0.71611022550E+01  0.12754278533E+02  0.26948457922E+02  0.30662230688E+02  0.00000000000E+00 0.  1.
</event>
<event>
 5    1  0.1692178E-003  0.9118800E+02  0.7818608E-02  0.1130116E+00
         25   -1    0    0    0    0  0.00000000000E+00  0.00000000000E+00  0.99999998245E-14  0.12500000000E+03  0.12500000000E+03 0.  0.
        -11    1    3    3    0    0 -0.41003934980E+02 -0.36940857106E+02  0.38429933314E+01  0.55323758057E+02  0.51100000000E-03 0.  1.
         23    2    1    0    0    0 -0.27322852903E+02  0.27572134597E+01 -0.47239518190E+00  0.97534318249E+02  0.93587283123E+02 0.  0.
         11    1    3    3    0    0  0.13681082077E+02  0.39698070566E+02 -0.43153885133E+01  0.42210560192E+02  0.51100000000E-03 0. -1.
         22    1    1    0    0    0  0.27322852903E+02 -0.27572134597E+01  0.47239518190E+00  0.27465681751E+02  0.00000000000E+00 0.  1.
</event>
<event>
 5    1  0.1692178E-003  0.9118800E+02  0.7818608E-02  0.1130116E+00
         25   -1    0    0    0    0  0.00000000000E+00  0.00000000000E+00  0.99999998245E-14  0.12500000000E+03  0.12500000000E+03 0.  0.
        -11    1    3    3    0    0  0.61284869526E+02 -0.53448102910E+01  0.81655989697E+01  0.62057064357E+02  0.51100000000E-03 0. -1.
         23    2    1    0    0    0  0.28311503506E+02 -0.41928624372E+01  0.88023027122E+01  0.95056689241E+02  0.90217361468E+02 0.  0.
         11    1    3    3    0    0 -0.32973366020E+02  0.11519478537E+01  0.63670374242E+00  0.32999624884E+02  0.51100000000E-03 0.  1.
         22    1    1    0    0    0 -0.28311503506E+02  0.41928624372E+01 -0.88023027122E+01  0.29943310759E+02  0.00000000000E+00 0. -1.
</event>
<event>
 5    1  0.1692178E-003  0.9118800E+02  0.7818608E-02  0.1130116E+00
         25   -1    0    0    0    0  0.00000000000E+00  0.00000000000E+00  0.99999998245E-14  0.12500000000E+03  0.12500000000E+03 0.  0.
        -11    1    3    3    0    0  0.58149753606E+02 -0.14716518578E+02  0.13849783449E+02  0.61561239959E+02  0.51100000000E-03 0.  1.
         23    2    1    0    0    0  0.28526175070E+02 -0.75946938392E+01 -0.10171898243E+01  0.95462621751E+02  0.90778055927E+02 0.  0.
         11    1    3    3    0    0 -0.29623578535E+02  0.71218247387E+01 -0.14866973273E+02  0.33901381792E+02  0.51100000000E-03 0. -1.
         22    1    1    0    0    0 -0.28526175070E+02  0.75946938392E+01  0.10171898243E+01  0.29537378249E+02  0.00000000000E+00 0.  1.
</event>
<event>
 5    1  0.1692178E-003  0.9118800E+02  0.7818608E-02  0.1130116E+00
         25   -1    0    0    0    0  0.00000000000E+00  0.00000000000E+00  0.99999998245E-14  0.12500000000E+03  0.12500000000E+03 0.  0.
        -11    1    3    3    0    0 -0.35799989941E+02  0.30871365562E+02 -0.39969895294E+02  0.61905355354E+02  0.51100000000E-03 0.  1.
         23    2    1    0    0    0 -0.19020382435E+02  0.18916728496E+02 -0.15043410935E+02  0.94244158644E+02  0.89084452410E+02 0.  0.
         11    1    3    3    0    0  0.16779607506E+02 -0.11954637066E+02  0.24926484360E+02  0.32338803290E+02  0.51100000000E-03 0. -1.
         22    1    1    0    0    0  0.19020382435E+02 -0.18916728496E+02  0.15043410935E+02  0.30755841356E+02  0.00000000000E+00 0.  1.
</event>
<event>
 5    1  0.1692178E-003  0.9118800E+02  0.7818608E-02  0.1130116E+00
         25   -1    0    0    0    0  0.00000000000E+00  0.00000000000E+00  0.99999998245E-14  0.12500000000E+03  0.12500000000E+03 0.  0.
        -11    1    3    3    0    0  0.27800312726E+02  0.23718708356E+02 -0.16057989719E+02  0.39916081319E+02  0.51100000000E-03 0.  1.
         23    2    1    0    0    0 -0.22279906384E+02  0.80145289698E+01 -0.21928256559E+02  0.92728102956E+02  0.86931155168E+02 0.  0.
         11    1    3    3    0    0 -0.50080219111E+02 -0.15704179386E+02 -0.58702668402E+01  0.52812021637E+02  0.51100000000E-03 0. -1.
         22    1    1    0    0    0  0.22279906384E+02 -0.80145289698E+01  0.21928256559E+02  0.32271897044E+02  0.00000000000E+00 0. -1.
</event>
<event>
 5    1  0.1692178E-003  0.9118800E+02  0.7818608E-02  0.1130116E+00
         25   -1    0    0    0    0  0.00000000000E+00  0.00000000000E+00  0.99999998245E-14  0.12500000000E+03  0.12500000000E+03 0.  0.
        -11    1    3    3    0    0 -0.26579099030E+02 -0.44683674129E+02  0.30254848355E+02  0.60153429562E+02  0.51100000000E-03 0.  1.
         23    2    1    0    0    0 -0.83106892563E+01 -0.27757963576E+02  0.50474047492E+01  0.95588294974E+02  0.90950941411E+02 0.  0.
         11    1    3    3    0    0  0.18268409774E+02  0.16925710552E+02 -0.25207443605E+02  0.35434865412E+02  0.51100000000E-03 0. -1.
         22    1    1    0    0    0  0.83106892563E+01  0.27757963576E+02 -0.50474047492E+01  0.29411705026E+02  0.00000000000E+00 0.  1.
</event>
<event>
 5    1  0.1692178E-003  0.9118800E+02  0.7818608E-02  0.1130116E+00
         25   -1    0    0    0    0  0.00000000000E+00  0.00000000000E+00  0.99999998245E-14  0.12500000000E+03  0.12500000000E+03 0.  0.
        -11    1    3    3    0    0  0.26087344164E+01  0.33526063797E+02  0.26611566248E+02  0.42883305696E+02  0.51100000000E-03 0.  1.
         23    2    1    0    0    0 -0.29338905359E+02  0.31530706303E+01 -0.19810134262E+01  0.95425726784E+02  0.90727237894E+02 0.  0.
         11    1    3    3    0    0 -0.31947639776E+02 -0.30372993166E+02 -0.28592579674E+02  0.52542421088E+02  0.51100000000E-03 0. -1.
         22    1    1    0    0    0  0.29338905359E+02 -0.31530706303E+01  0.19810134262E+01  0.29574273216E+02  0.00000000000E+00 0. -1.
</event>
<event>
 5    1  0.1692178E-003  0.9118800E+02  0.7818608E-02  0.1130116E+00
         25   -1    0    0    0    0  0.00000000000E+00  0.00000000000E+00  0.99999998245E-14  0.12500000000E+03  0.12500000000E+03 0.  0.
        -11    1    3    3    0    0  0.97247833047E+01  0.44681098059E+02  0.25771495313E+02  0.52489445654E+02  0.51100000000E-03 0. -1.
         23    2    1    0    0    0  0.28266311685E+02  0.14007338421E+02  0.15936218289E+02  0.89656641936E+02  0.82396362079E+02 0.  0.
         11    1    3    3    0    0  0.18541528380E+02 -0.30673759638E+02 -0.98352770244E+01  0.37167196282E+02  0.51100000000E-03 0.  1.
         22    1    1    0    0    0 -0.28266311685E+02 -0.14007338421E+02 -0.15936218289E+02  0.35343358064E+02  0.00000000000E+00 0. -1.
</event>
<event>
 5    1  0.1692178E-003  0.9118800E+02  0.7818608E-02  0.1130116E+00
         25   -1    0    0    0    0  0.00000000000E+00  0.00000000000E+00  0.99999998245E-14  0.12500000000E+03  0.12500000000E+03 0.  0.
        -11    1    3    3    0    0 -0.39408248823E+02 -0.13393979981E+01  0.33440486706E+02  0.51701742850E+02  0.51100000000E-03 0.  1.
         23    2    1    0    0    0 -0.18373683006E+02  0.21101330399E+02  0.15835571249E+00  0.97019945526E+02  0.92897720002E+02 0.  0.
         11    1    3    3    0    0  0.21034565817E+02  0.22440728397E+02 -0.33282130994E+02  0.45318202677E+02  0.51100000000E-03 0. -1.
         22    1    1    0    0    0  0.18373683006E+02 -0.21101330399E+02 -0.15835571249E+00  0.27980054474E+02  0.00000000000E+00 0.  1.
</event>
<event>
 5    1  0.1692178E-003  0.9118800E+02  0.7818608E-02  0.1130116E+00
         25   -1    0    0    0    0  0.00000000000E+00  0.00000000000E+00  0.99999998245E-14  0.12500000000E+03  0.12500000000E+03 0.  0.
        -11    1    3    3    0    0 -0.23083630582E+02 -0.34165161480E+02 -0.64378309758E+01  0.41731977280E+02  0.51100000000E-03 0.  1.
         23    2    1    0    0    0  0.22352210146E+02 -0.29133368813E+02 -0.77772692890E+01  0.87465210879E+02  0.79001915924E+02 0.  0.
         11    1    3    3    0    0  0.45435840728E+02  0.50317926669E+01 -0.13394383132E+01  0.45733233598E+02  0.51100000000E-03 0. -1.
         22    1    1    0    0    0 -0.22352210146E+02  0.29133368813E+02  0.77772692890E+01  0.37534789121E+02  0.00000000000E+00 0. -1.
</event>
<event>
 5    1  0.1692178E-003  0.9118800E+02  0.7818608E-02  0.1130116E+00
         25   -1    0    0    0    0  0.00000000000E+00  0.00000000000E+00  0.99999998245E-14  0.12500000000E+03  0.12500000000E+03 0.  0.
        -11    1    3    3    0    0 -0.39545675189E+02  0.11260457876E+01  0.34180241967E+02  0.52282093937E+02  0.51100000000E-03 0.  1.
         23    2    1    0    0    0 -0.11462437418E+02  0.24774090662E+02  0.17229277125E+02  0.92720114158E+02  0.86919667162E+02 0.  0.
         11    1    3    3    0    0  0.28083237771E+02  0.23648044875E+02 -0.16950964842E+02  0.40438020221E+02  0.51100000000E-03 0. -1.
         22    1    1    0    0    0  0.11462437418E+02 -0.24774090662E+02 -0.17229277125E+02  0.32279885842E+02  0.00000000000E+00 0.  1.
</event>
<event>
 5    1  0.1692178E-003  0.9118800E+02  0.7818608E-02  0.1130116E+00
         25   -1    0    0    0    0  0.00000000000E+00  0.00000000000E+00  0.99999998245E-14  0.12500000000E+03  0.12500000000E+03 0.  0.
        -11    1    3    3    0    0 -0.18926790468E+02 -0.28001271029E+02  0.21011657580E+02  0.39796787950E+02  0.51100000000E-03 0.  1.
         23    2    1    0    0    0 -0.18396898890E+02  0.18170497708E+02 -0.11935296937E+02  0.96520811306E+02  0.92223656544E+02 0.  0.
         11    1    3    3    0    0  0.52989157819E+00  0.46171768737E+02 -0.32946954517E+02  0.56724023355E+02  0.51100000000E-03 0. -1.
         22    1    1    0    0    0  0.18396898890E+02 -0.18170497708E+02  0.11935296937E+02  0.28479188694E+02  0.00000000000E+00 0. -1.
</event>
<event>
 5    1  0.1692178E-003  0.9118800E+02  0.7818608E-02  0.1130116E+00
         25   -1    0    0    0    0  0.00000000000E+00  0.00000000000E+00  0.99999998245E-14  0.12500000000E+03  0.12500000000E+03 0.  0.
        -11    1    3    3    0    0 -0.45937138237E+02  0.53328689098E+01 -0.35589401375E+02  0.58354654062E+02  0.51100000000E-03 0.  1.
         23    2    1    0    0    0 -0.10945828319E+02  0.82954446984E+01 -0.27305576241E+02  0.94434986436E+02  0.89351813685E+02 0.  0.
         11    1    3    3    0    0  0.34991309918E+02  0.29625757886E+01  0.82838251339E+01  0.36080332373E+02  0.51100000000E-03 0. -1.
         22    1    1    0    0    0  0.10945828319E+02 -0.82954446984E+01  0.27305576241E+02  0.30565013564E+02  0.00000000000E+00 0.  1.
</event>
<event>
 5    1  0.1692178E-003  0.9118800E+02  0.7818608E-02  0.1130116E+00
         25   -1    0    0    0    0  0.00000000000E+00  0.00000000000E+00  0.99999998245E-14  0.12500000000E+03  0.12500000000E+03 0.  0.
        -11    1    3    3    0    0  0.13929977847E+02 -0.19385331004E+02 -0.26375590219E+02  0.35573966614E+02  0.51100000000E-03 0. -1.
         23    2    1    0    0    0  0.17087282855E+01  0.33477066766E+01  0.28519526468E+02  0.96233869180E+02  0.91833911466E+02 0.  0.
         11    1    3    3    0    0 -0.12221249561E+02  0.22733037681E+02  0.54895116687E+02  0.60659902567E+02  0.51100000000E-03 0.  1.
         22    1    1    0    0    0 -0.17087282855E+01 -0.33477066766E+01 -0.28519526468E+02  0.28766130820E+02  0.00000000000E+00 0.  1.
</event>
<event>
 5    1  0.1692178E-003  0.9118800E+02  0.7818608E-02  0.1130116E+00
         25   -1    0    0    0    0  0.00000000000E+00  0.00000000000E+00  0.99999998245E-14  0.12500000000E+03  0.12500000000E+03 0.  0.
        -11    1    3    3    0    0 -0.10677966363E+02  0.49927644922E+01  0.41973642419E+02  0.43597400394E+02  0.51100000000E-03 0. -1.
         23    2    1    0    0    0  0.21938974408E+02  0.17643954849E+02  0.19161657452E+01  0.96781221998E+02  0.92575944497E+02 0.  0.
         11    1    3    3    0    0  0.32616940771E+02  0.12651190356E+02 -0.40057476674E+02  0.53183821604E+02  0.51100000000E-03 0.  1.
         22    1    1    0    0    0 -0.21938974408E+02 -0.17643954849E+02 -0.19161657452E+01  0.28218778002E+02  0.00000000000E+00 0.  1.
</event>
<event>
 5    1  0.1692178E-003  0.9118800E+02  0.7818608E-02  0.1130116E+00
         25   -1    0    0    0    0  0.00000000000E+00  0.00000000000E+00  0.99999998245E-14  0.12500000000E+03  0.12500000000E+03 0.  0.
        -11    1    3    3    0    0 -0.14097259035E+02  0.13350969003E+02  0.76933438622E+01  0.20884650480E+02  0.51100000000E-03 0.  1.
         23    2    1    0    0    0  0.41131677262E+02  0.19019839063E+02  0.15833209195E+02  0.76997295224E+02  0.60202357147E+02 0.  0.
         11    1    3    3    0    0  0.55228936297E+02  0.56688700602E+01  0.81398653325E+01  0.56112644744E+02  0.51100000000E-03 0. -1.
         22    1    1    0    0    0 -0.41131677262E+02 -0.19019839063E+02 -0.15833209195E+02  0.48002704776E+02  0.00000000000E+00 0. -1.
</event>
<event>
 5    1  0.1692178E-003  0.9118800E+02  0.7818608E-02  0.1130116E+00
         25   -1    0    0    0    0  0.00000000000E+00  0.00000000000E+00  0.99999998245E-14  0.12500000000E+03  0.12500000000E+03 0.  0.
        -11    1    3    3    0    0 -0.42476941789E-01 -0.28395945940E+02 -0.39349980911E+02  0.48525792606E+02  0.51100000000E-03 0. -1.
         23    2    1    0    0    0 -0.24086711642E+02  0.47889902264E+01 -0.15964149020E+02  0.95709077190E+02  0.91116789328E+02 0.  0.
         11    1    3    3    0    0 -0.24044234701E+02  0.33184936166E+02  0.23385831890E+02  0.47183284584E+02  0.51100000000E-03 0.  1.
         22    1    1    0    0    0  0.24086711642E+02 -0.47889902264E+01  0.15964149020E+02  0.29290922810E+02  0.00000000000E+00 0.  1.
</event>
<event>
 5    1  0.1692178E-003  0.9118800E+02  0.7818608E-02  0.1130116E+00
         25   -1    0    0    0    0  0.00000000000E+00  0.00000000000E+00  0.99999998245E-14  0.12500000000E+03  0.12500000000E+03 0.  0.
        -11    1    3    3    0    0 -0.72357472699E+01 -0.31634261196E+02  0.39049184518E+02  0.50773234403E+02  0.51100000000E-03 0.  1.
         23    2    1    0    0    0  0.69618671503E+01 -0.28354548041E+02 -0.33549556521E+01  0.95611163407E+02  0.90982365609E+02 0.  0.
         11    1    3    3    0    0  0.14197614420E+02  0.32797131545E+01 -0.42404140170E+02  0.44837929004E+02  0.51100000000E-03 0. -1.
         22    1    1    0    0    0 -0.69618671503E+01  0.28354548041E+02  0.33549556521E+01  0.29388836593E+02  0.00000000000E+00 0.  1.
</event>
<event>
 5    1  0.1692178E-003  0.9118800E+02  0.7818608E-02  0.1130116E+00
         25   -1    0    0    0    0  0.00000000000E+00  0.00000000000E+00  0.99999998245E-14  0.12500000000E+03  0.12500000000E+03 0.  0.
        -11    1    3    3    0    0  0.24042350609E+02 -0.12272317816E+02  0.17586061009E+02  0.32216671918E+02  0.51100000000E-03 0.  1.
         23    2    1    0    0    0  0.10163588666E+02  0.23419258805E+02 -0.24847075068E+02  0.89375045867E+02  0.81968051500E+02 0.  0.
         11    1    3    3    0    0 -0.13878761943E+02  0.35691576622E+02 -0.42433136077E+02  0.57158373948E+02  0.51100000000E-03 0. -1.
         22    1    1    0    0    0 -0.10163588666E+02 -0.23419258805E+02  0.24847075068E+02  0.35624954133E+02  0.00000000000E+00 0. -1.
</event>
<event>
 5    1  0.1692178E-003  0.9118800E+02  0.7818608E-02  0.1130116E+00
         25   -1    0    0    0    0  0.00000000000E+00  0.00000000000E+00  0.99999998245E-14  0.12500000000E+03  0.12500000000E+03 0.  0.
        -11    1    3    3    0    0  0.25421424626E+02  0.40460715684E+02  0.77892945963E+01  0.48414785492E+02  0.51100000000E-03 0.  1.
         23    2    1    0    0    0  0.25397416140E+02 -0.83113510789E+01  0.77110351198E+01  0.97186920955E+02  0.93122125398E+02 0.  0.
         11    1    3    3    0    0 -0.24008485799E-01 -0.48772066763E+02 -0.78259476517E-01  0.48772135462E+02  0.51100000000E-03 0. -1.
         22    1    1    0    0    0 -0.25397416140E+02  0.83113510789E+01 -0.77110351198E+01  0.27813079045E+02  0.00000000000E+00 0. -1.
</event>
<event>
 5    1  0.1692178E-003  0.9118800E+02  0.7818608E-02  0.1130116E+00
         25   -1    0    0    0    0  0.00000000000E+00  0.00000000000E+00  0.99999998245E-14  0.12500000000E+03  0.12500000000E+03 0.  0.
        -11    1    3    3    0    0 -0.89300405348E+01 -0.43988315042E+02 -0.24992157845E+02  0.51374365574E+02  0.51100000000E-03 0.  1.
         23    2    1    0    0    0 -0.39136472135E+01 -0.22658172093E+02  0.15398903463E+02  0.97326264709E+02  0.93308982296E+02 0.  0.
         11    1    3    3    0    0  0.50163933213E+01  0.21330142949E+02  0.40391061308E+02  0.45951899134E+02  0.51100000000E-03 0. -1.
         22    1    1    0    0    0  0.39136472135E+01  0.22658172093E+02 -0.15398903463E+02  0.27673735291E+02  0.00000000000E+00 0.  1.
</event>
<event>
 5    1  0.1692178E-003  0.9118800E+02  0.7818608E-02  0.1130116E+00
         25   -1    0    0    0    0  0.00000000000E+00  0.00000000000E+00  0.99999998245E-14  0.12500000000E+03  0.12500000000E+03 0.  0.
        -11    1    3    3    0    0  0.32407614176E+02  0.27276746785E+02  0.41154627272E+02  0.59059103599E+02  0.51100000000E-03 0.  1.
         23    2    1    0    0    0  0.14226427489E+02 -0.31832831002E+00  0.25882767805E+02  0.95463408435E+02  0.90779139172E+02 0.  0.
         11    1    3    3    0    0 -0.18181186687E+02 -0.27595075095E+02 -0.15271859467E+02  0.36404304837E+02  0.51100000000E-03 0. -1.
         22    1    1    0    0    0 -0.14226427489E+02  0.31832831002E+00 -0.25882767805E+02  0.29536591565E+02  0.00000000000E+00 0.  1.
</event>
<event>
 5    1  0.1692178E-003  0.9118800E+02  0.7818608E-02  0.1130116E+00
         25   -1    0    0    0    0  0.00000000000E+00  0.00000000000E+00  0.99999998245E-14  0.12500000000E+03  0.12500000000E+03 0.  0.
        -11    1    3    3    0    0  0.24823176115E+02  0.22629750597E+02 -0.17594900333E+02  0.37919338108E+02  0.51100000000E-03 0.  1.
         23    2    1    0    0    0 -0.24888832281E+02 -0.75327315004E+01 -0.12080509292E+02  0.96327108257E+02  0.91960736536E+02 0.  0.
         11    1    3    3    0    0 -0.49712008395E+02 -0.30162482098E+02  0.55143910412E+01  0.58407770149E+02  0.51100000000E-03 0. -1.
         22    1    1    0    0    0  0.24888832281E+02  0.75327315004E+01  0.12080509292E+02  0.28672891743E+02  0.00000000000E+00 0. -1.
</event>
<event>
 5    1  0.1692178E-003  0.9118800E+02  0.7818608E-02  0.1130116E+00
         25   -1    0    0    0    0  0.00000000000E+00  0.00000000000E+00  0.99999998245E-14  0.12500000000E+03  0.12500000000E+03 0.  0.
        -11    1    3    3    0    0  0.53573079686E+02  0.13933238247E+02 -0.60561667766E+01  0.55685609913E+02  0.51100000000E-03 0. -1.
         23    2    1    0    0    0  0.24084205465E+02 -0.32250850570E+01  0.15626313740E+02  0.96110005061E+02  0.91665158403E+02 0.  0.
         11    1    3    3    0    0 -0.29488874221E+02 -0.17158323304E+02  0.21682480517E+02  0.40424395148E+02  0.51100000000E-03 0.  1.
         22    1    1    0    0    0 -0.24084205465E+02  0.32250850570E+01 -0.15626313740E+02  0.28889994939E+02  0.00000000000E+00 0. -1.
</event>
<event>
 5    1  0.1692178E-003  0.9118800E+02  0.7818608E-02  0.1130116E+00
         25   -1    0    0    0    0  0.00000000000E+00  0.00000000000E+00  0.99999998245E-14  0.12500000000E+03  0.12500000000E+03 0.  0.
        -11    1    3    3    0    0 -0.40161034104E+01 -0.19065595450E+02 -0.31110498904E+02  0.36708162019E+02  0.51100000000E-03 0.  1.
         23    2    1    0    0    0 -0.15274643955E+02  0.14061349910E+02  0.18349192767E+02  0.97292073617E+02  0.93263167458E+02 0.  0.
         11    1    3    3    0    0 -0.11258540545E+02  0.33126945359E+02  0.49459691671E+02  0.60583911598E+02  0.51100000000E-03 0. -1.
         22    1    1    0    0    0  0.15274643955E+02 -0.14061349910E+02 -0.18349192767E+02  0.27707926383E+02  0.00000000000E+00 0. -1.
</event>
<event>
 5    1  0.1692178E-003  0.9118800E+02  0.7818608E-02  0.1130116E+00
         25   -1    0    0    0    0  0.00000000000E+00  0.00000000000E+00  0.99999998245E-14  0.12500000000E+03  0.12500000000E+03 0.  0.
        -11    1    3    3    0    0  0.44662755261E+02 -0.92094212547E+01  0.35899342676E+02  0.58037384092E+02  0.51100000000E-03 0.  1.
         23    2    1    0    0    0  0.17242189176E+02 -0.19586731316E+02  0.10345117224E+02  0.96929471298E+02  0.92775901098E+02 0.  0.
         11    1    3    3    0    0 -0.27420566085E+02 -0.10377310061E+02 -0.25554225453E+02  0.38892087207E+02  0.51100000000E-03 0. -1.
         22    1    1    0    0    0 -0.17242189176E+02  0.19586731316E+02 -0.10345117224E+02  0.28070528702E+02  0.00000000000E+00 0.  1.
</event>
<event>
 5    1  0.1692178E-003  0.9118800E+02  0.7818608E-02  0.1130116E+00
         25   -1    0    0    0    0  0.00000000000E+00  0.00000000000E+00  0.99999998245E-14  0.12500000000E+03  0.12500000000E+03 0.  0.
        -11    1    3    3    0    0  0.89290508102E+01  0.41849047276E+02  0.17929270098E+02  0.46395360035E+02  0.51100000000E-03 0. -1.
         23    2    1    0    0    0  0.25838330020E+02  0.13545002064E+02 -0.14307853366E+02  0.92506907702E+02  0.86612510213E+02 0.  0.
         11    1    3    3    0    0  0.16909279210E+02 -0.28304045212E+02 -0.32237123464E+02  0.46111547667E+02  0.51100000000E-03 0.  1.
         22    1    1    0    0    0 -0.25838330020E+02 -0.13545002064E+02  0.14307853366E+02  0.32493092298E+02  0.00000000000E+00 0. -1.
</event>
<event>
 5    1  0.1692178E-003  0.9118800E+02  0.7818608E-02  0.1130116E+00
         25   -1    0    0    0    0  0.00000000000E+00  0.00000000000E+00  0.99999998245E-14  0.12500000000E+03  0.12500000000E+03 0.  0.
        -11    1    3    3    0    0 -0.18872356229E+02  0.40575896985E+02 -0.23912272655E+02  0.50738210745E+02  0.51100000000E-03 0.  1.
         23    2    1    0    0    0 -0.45015258325E+01  0.28262917802E+02  0.14021617095E+02  0.93130547487E+02  0.87507924623E+02 0.  0.
         11    1    3    3    0    0  0.14370830397E+02 -0.12312979183E+02  0.37933889750E+02  0.42392336742E+02  0.51100000000E-03 0. -1.
         22    1    1    0    0    0  0.45015258325E+01 -0.28262917802E+02 -0.14021617095E+02  0.31869452513E+02  0.00000000000E+00 0.  1.
</event>
<event>
 5    1  0.1692178E-003  0.9118800E+02  0.7818608E-02  0.1130116E+00
         25   -1    0    0    0    0  0.00000000000E+00  0.00000000000E+00  0.99999998245E-14  0.12500000000E+03  0.12500000000E+03 0.  0.
        -11    1    3    3    0    0  0.36408342820E+02 -0.12853372807E+02 -0.10922460526E+01  0.38626022590E+02  0.51100000000E-03 0.  1.
         23    2    1    0    0    0 -0.63827248489E+01  0.25454960022E+02 -0.10328941625E+02  0.96797496542E+02  0.92597916475E+02 0.  0.
         11    1    3    3    0    0 -0.42791067669E+02  0.38308332829E+02 -0.92366955723E+01  0.58171473952E+02  0.51100000000E-03 0. -1.
         22    1    1    0    0    0  0.63827248489E+01 -0.25454960022E+02  0.10328941625E+02  0.28202503458E+02  0.00000000000E+00 0. -1.
</event>
<event>
 5    1  0.1692178E-003  0.9118800E+02  0.7818608E-02  0.1130116E+00
         25   -1    0    0    0    0  0.00000000000E+00  0.00000000000E+00  0.99999998245E-14  0.12500000000E+03  0.12500000000E+03 0.  0.
        -11    1    3    3    0    0  0.29560471789E+02  0.26223236706E+01 -0.53589029654E+02  0.61257507077E+02  0.51100000000E-03 0.  1.
         23    2    1    0    0    0  0.14558880626E+02  0.96444732914E+01 -0.22143630079E+02  0.96798630827E+02  0.92599447659E+02 0.  0.
         11    1    3    3    0    0 -0.15001591163E+02  0.70221496207E+01  0.31445399575E+02  0.35541123750E+02  0.51100000000E-03 0. -1.
         22    1    1    0    0    0 -0.14558880626E+02 -0.96444732914E+01  0.22143630079E+02  0.28201369173E+02  0.00000000000E+00 0.  1.
</event>
<event>
 5    1  0.1692178E-003  0.9118800E+02  0.7818608E-02  0.1130116E+00
         25   -1    0    0    0    0  0.00000000000E+00  0.00000000000E+00  0.99999998245E-14  0.12500000000E+03  0.12500000000E+03 0.  0.
        -11    1    3    3    0    0  0.31809253940E+02 -0.23087216227E+02  0.31284123974E+02  0.50234894270E+02  0.51100000000E-03 0.  1.
         23    2    1    0    0    0  0.32446922800E+02  0.99825754480E+01  0.98369414289E+01  0.89655693125E+02  0.82394922667E+02 0.  0.
         11    1    3    3    0    0  0.63766886073E+00  0.33069791675E+02 -0.21447182545E+02  0.39420798855E+02  0.51100000000E-03 0. -1.
         22    1    1    0    0    0 -0.32446922800E+02 -0.99825754480E+01 -0.98369414289E+01  0.35344306875E+02  0.00000000000E+00 0.  1.
</event>
<event>
 5    1  0.1692178E-003  0.9118800E+02  0.7818608E-02  0.1130116E+00
         25   -1    0    0    0    0  0.00000000000E+00  0.00000000000E+00  0.99999998245E-14  0.12500000000E+03  0.12500000000E+03 0.  0.
        -11    1    3    3    0    0 -0.19638530285E+02 -0.31143553259E+02  0.13496539987E+02  0.39214147616E+02  0.51100000000E-03 0.  1.
         23    2    1    0    0    0  0.22488234764E+02  0.76116407719E+00 -0.13709836369E+02  0.98651191927E+02  0.95067333937E+02 0.  0.
         11    1    3    3    0    0  0.42126765049E+02  0.31904717336E+02 -0.27206376356E+02  0.59437044312E+02  0.51100000000E-03 0. -1.
         22    1    1    0    0    0 -0.22488234764E+02 -0.76116407719E+00  0.13709836369E+02  0.26348808073E+02  0.00000000000E+00 0. -1.
</event>
<event>
 5    1  0.1692178E-003  0.9118800E+02  0.7818608E-02  0.1130116E+00
         25   -1    0    0    0    0  0.00000000000E+00  0.00000000000E+00  0.99999998245E-14  0.12500000000E+03  0.12500000000E+03 0.  0.
        -11    1    3    3    0    0 -0.48777729708E+02 -0.20904900930E+02 -0.19722194501E+02  0.56614898698E+02  0.51100000000E-03 0. -1.
         23    2    1    0    0    0 -0.28205987807E+02  0.29848274601E+01  0.43816842430E+01  0.96300067945E+02  0.91923973947E+02 0.  0.
         11    1    3    3    0    0  0.20571741901E+02  0.23889728390E+02  0.24103878744E+02  0.39685169247E+02  0.51100000000E-03 0.  1.
         22    1    1    0    0    0  0.28205987807E+02 -0.29848274601E+01 -0.43816842430E+01  0.28699932055E+02  0.00000000000E+00 0. -1.
</event>
<event>
 5    1  0.1692178E-003  0.9118800E+02  0.7818608E-02  0.1130116E+00
         25   -1    0    0    0    0  0.00000000000E+00  0.00000000000E+00  0.99999998245E-14  0.12500000000E+03  0.12500000000E+03 0.  0.
        -11    1    3    3    0    0  0.97288534637E+01 -0.14070477990E+02  0.33375050925E+02  0.37503639358E+02  0.51100000000E-03 0.  1.
         23    2    1    0    0    0 -0.80634608736E+01 -0.70436357494E+01 -0.24395180418E+02  0.98358734387E+02  0.94682013059E+02 0.  0.
         11    1    3    3    0    0 -0.17792314337E+02  0.70268422401E+01 -0.57770231343E+02  0.60855095029E+02  0.51100000000E-03 0. -1.
         22    1    1    0    0    0  0.80634608736E+01  0.70436357494E+01  0.24395180418E+02  0.26641265613E+02  0.00000000000E+00 0. -1.
</event>
<event>
 5    1  0.1692178E-003  0.9118800E+02  0.7818608E-02  0.1130116E+00
         25   -1    0    0    0    0  0.00000000000E+00  0.00000000000E+00  0.99999998245E-14  0.12500000000E+03  0.12500000000E+03 0.  0.
        -11    1    3    3    0    0 -0.38824637430E+02 -0.18577917514E+02 -0.39755944227E+02  0.58592035230E+02  0.51100000000E-03 0. -1.
         23    2    1    0    0    0 -0.17713211323E+02  0.60296553616E+01 -0.23791930423E+02  0.94731690625E+02  0.89765932604E+02 0.  0.
         11    1    3    3    0    0  0.21111426107E+02  0.24607572876E+02  0.15964013803E+02  0.36139655395E+02  0.51100000000E-03 0.  1.
         22    1    1    0    0    0  0.17713211323E+02 -0.60296553616E+01  0.23791930423E+02  0.30268309375E+02  0.00000000000E+00 0. -1.
</event>
<event>
 5    1  0.1692178E-003  0.9118800E+02  0.7818608E-02  0.1130116E+00
         25   -1    0    0    0    0  0.00000000000E+00  0.00000000000E+00  0.99999998245E-14  0.12500000000E+03  0.12500000000E+03 0.  0.
        -11    1    3    3    0    0 -0.81760604523E+01 -0.33868750856E+02 -0.43745372767E+02  0.55924930826E+02  0.51100000000E-03 0. -1.
         23    2    1    0    0    0  0.15306380395E+02 -0.70284283588E+01 -0.20382804326E+02  0.98558691443E+02  0.94945631078E+02 0.  0.
         11    1    3    3    0    0  0.23482440848E+02  0.26840322497E+02  0.23362568441E+02  0.42633760617E+02  0.51100000000E-03 0.  1.
         22    1    1    0    0    0 -0.15306380395E+02  0.70284283588E+01  0.20382804326E+02  0.26441308557E+02  0.00000000000E+00 0. -1.
</event>
<event>
 5    1  0.1692178E-003  0.9118800E+02  0.7818608E-02  0.1130116E+00
         25   -1    0    0    0    0  0.00000000000E+00  0.00000000000E+00  0.99999998245E-14  0.12500000000E+03  0.12500000000E+03 0.  0.
        -11    1    3    3    0    0  0.35841746114E+02  0.39693673257E+02 -0.27791371269E+02  0.60270878361E+02  0.51100000000E-03 0.  1.
         23    2    1    0    0    0  0.17887681276E+02  0.98942285745E+01 -0.20953986142E+02  0.95726557501E+02  0.91140766813E+02 0.  0.
         11    1    3    3    0    0 -0.17954064839E+02 -0.29799444683E+02  0.68373851276E+01  0.35455679140E+02  0.51100000000E-03 0. -1.
         22    1    1    0    0    0 -0.17887681276E+02 -0.98942285745E+01  0.20953986142E+02  0.29273442499E+02  0.00000000000E+00 0.  1.
</event>
<event>
 5    1  0.1692178E-003  0.9118800E+02  0.7818608E-02  0.1130116E+00
         25   -1    0    0    0    0  0.00000000000E+00  0.00000000000E+00  0.99999998245E-14  0.12500000000E+03  0.12500000000E+03 0.  0.
        -11    1    3    3    0    0  0.11385467838E+01  0.22997158763E+02  0.30275730884E+02  0.38036633405E+02  0.51100000000E-03 0. -1.
         23    2    1    0    0    0 -0.19096784547E+02 -0.85061637410E+01 -0.16795517867E+02  0.98183374149E+02  0.94450217242E+02 0.  0.
         11    1    3    3    0    0 -0.20235331331E+02 -0.31503322504E+02 -0.47071248751E+02  0.60146740744E+02  0.51100000000E-03 0.  1.
         22    1    1    0    0    0  0.19096784547E+02  0.85061637410E+01  0.16795517867E+02  0.26816625851E+02  0.00000000000E+00 0.  1.
</event>
<event>
 5    1  0.1692178E-003  0.9118800E+02  0.7818608E-02  0.1130116E+00
         25   -1    0    0    0    0  0.00000000000E+00  0.00000000000E+00  0.99999998245E-14  0.12500000000E+03  0.12500000000E+03 0.  0.
        -11    1    3    3    0    0 -0.37003359984E+02  0.13303990180E+02  0.16554559241E+02  0.42664953260E+02  0.51100000000E-03 0. -1.
         23    2    1    0    0    0  0.72501138621E+01 -0.14805622022E+02  0.24274700676E+02  0.95656658551E+02  0.91044849595E+02 0.  0.
         11    1    3    3    0    0  0.44253473846E+02 -0.28109612202E+02  0.77201414348E+01  0.52991705291E+02  0.51100000000E-03 0.  1.
         22    1    1    0    0    0 -0.72501138621E+01  0.14805622022E+02 -0.24274700676E+02  0.29343341449E+02  0.00000000000E+00 0.  1.
</event>
<event>
 5    1  0.1692178E-003  0.9118800E+02  0.7818608E-02  0.1130116E+00
         25   -1    0    0    0    0  0.00000000000E+00  0.00000000000E+00  0.99999998245E-14  0.12500000000E+03  0.12500000000E+03 0.  0.
        -11    1    3    3    0    0  0.13254568009E+02  0.46265333283E+02 -0.19541268650E+02  0.51942524174E+02  0.51100000000E-03 0.  1.
         23    2    1    0    0    0  0.23969975103E+02  0.14489835411E+02  0.85793198108E+01  0.95706318684E+02  0.91113004949E+02 0.  0.
         11    1    3    3    0    0  0.10715407093E+02 -0.31775497872E+02  0.28120588461E+02  0.43763794509E+02  0.51100000000E-03 0. -1.
         22    1    1    0    0    0 -0.23969975103E+02 -0.14489835411E+02 -0.85793198108E+01  0.29293681316E+02  0.00000000000E+00 0.  1.
</event>
<event>
 5    1  0.1692178E-003  0.9118800E+02  0.7818608E-02  0.1130116E+00
         25   -1    0    0    0    0  0.00000000000E+00  0.00000000000E+00  0.99999998245E-14  0.12500000000E+03  0.12500000000E+03 0.  0.
        -11    1    3    3    0    0  0.23714368194E+02 -0.21635048959E+02 -0.21174892706E+02  0.38455463639E+02  0.51100000000E-03 0.  1.
         23    2    1    0    0    0  0.35377837146E+01 -0.98731408950E+00  0.28690827830E+02  0.96075022829E+02  0.91617442157E+02 0.  0.
         11    1    3    3    0    0 -0.20176584479E+02  0.20647734870E+02  0.49865720536E+02  0.57619559191E+02  0.51100000000E-03 0. -1.
         22    1    1    0    0    0 -0.35377837146E+01  0.98731408950E+00 -0.28690827830E+02  0.28924977171E+02  0.00000000000E+00 0. -1.
</event>
<event>
 5    1  0.1692178E-003  0.9118800E+02  0.7818608E-02  0.1130116E+00
         25   -1    0    0    0    0  0.00000000000E+00  0.00000000000E+00  0.99999998245E-14  0.12500000000E+03  0.12500000000E+03 0.  0.
        -11    1    3    3    0    0  0.17157995322E+01 -0.27754171593E+01 -0.59458233613E+02  0.59547698974E+02  0.51100000000E-03 0. -1.
         23    2    1    0    0    0  0.11099670391E+02  0.70543372556E+01 -0.22330149810E+02  0.99084715949E+02  0.95635657509E+02 0.  0.
         11    1    3    3    0    0  0.93838708584E+01  0.98297544149E+01  0.37128083803E+02  0.39537016975E+02  0.51100000000E-03 0.  1.
         22    1    1    0    0    0 -0.11099670391E+02 -0.70543372556E+01  0.22330149810E+02  0.25915284051E+02  0.00000000000E+00 0. -1.
</event>
<event>
 5    1  0.1692178E-003  0.9118800E+02  0.7818608E-02  0.1130116E+00
         25   -1    0    0    0    0  0.00000000000E+00  0.00000000000E+00  0.99999998245E-14  0.12500000000E+03  0.12500000000E+03 0.  0.
        -11    1    3    3    0    0 -0.33189109502E+00  0.35963063140E+02 -0.68856703693E+01  0.36617816958E+02  0.51100000000E-03 0. -1.
         23    2    1    0    0    0  0.18909626637E+02 -0.12551495682E+02  0.19479964931E+02  0.95090418640E+02  0.90264082890E+02 0.  0.
         11    1    3    3    0    0  0.19241517732E+02 -0.48514558822E+02  0.26365635301E+02  0.58472601682E+02  0.51100000000E-03 0.  1.
         22    1    1    0    0    0 -0.18909626637E+02  0.12551495682E+02 -0.19479964931E+02  0.29909581360E+02  0.00000000000E+00 0.  1.
</event>
<event>
 5    1  0.1692178E-003  0.9118800E+02  0.7818608E-02  0.1130116E+00
         25   -1    0    0    0    0  0.00000000000E+00  0.00000000000E+00  0.99999998245E-14  0.12500000000E+03  0.12500000000E+03 0.  0.
        -11    1    3    3    0    0  0.49094883058E+02  0.31857216317E+01 -0.10359690173E+02  0.50277028010E+02  0.51100000000E-03 0.  1.
         23    2    1    0    0    0  0.99228506483E+01  0.21398866441E+02 -0.19456250712E+02  0.94423536148E+02  0.89335793705E+02 0.  0.
         11    1    3    3    0    0 -0.39172032409E+02  0.18213144809E+02 -0.90965605386E+01  0.44146508138E+02  0.51100000000E-03 0. -1.
         22    1    1    0    0    0 -0.99228506483E+01 -0.21398866441E+02  0.19456250712E+02  0.30576463852E+02  0.00000000000E+00 0.  1.
</event>
<event>
 5    1  0.1692178E-003  0.9118800E+02  0.7818608E-02  0.1130116E+00
         25   -1    0    0    0    0  0.00000000000E+00  0.00000000000E+00  0.99999998245E-14  0.12500000000E+03  0.12500000000E+03 0.  0.
        -11    1    3    3    0    0 -0.10238917447E+01 -0.60405400598E+01  0.43785102642E+02  0.44211669185E+02  0.51100000000E-03 0. -1.
         23    2    1    0    0    0 -0.66799493951E+01 -0.28941049789E+02 -0.14873228865E+01  0.95260830270E+02  0.90499765567E+02 0.  0.
         11    1    3    3    0    0 -0.56560576505E+01 -0.22900509730E+02 -0.45272425528E+02  0.51049161085E+02  0.51100000000E-03 0.  1.
         22    1    1    0    0    0  0.66799493951E+01  0.28941049789E+02  0.14873228865E+01  0.29739169730E+02  0.00000000000E+00 0.  1.
</event>
<event>
 5    1  0.1692178E-003  0.9118800E+02  0.7818608E-02  0.1130116E+00
         25   -1    0    0    0    0  0.00000000000E+00  0.00000000000E+00  0.99999998245E-14  0.12500000000E+03  0.12500000000E+03 0.  0.
        -11    1    3    3    0    0  0.47696855787E+02  0.31134135558E+02  0.97182096872E+01  0.57782073766E+02  0.51100000000E-03 0.  1.
         23    2    1    0    0    0  0.76193959974E+01  0.24081758077E+02  0.79745819302E+01  0.98512640290E+02  0.94884983388E+02 0.  0.
         11    1    3    3    0    0 -0.40077459790E+02 -0.70523774807E+01 -0.17436277570E+01  0.40730566524E+02  0.51100000000E-03 0. -1.
         22    1    1    0    0    0 -0.76193959974E+01 -0.24081758077E+02 -0.79745819302E+01  0.26487359710E+02  0.00000000000E+00 0.  1.
</event>
<event>
 5    1  0.1692178E-003  0.9118800E+02  0.7818608E-02  0.1130116E+00
         25   -1    0    0    0    0  0.00000000000E+00  0.00000000000E+00  0.99999998245E-14  0.12500000000E+03  0.12500000000E+03 0.  0.
        -11    1    3    3    0    0 -0.26572998092E+02  0.21308805931E+02  0.79706335439E+01  0.34981715755E+02  0.51100000000E-03 0.  1.
         23    2    1    0    0    0  0.15918134404E+02 -0.17943275625E+02 -0.14422668424E+02  0.97011403974E+02  0.92886226069E+02 0.  0.
         11    1    3    3    0    0  0.42491132495E+02 -0.39252081556E+02 -0.22393301968E+02  0.62029688219E+02  0.51100000000E-03 0. -1.
         22    1    1    0    0    0 -0.15918134404E+02  0.17943275625E+02  0.14422668424E+02  0.27988596026E+02  0.00000000000E+00 0. -1.
</event>
<event>
 5    1  0.1692178E-003  0.9118800E+02  0.7818608E-02  0.1130116E+00
         25   -1    0    0    0    0  0.00000000000E+00  0.00000000000E+00  0.99999998245E-14  0.12500000000E+03  0.12500000000E+03 0.  0.
        -11    1    3    3    0    0  0.34390087103E+02 -0.10678928555E+02  0.48400715659E+02  0.60326999616E+02  0.51100000000E-03 0. -1.
         23    2    1    0    0    0  0.16539071222E+02 -0.15710835499E+02  0.17985558292E+02  0.95950877190E+02  0.91447904828E+02 0.  0.
         11    1    3    3    0    0 -0.17851015881E+02 -0.50319069433E+01 -0.30415157367E+02  0.35623877574E+02  0.51100000000E-03 0.  1.
         22    1    1    0    0    0 -0.16539071222E+02  0.15710835499E+02 -0.17985558292E+02  0.29049122810E+02  0.00000000000E+00 0. -1.
</event>
<event>
 5    1  0.1692178E-003  0.9118800E+02  0.7818608E-02  0.1130116E+00
         25   -1    0    0    0    0  0.00000000000E+00  0.00000000000E+00  0.99999998245E-14  0.12500000000E+03  0.12500000000E+03 0.  0.
        -11    1    3    3    0    0  0.27678407706E+02 -0.20531443181E+02  0.22923636133E+02  0.41389944504E+02  0.51100000000E-03 0.  1.
         23    2    1    0    0    0 -0.15986653207E+02 -0.31152137537E+02  0.56562515936E+01  0.89531395066E+02  0.82206135821E+02 0.  0.
         11    1    3    3    0    0 -0.43665060913E+02 -0.10620694355E+02 -0.17267384539E+02  0.48141450562E+02  0.51100000000E-03 0. -1.
         22    1    1    0    0    0  0.15986653207E+02  0.31152137537E+02 -0.56562515936E+01  0.35468604934E+02  0.00000000000E+00 0.  1.
</event>
<event>
 5    1  0.1692178E-003  0.9118800E+02  0.7818608E-02  0.1130116E+00
         25   -1    0    0    0    0  0.00000000000E+00  0.00000000000E+00  0.99999998245E-14  0.12500000000E+03  0.12500000000E+03 0.  0.
        -11    1    3    3    0    0  0.41162441787E+02  0.13762052921E+02 -0.23252462790E+02  0.49238376704E+02  0.51100000000E-03 0. -1.
         23    2    1    0    0    0  0.17187259605E+02  0.11939157385E+02  0.18269807729E+02  0.97219948772E+02  0.93166448859E+02 0.  0.
         11    1    3    3    0    0 -0.23975182182E+02 -0.18228955361E+01  0.41522270518E+02  0.47981572067E+02  0.51100000000E-03 0.  1.
         22    1    1    0    0    0 -0.17187259605E+02 -0.11939157385E+02 -0.18269807729E+02  0.27780051228E+02  0.00000000000E+00 0. -1.
</event>
<event>
 5    1  0.1692178E-003  0.9118800E+02  0.7818608E-02  0.1130116E+00
         25   -1    0    0    0    0  0.00000000000E+00  0.00000000000E+00  0.99999998245E-14  0.12500000000E+03  0.12500000000E+03 0.  0.
        -11    1    3    3    0    0  0.48367705663E+02 -0.11251894513E+02 -0.36210286544E+02  0.61459132219E+02  0.51100000000E-03 0.  1.
         23    2    1    0    0    0  0.24292701985E+02  0.25297094465E+01 -0.18328875969E+02  0.94463423671E+02  0.89391587511E+02 0.  0.
         11    1    3    3    0    0 -0.24075003678E+02  0.13781603959E+02  0.17881410575E+02  0.33004291451E+02  0.51100000000E-03 0. -1.
         22    1    1    0    0    0 -0.24292701985E+02 -0.25297094465E+01  0.18328875969E+02  0.30536576329E+02  0.00000000000E+00 0.  1.
</event>
<event>
 5    1  0.1692178E-003  0.9118800E+02  0.7818608E-02  0.1130116E+00
         25   -1    0    0    0    0  0.00000000000E+00  0.00000000000E+00  0.99999998245E-14  0.12500000000E+03  0.12500000000E+03 0.  0.
        -11    1    3    3    0    0 -0.75761084169E+01  0.48954000143E+02  0.32972076539E+02  0.59506717102E+02  0.51100000000E-03 0.  1.
         23    2    1    0    0    0 -0.17340615896E+02  0.38800182883E+02  0.25011813549E+02  0.75687304186E+02  0.57417994101E+02 0.  0.
         11    1    3    3    0    0 -0.97645074786E+01 -0.10153817260E+02 -0.79602629897E+01  0.16180587084E+02  0.51100000000E-03 0. -1.
         22    1    1    0    0    0  0.17340615896E+02 -0.38800182883E+02 -0.25011813549E+02  0.49312695814E+02  0.00000000000E+00 0.  1.
</event>
<event>
 5    1  0.1692178E-003  0.9118800E+02  0.7818608E-02  0.1130116E+00
         25   -1    0    0    0    0  0.00000000000E+00  0.00000000000E+00  0.99999998245E-14  0.12500000000E+03  0.12500000000E+03 0.  0.
        -11    1    3    3    0    0  0.15057531871E+02  0.12435221179E+02 -0.27253292812E+02  0.33527689470E+02  0.51100000000E-03 0.  1.
         23    2    1    0    0    0 -0.16862399162E+02 -0.24182986916E+02  0.90376365353E+01  0.94164367433E+02  0.88972421897E+02 0.  0.
         11    1    3    3    0    0 -0.31919931032E+02 -0.36618208096E+02  0.36290929347E+02  0.60636677963E+02  0.51100000000E-03 0. -1.
         22    1    1    0    0    0  0.16862399162E+02  0.24182986916E+02 -0.90376365353E+01  0.30835632567E+02  0.00000000000E+00 0. -1.
</event>
<event>
 5    1  0.1692178E-003  0.9118800E+02  0.7818608E-02  0.1130116E+00
         25   -1    0    0    0    0  0.00000000000E+00  0.00000000000E+00  0.99999998245E-14  0.12500000000E+03  0.12500000000E+03 0.  0.
        -11    1    3    3    0    0  0.33947947086E+02  0.22685178105E+02  0.38286620861E+02  0.55972723305E+02  0.51100000000E-03 0.  1.
         23    2    1    0    0    0  0.26432524300E+02  0.14010220573E+02  0.91186953828E+00  0.95070146552E+02  0.90236005220E+02 0.  0.
         11    1    3    3    0    0 -0.75154227860E+01 -0.86749575314E+01 -0.37374751323E+02  0.39097423247E+02  0.51100000000E-03 0. -1.
         22    1    1    0    0    0 -0.26432524300E+02 -0.14010220573E+02 -0.91186953828E+00  0.29929853448E+02  0.00000000000E+00 0.  1.
</event>
<event>
 5    1  0.1692178E-003  0.9118800E+02  0.7818608E-02  0.1130116E+00
         25   -1    0    0    0    0  0.00000000000E+00  0.00000000000E+00  0.99999998245E-14  0.12500000000E+03  0.12500000000E+03 0.  0.
        -11    1    3    3    0    0  0.94174930793E+01  0.15258964015E+02  0.55927075604E+02  0.58731277396E+02  0.51100000000E-03 0. -1.
         23    2    1    0    0    0  0.11235502484E+02  0.19117686845E+02  0.19310062619E+02  0.95595901906E+02  0.90961395529E+02 0.  0.
         11    1    3    3    0    0  0.18180094045E+01  0.38587228308E+01 -0.36617012985E+02  0.36864624510E+02  0.51100000000E-03 0.  1.
         22    1    1    0    0    0 -0.11235502484E+02 -0.19117686845E+02 -0.19310062619E+02  0.29404098094E+02  0.00000000000E+00 0. -1.
</event>
<event>
 5    1  0.1692178E-003  0.9118800E+02  0.7818608E-02  0.1130116E+00
         25   -1    0    0    0    0  0.00000000000E+00  0.00000000000E+00  0.99999998245E-14  0.12500000000E+03  0.12500000000E+03 0.  0.
        -11    1    3    3    0    0  0.45079169883E+02 -0.28514298471E+02 -0.71258169448E+01  0.53814255008E+02  0.51100000000E-03 0.  1.
         23    2    1    0    0    0  0.13321474416E+02 -0.95348756284E+01 -0.25163253890E+02  0.94973929991E+02  0.90102622035E+02 0.  0.
         11    1    3    3    0    0 -0.31757695467E+02  0.18979422843E+02 -0.18037436945E+02  0.41159674982E+02  0.51100000000E-03 0. -1.
         22    1    1    0    0    0 -0.13321474416E+02  0.95348756284E+01  0.25163253890E+02  0.30026070009E+02  0.00000000000E+00 0.  1.
</event>
<event>
 5    1  0.1692178E-003  0.9118800E+02  0.7818608E-02  0.1130116E+00
         25   -1    0    0    0    0  0.00000000000E+00  0.00000000000E+00  0.99999998245E-14  0.12500000000E+03  0.12500000000E+03 0.  0.
        -11    1    3    3    0    0  0.22484948390E+02 -0.55813023062E+02  0.89062705707E+01  0.60827527512E+02  0.51100000000E-03 0.  1.
         23    2    1    0    0    0  0.92451423183E+01 -0.23408551992E+02  0.13998478142E+02  0.96200861938E+02  0.91788972564E+02 0.  0.
         11    1    3    3    0    0 -0.13239806072E+02  0.32404471071E+02  0.50922075717E+01  0.35373334426E+02  0.51100000000E-03 0. -1.
         22    1    1    0    0    0 -0.92451423183E+01  0.23408551992E+02 -0.13998478142E+02  0.28799138062E+02  0.00000000000E+00 0.  1.
</event>
<event>
 5    1  0.1692178E-003  0.9118800E+02  0.7818608E-02  0.1130116E+00
         25   -1    0    0    0    0  0.00000000000E+00  0.00000000000E+00  0.99999998245E-14  0.12500000000E+03  0.12500000000E+03 0.  0.
        -11    1    3    3    0    0  0.54347821582E+02 -0.14022931099E+02  0.23648848958E+02  0.60906455854E+02  0.51100000000E-03 0. -1.
         23    2    1    0    0    0  0.21946587108E+02 -0.17582519416E+01  0.19108137300E+02  0.95847555048E+02  0.91306564726E+02 0.  0.
         11    1    3    3    0    0 -0.32401234474E+02  0.12264679157E+02 -0.45407116577E+01  0.34941099194E+02  0.51100000000E-03 0.  1.
         22    1    1    0    0    0 -0.21946587108E+02  0.17582519416E+01 -0.19108137300E+02  0.29152444952E+02  0.00000000000E+00 0. -1.
</event>
<event>
 5    1  0.1692178E-003  0.9118800E+02  0.7818608E-02  0.1130116E+00
         25   -1    0    0    0    0  0.00000000000E+00  0.00000000000E+00  0.99999998245E-14  0.12500000000E+03  0.12500000000E+03 0.  0.
        -11    1    3    3    0    0 -0.12954800114E+02 -0.35641327500E+02 -0.15171785113E+00  0.37923002130E+02  0.51100000000E-03 0. -1.
         23    2    1    0    0    0 -0.17233351778E+02  0.21458974879E+02  0.92807171042E+01  0.95955074000E+02  0.91453641262E+02 0.  0.
         11    1    3    3    0    0 -0.42785516644E+01  0.57100302379E+02  0.94324349554E+01  0.58032071871E+02  0.51100000000E-03 0.  1.
         22    1    1    0    0    0  0.17233351778E+02 -0.21458974879E+02 -0.92807171042E+01  0.29044926000E+02  0.00000000000E+00 0.  1.
</event>
<event>
 5    1  0.1692178E-003  0.9118800E+02  0.7818608E-02  0.1130116E+00
         25   -1    0    0    0    0  0.00000000000E+00  0.00000000000E+00  0.99999998245E-14  0.12500000000E+03  0.12500000000E+03 0.  0.
        -11    1    3    3    0    0  0.32981226971E+02 -0.18429889027E+02  0.36304860815E+02  0.52397185623E+02  0.51100000000E-03 0.  1.
         23    2    1    0    0    0 -0.48547518743E+00  0.79496999767E+01  0.28099734210E+02  0.95793348728E+02  0.91232325313E+02 0.  0.
         11    1    3    3    0    0 -0.33466702159E+02  0.26379589004E+02 -0.82051266058E+01  0.43396163105E+02  0.51100000000E-03 0. -1.
         22    1    1    0    0    0  0.48547518743E+00 -0.79496999767E+01 -0.28099734210E+02  0.29206651272E+02  0.00000000000E+00 0.  1.
</event>
<event>
 5    1  0.1692178E-003  0.9118800E+02  0.7818608E-02  0.1130116E+00
         25   -1    0    0    0    0  0.00000000000E+00  0.00000000000E+00  0.99999998245E-14  0.12500000000E+03  0.12500000000E+03 0.  0.
        -11    1    3    3    0    0 -0.13697403926E+01  0.27532153480E+02 -0.32560299014E+02  0.42662263608E+02  0.51100000000E-03 0. -1.
         23    2    1    0    0    0  0.21310430992E+02  0.11930825500E+02  0.14071675829E+02  0.96813281021E+02  0.92619221845E+02 0.  0.
         11    1    3    3    0    0  0.22680171385E+02 -0.15601327981E+02  0.46631974843E+02  0.54151017413E+02  0.51100000000E-03 0.  1.
         22    1    1    0    0    0 -0.21310430992E+02 -0.11930825500E+02 -0.14071675829E+02  0.28186718979E+02  0.00000000000E+00 0.  1.
</event>
<event>
 5    1  0.1692178E-003  0.9118800E+02  0.7818608E-02  0.1130116E+00
         25   -1    0    0    0    0  0.00000000000E+00  0.00000000000E+00  0.99999998245E-14  0.12500000000E+03  0.12500000000E+03 0.  0.
        -11    1    3    3    0    0 -0.17188108497E+02 -0.32773615741E+02  0.71048039932E+01  0.37683142152E+02  0.51100000000E-03 0. -1.
         23    2    1    0    0    0  0.13378922186E+02  0.56671920641E+01 -0.24805799948E+02  0.96252124673E+02  0.91858756623E+02 0.  0.
         11    1    3    3    0    0  0.30567030682E+02  0.38440807805E+02 -0.31910603941E+02  0.58568982521E+02  0.51100000000E-03 0.  1.
         22    1    1    0    0    0 -0.13378922186E+02 -0.56671920641E+01  0.24805799948E+02  0.28747875327E+02  0.00000000000E+00 0.  1.
</event>
<event>
 5    1  0.1692178E-003  0.9118800E+02  0.7818608E-02  0.1130116E+00
         25   -1    0    0    0    0  0.00000000000E+00  0.00000000000E+00  0.99999998245E-14  0.12500000000E+03  0.12500000000E+03 0.  0.
        -11    1    3    3    0    0 -0.17181743899E+02  0.24432027106E+01 -0.29456341409E+02  0.34188559671E+02  0.51100000000E-03 0. -1.
         23    2    1    0    0    0  0.39833417691E+01  0.46329512301E+01  0.28460839235E+02  0.95890712501E+02  0.91365628796E+02 0.  0.
         11    1    3    3    0    0  0.21165085668E+02  0.21897485195E+01  0.57917180644E+02  0.61702152830E+02  0.51100000000E-03 0.  1.
         22    1    1    0    0    0 -0.39833417691E+01 -0.46329512301E+01 -0.28460839235E+02  0.29109287499E+02  0.00000000000E+00 0.  1.
</event>
<event>
 5    1  0.1692178E-003  0.9118800E+02  0.7818608E-02  0.1130116E+00
         25   -1    0    0    0    0  0.00000000000E+00  0.00000000000E+00  0.99999998245E-14  0.12500000000E+03  0.12500000000E+03 0.  0.
        -11    1    3    3    0    0  0.12390808252E+02 -0.21818182908E+02 -0.22199746737E+02  0.33502149035E+02  0.51100000000E-03 0. -1.
         23    2    1    0    0    0  0.44790491822E+01 -0.60209294934E+00  0.32230381967E+02  0.92454310282E+02  0.86536567823E+02 0.  0.
         11    1    3    3    0    0 -0.79117590695E+01  0.21216089959E+02  0.54430128704E+02  0.58952161247E+02  0.51100000000E-03 0.  1.
         22    1    1    0    0    0 -0.44790491822E+01  0.60209294934E+00 -0.32230381967E+02  0.32545689718E+02  0.00000000000E+00 0.  1.
</event>
<event>
 5    1  0.1692178E-003  0.9118800E+02  0.7818608E-02  0.1130116E+00
         25   -1    0    0    0    0  0.00000000000E+00  0.00000000000E+00  0.99999998245E-14  0.12500000000E+03  0.12500000000E+03 0.  0.
        -11    1    3    3    0    0 -0.33659493564E+02  0.44616084994E+02 -0.27117959177E+02  0.62120369102E+02  0.51100000000E-03 0.  1.
         23    2    1    0    0    0 -0.16206205443E+02  0.22780155310E+02 -0.82307514126E+01  0.95856873201E+02  0.91319320520E+02 0.  0.
         11    1    3    3    0    0  0.17453288121E+02 -0.21835929685E+02  0.18887207764E+02  0.33736504099E+02  0.51100000000E-03 0. -1.
         22    1    1    0    0    0  0.16206205443E+02 -0.22780155310E+02  0.82307514126E+01  0.29143126799E+02  0.00000000000E+00 0.  1.
</event>
<event>
 5    1  0.1692178E-003  0.9118800E+02  0.7818608E-02  0.1130116E+00
         25   -1    0    0    0    0  0.00000000000E+00  0.00000000000E+00  0.99999998245E-14  0.12500000000E+03  0.12500000000E+03 0.  0.
        -11    1    3    3    0    0  0.35238960052E+02 -0.29995926454E+02  0.40437543591E+02  0.61455144954E+02  0.51100000000E-03 0.  1.
         23    2    1    0    0    0  0.28807154735E+02 -0.15633694664E+02  0.22908226389E+02  0.85011859144E+02  0.75019762636E+02 0.  0.
         11    1    3    3    0    0 -0.64318053164E+01  0.14362231790E+02 -0.17529317202E+02  0.23556714190E+02  0.51100000000E-03 0. -1.
         22    1    1    0    0    0 -0.28807154735E+02  0.15633694664E+02 -0.22908226389E+02  0.39988140856E+02  0.00000000000E+00 0.  1.
</event>
<event>
 5    1  0.1692178E-003  0.9118800E+02  0.7818608E-02  0.1130116E+00
         25   -1    0    0    0    0  0.00000000000E+00  0.00000000000E+00  0.99999998245E-14  0.12500000000E+03  0.12500000000E+03 0.  0.
        -11    1    3    3    0    0 -0.33573936418E+02 -0.43153314028E+01  0.43258604398E+02  0.54928482105E+02  0.51100000000E-03 0. -1.
         23    2    1    0    0    0  0.30773053320E+01 -0.76879905276E+01  0.29723689598E+02  0.94144324188E+02  0.88944258090E+02 0.  0.
         11    1    3    3    0    0  0.36651241750E+02 -0.33726591248E+01 -0.13534914799E+02  0.39215842083E+02  0.51100000000E-03 0.  1.
         22    1    1    0    0    0 -0.30773053320E+01  0.76879905276E+01 -0.29723689598E+02  0.30855675812E+02  0.00000000000E+00 0.  1.
</event>
<event>
 4    1  0.1692178E-003  0.9118800E+02  0.7818608E-02  0.1130116E+00
         25   -1    0    0    0    0  0.00000000000E+00  0.00000000000E+00  0.99999998245E-14  0.12500000000E+03  0.12500000000E+03 0.  0.
        -11    1    1    0    0    0 -0.76106136777E+01 -0.39047570661E+02  0.44002336869E+02  0.59319810058E+02  0.51100000000E-03 0. -1.
         11    1    1    0    0    0 -0.89085344318E+01  0.90887801985E+01 -0.46830645680E+01  0.13560936739E+02  0.51100000000E-03 0.  1.
         22    1    1    0    0    0  0.16519148109E+02  0.29958790462E+02 -0.39319272301E+02  0.52119253204E+02  0.00000000000E+00 0. -1.
</event>
<event>
 5    1  0.1692178E-003  0.9118800E+02  0.7818608E-02  0.1130116E+00
         25   -1    0    0    0    0  0.00000000000E+00  0.00000000000E+00  0.99999998245E-14  0.12500000000E+03  0.12500000000E+03 0.  0.
        -11    1    3    3    0    0 -0.21985163256E+01 -0.40336782899E+02  0.33403645447E+02  0.52418441966E+02  0.51100000000E-03 0. -1.
         23    2    1    0    0    0 -0.25748666735E+01  0.30229331355E+01  0.28691431101E+02  0.96035085332E+02  0.91562936459E+02 0.  0.
         11    1    3    3    0    0 -0.37635034787E+00  0.43359716035E+02 -0.47122143467E+01  0.43616643366E+02  0.51100000000E-03 0.  1.
         22    1    1    0    0    0  0.25748666735E+01 -0.30229331355E+01 -0.28691431101E+02  0.28964914668E+02  0.00000000000E+00 0. -1.
</event>
<event>
 5    1  0.1692178E-003  0.9118800E+02  0.7818608E-02  0.1130116E+00
         25   -1    0    0    0    0  0.00000000000E+00  0.00000000000E+00  0.99999998245E-14  0.12500000000E+03  0.12500000000E+03 0.  0.
        -11    1    3    3    0    0 -0.39704240843E+02  0.17071916177E+02  0.25158055471E+02  0.50008047534E+02  0.51100000000E-03 0. -1.
         23    2    1    0    0    0 -0.12254862098E+02 -0.20000573384E+02  0.14734707597E+02  0.97299527284E+02  0.93273157023E+02 0.  0.
         11    1    3    3    0    0  0.27449378745E+02 -0.37072489561E+02 -0.10423347873E+02  0.47291479749E+02  0.51100000000E-03 0.  1.
         22    1    1    0    0    0  0.12254862098E+02  0.20000573384E+02 -0.14734707597E+02  0.27700472716E+02  0.00000000000E+00 0.  1.
</event>
<event>
 5    1  0.1692178E-003  0.9118800E+02  0.7818608E-02  0.1130116E+00
         25   -1    0    0    0    0  0.00000000000E+00  0.00000000000E+00  0.99999998245E-14  0.12500000000E+03  0.12500000000E+03 0.  0.
        -11    1    3    3    0    0 -0.20361404774E+02  0.44469404501E+02 -0.16090780301E+02  0.51488134090E+02  0.51100000000E-03 0. -1.
         23    2    1    0    0    0  0.15497036227E+02  0.19531068987E+02 -0.16382726988E+02  0.95166888678E+02  0.90369918499E+02 0.  0.
         11    1    3    3    0    0  0.35858441001E+02 -0.24938335514E+02 -0.29194668695E+00  0.43678754588E+02  0.51100000000E-03 0.  1.
         22    1    1    0    0    0 -0.15497036227E+02 -0.19531068987E+02  0.16382726988E+02  0.29833111322E+02  0.00000000000E+00 0. -1.
</event>
<event>
 5    1  0.1692178E-003  0.9118800E+02  0.7818608E-02  0.1130116E+00
         25   -1    0    0    0    0  0.00000000000E+00  0.00000000000E+00  0.99999998245E-14  0.12500000000E+03  0.12500000000E+03 0.  0.
        -11    1    3    3    0    0 -0.14859562907E+01  0.27569579626E+02 -0.37535551371E+02  0.46596216626E+02  0.51100000000E-03 0. -1.
         23    2    1    0    0    0 -0.10558746828E+02 -0.18264092217E+02 -0.18109725060E+02  0.97196648748E+02  0.93135182327E+02 0.  0.
         11    1    3    3    0    0 -0.90727905375E+01 -0.45833671843E+02  0.19425826311E+02  0.50600432122E+02  0.51100000000E-03 0.  1.
         22    1    1    0    0    0  0.10558746828E+02  0.18264092217E+02  0.18109725060E+02  0.27803351252E+02  0.00000000000E+00 0.  1.
</event>
<event>
 5    1  0.1692178E-003  0.9118800E+02  0.7818608E-02  0.1130116E+00
         25   -1    0    0    0    0  0.00000000000E+00  0.00000000000E+00  0.99999998245E-14  0.12500000000E+03  0.12500000000E+03 0.  0.
        -11    1    3    3    0    0  0.72557371102E+00 -0.25211571292E+02 -0.23830224211E+02  0.34699126364E+02  0.51100000000E-03 0.  1.
         23    2    1    0    0    0  0.14864161008E+02  0.26777869157E+02  0.17135713985E+01  0.94325354346E+02  0.89198310447E+02 0.  0.
         11    1    3    3    0    0  0.14138587297E+02  0.51989440449E+02  0.25543795610E+02  0.59626227982E+02  0.51100000000E-03 0. -1.
         22    1    1    0    0    0 -0.14864161008E+02 -0.26777869157E+02 -0.17135713985E+01  0.30674645654E+02  0.00000000000E+00 0. -1.
</event>
<event>
 5    1  0.1692178E-003  0.9118800E+02  0.7818608E-02  0.1130116E+00
         25   -1    0    0    0    0  0.00000000000E+00  0.00000000000E+00  0.99999998245E-14  0.12500000000E+03  0.12500000000E+03 0.  0.
        -11    1    3    3    0    0 -0.28169737159E+02  0.34507398148E+01 -0.28228151715E+02  0.40028368020E+02  0.51100000000E-03 0. -1.
         23    2    1    0    0    0  0.11103598903E+02 -0.26992901218E+02 -0.32855513681E+01  0.95628219792E+02  0.91005796234E+02 0.  0.
         11    1    3    3    0    0  0.39273336062E+02 -0.30443641033E+02  0.24942600346E+02  0.55599851772E+02  0.51100000000E-03 0.  1.
         22    1    1    0    0    0 -0.11103598903E+02  0.26992901218E+02  0.32855513681E+01  0.29371780208E+02  0.00000000000E+00 0.  1.
</event>
<event>
 5    1  0.1692178E-003  0.9118800E+02  0.7818608E-02  0.1130116E+00
         25   -1    0    0    0    0  0.00000000000E+00  0.00000000000E+00  0.99999998245E-14  0.12500000000E+03  0.12500000000E+03 0.  0.
        -11    1    3    3    0    0 -0.24305712858E+02  0.25376713215E+02  0.25048204810E+01  0.35228104931E+02  0.51100000000E-03 0. -1.
         23    2    1    0    0    0  0.15375113187E+02 -0.15932148149E+02 -0.18407951263E+02  0.96206248597E+02  0.91796307929E+02 0.  0.
         11    1    3    3    0    0  0.39680826045E+02 -0.41308861363E+02 -0.20912771744E+02  0.60978143667E+02  0.51100000000E-03 0.  1.
         22    1    1    0    0    0 -0.15375113187E+02  0.15932148149E+02  0.18407951263E+02  0.28793751403E+02  0.00000000000E+00 0.  1.
</event>
<event>
 5    1  0.1692178E-003  0.9118800E+02  0.7818608E-02  0.1130116E+00
         25   -1    0    0    0    0  0.00000000000E+00  0.00000000000E+00  0.99999998245E-14  0.12500000000E+03  0.12500000000E+03 0.  0.
        -11    1    3    3    0    0 -0.93318365737E+01 -0.25150289811E+02  0.25003896394E+02  0.36671720529E+02  0.51100000000E-03 0.  1.
         23    2    1    0    0    0  0.31538045482E+01 -0.17930489804E+01 -0.28446010264E+02  0.96323580982E+02  0.91955941871E+02 0.  0.
         11    1    3    3    0    0  0.12485641122E+02  0.23357240831E+02 -0.53449906658E+02  0.59651860453E+02  0.51100000000E-03 0. -1.
         22    1    1    0    0    0 -0.31538045482E+01  0.17930489804E+01  0.28446010264E+02  0.28676419018E+02  0.00000000000E+00 0. -1.
</event>
<event>
 5    1  0.1692178E-003  0.9118800E+02  0.7818608E-02  0.1130116E+00
         25   -1    0    0    0    0  0.00000000000E+00  0.00000000000E+00  0.99999998245E-14  0.12500000000E+03  0.12500000000E+03 0.  0.
        -11    1    3    3    0    0  0.51923136246E+02  0.26828546198E+02  0.10447168038E+02  0.59371089673E+02  0.51100000000E-03 0.  1.
         23    2    1    0    0    0  0.19192328887E+02  0.22517851220E+02 -0.34936513078E+01  0.95207304400E+02  0.90425804392E+02 0.  0.
         11    1    3    3    0    0 -0.32730807360E+02 -0.43106949774E+01 -0.13940819346E+02  0.35836214726E+02  0.51100000000E-03 0. -1.
         22    1    1    0    0    0 -0.19192328887E+02 -0.22517851220E+02  0.34936513078E+01  0.29792695600E+02  0.00000000000E+00 0.  1.
</event>
<event>
 5    1  0.1692178E-003  0.9118800E+02  0.7818608E-02  0.1130116E+00
         25   -1    0    0    0    0  0.00000000000E+00  0.00000000000E+00  0.99999998245E-14  0.12500000000E+03  0.12500000000E+03 0.  0.
        -11    1    3    3    0    0  0.17333379811E+02 -0.31351743990E+02  0.91200564743E+01  0.36966922205E+02  0.51100000000E-03 0.  1.
         23    2    1    0    0    0 -0.14137436065E+01  0.96393154487E+01 -0.27996597052E+02  0.95356712062E+02  0.90632102566E+02 0.  0.
         11    1    3    3    0    0 -0.18747123418E+02  0.40991059439E+02 -0.37116653526E+02  0.58389789858E+02  0.51100000000E-03 0. -1.
         22    1    1    0    0    0  0.14137436065E+01 -0.96393154487E+01  0.27996597052E+02  0.29643287938E+02  0.00000000000E+00 0. -1.
</event>
<event>
 5    1  0.1692178E-003  0.9118800E+02  0.7818608E-02  0.1130116E+00
         25   -1    0    0    0    0  0.00000000000E+00  0.00000000000E+00  0.99999998245E-14  0.12500000000E+03  0.12500000000E+03 0.  0.
        -11    1    3    3    0    0 -0.23756265551E+02  0.41168921871E+02 -0.78847218528E+01  0.48181003725E+02  0.51100000000E-03 0. -1.
         23    2    1    0    0    0 -0.58699511725E+01  0.40607468656E+01 -0.29463295535E+02  0.94684463131E+02  0.89700143717E+02 0.  0.
         11    1    3    3    0    0  0.17886314379E+02 -0.37108175006E+02 -0.21578573682E+02  0.46503459406E+02  0.51100000000E-03 0.  1.
         22    1    1    0    0    0  0.58699511725E+01 -0.40607468656E+01  0.29463295535E+02  0.30315536869E+02  0.00000000000E+00 0.  1.
</event>
<event>
 5    1  0.1692178E-003  0.9118800E+02  0.7818608E-02  0.1130116E+00
         25   -1    0    0    0    0  0.00000000000E+00  0.00000000000E+00  0.99999998245E-14  0.12500000000E+03  0.12500000000E+03 0.  0.
        -11    1    3    3    0    0  0.38774077885E+02 -0.17590111739E+02 -0.75401197683E+01  0.43239964769E+02  0.51100000000E-03 0. -1.
         23    2    1    0    0    0  0.12889245574E+02  0.15739621960E+02  0.22216148295E+02  0.94876494295E+02  0.89967347264E+02 0.  0.
         11    1    3    3    0    0 -0.25884832311E+02  0.33329733699E+02  0.29756268063E+02  0.51636529526E+02  0.51100000000E-03 0.  1.
         22    1    1    0    0    0 -0.12889245574E+02 -0.15739621960E+02 -0.22216148295E+02  0.30123505705E+02  0.00000000000E+00 0.  1.
</event>
<event>
 5    1  0.1692178E-003  0.9118800E+02  0.7818608E-02  0.1130116E+00
         25   -1    0    0    0    0  0.00000000000E+00  0.00000000000E+00  0.99999998245E-14  0.12500000000E+03  0.12500000000E+03 0.  0.
        -11    1    3    3    0    0 -0.11523574298E+02 -0.37719648838E+02  0.27036705030E+02  0.47817863735E+02  0.51100000000E-03 0.  1.
         23    2    1    0    0    0 -0.17182387817E+02 -0.21917741676E+02 -0.15203301783E+02  0.93270483200E+02  0.87707586901E+02 0.  0.
         11    1    3    3    0    0 -0.56588135186E+01  0.15801907162E+02 -0.42240006813E+02  0.45452619465E+02  0.51100000000E-03 0. -1.
         22    1    1    0    0    0  0.17182387817E+02  0.21917741676E+02  0.15203301783E+02  0.31729516800E+02  0.00000000000E+00 0.  1.
</event>
<event>
 5    1  0.1692178E-003  0.9118800E+02  0.7818608E-02  0.1130116E+00
         25   -1    0    0    0    0  0.00000000000E+00  0.00000000000E+00  0.99999998245E-14  0.12500000000E+03  0.12500000000E+03 0.  0.
        -11    1    3    3    0    0 -0.22447138702E+02  0.31695790262E+02 -0.66827078193E+01  0.39410096933E+02  0.51100000000E-03 0. -1.
         23    2    1    0    0    0  0.28306160852E+01 -0.17325363991E+02  0.18018604087E+02  0.99843475636E+02  0.96622300268E+02 0.  0.
         11    1    3    3    0    0  0.25277754787E+02 -0.49021154252E+02  0.24701311906E+02  0.60433378703E+02  0.51100000000E-03 0.  1.
         22    1    1    0    0    0 -0.28306160852E+01  0.17325363991E+02 -0.18018604087E+02  0.25156524364E+02  0.00000000000E+00 0.  1.
</event>
<event>
 5    1  0.1692178E-003  0.9118800E+02  0.7818608E-02  0.1130116E+00
         25   -1    0    0    0    0  0.00000000000E+00  0.00000000000E+00  0.99999998245E-14  0.12500000000E+03  0.12500000000E+03 0.  0.
        -11    1    3    3    0    0  0.99999929611E+01 -0.58205541995E+02  0.14308316838E+02  0.60766873452E+02  0.51100000000E-03 0. -1.
         23    2    1    0    0    0  0.12434906276E+02 -0.25710564672E+02  0.13616576825E+02  0.93360290863E+02  0.87835486654E+02 0.  0.
         11    1    3    3    0    0  0.24349133145E+01  0.32494977322E+02 -0.69174001280E+00  0.32593417411E+02  0.51100000000E-03 0.  1.
         22    1    1    0    0    0 -0.12434906276E+02  0.25710564672E+02 -0.13616576825E+02  0.31639709137E+02  0.00000000000E+00 0. -1.
</event>
<event>
 5    1  0.1692178E-003  0.9118800E+02  0.7818608E-02  0.1130116E+00
         25   -1    0    0    0    0  0.00000000000E+00  0.00000000000E+00  0.99999998245E-14  0.12500000000E+03  0.12500000000E+03 0.  0.
        -11    1    3    3    0    0  0.23107916100E+02 -0.39419831358E+02  0.35372156590E+02  0.57784845356E+02  0.51100000000E-03 0. -1.
         23    2    1    0    0    0  0.14837599771E+02 -0.79508905453E+01  0.29768690930E+02  0.90801374485E+02  0.84115061798E+02 0.  0.
         11    1    3    3    0    0 -0.82703163289E+01  0.31468940813E+02 -0.56034656604E+01  0.33016529129E+02  0.51100000000E-03 0.  1.
         22    1    1    0    0    0 -0.14837599771E+02  0.79508905453E+01 -0.29768690930E+02  0.34198625515E+02  0.00000000000E+00 0. -1.
</event>
<event>
 5    1  0.1692178E-003  0.9118800E+02  0.7818608E-02  0.1130116E+00
         25   -1    0    0    0    0  0.00000000000E+00  0.00000000000E+00  0.99999998245E-14  0.12500000000E+03  0.12500000000E+03 0.  0.
        -11    1    3    3    0    0 -0.29619813673E+02 -0.42017874974E+01 -0.54472125759E+02  0.62146607834E+02  0.51100000000E-03 0.  1.
         23    2    1    0    0    0 -0.17059948860E+02  0.12221140703E+01 -0.24207023709E+02  0.95360239293E+02  0.90636967200E+02 0.  0.
         11    1    3    3    0    0  0.12559864813E+02  0.54239015677E+01  0.30265102050E+02  0.33213631459E+02  0.51100000000E-03 0. -1.
         22    1    1    0    0    0  0.17059948860E+02 -0.12221140703E+01  0.24207023709E+02  0.29639760707E+02  0.00000000000E+00 0.  1.
</event>
<event>
 5    1  0.1692178E-003  0.9118800E+02  0.7818608E-02  0.1130116E+00
         25   -1    0    0    0    0  0.00000000000E+00  0.00000000000E+00  0.99999998245E-14  0.12500000000E+03  0.12500000000E+03 0.  0.
        -11    1    3    3    0    0 -0.43506346485E+02 -0.57617656891E+00 -0.22367252614E+02  0.48922675251E+02  0.51100000000E-03 0.  1.
         23    2    1    0    0    0  0.10108775600E+01 -0.18219103641E+02 -0.21478735981E+02  0.96816783181E+02  0.92623948281E+02 0.  0.
         11    1    3    3    0    0  0.44517224045E+02 -0.17642927072E+02  0.88851663295E+00  0.47894107930E+02  0.51100000000E-03 0. -1.
         22    1    1    0    0    0 -0.10108775600E+01  0.18219103641E+02  0.21478735981E+02  0.28183216819E+02  0.00000000000E+00 0.  1.
</event>
<event>
 5    1  0.1692178E-003  0.9118800E+02  0.7818608E-02  0.1130116E+00
         25   -1    0    0    0    0  0.00000000000E+00  0.00000000000E+00  0.99999998245E-14  0.12500000000E+03  0.12500000000E+03 0.  0.
        -11    1    3    3    0    0 -0.34428937088E+02 -0.11467711511E+01  0.22614810114E+02  0.41207965612E+02  0.51100000000E-03 0.  1.
         23    2    1    0    0    0 -0.28519462429E+01 -0.13800091512E+02 -0.22949004122E+02  0.98069851221E+02  0.94299855806E+02 0.  0.
         11    1    3    3    0    0  0.31576990845E+02 -0.12653320361E+02 -0.45563814236E+02  0.56861885609E+02  0.51100000000E-03 0. -1.
         22    1    1    0    0    0  0.28519462429E+01  0.13800091512E+02  0.22949004122E+02  0.26930148779E+02  0.00000000000E+00 0. -1.
</event>
<event>
 5    1  0.1692178E-003  0.9118800E+02  0.7818608E-02  0.1130116E+00
         25   -1    0    0    0    0  0.00000000000E+00  0.00000000000E+00  0.99999998245E-14  0.12500000000E+03  0.12500000000E+03 0.  0.
        -11    1    3    3    0    0 -0.19293261555E+02 -0.56915496958E+02 -0.12047636689E+02  0.61292326481E+02  0.51100000000E-03 0.  1.
         23    2    1    0    0    0 -0.17857846055E+01 -0.27015123680E+02 -0.15463123307E+00  0.97925476091E+02  0.94108283497E+02 0.  0.
         11    1    3    3    0    0  0.17507476950E+02  0.29900373278E+02  0.11893005455E+02  0.36633149610E+02  0.51100000000E-03 0. -1.
         22    1    1    0    0    0  0.17857846055E+01  0.27015123680E+02  0.15463123307E+00  0.27074523909E+02  0.00000000000E+00 0.  1.
</event>
<event>
 5    1  0.1692178E-003  0.9118800E+02  0.7818608E-02  0.1130116E+00
         25   -1    0    0    0    0  0.00000000000E+00  0.00000000000E+00  0.99999998245E-14  0.12500000000E+03  0.12500000000E+03 0.  0.
        -11    1    3    3    0    0  0.89109280264E+01  0.55303689952E+02 -0.10930366504E+02  0.57073423525E+02  0.51100000000E-03 0. -1.
         23    2    1    0    0    0  0.92858937513E+01  0.19577913848E+02 -0.21644522122E+02  0.94373085835E+02  0.89265174949E+02 0.  0.
         11    1    3    3    0    0  0.37496572489E+00 -0.35725776105E+02 -0.10714155618E+02  0.37299662310E+02  0.51100000000E-03 0.  1.
         22    1    1    0    0    0 -0.92858937513E+01 -0.19577913848E+02  0.21644522122E+02  0.30626914165E+02  0.00000000000E+00 0. -1.
</event>
<event>
 5    1  0.1692178E-003  0.9118800E+02  0.7818608E-02  0.1130116E+00
         25   -1    0    0    0    0  0.00000000000E+00  0.00000000000E+00  0.99999998245E-14  0.12500000000E+03  0.12500000000E+03 0.  0.
        -11    1    3    3    0    0 -0.19548124258E+02 -0.28760149820E+02 -0.19544201425E+02  0.39890489960E+02  0.51100000000E-03 0.  1.
         23    2    1    0    0    0  0.67238521391E+01  0.19510249304E+02 -0.21914564803E+02  0.94898369380E+02  0.89997735221E+02 0.  0.
         11    1    3    3    0    0  0.26271976397E+02  0.48270399124E+02 -0.23703633777E+01  0.55007879419E+02  0.51100000000E-03 0. -1.
         22    1    1    0    0    0 -0.67238521391E+01 -0.19510249304E+02  0.21914564803E+02  0.30101630620E+02  0.00000000000E+00 0. -1.
</event>
<event>
 5    1  0.1692178E-003  0.9118800E+02  0.7818608E-02  0.1130116E+00
         25   -1    0    0    0    0  0.00000000000E+00  0.00000000000E+00  0.99999998245E-14  0.12500000000E+03  0.12500000000E+03 0.  0.
        -11    1    3    3    0    0  0.50933338228E+01 -0.11750784788E+02  0.41450060148E+02  0.43383527739E+02  0.51100000000E-03 0. -1.
         23    2    1    0    0    0 -0.22039304384E+02 -0.11338932738E+02 -0.72871401413E+01  0.99165822157E+02  0.95741608192E+02 0.  0.
         11    1    3    3    0    0 -0.27132638207E+02  0.41185204949E+00 -0.48737200289E+02  0.55782294418E+02  0.51100000000E-03 0.  1.
         22    1    1    0    0    0  0.22039304384E+02  0.11338932738E+02  0.72871401413E+01  0.25834177843E+02  0.00000000000E+00 0.  1.
</event>
<event>
 5    1  0.1692178E-003  0.9118800E+02  0.7818608E-02  0.1130116E+00
         25   -1    0    0    0    0  0.00000000000E+00  0.00000000000E+00  0.99999998245E-14  0.12500000000E+03  0.12500000000E+03 0.  0.
        -11    1    3    3    0    0 -0.38019291887E+02 -0.37007649998E+02  0.20741320863E+02  0.56966965036E+02  0.51100000000E-03 0. -1.
         23    2    1    0    0    0 -0.21401258110E+01 -0.21203045865E+02  0.19377557771E+02  0.96196544693E+02  0.91783093069E+02 0.  0.
         11    1    3    3    0    0  0.35879166076E+02  0.15804604133E+02 -0.13637630920E+01  0.39229579658E+02  0.51100000000E-03 0.  1.
         22    1    1    0    0    0  0.21401258110E+01  0.21203045865E+02 -0.19377557771E+02  0.28803455307E+02  0.00000000000E+00 0. -1.
</event>
<event>
 5    1  0.1692178E-003  0.9118800E+02  0.7818608E-02  0.1130116E+00
         25   -1    0    0    0    0  0.00000000000E+00  0.00000000000E+00  0.99999998245E-14  0.12500000000E+03  0.12500000000E+03 0.  0.
        -11    1    3    3    0    0 -0.47215655318E+01 -0.71587854993E+01 -0.47065640314E+02  0.47840525596E+02  0.51100000000E-03 0.  1.
         23    2    1    0    0    0 -0.57834036252E+01  0.26542316030E+02 -0.24552512395E+02  0.88383498766E+02  0.80441747192E+02 0.  0.
         11    1    3    3    0    0 -0.10618380934E+01  0.33701101529E+02  0.22513127919E+02  0.40542973169E+02  0.51100000000E-03 0. -1.
         22    1    1    0    0    0  0.57834036252E+01 -0.26542316030E+02  0.24552512395E+02  0.36616501234E+02  0.00000000000E+00 0.  1.
</event>
<event>
 5    1  0.1692178E-003  0.9118800E+02  0.7818608E-02  0.1130116E+00
         25   -1    0    0    0    0  0.00000000000E+00  0.00000000000E+00  0.99999998245E-14  0.12500000000E+03  0.12500000000E+03 0.  0.
        -11    1    3    3    0    0 -0.16247201806E+02 -0.25802592368E+02  0.40175187194E+02  0.50436009019E+02  0.51100000000E-03 0.  1.
         23    2    1    0    0    0  0.17344953697E+02 -0.21887738901E+01  0.53537660180E+00  0.10750929453E+03  0.10607697032E+03 0.  0.
         11    1    3    3    0    0  0.33592155503E+02  0.23613818478E+02 -0.39639810592E+02  0.57073285506E+02  0.51100000000E-03 0. -1.
         22    1    1    0    0    0 -0.17344953697E+02  0.21887738901E+01 -0.53537660180E+00  0.17490705475E+02  0.00000000000E+00 0. -1.
</event>
<event>
 5    1  0.1692178E-003  0.9118800E+02  0.7818608E-02  0.1130116E+00
         25   -1    0    0    0    0  0.00000000000E+00  0.00000000000E+00  0.99999998245E-14  0.12500000000E+03  0.12500000000E+03 0.  0.
        -11    1    3    3    0    0 -0.16557244230E+02  0.45371369020E+02 -0.20053376509E+02  0.52295710846E+02  0.51100000000E-03 0.  1.
         23    2    1    0    0    0  0.17444962333E+02  0.21502092959E+02 -0.32037754978E+01  0.97126519955E+02  0.93041012401E+02 0.  0.
         11    1    3    3    0    0  0.34002206563E+02 -0.23869276061E+02  0.16849601011E+02  0.44830809108E+02  0.51100000000E-03 0. -1.
         22    1    1    0    0    0 -0.17444962333E+02 -0.21502092959E+02  0.32037754978E+01  0.27873480045E+02  0.00000000000E+00 0.  1.
</event>
<event>
 5    1  0.1692178E-003  0.9118800E+02  0.7818608E-02  0.1130116E+00
         25   -1    0    0    0    0  0.00000000000E+00  0.00000000000E+00  0.99999998245E-14  0.12500000000E+03  0.12500000000E+03 0.  0.
        -11    1    3    3    0    0  0.32790563502E+02 -0.22231489011E+02 -0.39547643564E+02  0.55977462163E+02  0.51100000000E-03 0. -1.
         23    2    1    0    0    0  0.12986865620E+02  0.90330579212E+01 -0.24300185294E+02  0.96004244804E+02  0.91520823866E+02 0.  0.
         11    1    3    3    0    0 -0.19803697882E+02  0.31264546932E+02  0.15247458270E+02  0.40026782642E+02  0.51100000000E-03 0.  1.
         22    1    1    0    0    0 -0.12986865620E+02 -0.90330579212E+01  0.24300185294E+02  0.28995755196E+02  0.00000000000E+00 0. -1.
</event>
<event>
 5    1  0.1692178E-003  0.9118800E+02  0.7818608E-02  0.1130116E+00
         25   -1    0    0    0    0  0.00000000000E+00  0.00000000000E+00  0.99999998245E-14  0.12500000000E+03  0.12500000000E+03 0.  0.
        -11    1    3    3    0    0  0.57296127200E+00  0.54257716378E+02  0.94260939235E+01  0.55073399370E+02  0.51100000000E-03 0.  1.
         23    2    1    0    0    0  0.18152579486E+02  0.20850471423E+02 -0.73664184652E+01  0.96390169144E+02  0.92046413760E+02 0.  0.
         11    1    3    3    0    0  0.17579618214E+02 -0.33407244955E+02 -0.16792512389E+02  0.41316769775E+02  0.51100000000E-03 0. -1.
         22    1    1    0    0    0 -0.18152579486E+02 -0.20850471423E+02  0.73664184652E+01  0.28609830856E+02  0.00000000000E+00 0. -1.
</event>
<event>
 5    1  0.1692178E-003  0.9118800E+02  0.7818608E-02  0.1130116E+00
         25   -1    0    0    0    0  0.00000000000E+00  0.00000000000E+00  0.99999998245E-14  0.12500000000E+03  0.12500000000E+03 0.  0.
        -11    1    3    3    0    0 -0.10720629196E+02 -0.28268003210E+01 -0.58387958676E+02  0.59431274671E+02  0.51100000000E-03 0.  1.
         23    2    1    0    0    0  0.30722335201E+01 -0.12568465456E+02 -0.26170459078E+02  0.95805858959E+02  0.91249464326E+02 0.  0.
         11    1    3    3    0    0  0.13792862716E+02 -0.97416651352E+01  0.32217499598E+02  0.36374584288E+02  0.51100000000E-03 0. -1.
         22    1    1    0    0    0 -0.30722335201E+01  0.12568465456E+02  0.26170459078E+02  0.29194141041E+02  0.00000000000E+00 0.  1.
</event>
<event>
 5    1  0.1692178E-003  0.9118800E+02  0.7818608E-02  0.1130116E+00
         25   -1    0    0    0    0  0.00000000000E+00  0.00000000000E+00  0.99999998245E-14  0.12500000000E+03  0.12500000000E+03 0.  0.
        -11    1    3    3    0    0  0.18316518259E+02  0.21974099317E+02  0.16846644260E+02  0.33198875056E+02  0.51100000000E-03 0.  1.
         23    2    1    0    0    0 -0.37214436280E+01 -0.25126665762E+02 -0.16256271535E+02  0.94842665250E+02  0.89920333143E+02 0.  0.
         11    1    3    3    0    0 -0.22037961887E+02 -0.47100765079E+02 -0.33102915794E+02  0.61643790194E+02  0.51100000000E-03 0. -1.
         22    1    1    0    0    0  0.37214436280E+01  0.25126665762E+02  0.16256271535E+02  0.30157334750E+02  0.00000000000E+00 0. -1.
</event>
<event>
 5    1  0.1692178E-003  0.9118800E+02  0.7818608E-02  0.1130116E+00
         25   -1    0    0    0    0  0.00000000000E+00  0.00000000000E+00  0.99999998245E-14  0.12500000000E+03  0.12500000000E+03 0.  0.
        -11    1    3    3    0    0 -0.80738717984E+01 -0.33722562201E+02 -0.20543220008E+02  0.40304125047E+02  0.51100000000E-03 0. -1.
         23    2    1    0    0    0  0.13718759911E+01  0.20827235024E+02 -0.20611736369E+02  0.95665729281E+02  0.91057302400E+02 0.  0.
         11    1    3    3    0    0  0.94457477895E+01  0.54549797225E+02 -0.68516360465E-01  0.55361604234E+02  0.51100000000E-03 0.  1.
         22    1    1    0    0    0 -0.13718759911E+01 -0.20827235024E+02  0.20611736369E+02  0.29334270719E+02  0.00000000000E+00 0.  1.
</event>
<event>
 5    1  0.1692178E-003  0.9118800E+02  0.7818608E-02  0.1130116E+00
         25   -1    0    0    0    0  0.00000000000E+00  0.00000000000E+00  0.99999998245E-14  0.12500000000E+03  0.12500000000E+03 0.  0.
        -11    1    3    3    0    0 -0.26424167195E+02 -0.22391751664E+02 -0.18028171225E+00  0.34636103365E+02  0.51100000000E-03 0. -1.
         23    2    1    0    0    0  0.17633024700E+02  0.14630723392E+02  0.18935899749E+02  0.95275432277E+02  0.90519931889E+02 0.  0.
         11    1    3    3    0    0  0.44057191895E+02  0.37022475056E+02  0.19116181461E+02  0.60639328912E+02  0.51100000000E-03 0.  1.
         22    1    1    0    0    0 -0.17633024700E+02 -0.14630723392E+02 -0.18935899749E+02  0.29724567723E+02  0.00000000000E+00 0.  1.
</event>
<event>
 5    1  0.1692178E-003  0.9118800E+02  0.7818608E-02  0.1130116E+00
         25   -1    0    0    0    0  0.00000000000E+00  0.00000000000E+00  0.99999998245E-14  0.12500000000E+03  0.12500000000E+03 0.  0.
        -11    1    3    3    0    0  0.23582786117E+02  0.42771090298E+02 -0.23553900531E+02  0.54224535008E+02  0.51100000000E-03 0. -1.
         23    2    1    0    0    0  0.19643479297E+01  0.57813880642E+01 -0.27105439159E+02  0.97215328997E+02  0.93160250372E+02 0.  0.
         11    1    3    3    0    0 -0.21618438187E+02 -0.36989702233E+02 -0.35515386273E+01  0.42990793990E+02  0.51100000000E-03 0.  1.
         22    1    1    0    0    0 -0.19643479297E+01 -0.57813880642E+01  0.27105439159E+02  0.27784671003E+02  0.00000000000E+00 0. -1.
</event>
<event>
 5    1  0.1692178E-003  0.9118800E+02  0.7818608E-02  0.1130116E+00
         25   -1    0    0    0    0  0.00000000000E+00  0.00000000000E+00  0.99999998245E-14  0.12500000000E+03  0.12500000000E+03 0.  0.
        -11    1    3    3    0    0  0.31174406374E+02  0.12820842137E+02  0.16108074409E+02  0.37358903455E+02  0.51100000000E-03 0.  1.
         23    2    1    0    0    0 -0.21519627949E+02  0.14930143567E+02 -0.10926165504E+02  0.96620700033E+02  0.92358946552E+02 0.  0.
         11    1    3    3    0    0 -0.52694034323E+02  0.21093014300E+01 -0.27034239914E+02  0.59261796579E+02  0.51100000000E-03 0. -1.
         22    1    1    0    0    0  0.21519627949E+02 -0.14930143567E+02  0.10926165504E+02  0.28379299967E+02  0.00000000000E+00 0. -1.
</event>
<event>
 5    1  0.1692178E-003  0.9118800E+02  0.7818608E-02  0.1130116E+00
         25   -1    0    0    0    0  0.00000000000E+00  0.00000000000E+00  0.99999998245E-14  0.12500000000E+03  0.12500000000E+03 0.  0.
        -11    1    3    3    0    0 -0.13827824134E+02 -0.28168999417E+02 -0.97235160530E+01  0.32851910342E+02  0.51100000000E-03 0.  1.
         23    2    1    0    0    0  0.18693979596E+01  0.27868245095E+02 -0.18203521933E+02  0.91660804686E+02  0.85382674891E+02 0.  0.
         11    1    3    3    0    0  0.15697222093E+02  0.56037244512E+02 -0.84800058798E+01  0.58808894344E+02  0.51100000000E-03 0. -1.
         22    1    1    0    0    0 -0.18693979596E+01 -0.27868245095E+02  0.18203521933E+02  0.33339195314E+02  0.00000000000E+00 0. -1.
</event>
<event>
 5    1  0.1692178E-003  0.9118800E+02  0.7818608E-02  0.1130116E+00
         25   -1    0    0    0    0  0.00000000000E+00  0.00000000000E+00  0.99999998245E-14  0.12500000000E+03  0.12500000000E+03 0.  0.
        -11    1    3    3    0    0  0.46594265397E+02 -0.17022683820E+02 -0.33781946630E+02  0.60016808068E+02  0.51100000000E-03 0.  1.
         23    2    1    0    0    0  0.15391669720E+02 -0.14207952017E+02 -0.24654442152E+02  0.92648633490E+02  0.86816809273E+02 0.  0.
         11    1    3    3    0    0 -0.31202595677E+02  0.28147318032E+01  0.91275044780E+01  0.32631825422E+02  0.51100000000E-03 0. -1.
         22    1    1    0    0    0 -0.15391669720E+02  0.14207952017E+02  0.24654442152E+02  0.32351366510E+02  0.00000000000E+00 0.  1.
</event>
<event>
 5    1  0.1692178E-003  0.9118800E+02  0.7818608E-02  0.1130116E+00
         25   -1    0    0    0    0  0.00000000000E+00  0.00000000000E+00  0.99999998245E-14  0.12500000000E+03  0.12500000000E+03 0.  0.
        -11    1    3    3    0    0  0.25833069462E+02  0.31909049373E+02 -0.23095018372E+01  0.41120173987E+02  0.51100000000E-03 0. -1.
         23    2    1    0    0    0  0.18039068165E+02 -0.21129462161E+02  0.87799365412E+01  0.95863263101E+02  0.91328066744E+02 0.  0.
         11    1    3    3    0    0 -0.77940012970E+01 -0.53038511534E+02  0.11089438378E+02  0.54743089114E+02  0.51100000000E-03 0.  1.
         22    1    1    0    0    0 -0.18039068165E+02  0.21129462161E+02 -0.87799365412E+01  0.29136736899E+02  0.00000000000E+00 0.  1.
</event>
<event>
 5    1  0.1692178E-003  0.9118800E+02  0.7818608E-02  0.1130116E+00
         25   -1    0    0    0    0  0.00000000000E+00  0.00000000000E+00  0.99999998245E-14  0.12500000000E+03  0.12500000000E+03 0.  0.
        -11    1    3    3    0    0  0.15109402578E+02  0.44814579606E+02  0.19179395500E+02  0.51034202291E+02  0.51100000000E-03 0.  1.
         23    2    1    0    0    0  0.13572645779E+02  0.11596274867E+00  0.25410894132E+02  0.96191256512E+02  0.91775890777E+02 0.  0.
         11    1    3    3    0    0 -0.15367567983E+01 -0.44698616857E+02  0.62314986313E+01  0.45157054220E+02  0.51100000000E-03 0. -1.
         22    1    1    0    0    0 -0.13572645779E+02 -0.11596274867E+00 -0.25410894132E+02  0.28808743488E+02  0.00000000000E+00 0. -1.
</event>
<event>
 5    1  0.1692178E-003  0.9118800E+02  0.7818608E-02  0.1130116E+00
         25   -1    0    0    0    0  0.00000000000E+00  0.00000000000E+00  0.99999998245E-14  0.12500000000E+03  0.12500000000E+03 0.  0.
        -11    1    3    3    0    0  0.10722857536E+01 -0.46828544888E+02 -0.27686204619E+02  0.54411288715E+02  0.51100000000E-03 0.  1.
         23    2    1    0    0    0  0.15325504234E+02 -0.25230020766E+02  0.38770292643E+01  0.95226582598E+02  0.90452449659E+02 0.  0.
         11    1    3    3    0    0  0.14253218481E+02  0.21598524122E+02  0.31563233884E+02  0.40815293883E+02  0.51100000000E-03 0. -1.
         22    1    1    0    0    0 -0.15325504234E+02  0.25230020766E+02 -0.38770292643E+01  0.29773417402E+02  0.00000000000E+00 0.  1.
</event>
<event>
 5    1  0.1692178E-003  0.9118800E+02  0.7818608E-02  0.1130116E+00
         25   -1    0    0    0    0  0.00000000000E+00  0.00000000000E+00  0.99999998245E-14  0.12500000000E+03  0.12500000000E+03 0.  0.
        -11    1    3    3    0    0 -0.30518209376E+02  0.36333398729E+01 -0.96252145014E+01  0.32205698512E+02  0.51100000000E-03 0. -1.
         23    2    1    0    0    0  0.21950173200E+02  0.25537392360E+02  0.51074110133E+01  0.90940432191E+02  0.84321456628E+02 0.  0.
         11    1    3    3    0    0  0.52468382577E+02  0.21904052487E+02  0.14732625515E+02  0.58734733679E+02  0.51100000000E-03 0.  1.
         22    1    1    0    0    0 -0.21950173200E+02 -0.25537392360E+02 -0.51074110133E+01  0.34059567809E+02  0.00000000000E+00 0.  1.
</event>
<event>
 5    1  0.1692178E-003  0.9118800E+02  0.7818608E-02  0.1130116E+00
         25   -1    0    0    0    0  0.00000000000E+00  0.00000000000E+00  0.99999998245E-14  0.12500000000E+03  0.12500000000E+03 0.  0.
        -11    1    3    3    0    0 -0.12553444453E+01  0.53870684404E+02  0.25660864835E+02  0.59683385562E+02  0.51100000000E-03 0.  1.
         23    2    1    0    0    0 -0.98701257391E+01  0.19179424748E+02  0.19433589107E+02  0.95966672575E+02  0.91469492968E+02 0.  0.
         11    1    3    3    0    0 -0.86147812937E+01 -0.34691259656E+02 -0.62272757282E+01  0.36283287013E+02  0.51100000000E-03 0. -1.
         22    1    1    0    0    0  0.98701257391E+01 -0.19179424748E+02 -0.19433589107E+02  0.29033327425E+02  0.00000000000E+00 0.  1.
</event>
<event>
 5    1  0.1692178E-003  0.9118800E+02  0.7818608E-02  0.1130116E+00
         25   -1    0    0    0    0  0.00000000000E+00  0.00000000000E+00  0.99999998245E-14  0.12500000000E+03  0.12500000000E+03 0.  0.
        -11    1    3    3    0    0  0.39797209593E+02  0.87899750841E+01 -0.21165570602E+02  0.45924535191E+02  0.51100000000E-03 0.  1.
         23    2    1    0    0    0 -0.77849021075E+01 -0.30947497225E+01 -0.28301293716E+02  0.95484827585E+02  0.90808627874E+02 0.  0.
         11    1    3    3    0    0 -0.47582111700E+02 -0.11884724807E+02 -0.71357231143E+01  0.49560292394E+02  0.51100000000E-03 0. -1.
         22    1    1    0    0    0  0.77849021075E+01  0.30947497225E+01  0.28301293716E+02  0.29515172415E+02  0.00000000000E+00 0. -1.
</event>
<event>
 5    1  0.1692178E-003  0.9118800E+02  0.7818608E-02  0.1130116E+00
         25   -1    0    0    0    0  0.00000000000E+00  0.00000000000E+00  0.99999998245E-14  0.12500000000E+03  0.12500000000E+03 0.  0.
        -11    1    3    3    0    0 -0.35597844894E+02  0.59216869051E+01  0.17501146553E+02  0.40106895515E+02  0.51100000000E-03 0. -1.
         23    2    1    0    0    0 -0.24006970197E+02 -0.79528064295E+01 -0.26918712408E+02  0.88064937717E+02  0.79945196411E+02 0.  0.
         11    1    3    3    0    0  0.11590874697E+02 -0.13874493335E+02 -0.44419858961E+02  0.47958042202E+02  0.51100000000E-03 0.  1.
         22    1    1    0    0    0  0.24006970197E+02  0.79528064295E+01  0.26918712408E+02  0.36935062283E+02  0.00000000000E+00 0. -1.
</event>
<event>
 5    1  0.1692178E-003  0.9118800E+02  0.7818608E-02  0.1130116E+00
         25   -1    0    0    0    0  0.00000000000E+00  0.00000000000E+00  0.99999998245E-14  0.12500000000E+03  0.12500000000E+03 0.  0.
        -11    1    3    3    0    0 -0.50731219445E+02  0.13324616216E+02 -0.29664799091E+01  0.52535721438E+02  0.51100000000E-03 0. -1.
         23    2    1    0    0    0 -0.19718793312E+02 -0.74949700326E+01  0.19624030000E+02  0.96188406172E+02  0.91772008494E+02 0.  0.
         11    1    3    3    0    0  0.31012426134E+02 -0.20819586249E+02  0.22590509909E+02  0.43652684734E+02  0.51100000000E-03 0.  1.
         22    1    1    0    0    0  0.19718793312E+02  0.74949700326E+01 -0.19624030000E+02  0.28811593828E+02  0.00000000000E+00 0. -1.
</event>
<event>
 5    1  0.1692178E-003  0.9118800E+02  0.7818608E-02  0.1130116E+00
         25   -1    0    0    0    0  0.00000000000E+00  0.00000000000E+00  0.99999998245E-14  0.12500000000E+03  0.12500000000E+03 0.  0.
        -11    1    3    3    0    0 -0.30872378844E+02  0.22595911478E+02 -0.35315090083E+02  0.52065675630E+02  0.51100000000E-03 0.  1.
         23    2    1    0    0    0 -0.21836954637E+02  0.12573837599E+02  0.88861818343E+01  0.98280752118E+02  0.94579004169E+02 0.  0.
         11    1    3    3    0    0  0.90354242070E+01 -0.10022073878E+02  0.44201271917E+02  0.46215076488E+02  0.51100000000E-03 0. -1.
         22    1    1    0    0    0  0.21836954637E+02 -0.12573837599E+02 -0.88861818343E+01  0.26719247882E+02  0.00000000000E+00 0.  1.
</event>
<event>
 5    1  0.1692178E-003  0.9118800E+02  0.7818608E-02  0.1130116E+00
         25   -1    0    0    0    0  0.00000000000E+00  0.00000000000E+00  0.99999998245E-14  0.12500000000E+03  0.12500000000E+03 0.  0.
        -11    1    3    3    0    0  0.38517834367E+01 -0.33418396153E+02 -0.14398862025E+02  0.36591702133E+02  0.51100000000E-03 0.  1.
         23    2    1    0    0    0  0.84435992880E+01  0.26147342337E+02 -0.51112026256E+01  0.97051793036E+02  0.92940563045E+02 0.  0.
         11    1    3    3    0    0  0.45918158513E+01  0.59565738490E+02  0.92876593995E+01  0.60460090903E+02  0.51100000000E-03 0. -1.
         22    1    1    0    0    0 -0.84435992880E+01 -0.26147342337E+02  0.51112026256E+01  0.27948206964E+02  0.00000000000E+00 0. -1.
</event>
<event>
 5    1  0.1692178E-003  0.9118800E+02  0.7818608E-02  0.1130116E+00
         25   -1    0    0    0    0  0.00000000000E+00  0.00000000000E+00  0.99999998245E-14  0.12500000000E+03  0.12500000000E+03 0.  0.
        -11    1    3    3    0    0  0.13716289239E+02 -0.15369107293E+02  0.54520793584E+02  0.58282613040E+02  0.51100000000E-03 0. -1.
         23    2    1    0    0    0  0.17360095078E+02 -0.17073618117E+02  0.18777914631E+02  0.94251155882E+02  0.89094270133E+02 0.  0.
         11    1    3    3    0    0  0.36438058382E+01 -0.17045108243E+01 -0.35742878952E+02  0.35968542842E+02  0.51100000000E-03 0.  1.
         22    1    1    0    0    0 -0.17360095078E+02  0.17073618117E+02 -0.18777914631E+02  0.30748844118E+02  0.00000000000E+00 0. -1.
</event>
<event>
 5    1  0.1692178E-003  0.9118800E+02  0.7818608E-02  0.1130116E+00
         25   -1    0    0    0    0  0.00000000000E+00  0.00000000000E+00  0.99999998245E-14  0.12500000000E+03  0.12500000000E+03 0.  0.
        -11    1    3    3    0    0 -0.33636422298E+02 -0.13855555561E+02  0.25812972857E+02  0.44605996154E+02  0.51100000000E-03 0. -1.
         23    2    1    0    0    0 -0.93412700060E+00 -0.31833063321E+02 -0.46971800157E+01  0.92808696613E+02  0.87046965215E+02 0.  0.
         11    1    3    3    0    0  0.32702295297E+02 -0.17977507760E+02 -0.30510152872E+02  0.48202700459E+02  0.51100000000E-03 0.  1.
         22    1    1    0    0    0  0.93412700060E+00  0.31833063321E+02  0.46971800157E+01  0.32191303387E+02  0.00000000000E+00 0. -1.
</event>
<event>
 5    1  0.1692178E-003  0.9118800E+02  0.7818608E-02  0.1130116E+00
         25   -1    0    0    0    0  0.00000000000E+00  0.00000000000E+00  0.99999998245E-14  0.12500000000E+03  0.12500000000E+03 0.  0.
        -11    1    3    3    0    0 -0.24107584022E+02  0.45515137811E+02 -0.19414787178E+02  0.55043049868E+02  0.51100000000E-03 0.  1.
         23    2    1    0    0    0  0.95477414004E+01  0.23796388034E+02 -0.14882626813E+02  0.95353414528E+02  0.90627554485E+02 0.  0.
         11    1    3    3    0    0  0.33655325423E+02 -0.21718749777E+02  0.45321603652E+01  0.40310364660E+02  0.51100000000E-03 0. -1.
         22    1    1    0    0    0 -0.95477414004E+01 -0.23796388034E+02  0.14882626813E+02  0.29646585472E+02  0.00000000000E+00 0.  1.
</event>
<event>
 5    1  0.1692178E-003  0.9118800E+02  0.7818608E-02  0.1130116E+00
         25   -1    0    0    0    0  0.00000000000E+00  0.00000000000E+00  0.99999998245E-14  0.12500000000E+03  0.12500000000E+03 0.  0.
        -11    1    3    3    0    0 -0.57340735148E+02 -0.91191447083E+01  0.14106072071E+02  0.59750313614E+02  0.51100000000E-03 0.  1.
         23    2    1    0    0    0 -0.27277463832E+02  0.74178756882E+01  0.12478178065E+02  0.94100326205E+02  0.88882402933E+02 0.  0.
         11    1    3    3    0    0  0.30063271316E+02  0.16537020396E+02 -0.16278940058E+01  0.34350012590E+02  0.51100000000E-03 0. -1.
         22    1    1    0    0    0  0.27277463832E+02 -0.74178756882E+01 -0.12478178065E+02  0.30899673795E+02  0.00000000000E+00 0.  1.
</event>
<event>
 5    1  0.1692178E-003  0.9118800E+02  0.7818608E-02  0.1130116E+00
         25   -1    0    0    0    0  0.00000000000E+00  0.00000000000E+00  0.99999998245E-14  0.12500000000E+03  0.12500000000E+03 0.  0.
        -11    1    3    3    0    0 -0.24940110038E+02  0.41094312153E+02 -0.99641261795E+01  0.49092111289E+02  0.51100000000E-03 0. -1.
         23    2    1    0    0    0  0.15862308659E+02  0.24667101387E+02  0.43593933312E+01  0.95350665487E+02  0.90623762733E+02 0.  0.
         11    1    3    3    0    0  0.40802418697E+02 -0.16427210766E+02  0.14323519511E+02  0.46258554198E+02  0.51100000000E-03 0.  1.
         22    1    1    0    0    0 -0.15862308659E+02 -0.24667101387E+02 -0.43593933312E+01  0.29649334513E+02  0.00000000000E+00 0. -1.
</event>
<event>
 5    1  0.1692178E-003  0.9118800E+02  0.7818608E-02  0.1130116E+00
         25   -1    0    0    0    0  0.00000000000E+00  0.00000000000E+00  0.99999998245E-14  0.12500000000E+03  0.12500000000E+03 0.  0.
        -11    1    3    3    0    0 -0.13030257267E+02  0.27306184048E+02 -0.24193645758E+02  0.38739486149E+02  0.51100000000E-03 0. -1.
         23    2    1    0    0    0 -0.93501101936E+01  0.65024472079E+01  0.27851895976E+02  0.94909561489E+02  0.90013278866E+02 0.  0.
         11    1    3    3    0    0  0.36801470738E+01 -0.20803736840E+02  0.52045541735E+02  0.56170075340E+02  0.51100000000E-03 0.  1.
         22    1    1    0    0    0  0.93501101936E+01 -0.65024472079E+01 -0.27851895976E+02  0.30090438511E+02  0.00000000000E+00 0.  1.
</event>
<event>
 5    1  0.1692178E-003  0.9118800E+02  0.7818608E-02  0.1130116E+00
         25   -1    0    0    0    0  0.00000000000E+00  0.00000000000E+00  0.99999998245E-14  0.12500000000E+03  0.12500000000E+03 0.  0.
        -11    1    3    3    0    0  0.33070846713E+02 -0.17421756393E+02  0.19959410744E+02  0.42374244249E+02  0.51100000000E-03 0. -1.
         23    2    1    0    0    0 -0.14544495127E+02 -0.25575530868E+02 -0.21456560915E+01  0.95499932920E+02  0.90829418307E+02 0.  0.
         11    1    3    3    0    0 -0.47615341840E+02 -0.81537744754E+01 -0.22105066836E+02  0.53125688671E+02  0.51100000000E-03 0.  1.
         22    1    1    0    0    0  0.14544495127E+02  0.25575530868E+02  0.21456560915E+01  0.29500067080E+02  0.00000000000E+00 0.  1.
</event>
<event>
 5    1  0.1692178E-003  0.9118800E+02  0.7818608E-02  0.1130116E+00
         25   -1    0    0    0    0  0.00000000000E+00  0.00000000000E+00  0.99999998245E-14  0.12500000000E+03  0.12500000000E+03 0.  0.
        -11    1    3    3    0    0  0.22728865578E+02 -0.26883549770E+02 -0.47545594105E+02  0.59160038013E+02  0.51100000000E-03 0. -1.
         23    2    1    0    0    0  0.22266437181E+01 -0.33506895253E+01 -0.29529432482E+02  0.95197777847E+02  0.90412634414E+02 0.  0.
         11    1    3    3    0    0 -0.20502221860E+02  0.23532860245E+02  0.18016161622E+02  0.36037739834E+02  0.51100000000E-03 0.  1.
         22    1    1    0    0    0 -0.22266437181E+01  0.33506895253E+01  0.29529432482E+02  0.29802222153E+02  0.00000000000E+00 0. -1.
</event>
<event>
 5    1  0.1692178E-003  0.9118800E+02  0.7818608E-02  0.1130116E+00
         25   -1    0    0    0    0  0.00000000000E+00  0.00000000000E+00  0.99999998245E-14  0.12500000000E+03  0.12500000000E+03 0.  0.
        -11    1    3    3    0    0 -0.33321340858E+02 -0.30338683411E+02  0.73823081335E+01  0.45664493223E+02  0.51100000000E-03 0.  1.
         23    2    1    0    0    0  0.65774672474E+01 -0.86901925730E+01  0.27576992644E+02  0.95347461396E+02  0.90619343129E+02 0.  0.
         11    1    3    3    0    0  0.39898808106E+02  0.21648490837E+02  0.20194684511E+02  0.49682968173E+02  0.51100000000E-03 0. -1.
         22    1    1    0    0    0 -0.65774672474E+01  0.86901925730E+01 -0.27576992644E+02  0.29652538604E+02  0.00000000000E+00 0. -1.
</event>
<event>
 5    1  0.1692178E-003  0.9118800E+02  0.7818608E-02  0.1130116E+00
         25   -1    0    0    0    0  0.00000000000E+00  0.00000000000E+00  0.99999998245E-14  0.12500000000E+03  0.12500000000E+03 0.  0.
        -11    1    3    3    0    0 -0.22481527838E+02  0.27480586348E+02  0.48539024388E+02  0.60138495232E+02  0.51100000000E-03 0.  1.
         23    2    1    0    0    0 -0.20607534269E+02  0.69506112590E+01  0.19243943577E+02  0.95960185436E+02  0.91460627371E+02 0.  0.
         11    1    3    3    0    0  0.18739935696E+01 -0.20529975089E+02 -0.29295080811E+02  0.35821690204E+02  0.51100000000E-03 0. -1.
         22    1    1    0    0    0  0.20607534269E+02 -0.69506112590E+01 -0.19243943577E+02  0.29039814564E+02  0.00000000000E+00 0.  1.
</event>
<event>
 5    1  0.1692178E-003  0.9118800E+02  0.7818608E-02  0.1130116E+00
         25   -1    0    0    0    0  0.00000000000E+00  0.00000000000E+00  0.99999998245E-14  0.12500000000E+03  0.12500000000E+03 0.  0.
        -11    1    3    3    0    0 -0.36534408772E+02 -0.22336541730E+02  0.37739544096E+02  0.57078518811E+02  0.51100000000E-03 0.  1.
         23    2    1    0    0    0 -0.13345240187E+02  0.48701585885E+01  0.27142737450E+02  0.94364365902E+02  0.89252963398E+02 0.  0.
         11    1    3    3    0    0  0.23189168586E+02  0.27206700318E+02 -0.10596806646E+02  0.37285847091E+02  0.51100000000E-03 0. -1.
         22    1    1    0    0    0  0.13345240187E+02 -0.48701585885E+01 -0.27142737450E+02  0.30635634098E+02  0.00000000000E+00 0.  1.
</event>
<event>
 5    1  0.1692178E-003  0.9118800E+02  0.7818608E-02  0.1130116E+00
         25   -1    0    0    0    0  0.00000000000E+00  0.00000000000E+00  0.99999998245E-14  0.12500000000E+03  0.12500000000E+03 0.  0.
        -11    1    3    3    0    0 -0.16150029233E+02  0.52721081586E+01  0.23173517056E+02  0.28733786066E+02  0.51100000000E-03 0.  1.
         23    2    1    0    0    0  0.33544808976E+00 -0.24039500220E+02 -0.26817419224E+02  0.88983558337E+02  0.81368848979E+02 0.  0.
         11    1    3    3    0    0  0.16485477323E+02 -0.29311608379E+02 -0.49990936280E+02  0.60249772271E+02  0.51100000000E-03 0. -1.
         22    1    1    0    0    0 -0.33544808976E+00  0.24039500220E+02  0.26817419224E+02  0.36016441663E+02  0.00000000000E+00 0. -1.
</event>
<event>
 5    1  0.1692178E-003  0.9118800E+02  0.7818608E-02  0.1130116E+00
         25   -1    0    0    0    0  0.00000000000E+00  0.00000000000E+00  0.99999998245E-14  0.12500000000E+03  0.12500000000E+03 0.  0.
        -11    1    3    3    0    0 -0.39889600516E+02  0.34946985090E+02 -0.66997390018E+01  0.53454265491E+02  0.51100000000E-03 0. -1.
         23    2    1    0    0    0 -0.14591889189E+01  0.20929591824E+02 -0.19540510289E+02  0.96329307846E+02  0.91963726336E+02 0.  0.
         11    1    3    3    0    0  0.38430411597E+02 -0.14017393266E+02 -0.12840771287E+02  0.42875042356E+02  0.51100000000E-03 0.  1.
         22    1    1    0    0    0  0.14591889189E+01 -0.20929591824E+02  0.19540510289E+02  0.28670692154E+02  0.00000000000E+00 0. -1.
</event>
<event>
 5    1  0.1692178E-003  0.9118800E+02  0.7818608E-02  0.1130116E+00
         25   -1    0    0    0    0  0.00000000000E+00  0.00000000000E+00  0.99999998245E-14  0.12500000000E+03  0.12500000000E+03 0.  0.
        -11    1    3    3    0    0 -0.11766202667E+02 -0.43366320049E+02 -0.29424853433E+02  0.53711295270E+02  0.51100000000E-03 0. -1.
         23    2    1    0    0    0 -0.23930979306E+02 -0.55932295722E+01 -0.16303678780E+02  0.95507866653E+02  0.90840336103E+02 0.  0.
         11    1    3    3    0    0 -0.12164776639E+02  0.37773090477E+02  0.13121174653E+02  0.41796571383E+02  0.51100000000E-03 0.  1.
         22    1    1    0    0    0  0.23930979306E+02  0.55932295722E+01  0.16303678780E+02  0.29492133347E+02  0.00000000000E+00 0.  1.
</event>
<event>
 5    1  0.1692178E-003  0.9118800E+02  0.7818608E-02  0.1130116E+00
         25   -1    0    0    0    0  0.00000000000E+00  0.00000000000E+00  0.99999998245E-14  0.12500000000E+03  0.12500000000E+03 0.  0.
        -11    1    3    3    0    0 -0.20844850742E+02 -0.24141699229E+02 -0.25572941167E+02  0.40881594444E+02  0.51100000000E-03 0. -1.
         23    2    1    0    0    0 -0.18324691995E+02  0.43657018998E+01  0.21775629906E+02  0.96207088588E+02  0.91797451745E+02 0.  0.
         11    1    3    3    0    0  0.25201587470E+01  0.28507401129E+02  0.47348571074E+02  0.55325494143E+02  0.51100000000E-03 0.  1.
         22    1    1    0    0    0  0.18324691995E+02 -0.43657018998E+01 -0.21775629906E+02  0.28792911412E+02  0.00000000000E+00 0.  1.
</event>
<event>
 5    1  0.1692178E-003  0.9118800E+02  0.7818608E-02  0.1130116E+00
         25   -1    0    0    0    0  0.00000000000E+00  0.00000000000E+00  0.99999998245E-14  0.12500000000E+03  0.12500000000E+03 0.  0.
        -11    1    3    3    0    0 -0.46765300309E+01  0.31760555497E+02  0.12658982952E+02  0.34508733217E+02  0.51100000000E-03 0. -1.
         23    2    1    0    0    0 -0.83278118806E+01 -0.27865668905E+02  0.97807581196E+01  0.94315945776E+02  0.89185124567E+02 0.  0.
         11    1    3    3    0    0 -0.36512818497E+01 -0.59626224402E+02 -0.28782248319E+01  0.59807212559E+02  0.51100000000E-03 0.  1.
         22    1    1    0    0    0  0.83278118806E+01  0.27865668905E+02 -0.97807581196E+01  0.30684054224E+02  0.00000000000E+00 0.  1.
</event>
<event>
 5    1  0.1692178E-003  0.9118800E+02  0.7818608E-02  0.1130116E+00
         25   -1    0    0    0    0  0.00000000000E+00  0.00000000000E+00  0.99999998245E-14  0.12500000000E+03  0.12500000000E+03 0.  0.
        -11    1    3    3    0    0  0.35460769089E+01 -0.91382911261E+01 -0.53662420555E+02  0.54550329112E+02  0.51100000000E-03 0.  1.
         23    2    1    0    0    0 -0.13363563227E+02  0.12398660032E+02 -0.22785341598E+02  0.95819811782E+02  0.91268575892E+02 0.  0.
         11    1    3    3    0    0 -0.16909640136E+02  0.21536951158E+02  0.30877078956E+02  0.41269482670E+02  0.51100000000E-03 0. -1.
         22    1    1    0    0    0  0.13363563227E+02 -0.12398660032E+02  0.22785341598E+02  0.29180188218E+02  0.00000000000E+00 0.  1.
</event>
<event>
 5    1  0.1692178E-003  0.9118800E+02  0.7818608E-02  0.1130116E+00
         25   -1    0    0    0    0  0.00000000000E+00  0.00000000000E+00  0.99999998245E-14  0.12500000000E+03  0.12500000000E+03 0.  0.
        -11    1    3    3    0    0 -0.32435043985E+02  0.39027207542E+02  0.68365427094E+01  0.51204426794E+02  0.51100000000E-03 0.  1.
         23    2    1    0    0    0 -0.13591349311E+02  0.10274844365E+02  0.28469345361E+02  0.91821681355E+02  0.85617873944E+02 0.  0.
         11    1    3    3    0    0  0.18843694674E+02 -0.28752363177E+02  0.21632802652E+02  0.40617254561E+02  0.51100000000E-03 0. -1.
         22    1    1    0    0    0  0.13591349311E+02 -0.10274844365E+02 -0.28469345361E+02  0.33178318645E+02  0.00000000000E+00 0.  1.
</event>
<event>
 5    1  0.1692178E-003  0.9118800E+02  0.7818608E-02  0.1130116E+00
         25   -1    0    0    0    0  0.00000000000E+00  0.00000000000E+00  0.99999998245E-14  0.12500000000E+03  0.12500000000E+03 0.  0.
        -11    1    3    3    0    0 -0.31094639994E+02 -0.17004406278E+02 -0.10534007051E+02  0.36972851852E+02  0.51100000000E-03 0. -1.
         23    2    1    0    0    0  0.25424520143E+02 -0.21829568660E+01 -0.14698764601E+02  0.95551312322E+02  0.90900099452E+02 0.  0.
         11    1    3    3    0    0  0.56519160137E+02  0.14821449412E+02 -0.41647575499E+01  0.58578460470E+02  0.51100000000E-03 0.  1.
         22    1    1    0    0    0 -0.25424520143E+02  0.21829568660E+01  0.14698764601E+02  0.29448687678E+02  0.00000000000E+00 0.  1.
</event>
<event>
 5    1  0.1692178E-003  0.9118800E+02  0.7818608E-02  0.1130116E+00
         25   -1    0    0    0    0  0.00000000000E+00  0.00000000000E+00  0.99999998245E-14  0.12500000000E+03  0.12500000000E+03 0.  0.
        -11    1    3    3    0    0  0.56683369872E+01  0.12735496658E+02 -0.44642783367E+02  0.46768590168E+02  0.51100000000E-03 0. -1.
         23    2    1    0    0    0 -0.54383404393E+01  0.25813157795E+02  0.39725230595E+01  0.98322751237E+02  0.94634495874E+02 0.  0.
         11    1    3    3    0    0 -0.11106677426E+02  0.13077661138E+02  0.48615306427E+02  0.51554161069E+02  0.51100000000E-03 0.  1.
         22    1    1    0    0    0  0.54383404393E+01 -0.25813157795E+02 -0.39725230595E+01  0.26677248763E+02  0.00000000000E+00 0.  1.
</event>
<event>
 5    1  0.1692178E-003  0.9118800E+02  0.7818608E-02  0.1130116E+00
         25   -1    0    0    0    0  0.00000000000E+00  0.00000000000E+00  0.99999998245E-14  0.12500000000E+03  0.12500000000E+03 0.  0.
        -11    1    3    3    0    0 -0.20279701358E+02  0.17307209404E+02 -0.22476931303E+02  0.34871452875E+02  0.51100000000E-03 0.  1.
         23    2    1    0    0    0  0.27671301551E+02  0.67257415803E+01 -0.28939011561E+02  0.84399471439E+02  0.73992350008E+02 0.  0.
         11    1    3    3    0    0  0.47951002910E+02 -0.10581467824E+02 -0.64620802582E+01  0.49528018564E+02  0.51100000000E-03 0. -1.
         22    1    1    0    0    0 -0.27671301551E+02 -0.67257415803E+01  0.28939011561E+02  0.40600528561E+02  0.00000000000E+00 0. -1.
</event>
<event>
 5    1  0.1692178E-003  0.9118800E+02  0.7818608E-02  0.1130116E+00
         25   -1    0    0    0    0  0.00000000000E+00  0.00000000000E+00  0.99999998245E-14  0.12500000000E+03  0.12500000000E+03 0.  0.
        -11    1    3    3    0    0 -0.70097973597E+01 -0.13130933357E+02  0.34678029799E+02  0.37737573065E+02  0.51100000000E-03 0.  1.
         23    2    1    0    0    0 -0.15926112043E+02  0.21277647653E+02 -0.11524629109E+02  0.96031113060E+02  0.91557513427E+02 0.  0.
         11    1    3    3    0    0 -0.89163146833E+01  0.34408581010E+02 -0.46202658908E+02  0.58293539995E+02  0.51100000000E-03 0. -1.
         22    1    1    0    0    0  0.15926112043E+02 -0.21277647653E+02  0.11524629109E+02  0.28968886940E+02  0.00000000000E+00 0. -1.
</event>
<event>
 5    1  0.1692178E-003  0.9118800E+02  0.7818608E-02  0.1130116E+00
         25   -1    0    0    0    0  0.00000000000E+00  0.00000000000E+00  0.99999998245E-14  0.12500000000E+03  0.12500000000E+03 0.  0.
        -11    1    3    3    0    0 -0.53059179800E+02  0.18063543202E+02  0.59385260314E+00  0.56052839493E+02  0.51100000000E-03 0. -1.
         23    2    1    0    0    0 -0.17556522383E+02  0.17261902289E+02  0.16907532288E+02  0.95132469187E+02  0.90322296786E+02 0.  0.
         11    1    3    3    0    0  0.35502657417E+02 -0.80164091237E+00  0.16313679685E+02  0.39079629693E+02  0.51100000000E-03 0.  1.
         22    1    1    0    0    0  0.17556522383E+02 -0.17261902289E+02 -0.16907532288E+02  0.29867530813E+02  0.00000000000E+00 0. -1.
</event>
<event>
 5    1  0.1692178E-003  0.9118800E+02  0.7818608E-02  0.1130116E+00
         25   -1    0    0    0    0  0.00000000000E+00  0.00000000000E+00  0.99999998245E-14  0.12500000000E+03  0.12500000000E+03 0.  0.
        -11    1    3    3    0    0  0.25352490431E+02 -0.28975315359E+02 -0.46053001096E+02  0.60026632268E+02  0.51100000000E-03 0.  1.
         23    2    1    0    0    0  0.15616161130E+01 -0.19838889929E+02 -0.15751816829E+02  0.99620088024E+02  0.96332870848E+02 0.  0.
         11    1    3    3    0    0 -0.23790874318E+02  0.91364254298E+01  0.30301184266E+02  0.39593455756E+02  0.51100000000E-03 0. -1.
         22    1    1    0    0    0 -0.15616161130E+01  0.19838889929E+02  0.15751816829E+02  0.25379911976E+02  0.00000000000E+00 0.  1.
</event>
<event>
 5    1  0.1692178E-003  0.9118800E+02  0.7818608E-02  0.1130116E+00
         25   -1    0    0    0    0  0.00000000000E+00  0.00000000000E+00  0.99999998245E-14  0.12500000000E+03  0.12500000000E+03 0.  0.
        -11    1    3    3    0    0 -0.28424098541E+02 -0.16596847325E+02  0.71833206038E+01  0.33689535678E+02  0.51100000000E-03 0. -1.
         23    2    1    0    0    0  0.29566989248E+02  0.86828758024E+00 -0.35864276661E+01  0.95203637136E+02  0.90420734813E+02 0.  0.
         11    1    3    3    0    0  0.57991087789E+02  0.17465134905E+02 -0.10769748270E+02  0.61514101459E+02  0.51100000000E-03 0.  1.
         22    1    1    0    0    0 -0.29566989248E+02 -0.86828758024E+00  0.35864276661E+01  0.29796362864E+02  0.00000000000E+00 0.  1.
</event>
<event>
 5    1  0.1692178E-003  0.9118800E+02  0.7818608E-02  0.1130116E+00
         25   -1    0    0    0    0  0.00000000000E+00  0.00000000000E+00  0.99999998245E-14  0.12500000000E+03  0.12500000000E+03 0.  0.
        -11    1    3    3    0    0 -0.27149104835E+02  0.18648859401E+02 -0.18659251925E+02  0.37855270874E+02  0.51100000000E-03 0.  1.
         23    2    1    0    0    0 -0.11996903628E+02 -0.16306533028E+02  0.23034408728E+02  0.94333850886E+02  0.89210216463E+02 0.  0.
         11    1    3    3    0    0  0.15152201206E+02 -0.34955392429E+02  0.41693660653E+02  0.56478580012E+02  0.51100000000E-03 0. -1.
         22    1    1    0    0    0  0.11996903628E+02  0.16306533028E+02 -0.23034408728E+02  0.30666149114E+02  0.00000000000E+00 0. -1.
</event>
<event>
 5    1  0.1692178E-003  0.9118800E+02  0.7818608E-02  0.1130116E+00
         25   -1    0    0    0    0  0.00000000000E+00  0.00000000000E+00  0.99999998245E-14  0.12500000000E+03  0.12500000000E+03 0.  0.
        -11    1    3    3    0    0 -0.12299852393E+00  0.21695825888E+02 -0.26008796889E+02  0.33870067987E+02  0.51100000000E-03 0.  1.
         23    2    1    0    0    0 -0.31473502873E+01 -0.17706007603E+02  0.22344451445E+02  0.96317548406E+02  0.91947741144E+02 0.  0.
         11    1    3    3    0    0 -0.30243517633E+01 -0.39401833491E+02  0.48353248333E+02  0.62447480419E+02  0.51100000000E-03 0. -1.
         22    1    1    0    0    0  0.31473502873E+01  0.17706007603E+02 -0.22344451445E+02  0.28682451594E+02  0.00000000000E+00 0. -1.
</event>
<event>
 5    1  0.1692178E-003  0.9118800E+02  0.7818608E-02  0.1130116E+00
         25   -1    0    0    0    0  0.00000000000E+00  0.00000000000E+00  0.99999998245E-14  0.12500000000E+03  0.12500000000E+03 0.  0.
        -11    1    3    3    0    0  0.29052946692E+02 -0.36764914417E+02 -0.21699039330E+02  0.51638948011E+02  0.51100000000E-03 0. -1.
         23    2    1    0    0    0  0.11896593943E+02  0.28922467719E+01 -0.27175653990E+02  0.95193789093E+02  0.90407119594E+02 0.  0.
         11    1    3    3    0    0 -0.17156352749E+02  0.39657161189E+02 -0.54766146600E+01  0.43554841082E+02  0.51100000000E-03 0.  1.
         22    1    1    0    0    0 -0.11896593943E+02 -0.28922467719E+01  0.27175653990E+02  0.29806210907E+02  0.00000000000E+00 0. -1.
</event>
<event>
 5    1  0.1692178E-003  0.9118800E+02  0.7818608E-02  0.1130116E+00
         25   -1    0    0    0    0  0.00000000000E+00  0.00000000000E+00  0.99999998245E-14  0.12500000000E+03  0.12500000000E+03 0.  0.
        -11    1    3    3    0    0 -0.20196860591E+02 -0.55151073098E+02  0.19700621331E+02  0.61948918657E+02  0.51100000000E-03 0.  1.
         23    2    1    0    0    0 -0.13213902775E+02 -0.26750631112E+02  0.47737497798E+01  0.94784239570E+02  0.89839077758E+02 0.  0.
         11    1    3    3    0    0  0.69829578163E+01  0.28400441986E+02 -0.14926871552E+02  0.32835320913E+02  0.51100000000E-03 0. -1.
         22    1    1    0    0    0  0.13213902775E+02  0.26750631112E+02 -0.47737497798E+01  0.30215760430E+02  0.00000000000E+00 0.  1.
</event>
<event>
 5    1  0.1692178E-003  0.9118800E+02  0.7818608E-02  0.1130116E+00
         25   -1    0    0    0    0  0.00000000000E+00  0.00000000000E+00  0.99999998245E-14  0.12500000000E+03  0.12500000000E+03 0.  0.
        -11    1    3    3    0    0  0.50676931111E+02 -0.19500700336E+02  0.27870325557E+02  0.61034283049E+02  0.51100000000E-03 0. -1.
         23    2    1    0    0    0  0.25653844680E+02  0.10822440919E+00  0.10319207804E+02  0.97348281987E+02  0.93338472758E+02 0.  0.
         11    1    3    3    0    0 -0.25023086431E+02  0.19608924746E+02 -0.17551117753E+02  0.36313998938E+02  0.51100000000E-03 0.  1.
         22    1    1    0    0    0 -0.25653844680E+02 -0.10822440919E+00 -0.10319207804E+02  0.27651718013E+02  0.00000000000E+00 0. -1.
</event>
<event>
 5    1  0.1692178E-003  0.9118800E+02  0.7818608E-02  0.1130116E+00
         25   -1    0    0    0    0  0.00000000000E+00  0.00000000000E+00  0.99999998245E-14  0.12500000000E+03  0.12500000000E+03 0.  0.
        -11    1    3    3    0    0  0.21642262831E+02 -0.15593056910E+02 -0.19109493805E+02  0.32813163791E+02  0.51100000000E-03 0. -1.
         23    2    1    0    0    0 -0.23119820593E+02  0.38691099406E+01  0.19069832962E+02  0.94781551245E+02  0.89835337208E+02 0.  0.
         11    1    3    3    0    0 -0.44762083424E+02  0.19462166850E+02  0.38179326767E+02  0.61968387454E+02  0.51100000000E-03 0.  1.
         22    1    1    0    0    0  0.23119820593E+02 -0.38691099406E+01 -0.19069832962E+02  0.30218448755E+02  0.00000000000E+00 0.  1.
</event>
<event>
 5    1  0.1692178E-003  0.9118800E+02  0.7818608E-02  0.1130116E+00
         25   -1    0    0    0    0  0.00000000000E+00  0.00000000000E+00  0.99999998245E-14  0.12500000000E+03  0.12500000000E+03 0.  0.
        -11    1    3    3    0    0  0.29836749116E+01  0.57718730100E+01 -0.44846054788E+02  0.45314296467E+02  0.51100000000E-03 0.  1.
         23    2    1    0    0    0 -0.28404332086E+02 -0.33933101671E+01 -0.65827625582E+01  0.95646066737E+02  0.91030306405E+02 0.  0.
         11    1    3    3    0    0 -0.31388006997E+02 -0.91651831771E+01  0.38263292230E+02  0.50331770269E+02  0.51100000000E-03 0. -1.
         22    1    1    0    0    0  0.28404332086E+02  0.33933101671E+01  0.65827625582E+01  0.29353933263E+02  0.00000000000E+00 0. -1.
</event>
<event>
 5    1  0.1692178E-003  0.9118800E+02  0.7818608E-02  0.1130116E+00
         25   -1    0    0    0    0  0.00000000000E+00  0.00000000000E+00  0.99999998245E-14  0.12500000000E+03  0.12500000000E+03 0.  0.
        -11    1    3    3    0    0  0.50691479220E+02  0.18977040873E+02  0.12422121000E+02  0.55534342853E+02  0.51100000000E-03 0. -1.
         23    2    1    0    0    0  0.22530343014E+02  0.18096245102E+02 -0.12841674394E+02  0.93377238508E+02  0.87859601792E+02 0.  0.
         11    1    3    3    0    0 -0.28161136206E+02 -0.88079577037E+00 -0.25263795394E+02  0.37842895655E+02  0.51100000000E-03 0.  1.
         22    1    1    0    0    0 -0.22530343014E+02 -0.18096245102E+02  0.12841674394E+02  0.31622761492E+02  0.00000000000E+00 0. -1.
</event>
<event>
 5    1  0.1692178E-003  0.9118800E+02  0.7818608E-02  0.1130116E+00
         25   -1    0    0    0    0  0.00000000000E+00  0.00000000000E+00  0.99999998245E-14  0.12500000000E+03  0.12500000000E+03 0.  0.
        -11    1    3    3    0    0  0.44107926900E+02 -0.34781675859E+02 -0.24247712620E+02  0.61181907118E+02  0.51100000000E-03 0. -1.
         23    2    1    0    0    0  0.27025449262E+02 -0.17275670376E+02 -0.22727901386E+02  0.85688663261E+02  0.76139121451E+02 0.  0.
         11    1    3    3    0    0 -0.17082477638E+02  0.17506005483E+02  0.15198112342E+01  0.24506756143E+02  0.51100000000E-03 0.  1.
         22    1    1    0    0    0 -0.27025449262E+02  0.17275670376E+02  0.22727901386E+02  0.39311336739E+02  0.00000000000E+00 0. -1.
</event>
<event>
 5    1  0.1692178E-003  0.9118800E+02  0.7818608E-02  0.1130116E+00
         25   -1    0    0    0    0  0.00000000000E+00  0.00000000000E+00  0.99999998245E-14  0.12500000000E+03  0.12500000000E+03 0.  0.
        -11    1    3    3    0    0  0.48559536642E+02 -0.99661163655E+01  0.36532729207E+02  0.61579155385E+02  0.51100000000E-03 0. -1.
         23    2    1    0    0    0  0.22837855604E+02 -0.11044450189E+02  0.12835966877E+02  0.96569214323E+02  0.92289238705E+02 0.  0.
         11    1    3    3    0    0 -0.25721681038E+02 -0.10783338230E+01 -0.23696762330E+02  0.34990058938E+02  0.51100000000E-03 0.  1.
         22    1    1    0    0    0 -0.22837855604E+02  0.11044450189E+02 -0.12835966877E+02  0.28430785677E+02  0.00000000000E+00 0. -1.
</event>
<event>
 5    1  0.1692178E-003  0.9118800E+02  0.7818608E-02  0.1130116E+00
         25   -1    0    0    0    0  0.00000000000E+00  0.00000000000E+00  0.99999998245E-14  0.12500000000E+03  0.12500000000E+03 0.  0.
        -11    1    3    3    0    0 -0.21592302336E+02  0.25772066113E+02  0.93908848320E+01  0.34908675570E+02  0.51100000000E-03 0.  1.
         23    2    1    0    0    0  0.90521102432E+01 -0.24716011854E+02 -0.96542469229E+01  0.96963837184E+02  0.92822191829E+02 0.  0.
         11    1    3    3    0    0  0.30644412579E+02 -0.50488077967E+02 -0.19045131755E+02  0.62055161614E+02  0.51100000000E-03 0. -1.
         22    1    1    0    0    0 -0.90521102432E+01  0.24716011854E+02  0.96542469229E+01  0.28036162816E+02  0.00000000000E+00 0. -1.
</event>
<event>
 5    1  0.1692178E-003  0.9118800E+02  0.7818608E-02  0.1130116E+00
         25   -1    0    0    0    0  0.00000000000E+00  0.00000000000E+00  0.99999998245E-14  0.12500000000E+03  0.12500000000E+03 0.  0.
        -11    1    3    3    0    0 -0.22008366249E+02  0.14250314968E+02 -0.39199825603E+02  0.47160004127E+02  0.51100000000E-03 0. -1.
         23    2    1    0    0    0 -0.33673978922E+01  0.28014420035E+02  0.43111524143E+01  0.96456469496E+02  0.92136406344E+02 0.  0.
         11    1    3    3    0    0  0.18640968357E+02  0.13764105067E+02  0.43510978018E+02  0.49296465369E+02  0.51100000000E-03 0.  1.
         22    1    1    0    0    0  0.33673978922E+01 -0.28014420035E+02 -0.43111524143E+01  0.28543530504E+02  0.00000000000E+00 0.  1.
</event>
<event>
 5    1  0.1692178E-003  0.9118800E+02  0.7818608E-02  0.1130116E+00
         25   -1    0    0    0    0  0.00000000000E+00  0.00000000000E+00  0.99999998245E-14  0.12500000000E+03  0.12500000000E+03 0.  0.
        -11    1    3    3    0    0  0.35739838126E+02  0.47514554275E+02  0.11672209354E+02  0.60590505598E+02  0.51100000000E-03 0. -1.
         23    2    1    0    0    0  0.78681101357E+01  0.27526991784E+02  0.16476582151E+01  0.96323228714E+02  0.91955463016E+02 0.  0.
         11    1    3    3    0    0 -0.27871727990E+02 -0.19987562490E+02 -0.10024551138E+02  0.35732723116E+02  0.51100000000E-03 0.  1.
         22    1    1    0    0    0 -0.78681101357E+01 -0.27526991784E+02 -0.16476582151E+01  0.28676771286E+02  0.00000000000E+00 0. -1.
</event>
<event>
 5    1  0.1692178E-003  0.9118800E+02  0.7818608E-02  0.1130116E+00
         25   -1    0    0    0    0  0.00000000000E+00  0.00000000000E+00  0.99999998245E-14  0.12500000000E+03  0.12500000000E+03 0.  0.
        -11    1    3    3    0    0 -0.29913751025E+02 -0.15467423842E+02  0.51161637781E+02  0.61250199032E+02  0.51100000000E-03 0.  1.
         23    2    1    0    0    0 -0.10510145633E+02  0.92804811235E+00  0.25706962100E+02  0.97212010959E+02  0.93155798208E+02 0.  0.
         11    1    3    3    0    0  0.19403605392E+02  0.16395471955E+02 -0.25454675681E+02  0.35961811927E+02  0.51100000000E-03 0. -1.
         22    1    1    0    0    0  0.10510145633E+02 -0.92804811235E+00 -0.25706962100E+02  0.27787989041E+02  0.00000000000E+00 0.  1.
</event>
<event>
 5    1  0.1692178E-003  0.9118800E+02  0.7818608E-02  0.1130116E+00
         25   -1    0    0    0    0  0.00000000000E+00  0.00000000000E+00  0.99999998245E-14  0.12500000000E+03  0.12500000000E+03 0.  0.
        -11    1    3    3    0    0  0.36126884936E+02  0.11798102745E+00 -0.18995186911E+02  0.40816453309E+02  0.51100000000E-03 0. -1.
         23    2    1    0    0    0  0.15298139694E+01  0.29073973006E+02  0.97328646112E+01  0.94302037679E+02  0.89165629139E+02 0.  0.
         11    1    3    3    0    0 -0.34597070966E+02  0.28955991979E+02  0.28728051522E+02  0.53485584370E+02  0.51100000000E-03 0.  1.
         22    1    1    0    0    0 -0.15298139694E+01 -0.29073973006E+02 -0.97328646112E+01  0.30697962321E+02  0.00000000000E+00 0.  1.
</event>
<event>
 5    1  0.1692178E-003  0.9118800E+02  0.7818608E-02  0.1130116E+00
         25   -1    0    0    0    0  0.00000000000E+00  0.00000000000E+00  0.99999998245E-14  0.12500000000E+03  0.12500000000E+03 0.  0.
        -11    1    3    3    0    0 -0.66277361691E+01 -0.32522784184E+02 -0.40236071040E+02  0.52159369156E+02  0.51100000000E-03 0. -1.
         23    2    1    0    0    0 -0.20219678999E+01  0.12197886703E+02 -0.20058225508E+02  0.10143712232E+03  0.98662457800E+02 0.  0.
         11    1    3    3    0    0  0.46057682692E+01  0.44720670887E+02  0.20177845532E+02  0.49277753160E+02  0.51100000000E-03 0.  1.
         22    1    1    0    0    0  0.20219678999E+01 -0.12197886703E+02  0.20058225508E+02  0.23562877684E+02  0.00000000000E+00 0. -1.
</event>
<event>
 5    1  0.1692178E-003  0.9118800E+02  0.7818608E-02  0.1130116E+00
         25   -1    0    0    0    0  0.00000000000E+00  0.00000000000E+00  0.99999998245E-14  0.12500000000E+03  0.12500000000E+03 0.  0.
        -11    1    3    3    0    0  0.13066281145E+02 -0.30092950265E+02  0.26940209569E+02  0.42451010006E+02  0.51100000000E-03 0. -1.
         23    2    1    0    0    0 -0.21017376708E+02  0.10371684384E+02  0.16393758755E+02  0.96398299233E+02  0.92057453844E+02 0.  0.
         11    1    3    3    0    0 -0.34083657853E+02  0.40464634649E+02 -0.10546450814E+02  0.53947289227E+02  0.51100000000E-03 0.  1.
         22    1    1    0    0    0  0.21017376708E+02 -0.10371684384E+02 -0.16393758755E+02  0.28601700767E+02  0.00000000000E+00 0.  1.
</event>
<event>
 5    1  0.1692178E-003  0.9118800E+02  0.7818608E-02  0.1130116E+00
         25   -1    0    0    0    0  0.00000000000E+00  0.00000000000E+00  0.99999998245E-14  0.12500000000E+03  0.12500000000E+03 0.  0.
        -11    1    3    3    0    0 -0.46798219261E+02  0.99762638136E+01  0.22994387596E+02  0.53088049756E+02  0.51100000000E-03 0.  1.
         23    2    1    0    0    0 -0.21119864668E+02  0.21090468969E+02 -0.72443917353E+01  0.94286195668E+02  0.89143417688E+02 0.  0.
         11    1    3    3    0    0  0.25678354593E+02  0.11114205156E+02 -0.30238779332E+02  0.41198145912E+02  0.51100000000E-03 0. -1.
         22    1    1    0    0    0  0.21119864668E+02 -0.21090468969E+02  0.72443917353E+01  0.30713804332E+02  0.00000000000E+00 0.  1.
</event>
<event>
 5    1  0.1692178E-003  0.9118800E+02  0.7818608E-02  0.1130116E+00
         25   -1    0    0    0    0  0.00000000000E+00  0.00000000000E+00  0.99999998245E-14  0.12500000000E+03  0.12500000000E+03 0.  0.
        -11    1    3    3    0    0  0.13006923573E+02 -0.32859822444E+02  0.30450499652E+01  0.35471401459E+02  0.51100000000E-03 0. -1.
         23    2    1    0    0    0 -0.17990932145E+02  0.53917616564E+01 -0.26220269800E+02  0.92747135296E+02  0.86958517835E+02 0.  0.
         11    1    3    3    0    0 -0.30997855718E+02  0.38251584101E+02 -0.29265319765E+02  0.57275733837E+02  0.51100000000E-03 0.  1.
         22    1    1    0    0    0  0.17990932145E+02 -0.53917616564E+01  0.26220269800E+02  0.32252864704E+02  0.00000000000E+00 0.  1.
</event>
<event>
 5    1  0.1692178E-003  0.9118800E+02  0.7818608E-02  0.1130116E+00
         25   -1    0    0    0    0  0.00000000000E+00  0.00000000000E+00  0.99999998245E-14  0.12500000000E+03  0.12500000000E+03 0.  0.
        -11    1    3    3    0    0  0.42395981637E+02  0.40922906504E+02 -0.19897491354E+02  0.62193357347E+02  0.51100000000E-03 0. -1.
         23    2    1    0    0    0  0.23884587199E+02  0.18308869779E+02 -0.72058417432E+01  0.94054687375E+02  0.88818195454E+02 0.  0.
         11    1    3    3    0    0 -0.18511394438E+02 -0.22614036725E+02  0.12691649611E+02  0.31861330028E+02  0.51100000000E-03 0.  1.
         22    1    1    0    0    0 -0.23884587199E+02 -0.18308869779E+02  0.72058417432E+01  0.30945312625E+02  0.00000000000E+00 0. -1.
</event>
<event>
 5    1  0.1692178E-003  0.9118800E+02  0.7818608E-02  0.1130116E+00
         25   -1    0    0    0    0  0.00000000000E+00  0.00000000000E+00  0.99999998245E-14  0.12500000000E+03  0.12500000000E+03 0.  0.
        -11    1    3    3    0    0  0.31308139881E+02  0.40157452010E+02 -0.54938274772E+01  0.51215258618E+02  0.51100000000E-03 0.  1.
         23    2    1    0    0    0  0.22718492558E+01  0.16892678169E+02  0.21776697744E+02  0.97345914599E+02  0.93335302269E+02 0.  0.
         11    1    3    3    0    0 -0.29036290625E+02 -0.23264773841E+02  0.27270525221E+02  0.46130655981E+02  0.51100000000E-03 0. -1.
         22    1    1    0    0    0 -0.22718492558E+01 -0.16892678169E+02 -0.21776697744E+02  0.27654085401E+02  0.00000000000E+00 0. -1.
</event>
<event>
 5    1  0.1692178E-003  0.9118800E+02  0.7818608E-02  0.1130116E+00
         25   -1    0    0    0    0  0.00000000000E+00  0.00000000000E+00  0.99999998245E-14  0.12500000000E+03  0.12500000000E+03 0.  0.
        -11    1    3    3    0    0 -0.31111536463E+02  0.26617714854E+02  0.75359614311E+00  0.40951170344E+02  0.51100000000E-03 0.  1.
         23    2    1    0    0    0 -0.11204657554E+02 -0.23987215423E+02  0.11075290729E+02  0.96301691350E+02  0.91926181458E+02 0.  0.
         11    1    3    3    0    0  0.19906878909E+02 -0.50604930277E+02  0.10321694586E+02  0.55350521006E+02  0.51100000000E-03 0. -1.
         22    1    1    0    0    0  0.11204657554E+02  0.23987215423E+02 -0.11075290729E+02  0.28698308650E+02  0.00000000000E+00 0. -1.
</event>
<event>
 5    1  0.1692178E-003  0.9118800E+02  0.7818608E-02  0.1130116E+00
         25   -1    0    0    0    0  0.00000000000E+00  0.00000000000E+00  0.99999998245E-14  0.12500000000E+03  0.12500000000E+03 0.  0.
        -11    1    3    3    0    0  0.11871625144E+02 -0.57869959595E+02 -0.13759977284E+02  0.60656447986E+02  0.51100000000E-03 0.  1.
         23    2    1    0    0    0  0.14216920136E+02 -0.26716976428E+02 -0.14474499659E+00  0.94735522494E+02  0.89771268362E+02 0.  0.
         11    1    3    3    0    0  0.23452949913E+01  0.31152983167E+02  0.13615232288E+02  0.34079074508E+02  0.51100000000E-03 0. -1.
         22    1    1    0    0    0 -0.14216920136E+02  0.26716976428E+02  0.14474499659E+00  0.30264477506E+02  0.00000000000E+00 0.  1.
</event>
<event>
 5    1  0.1692178E-003  0.9118800E+02  0.7818608E-02  0.1130116E+00
         25   -1    0    0    0    0  0.00000000000E+00  0.00000000000E+00  0.99999998245E-14  0.12500000000E+03  0.12500000000E+03 0.  0.
        -11    1    3    3    0    0  0.27710233513E+02  0.32080879096E+02  0.14339775021E+02  0.44751189848E+02  0.51100000000E-03 0. -1.
         23    2    1    0    0    0  0.32614724173E+02 -0.70514808595E+00  0.29327774710E+02  0.81132747566E+02  0.68250911286E+02 0.  0.
         11    1    3    3    0    0  0.49044906602E+01 -0.32786027182E+02  0.14987999689E+02  0.36381557718E+02  0.51100000000E-03 0.  1.
         22    1    1    0    0    0 -0.32614724173E+02  0.70514808595E+00 -0.29327774710E+02  0.43867252434E+02  0.00000000000E+00 0. -1.
</event>
<event>
 5    1  0.1692178E-003  0.9118800E+02  0.7818608E-02  0.1130116E+00
         25   -1    0    0    0    0  0.00000000000E+00  0.00000000000E+00  0.99999998245E-14  0.12500000000E+03  0.12500000000E+03 0.  0.
        -11    1    3    3    0    0  0.49849675300E+02  0.61568847607E+00  0.27807485199E+02  0.57084371181E+02  0.51100000000E-03 0.  1.
         23    2    1    0    0    0  0.15994391607E+02  0.15937989673E+02  0.19506458314E+02  0.95161400943E+02  0.90362327525E+02 0.  0.
         11    1    3    3    0    0 -0.33855283693E+02  0.15322301197E+02 -0.83010268849E+01  0.38077029762E+02  0.51100000000E-03 0. -1.
         22    1    1    0    0    0 -0.15994391607E+02 -0.15937989673E+02 -0.19506458314E+02  0.29838599057E+02  0.00000000000E+00 0.  1.
</event>
<event>
 5    1  0.1692178E-003  0.9118800E+02  0.7818608E-02  0.1130116E+00
         25   -1    0    0    0    0  0.00000000000E+00  0.00000000000E+00  0.99999998245E-14  0.12500000000E+03  0.12500000000E+03 0.  0.
        -11    1    3    3    0    0 -0.15779208685E+02  0.43563907860E+02 -0.18283060680E+02  0.49810318237E+02  0.51100000000E-03 0.  1.
         23    2    1    0    0    0  0.20704585448E+02  0.19404555521E+02 -0.18103746140E+01  0.96565969512E+02  0.92284843707E+02 0.  0.
         11    1    3    3    0    0  0.36483794133E+02 -0.24159352339E+02  0.16472686066E+02  0.46755651276E+02  0.51100000000E-03 0. -1.
         22    1    1    0    0    0 -0.20704585448E+02 -0.19404555521E+02  0.18103746140E+01  0.28434030488E+02  0.00000000000E+00 0.  1.
</event>
<event>
 5    1  0.1692178E-003  0.9118800E+02  0.7818608E-02  0.1130116E+00
         25   -1    0    0    0    0  0.00000000000E+00  0.00000000000E+00  0.99999998245E-14  0.12500000000E+03  0.12500000000E+03 0.  0.
        -11    1    3    3    0    0  0.19901593163E+02  0.28928573522E+02 -0.28804202309E+01  0.35231131083E+02  0.51100000000E-03 0.  1.
         23    2    1    0    0    0 -0.17082581510E+02 -0.13810895029E+02 -0.21025629787E+02  0.94592229274E+02  0.89571520689E+02 0.  0.
         11    1    3    3    0    0 -0.36984174674E+02 -0.42739468551E+02 -0.18145209557E+02  0.59361098191E+02  0.51100000000E-03 0. -1.
         22    1    1    0    0    0  0.17082581510E+02  0.13810895029E+02  0.21025629787E+02  0.30407770726E+02  0.00000000000E+00 0. -1.
</event>
<event>
 5    1  0.1692178E-003  0.9118800E+02  0.7818608E-02  0.1130116E+00
         25   -1    0    0    0    0  0.00000000000E+00  0.00000000000E+00  0.99999998245E-14  0.12500000000E+03  0.12500000000E+03 0.  0.
        -11    1    3    3    0    0 -0.50116533720E+02  0.31619334216E+02  0.19439048016E+02  0.62364459722E+02  0.51100000000E-03 0. -1.
         23    2    1    0    0    0 -0.22788165088E+02  0.14899477778E+02  0.11954091557E+02  0.95264579857E+02  0.90504944419E+02 0.  0.
         11    1    3    3    0    0  0.27328368632E+02 -0.16719856438E+02 -0.74849564597E+01  0.32900120135E+02  0.51100000000E-03 0.  1.
         22    1    1    0    0    0  0.22788165088E+02 -0.14899477778E+02 -0.11954091557E+02  0.29735420143E+02  0.00000000000E+00 0. -1.
</event>
<event>
 5    1  0.1692178E-003  0.9118800E+02  0.7818608E-02  0.1130116E+00
         25   -1    0    0    0    0  0.00000000000E+00  0.00000000000E+00  0.99999998245E-14  0.12500000000E+03  0.12500000000E+03 0.  0.
        -11    1    3    3    0    0  0.27040351462E+02  0.27077787515E+02  0.46733099732E+02  0.60401736686E+02  0.51100000000E-03 0. -1.
         23    2    1    0    0    0  0.19057280176E+01  0.67183158291E+01  0.24174375613E+02  0.99837170208E+02  0.96614142609E+02 0.  0.
         11    1    3    3    0    0 -0.25134623444E+02 -0.20359471686E+02 -0.22558724119E+02  0.39435433522E+02  0.51100000000E-03 0.  1.
         22    1    1    0    0    0 -0.19057280176E+01 -0.67183158291E+01 -0.24174375613E+02  0.25162829792E+02  0.00000000000E+00 0. -1.
</event>
<event>
 5    1  0.1692178E-003  0.9118800E+02  0.7818608E-02  0.1130116E+00
         25   -1    0    0    0    0  0.00000000000E+00  0.00000000000E+00  0.99999998245E-14  0.12500000000E+03  0.12500000000E+03 0.  0.
        -11    1    3    3    0    0 -0.22167162748E+02 -0.24125771420E+02 -0.27528496060E+02  0.42793154202E+02  0.51100000000E-03 0.  1.
         23    2    1    0    0    0  0.21099146676E+02  0.64346837738E+01 -0.17811980502E+02  0.96647825566E+02  0.92395651367E+02 0.  0.
         11    1    3    3    0    0  0.43266309424E+02  0.30560455194E+02  0.97165155580E+01  0.53854671364E+02  0.51100000000E-03 0. -1.
         22    1    1    0    0    0 -0.21099146676E+02 -0.64346837738E+01  0.17811980502E+02  0.28352174434E+02  0.00000000000E+00 0. -1.
</event>
<event>
 5    1  0.1692178E-003  0.9118800E+02  0.7818608E-02  0.1130116E+00
         25   -1    0    0    0    0  0.00000000000E+00  0.00000000000E+00  0.99999998245E-14  0.12500000000E+03  0.12500000000E+03 0.  0.
        -11    1    3    3    0    0 -0.31598409562E+02  0.38938095500E+02 -0.31339179375E+02  0.59133568573E+02  0.51100000000E-03 0.  1.
         23    2    1    0    0    0 -0.11389285561E+01  0.20953672725E+02 -0.19273963578E+02  0.96507207386E+02  0.92205215940E+02 0.  0.
         11    1    3    3    0    0  0.30459481006E+02 -0.17984422775E+02  0.12065215797E+02  0.37373638814E+02  0.51100000000E-03 0. -1.
         22    1    1    0    0    0  0.11389285561E+01 -0.20953672725E+02  0.19273963578E+02  0.28492792614E+02  0.00000000000E+00 0.  1.
</event>
<event>
 5    1  0.1692178E-003  0.9118800E+02  0.7818608E-02  0.1130116E+00
         25   -1    0    0    0    0  0.00000000000E+00  0.00000000000E+00  0.99999998245E-14  0.12500000000E+03  0.12500000000E+03 0.  0.
        -11    1    3    3    0    0 -0.90355947202E+01 -0.35886153526E+02  0.78516940349E+01  0.37829976029E+02  0.51100000000E-03 0. -1.
         23    2    1    0    0    0  0.51738634129E+00  0.21086534737E+02  0.18938841432E+02  0.96652348411E+02  0.92401770020E+02 0.  0.
         11    1    3    3    0    0  0.95529810615E+01  0.56972688263E+02  0.11087147397E+02  0.58822372383E+02  0.51100000000E-03 0.  1.
         22    1    1    0    0    0 -0.51738634129E+00 -0.21086534737E+02 -0.18938841432E+02  0.28347651589E+02  0.00000000000E+00 0.  1.
</event>
<event>
 5    1  0.1692178E-003  0.9118800E+02  0.7818608E-02  0.1130116E+00
         25   -1    0    0    0    0  0.00000000000E+00  0.00000000000E+00  0.99999998245E-14  0.12500000000E+03  0.12500000000E+03 0.  0.
        -11    1    3    3    0    0 -0.21803090032E+02  0.43446120416E+01 -0.44795981995E+02  0.50009303054E+02  0.51100000000E-03 0. -1.
         23    2    1    0    0    0 -0.27146727952E+02  0.15787558282E+02 -0.32544533865E+01  0.93428124828E+02  0.87931969198E+02 0.  0.
         11    1    3    3    0    0 -0.53436379200E+01  0.11442946241E+02  0.41541528609E+02  0.43418821774E+02  0.51100000000E-03 0.  1.
         22    1    1    0    0    0  0.27146727952E+02 -0.15787558282E+02  0.32544533865E+01  0.31571875172E+02  0.00000000000E+00 0. -1.
</event>
<event>
 5    1  0.1692178E-003  0.9118800E+02  0.7818608E-02  0.1130116E+00
         25   -1    0    0    0    0  0.00000000000E+00  0.00000000000E+00  0.99999998245E-14  0.12500000000E+03  0.12500000000E+03 0.  0.
        -11    1    3    3    0    0 -0.28273647784E+02  0.19433063225E+02 -0.18932127304E+02  0.39185055185E+02  0.51100000000E-03 0.  1.
         23    2    1    0    0    0  0.19879174827E+02  0.17608529063E+02  0.11374083004E+02  0.96110353900E+02  0.91665634101E+02 0.  0.
         11    1    3    3    0    0  0.48152822611E+02 -0.18245341617E+01  0.30306210309E+02  0.56925298716E+02  0.51100000000E-03 0. -1.
         22    1    1    0    0    0 -0.19879174827E+02 -0.17608529063E+02 -0.11374083004E+02  0.28889646100E+02  0.00000000000E+00 0. -1.
</event>
<event>
 5    1  0.1692178E-003  0.9118800E+02  0.7818608E-02  0.1130116E+00
         25   -1    0    0    0    0  0.00000000000E+00  0.00000000000E+00  0.99999998245E-14  0.12500000000E+03  0.12500000000E+03 0.  0.
        -11    1    3    3    0    0  0.31587467132E+01 -0.29312037699E+02  0.13434844532E+02  0.32398584579E+02  0.51100000000E-03 0. -1.
         23    2    1    0    0    0  0.26086556742E+01  0.26924603305E+02 -0.13514266714E+02  0.94761369866E+02  0.89807251748E+02 0.  0.
         11    1    3    3    0    0 -0.55009103902E+00  0.56236641004E+02 -0.26949111245E+02  0.62362785287E+02  0.51100000000E-03 0.  1.
         22    1    1    0    0    0 -0.26086556742E+01 -0.26924603305E+02  0.13514266714E+02  0.30238630134E+02  0.00000000000E+00 0.  1.
</event>
<event>
 5    1  0.1692178E-003  0.9118800E+02  0.7818608E-02  0.1130116E+00
         25   -1    0    0    0    0  0.00000000000E+00  0.00000000000E+00  0.99999998245E-14  0.12500000000E+03  0.12500000000E+03 0.  0.
        -11    1    3    3    0    0  0.10354844272E+02 -0.19795899135E+02  0.21176161692E+02  0.30781979253E+02  0.51100000000E-03 0.  1.
         23    2    1    0    0    0 -0.33878005964E+01  0.16648148912E+02 -0.27225261796E+02  0.92908678199E+02  0.87190421204E+02 0.  0.
         11    1    3    3    0    0 -0.13742644868E+02  0.36444048047E+02 -0.48401423488E+02  0.62126698946E+02  0.51100000000E-03 0. -1.
         22    1    1    0    0    0  0.33878005964E+01 -0.16648148912E+02  0.27225261796E+02  0.32091321801E+02  0.00000000000E+00 0. -1.
</event>
<event>
 5    1  0.1692178E-003  0.9118800E+02  0.7818608E-02  0.1130116E+00
         25   -1    0    0    0    0  0.00000000000E+00  0.00000000000E+00  0.99999998245E-14  0.12500000000E+03  0.12500000000E+03 0.  0.
        -11    1    3    3    0    0  0.12284316611E+02 -0.34423529672E+02 -0.39445521233E+02  0.53775765688E+02  0.51100000000E-03 0. -1.
         23    2    1    0    0    0 -0.14985649782E+02 -0.24421268760E+02 -0.11366865030E+02  0.94175112525E+02  0.88987516716E+02 0.  0.
         11    1    3    3    0    0 -0.27269966393E+02  0.10002260912E+02  0.28078656203E+02  0.40399346837E+02  0.51100000000E-03 0.  1.
         22    1    1    0    0    0  0.14985649782E+02  0.24421268760E+02  0.11366865030E+02  0.30824887475E+02  0.00000000000E+00 0. -1.
</event>
<event>
 5    1  0.1692178E-003  0.9118800E+02  0.7818608E-02  0.1130116E+00
         25   -1    0    0    0    0  0.00000000000E+00  0.00000000000E+00  0.99999998245E-14  0.12500000000E+03  0.12500000000E+03 0.  0.
        -11    1    3    3    0    0 -0.33376257401E+02  0.21632929105E+02  0.43237827006E+02  0.58749194583E+02  0.51100000000E-03 0.  1.
         23    2    1    0    0    0 -0.71117649655E+01  0.65532375711E+00  0.28791719913E+02  0.95335715318E+02  0.90603139181E+02 0.  0.
         11    1    3    3    0    0  0.26264492436E+02 -0.20977605348E+02 -0.14446107092E+02  0.36586520734E+02  0.51100000000E-03 0. -1.
         22    1    1    0    0    0  0.71117649655E+01 -0.65532375711E+00 -0.28791719913E+02  0.29664284682E+02  0.00000000000E+00 0.  1.
</event>
<event>
 5    1  0.1692178E-003  0.9118800E+02  0.7818608E-02  0.1130116E+00
         25   -1    0    0    0    0  0.00000000000E+00  0.00000000000E+00  0.99999998245E-14  0.12500000000E+03  0.12500000000E+03 0.  0.
        -11    1    3    3    0    0  0.18874183855E+02  0.52174546872E+02 -0.14570516043E+02  0.57364780968E+02  0.51100000000E-03 0.  1.
         23    2    1    0    0    0  0.21281742522E+02  0.15046962862E+02  0.34571779398E+01  0.98707876931E+02  0.95141837447E+02 0.  0.
         11    1    3    3    0    0  0.24075586671E+01 -0.37127584011E+02  0.18027693983E+02  0.41343095963E+02  0.51100000000E-03 0. -1.
         22    1    1    0    0    0 -0.21281742522E+02 -0.15046962862E+02 -0.34571779398E+01  0.26292123069E+02  0.00000000000E+00 0.  1.
</event>
<event>
 5    1  0.1692178E-003  0.9118800E+02  0.7818608E-02  0.1130116E+00
         25   -1    0    0    0    0  0.00000000000E+00  0.00000000000E+00  0.99999998245E-14  0.12500000000E+03  0.12500000000E+03 0.  0.
        -11    1    3    3    0    0  0.15300339738E+02 -0.30652164486E+02 -0.10973633044E+02  0.35973270719E+02  0.51100000000E-03 0.  1.
         23    2    1    0    0    0 -0.24122894943E+02  0.80523376855E+01  0.13280571243E+02  0.96309796530E+02  0.91937202114E+02 0.  0.
         11    1    3    3    0    0 -0.39423234681E+02  0.38704502172E+02  0.24254204287E+02  0.60336525811E+02  0.51100000000E-03 0. -1.
         22    1    1    0    0    0  0.24122894943E+02 -0.80523376855E+01 -0.13280571243E+02  0.28690203470E+02  0.00000000000E+00 0. -1.
</event>
<event>
 5    1  0.1692178E-003  0.9118800E+02  0.7818608E-02  0.1130116E+00
         25   -1    0    0    0    0  0.00000000000E+00  0.00000000000E+00  0.99999998245E-14  0.12500000000E+03  0.12500000000E+03 0.  0.
        -11    1    3    3    0    0  0.18148671399E+02  0.44417761279E+02  0.12649340643E+02  0.49621745329E+02  0.51100000000E-03 0.  1.
         23    2    1    0    0    0  0.32701047104E+02  0.17821822916E+02  0.22487788258E+02  0.81495098271E+02  0.68911352967E+02 0.  0.
         11    1    3    3    0    0  0.14552375704E+02 -0.26595938362E+02  0.98384476144E+01  0.31873352942E+02  0.51100000000E-03 0. -1.
         22    1    1    0    0    0 -0.32701047104E+02 -0.17821822916E+02 -0.22487788258E+02  0.43504901729E+02  0.00000000000E+00 0.  1.
</event>
<event>
 5    1  0.1692178E-003  0.9118800E+02  0.7818608E-02  0.1130116E+00
         25   -1    0    0    0    0  0.00000000000E+00  0.00000000000E+00  0.99999998245E-14  0.12500000000E+03  0.12500000000E+03 0.  0.
        -11    1    3    3    0    0 -0.49010634191E+02 -0.24859969854E+02 -0.39838967910E+01  0.55099290366E+02  0.51100000000E-03 0.  1.
         23    2    1    0    0    0 -0.10149913358E+02 -0.26081713799E+02 -0.11575703677E+02  0.94713477395E+02  0.89740566907E+02 0.  0.
         11    1    3    3    0    0  0.38860720833E+02 -0.12217439454E+01 -0.75918068864E+01  0.39614187029E+02  0.51100000000E-03 0. -1.
         22    1    1    0    0    0  0.10149913358E+02  0.26081713799E+02  0.11575703677E+02  0.30286522605E+02  0.00000000000E+00 0.  1.
</event>
<event>
 5    1  0.1692178E-003  0.9118800E+02  0.7818608E-02  0.1130116E+00
         25   -1    0    0    0    0  0.00000000000E+00  0.00000000000E+00  0.99999998245E-14  0.12500000000E+03  0.12500000000E+03 0.  0.
        -11    1    3    3    0    0 -0.26224808530E+02  0.15705798762E+02  0.48899257901E+02  0.57667582927E+02  0.51100000000E-03 0. -1.
         23    2    1    0    0    0  0.43120421482E+01  0.63716812295E+01  0.28313856308E+02  0.95659473620E+02  0.91048714462E+02 0.  0.
         11    1    3    3    0    0  0.30536850678E+02 -0.93341175324E+01 -0.20585401592E+02  0.37991890693E+02  0.51100000000E-03 0.  1.
         22    1    1    0    0    0 -0.43120421482E+01 -0.63716812295E+01 -0.28313856308E+02  0.29340526380E+02  0.00000000000E+00 0. -1.
</event>
<event>
 5    1  0.1692178E-003  0.9118800E+02  0.7818608E-02  0.1130116E+00
         25   -1    0    0    0    0  0.00000000000E+00  0.00000000000E+00  0.99999998245E-14  0.12500000000E+03  0.12500000000E+03 0.  0.
        -11    1    3    3    0    0 -0.75588345222E+00  0.28673256289E+02  0.28310586431E+02  0.40301566847E+02  0.51100000000E-03 0. -1.
         23    2    1    0    0    0  0.11762346799E+02 -0.23373366983E+02  0.11579091077E+02  0.96386324310E+02  0.92041192286E+02 0.  0.
         11    1    3    3    0    0  0.12518230251E+02 -0.52046623272E+02 -0.16731495354E+02  0.56084757463E+02  0.51100000000E-03 0.  1.
         22    1    1    0    0    0 -0.11762346799E+02  0.23373366983E+02 -0.11579091077E+02  0.28613675690E+02  0.00000000000E+00 0.  1.
</event>
<event>
 5    1  0.1692178E-003  0.9118800E+02  0.7818608E-02  0.1130116E+00
         25   -1    0    0    0    0  0.00000000000E+00  0.00000000000E+00  0.99999998245E-14  0.12500000000E+03  0.12500000000E+03 0.  0.
        -11    1    3    3    0    0  0.18144789355E+02 -0.23526391314E+02 -0.16414911672E+02  0.33943685635E+02  0.51100000000E-03 0. -1.
         23    2    1    0    0    0 -0.23733197743E+02  0.99164196577E+01  0.14153540609E+02  0.95641478822E+02  0.91024006205E+02 0.  0.
         11    1    3    3    0    0 -0.41877987098E+02  0.33442810972E+02  0.30568452281E+02  0.61697793188E+02  0.51100000000E-03 0.  1.
         22    1    1    0    0    0  0.23733197743E+02 -0.99164196577E+01 -0.14153540609E+02  0.29358521178E+02  0.00000000000E+00 0.  1.
</event>
<event>
 5    1  0.1692178E-003  0.9118800E+02  0.7818608E-02  0.1130116E+00
         25   -1    0    0    0    0  0.00000000000E+00  0.00000000000E+00  0.99999998245E-14  0.12500000000E+03  0.12500000000E+03 0.  0.
        -11    1    3    3    0    0 -0.46782570151E+01 -0.21045046099E+02 -0.21455675565E+02  0.30415885129E+02  0.51100000000E-03 0. -1.
         23    2    1    0    0    0  0.13842903248E+02  0.14082295382E+02  0.26036117208E+02  0.92322539682E+02  0.86346018557E+02 0.  0.
         11    1    3    3    0    0  0.18521160263E+02  0.35127341480E+02  0.47491792772E+02  0.61906654553E+02  0.51100000000E-03 0.  1.
         22    1    1    0    0    0 -0.13842903248E+02 -0.14082295382E+02 -0.26036117208E+02  0.32677460318E+02  0.00000000000E+00 0.  1.
</event>
<event>
 5    1  0.1692178E-003  0.9118800E+02  0.7818608E-02  0.1130116E+00
         25   -1    0    0    0    0  0.00000000000E+00  0.00000000000E+00  0.99999998245E-14  0.12500000000E+03  0.12500000000E+03 0.  0.
        -11    1    3    3    0    0  0.91596235434E+01 -0.98942352751E+01  0.33889235223E+02  0.36472933244E+02  0.51100000000E-03 0. -1.
         23    2    1    0    0    0  0.15598482904E+02 -0.40768191003E+01 -0.24591865914E+02  0.95594337416E+02  0.90959245566E+02 0.  0.
         11    1    3    3    0    0  0.64388593610E+01  0.58174161748E+01 -0.58481101137E+02  0.59121404172E+02  0.51100000000E-03 0.  1.
         22    1    1    0    0    0 -0.15598482904E+02  0.40768191003E+01  0.24591865914E+02  0.29405662584E+02  0.00000000000E+00 0.  1.
</event>
<event>
 5    1  0.1692178E-003  0.9118800E+02  0.7818608E-02  0.1130116E+00
         25   -1    0    0    0    0  0.00000000000E+00  0.00000000000E+00  0.99999998245E-14  0.12500000000E+03  0.12500000000E+03 0.  0.
        -11    1    3    3    0    0 -0.45789149836E+02 -0.32393017431E+02 -0.53639497178E+01  0.56344704967E+02  0.51100000000E-03 0. -1.
         23    2    1    0    0    0 -0.28062938959E+02 -0.21316987773E+01 -0.15525341918E+02  0.92857988172E+02  0.87117719455E+02 0.  0.
         11    1    3    3    0    0  0.17726210877E+02  0.30261318654E+02 -0.10161392200E+02  0.36513283205E+02  0.51100000000E-03 0.  1.
         22    1    1    0    0    0  0.28062938959E+02  0.21316987773E+01  0.15525341918E+02  0.32142011828E+02  0.00000000000E+00 0. -1.
</event>
<event>
 5    1  0.1692178E-003  0.9118800E+02  0.7818608E-02  0.1130116E+00
         25   -1    0    0    0    0  0.00000000000E+00  0.00000000000E+00  0.99999998245E-14  0.12500000000E+03  0.12500000000E+03 0.  0.
        -11    1    3    3    0    0  0.13062680624E+02 -0.18091959200E+02 -0.58342270522E+02  0.62464174874E+02  0.51100000000E-03 0.  1.
         23    2    1    0    0    0  0.77176858082E+01 -0.81754206519E+01 -0.28386875322E+02  0.94467806046E+02  0.89397715360E+02 0.  0.
         11    1    3    3    0    0 -0.53449948159E+01  0.99165385482E+01  0.29955395200E+02  0.32003631172E+02  0.51100000000E-03 0. -1.
         22    1    1    0    0    0 -0.77176858082E+01  0.81754206519E+01  0.28386875322E+02  0.30532193954E+02  0.00000000000E+00 0.  1.
</event>
<event>
 5    1  0.1692178E-003  0.9118800E+02  0.7818608E-02  0.1130116E+00
         25   -1    0    0    0    0  0.00000000000E+00  0.00000000000E+00  0.99999998245E-14  0.12500000000E+03  0.12500000000E+03 0.  0.
        -11    1    3    3    0    0  0.18126392994E+02  0.59112380122E+02  0.44461603410E+01  0.61988772763E+02  0.51100000000E-03 0.  1.
         23    2    1    0    0    0  0.94857873620E+01  0.25660596684E+02  0.73843548698E+01  0.96663185061E+02  0.92416428546E+02 0.  0.
         11    1    3    3    0    0 -0.86406056316E+01 -0.33451783438E+02  0.29381945288E+01  0.34674412298E+02  0.51100000000E-03 0. -1.
         22    1    1    0    0    0 -0.94857873620E+01 -0.25660596684E+02 -0.73843548698E+01  0.28336814939E+02  0.00000000000E+00 0.  1.
</event>
<event>
 5    1  0.1692178E-003  0.9118800E+02  0.7818608E-02  0.1130116E+00
         25   -1    0    0    0    0  0.00000000000E+00  0.00000000000E+00  0.99999998245E-14  0.12500000000E+03  0.12500000000E+03 0.  0.
        -11    1    3    3    0    0  0.35306926822E+02  0.12291558579E+02  0.54288156264E+01  0.37777420946E+02  0.51100000000E-03 0. -1.
         23    2    1    0    0    0 -0.20859052144E+02  0.11891421142E+02 -0.13994943628E+02  0.97208555269E+02  0.93151161116E+02 0.  0.
         11    1    3    3    0    0 -0.56165978966E+02 -0.40013743749E+00 -0.19423759254E+02  0.59431134323E+02  0.51100000000E-03 0.  1.
         22    1    1    0    0    0  0.20859052144E+02 -0.11891421142E+02  0.13994943628E+02  0.27791444731E+02  0.00000000000E+00 0.  1.
</event>
<event>
 5    1  0.1692178E-003  0.9118800E+02  0.7818608E-02  0.1130116E+00
         25   -1    0    0    0    0  0.00000000000E+00  0.00000000000E+00  0.99999998245E-14  0.12500000000E+03  0.12500000000E+03 0.  0.
        -11    1    3    3    0    0  0.12559493461E+02  0.13805121916E+02 -0.30327372125E+02  0.35609995330E+02  0.51100000000E-03 0.  1.
         23    2    1    0    0    0  0.24619161648E+02 -0.59335808234E+01  0.21124248783E+02  0.92022062097E+02  0.85909926809E+02 0.  0.
         11    1    3    3    0    0  0.12059668187E+02 -0.19738702739E+02  0.51451620908E+02  0.56412066767E+02  0.51100000000E-03 0. -1.
         22    1    1    0    0    0 -0.24619161648E+02  0.59335808234E+01 -0.21124248783E+02  0.32977937903E+02  0.00000000000E+00 0. -1.
</event>
<event>
 5    1  0.1692178E-003  0.9118800E+02  0.7818608E-02  0.1130116E+00
         25   -1    0    0    0    0  0.00000000000E+00  0.00000000000E+00  0.99999998245E-14  0.12500000000E+03  0.12500000000E+03 0.  0.
        -11    1    3    3    0    0  0.56991108364E+02 -0.13887701964E+02 -0.17399768793E+01  0.58684599498E+02  0.51100000000E-03 0. -1.
         23    2    1    0    0    0  0.40068929064E+02  0.50750783218E+01 -0.49772125994E+01  0.84305428598E+02  0.73833306505E+02 0.  0.
         11    1    3    3    0    0 -0.16922179299E+02  0.18962780286E+02 -0.32372357201E+01  0.25620829100E+02  0.51100000000E-03 0.  1.
         22    1    1    0    0    0 -0.40068929064E+02 -0.50750783218E+01  0.49772125994E+01  0.40694571402E+02  0.00000000000E+00 0. -1.
</event>
<event>
 5    1  0.1692178E-003  0.9118800E+02  0.7818608E-02  0.1130116E+00
         25   -1    0    0    0    0  0.00000000000E+00  0.00000000000E+00  0.99999998245E-14  0.12500000000E+03  0.12500000000E+03 0.  0.
        -11    1    3    3    0    0 -0.43663343001E+02  0.17941769176E+02 -0.17338063503E+02  0.50289194162E+02  0.51100000000E-03 0.  1.
         23    2    1    0    0    0 -0.19724018051E+02  0.52837637604E+01  0.20002729966E+02  0.96415664191E+02  0.92081029793E+02 0.  0.
         11    1    3    3    0    0  0.23939324950E+02 -0.12658005416E+02  0.37340793469E+02  0.46126470029E+02  0.51100000000E-03 0. -1.
         22    1    1    0    0    0  0.19724018051E+02 -0.52837637604E+01 -0.20002729966E+02  0.28584335809E+02  0.00000000000E+00 0. -1.
</event>
<event>
 5    1  0.1692178E-003  0.9118800E+02  0.7818608E-02  0.1130116E+00
         25   -1    0    0    0    0  0.00000000000E+00  0.00000000000E+00  0.99999998245E-14  0.12500000000E+03  0.12500000000E+03 0.  0.
        -11    1    3    3    0    0  0.27014706148E+02 -0.19927368636E+02 -0.17345110615E+02  0.37785542626E+02  0.51100000000E-03 0.  1.
         23    2    1    0    0    0  0.88459177628E+00  0.29251162808E+02 -0.14473705044E+01  0.95699694377E+02  0.91103916459E+02 0.  0.
         11    1    3    3    0    0 -0.26130114371E+02  0.49178531445E+02  0.15897740111E+02  0.57914151751E+02  0.51100000000E-03 0. -1.
         22    1    1    0    0    0 -0.88459177628E+00 -0.29251162808E+02  0.14473705044E+01  0.29300305623E+02  0.00000000000E+00 0. -1.
</event>
<event>
 5    1  0.1692178E-003  0.9118800E+02  0.7818608E-02  0.1130116E+00
         25   -1    0    0    0    0  0.00000000000E+00  0.00000000000E+00  0.99999998245E-14  0.12500000000E+03  0.12500000000E+03 0.  0.
        -11    1    3    3    0    0  0.24058904711E+02 -0.41818021461E+01  0.44551991005E+02  0.50805494465E+02  0.51100000000E-03 0.  1.
         23    2    1    0    0    0  0.28012431095E+02  0.10627271736E+02  0.32454818470E+01  0.94864168290E+02  0.89950219969E+02 0.  0.
         11    1    3    3    0    0  0.39535263847E+01  0.14809073882E+02 -0.41306509158E+02  0.44058673825E+02  0.51100000000E-03 0. -1.
         22    1    1    0    0    0 -0.28012431095E+02 -0.10627271736E+02 -0.32454818470E+01  0.30135831710E+02  0.00000000000E+00 0.  1.
</event>
<event>
 5    1  0.1692178E-003  0.9118800E+02  0.7818608E-02  0.1130116E+00
         25   -1    0    0    0    0  0.00000000000E+00  0.00000000000E+00  0.99999998245E-14  0.12500000000E+03  0.12500000000E+03 0.  0.
        -11    1    3    3    0    0  0.31216402294E+02  0.27739116901E+01 -0.25739488082E+02  0.40554649613E+02  0.51100000000E-03 0.  1.
         23    2    1    0    0    0  0.27863691571E+01 -0.28414317280E+02  0.88381140774E+01  0.95112719428E+02  0.90294960307E+02 0.  0.
         11    1    3    3    0    0 -0.28430033137E+02 -0.31188228970E+02  0.34577602160E+02  0.54558069814E+02  0.51100000000E-03 0. -1.
         22    1    1    0    0    0 -0.27863691571E+01  0.28414317280E+02 -0.88381140774E+01  0.29887280572E+02  0.00000000000E+00 0. -1.
</event>
<event>
 5    1  0.1692178E-003  0.9118800E+02  0.7818608E-02  0.1130116E+00
         25   -1    0    0    0    0  0.00000000000E+00  0.00000000000E+00  0.99999998245E-14  0.12500000000E+03  0.12500000000E+03 0.  0.
        -11    1    3    3    0    0 -0.14117648176E+02  0.51890292067E+02  0.17070286183E+02  0.56420785810E+02  0.51100000000E-03 0.  1.
         23    2    1    0    0    0  0.79078932805E+01  0.34829915465E+02 -0.35585191265E+00  0.89281875497E+02  0.81825844781E+02 0.  0.
         11    1    3    3    0    0  0.22025541456E+02 -0.17060376602E+02 -0.17426138095E+02  0.32861089687E+02  0.51100000000E-03 0. -1.
         22    1    1    0    0    0 -0.79078932805E+01 -0.34829915465E+02  0.35585191265E+00  0.35718124503E+02  0.00000000000E+00 0.  1.
</event>
<event>
 5    1  0.1692178E-003  0.9118800E+02  0.7818608E-02  0.1130116E+00
         25   -1    0    0    0    0  0.00000000000E+00  0.00000000000E+00  0.99999998245E-14  0.12500000000E+03  0.12500000000E+03 0.  0.
        -11    1    3    3    0    0 -0.36428177405E+02  0.22619965068E+02  0.83778595970E+01  0.43690542001E+02  0.51100000000E-03 0. -1.
         23    2    1    0    0    0  0.11096411273E+02  0.10333412296E+02  0.25208324526E+02  0.95582838712E+02  0.90943442194E+02 0.  0.
         11    1    3    3    0    0  0.47524588678E+02 -0.12286552771E+02  0.16830464929E+02  0.51892296711E+02  0.51100000000E-03 0.  1.
         22    1    1    0    0    0 -0.11096411273E+02 -0.10333412296E+02 -0.25208324526E+02  0.29417161288E+02  0.00000000000E+00 0.  1.
</event>
<event>
 5    1  0.1692178E-003  0.9118800E+02  0.7818608E-02  0.1130116E+00
         25   -1    0    0    0    0  0.00000000000E+00  0.00000000000E+00  0.99999998245E-14  0.12500000000E+03  0.12500000000E+03 0.  0.
        -11    1    3    3    0    0  0.10504143763E+02  0.81431640327E+00  0.34567773556E+02  0.36137668938E+02  0.51100000000E-03 0.  1.
         23    2    1    0    0    0 -0.70762802770E+01 -0.20005944591E+02 -0.19178401250E+02  0.96397156854E+02  0.92055902654E+02 0.  0.
         11    1    3    3    0    0 -0.17580424040E+02 -0.20820260995E+02 -0.53746174806E+02  0.60259487915E+02  0.51100000000E-03 0. -1.
         22    1    1    0    0    0  0.70762802770E+01  0.20005944591E+02  0.19178401250E+02  0.28602843146E+02  0.00000000000E+00 0. -1.
</event>
<event>
 5    1  0.1692178E-003  0.9118800E+02  0.7818608E-02  0.1130116E+00
         25   -1    0    0    0    0  0.00000000000E+00  0.00000000000E+00  0.99999998245E-14  0.12500000000E+03  0.12500000000E+03 0.  0.
        -11    1    3    3    0    0  0.23380592889E+02 -0.96926727457E+01  0.49642825213E+02  0.55722617708E+02  0.51100000000E-03 0. -1.
         23    2    1    0    0    0 -0.81765568751E+01 -0.12355957397E+02  0.25355936878E+02  0.95632512867E+02  0.91011692748E+02 0.  0.
         11    1    3    3    0    0 -0.31557149764E+02 -0.26632846517E+01 -0.24286888335E+02  0.39909895160E+02  0.51100000000E-03 0.  1.
         22    1    1    0    0    0  0.81765568751E+01  0.12355957397E+02 -0.25355936878E+02  0.29367487133E+02  0.00000000000E+00 0. -1.
</event>
<event>
 5    1  0.1692178E-003  0.9118800E+02  0.7818608E-02  0.1130116E+00
         25   -1    0    0    0    0  0.00000000000E+00  0.00000000000E+00  0.99999998245E-14  0.12500000000E+03  0.12500000000E+03 0.  0.
        -11    1    3    3    0    0  0.21994067981E+02 -0.28047853514E+02 -0.16440752956E+02  0.39251999581E+02  0.51100000000E-03 0.  1.
         23    2    1    0    0    0  0.13294793881E+02  0.26059682739E+02 -0.37403929133E+01  0.95506794885E+02  0.90838861295E+02 0.  0.
         11    1    3    3    0    0 -0.86992741001E+01  0.54107536253E+02  0.12700360043E+02  0.56254795304E+02  0.51100000000E-03 0. -1.
         22    1    1    0    0    0 -0.13294793881E+02 -0.26059682739E+02  0.37403929133E+01  0.29493205115E+02  0.00000000000E+00 0. -1.
</event>
<event>
 5    1  0.1692178E-003  0.9118800E+02  0.7818608E-02  0.1130116E+00
         25   -1    0    0    0    0  0.00000000000E+00  0.00000000000E+00  0.99999998245E-14  0.12500000000E+03  0.12500000000E+03 0.  0.
        -11    1    3    3    0    0  0.14554951309E+01 -0.38463256256E+02 -0.13301728856E+02  0.40724397340E+02  0.51100000000E-03 0. -1.
         23    2    1    0    0    0  0.27485577430E+02  0.91299081112E+01 -0.39909554524E+01  0.95764064677E+02  0.91192193577E+02 0.  0.
         11    1    3    3    0    0  0.26030082299E+02  0.47593164367E+02  0.93107734034E+01  0.55039667337E+02  0.51100000000E-03 0.  1.
         22    1    1    0    0    0 -0.27485577430E+02 -0.91299081112E+01  0.39909554524E+01  0.29235935323E+02  0.00000000000E+00 0.  1.
</event>
<event>
 5    1  0.1692178E-003  0.9118800E+02  0.7818608E-02  0.1130116E+00
         25   -1    0    0    0    0  0.00000000000E+00  0.00000000000E+00  0.99999998245E-14  0.12500000000E+03  0.12500000000E+03 0.  0.
        -11    1    3    3    0    0  0.27604187653E+02  0.49755030739E+02 -0.10166414417E+02  0.57800607629E+02  0.51100000000E-03 0.  1.
         23    2    1    0    0    0  0.17052843855E+02  0.21901614262E+02  0.11829237318E+02  0.94826981485E+02  0.89898528192E+02 0.  0.
         11    1    3    3    0    0 -0.10551343798E+02 -0.27853416477E+02  0.21995651735E+02  0.37026373856E+02  0.51100000000E-03 0. -1.
         22    1    1    0    0    0 -0.17052843855E+02 -0.21901614262E+02 -0.11829237318E+02  0.30173018515E+02  0.00000000000E+00 0.  1.
</event>
<event>
 5    1  0.1692178E-003  0.9118800E+02  0.7818608E-02  0.1130116E+00
         25   -1    0    0    0    0  0.00000000000E+00  0.00000000000E+00  0.99999998245E-14  0.12500000000E+03  0.12500000000E+03 0.  0.
        -11    1    3    3    0    0  0.18751888337E+02 -0.22529153063E+02  0.22712533548E+02  0.37081737208E+02  0.51100000000E-03 0. -1.
         23    2    1    0    0    0 -0.74030029163E+01  0.26438771822E+02 -0.11776069838E+01  0.97519099981E+02  0.93566954612E+02 0.  0.
         11    1    3    3    0    0 -0.26154891254E+02  0.48967924885E+02 -0.23890140532E+02  0.60437362773E+02  0.51100000000E-03 0.  1.
         22    1    1    0    0    0  0.74030029163E+01 -0.26438771822E+02  0.11776069838E+01  0.27480900019E+02  0.00000000000E+00 0.  1.
</event>
<event>
 5    1  0.1692178E-003  0.9118800E+02  0.7818608E-02  0.1130116E+00
         25   -1    0    0    0    0  0.00000000000E+00  0.00000000000E+00  0.99999998245E-14  0.12500000000E+03  0.12500000000E+03 0.  0.
        -11    1    3    3    0    0 -0.36839891418E+00 -0.22335303342E+02  0.31078839474E+02  0.38273956635E+02  0.51100000000E-03 0.  1.
         23    2    1    0    0    0  0.24756105966E+02  0.65331066675E+01 -0.12697912169E+02  0.96420580154E+02  0.92087702971E+02 0.  0.
         11    1    3    3    0    0  0.25124504880E+02  0.28868410010E+02 -0.43776751643E+02  0.58146623519E+02  0.51100000000E-03 0. -1.
         22    1    1    0    0    0 -0.24756105966E+02 -0.65331066675E+01  0.12697912169E+02  0.28579419846E+02  0.00000000000E+00 0. -1.
</event>
<event>
 5    1  0.1692178E-003  0.9118800E+02  0.7818608E-02  0.1130116E+00
         25   -1    0    0    0    0  0.00000000000E+00  0.00000000000E+00  0.99999998245E-14  0.12500000000E+03  0.12500000000E+03 0.  0.
        -11    1    3    3    0    0  0.15320668818E+02 -0.55804526939E+02  0.15140379271E+01  0.57889208243E+02  0.51100000000E-03 0. -1.
         23    2    1    0    0    0  0.94400691850E+01 -0.21551250063E+02  0.17035510016E+02  0.95952110455E+02  0.91449590561E+02 0.  0.
         11    1    3    3    0    0 -0.58805996330E+01  0.34253276875E+02  0.15521472089E+02  0.38062902212E+02  0.51100000000E-03 0.  1.
         22    1    1    0    0    0 -0.94400691850E+01  0.21551250063E+02 -0.17035510016E+02  0.29047889545E+02  0.00000000000E+00 0. -1.
</event>
<event>
 5    1  0.1692178E-003  0.9118800E+02  0.7818608E-02  0.1130116E+00
         25   -1    0    0    0    0  0.00000000000E+00  0.00000000000E+00  0.99999998245E-14  0.12500000000E+03  0.12500000000E+03 0.  0.
        -11    1    3    3    0    0 -0.20122650654E+02  0.21463851067E+02  0.31273111647E+02  0.42937460152E+02  0.51100000000E-03 0.  1.
         23    2    1    0    0    0 -0.18873475116E+02  0.67853413017E+01 -0.20234258340E+02  0.96510104772E+02  0.92209143760E+02 0.  0.
         11    1    3    3    0    0  0.12491755375E+01 -0.14678509765E+02 -0.51507369986E+02  0.53572644620E+02  0.51100000000E-03 0. -1.
         22    1    1    0    0    0  0.18873475116E+02 -0.67853413017E+01  0.20234258340E+02  0.28489895228E+02  0.00000000000E+00 0. -1.
</event>
<event>
 5    1  0.1692178E-003  0.9118800E+02  0.7818608E-02  0.1130116E+00
         25   -1    0    0    0    0  0.00000000000E+00  0.00000000000E+00  0.99999998245E-14  0.12500000000E+03  0.12500000000E+03 0.  0.
        -11    1    3    3    0    0  0.70044928189E+00 -0.16803795520E+02  0.54642534968E+02  0.57172238028E+02  0.51100000000E-03 0.  1.
         23    2    1    0    0    0  0.13303764390E+02  0.52163010699E+01  0.25126549207E+02  0.96094232083E+02  0.91643646920E+02 0.  0.
         11    1    3    3    0    0  0.12603315108E+02  0.22020096590E+02 -0.29515985761E+02  0.38921994056E+02  0.51100000000E-03 0. -1.
         22    1    1    0    0    0 -0.13303764390E+02 -0.52163010699E+01 -0.25126549207E+02  0.28905767917E+02  0.00000000000E+00 0.  1.
</event>
<event>
 5    1  0.1692178E-003  0.9118800E+02  0.7818608E-02  0.1130116E+00
         25   -1    0    0    0    0  0.00000000000E+00  0.00000000000E+00  0.99999998245E-14  0.12500000000E+03  0.12500000000E+03 0.  0.
        -11    1    3    3    0    0 -0.47877736967E+02  0.22022516006E+02  0.30175027430E+02  0.60727268908E+02  0.51100000000E-03 0. -1.
         23    2    1    0    0    0 -0.28177854617E+02  0.84114136228E+01  0.55505206843E+01  0.95074231007E+02  0.90241663060E+02 0.  0.
         11    1    3    3    0    0  0.19699882351E+02 -0.13611102384E+02 -0.24624506746E+02  0.34346962099E+02  0.51100000000E-03 0.  1.
         22    1    1    0    0    0  0.28177854617E+02 -0.84114136228E+01 -0.55505206843E+01  0.29925768993E+02  0.00000000000E+00 0. -1.
</event>
<event>
 5    1  0.1692178E-003  0.9118800E+02  0.7818608E-02  0.1130116E+00
         25   -1    0    0    0    0  0.00000000000E+00  0.00000000000E+00  0.99999998245E-14  0.12500000000E+03  0.12500000000E+03 0.  0.
        -11    1    3    3    0    0  0.15212778910E+02 -0.53431542015E+02  0.15622137272E+02  0.57709700202E+02  0.51100000000E-03 0. -1.
         23    2    1    0    0    0 -0.98117133445E+01 -0.25025597778E+02  0.11404263921E+02  0.95800556538E+02  0.91242200404E+02 0.  0.
         11    1    3    3    0    0 -0.25024492254E+02  0.28405944237E+02 -0.42178733502E+01  0.38090856336E+02  0.51100000000E-03 0.  1.
         22    1    1    0    0    0  0.98117133445E+01  0.25025597778E+02 -0.11404263921E+02  0.29199443462E+02  0.00000000000E+00 0. -1.
</event>
<event>
 5    1  0.1692178E-003  0.9118800E+02  0.7818608E-02  0.1130116E+00
         25   -1    0    0    0    0  0.00000000000E+00  0.00000000000E+00  0.99999998245E-14  0.12500000000E+03  0.12500000000E+03 0.  0.
        -11    1    3    3    0    0  0.41598239437E+02  0.52595291039E+01  0.20520285543E+02  0.46681455522E+02  0.51100000000E-03 0. -1.
         23    2    1    0    0    0 -0.21802234387E+01 -0.16116077248E+02  0.24534615703E+02  0.95564839259E+02  0.90918698928E+02 0.  0.
         11    1    3    3    0    0 -0.43778462876E+02 -0.21375606352E+02  0.40143301601E+01  0.48883383737E+02  0.51100000000E-03 0.  1.
         22    1    1    0    0    0  0.21802234387E+01  0.16116077248E+02 -0.24534615703E+02  0.29435160741E+02  0.00000000000E+00 0. -1.
</event>
<event>
 5    1  0.1692178E-003  0.9118800E+02  0.7818608E-02  0.1130116E+00
         25   -1    0    0    0    0  0.00000000000E+00  0.00000000000E+00  0.99999998245E-14  0.12500000000E+03  0.12500000000E+03 0.  0.
        -11    1    3    3    0    0 -0.38510083767E+02 -0.17321118046E+02 -0.97023940258E+01  0.43326483035E+02  0.51100000000E-03 0. -1.
         23    2    1    0    0    0  0.34056719941E+01 -0.10390621160E+02 -0.31912222028E+02  0.91266433267E+02  0.84803350858E+02 0.  0.
         11    1    3    3    0    0  0.41915755761E+02  0.69304968863E+01 -0.22209828002E+02  0.47939950232E+02  0.51100000000E-03 0.  1.
         22    1    1    0    0    0 -0.34056719941E+01  0.10390621160E+02  0.31912222028E+02  0.33733566733E+02  0.00000000000E+00 0. -1.
</event>
<event>
 5    1  0.1692178E-003  0.9118800E+02  0.7818608E-02  0.1130116E+00
         25   -1    0    0    0    0  0.00000000000E+00  0.00000000000E+00  0.99999998245E-14  0.12500000000E+03  0.12500000000E+03 0.  0.
        -11    1    3    3    0    0  0.95607054448E+01  0.24498250632E+02  0.24106687314E+02  0.35674973667E+02  0.51100000000E-03 0.  1.
         23    2    1    0    0    0 -0.17280787877E+02  0.89103816230E+00 -0.23878516206E+02  0.95510966193E+02  0.90844601096E+02 0.  0.
         11    1    3    3    0    0 -0.26841493322E+02 -0.23607212470E+02 -0.47985203521E+02  0.59835992526E+02  0.51100000000E-03 0. -1.
         22    1    1    0    0    0  0.17280787877E+02 -0.89103816230E+00  0.23878516206E+02  0.29489033807E+02  0.00000000000E+00 0. -1.
</event>
<event>
 5    1  0.1692178E-003  0.9118800E+02  0.7818608E-02  0.1130116E+00
         25   -1    0    0    0    0  0.00000000000E+00  0.00000000000E+00  0.99999998245E-14  0.12500000000E+03  0.12500000000E+03 0.  0.
        -11    1    3    3    0    0 -0.37558324581E+02  0.32028931078E+02 -0.16702661867E+02  0.52110067022E+02  0.51100000000E-03 0. -1.
         23    2    1    0    0    0 -0.14925422445E+02 -0.27880554402E+01 -0.26208531107E+02  0.94710916305E+02  0.89736999483E+02 0.  0.
         11    1    3    3    0    0  0.22632902137E+02 -0.34816986518E+02 -0.95058692403E+01  0.42600849283E+02  0.51100000000E-03 0.  1.
         22    1    1    0    0    0  0.14925422445E+02  0.27880554402E+01  0.26208531107E+02  0.30289083695E+02  0.00000000000E+00 0. -1.
</event>
<event>
 5    1  0.1692178E-003  0.9118800E+02  0.7818608E-02  0.1130116E+00
         25   -1    0    0    0    0  0.00000000000E+00  0.00000000000E+00  0.99999998245E-14  0.12500000000E+03  0.12500000000E+03 0.  0.
        -11    1    3    3    0    0  0.45858997798E+02 -0.27958126136E+02  0.22551937023E+02  0.58251990179E+02  0.51100000000E-03 0. -1.
         23    2    1    0    0    0  0.26597049741E+02 -0.38079248730E+01 -0.24877594181E+01  0.98016814612E+02  0.94229526439E+02 0.  0.
         11    1    3    3    0    0 -0.19261948057E+02  0.24150201263E+02 -0.25039696441E+02  0.39764824432E+02  0.51100000000E-03 0.  1.
         22    1    1    0    0    0 -0.26597049741E+02  0.38079248730E+01  0.24877594181E+01  0.26983185388E+02  0.00000000000E+00 0. -1.
</event>
<event>
 5    1  0.1692178E-003  0.9118800E+02  0.7818608E-02  0.1130116E+00
         25   -1    0    0    0    0  0.00000000000E+00  0.00000000000E+00  0.99999998245E-14  0.12500000000E+03  0.12500000000E+03 0.  0.
        -11    1    3    3    0    0 -0.31515840825E+02  0.23259442608E+02  0.31532771405E+01  0.39296221833E+02  0.51100000000E-03 0. -1.
         23    2    1    0    0    0 -0.30811767361E+01 -0.23741690443E+02 -0.14517492567E+02  0.97001444580E+02  0.92872822424E+02 0.  0.
         11    1    3    3    0    0  0.28434664089E+02 -0.47001133051E+02 -0.17670769707E+02  0.57705222747E+02  0.51100000000E-03 0.  1.
         22    1    1    0    0    0  0.30811767361E+01  0.23741690443E+02  0.14517492567E+02  0.27998555420E+02  0.00000000000E+00 0.  1.
</event>
<event>
 5    1  0.1692178E-003  0.9118800E+02  0.7818608E-02  0.1130116E+00
         25   -1    0    0    0    0  0.00000000000E+00  0.00000000000E+00  0.99999998245E-14  0.12500000000E+03  0.12500000000E+03 0.  0.
        -11    1    3    3    0    0 -0.13704203624E+02 -0.46514506265E+02  0.64387205651E+01  0.48916884742E+02  0.51100000000E-03 0.  1.
         23    2    1    0    0    0  0.18495844215E+02 -0.17657553509E+02  0.18065243798E+02  0.93691239522E+02  0.88305208683E+02 0.  0.
         11    1    3    3    0    0  0.32200047839E+02  0.28856952756E+02  0.11626523233E+02  0.44774354780E+02  0.51100000000E-03 0. -1.
         22    1    1    0    0    0 -0.18495844215E+02  0.17657553509E+02 -0.18065243798E+02  0.31308760478E+02  0.00000000000E+00 0.  1.
</event>
<event>
 5    1  0.1692178E-003  0.9118800E+02  0.7818608E-02  0.1130116E+00
         25   -1    0    0    0    0  0.00000000000E+00  0.00000000000E+00  0.99999998245E-14  0.12500000000E+03  0.12500000000E+03 0.  0.
        -11    1    3    3    0    0  0.62003869297E+01  0.65331023352E+01  0.33945213450E+02  0.35119848243E+02  0.51100000000E-03 0. -1.
         23    2    1    0    0    0  0.14656066702E+02 -0.13670630627E+02 -0.22023993746E+02  0.95221774173E+02  0.90445804453E+02 0.  0.
         11    1    3    3    0    0  0.84556797724E+01 -0.20203732962E+02 -0.55969207196E+02  0.60101925929E+02  0.51100000000E-03 0.  1.
         22    1    1    0    0    0 -0.14656066702E+02  0.13670630627E+02  0.22023993746E+02  0.29778225827E+02  0.00000000000E+00 0.  1.
</event>
<event>
 5    1  0.1692178E-003  0.9118800E+02  0.7818608E-02  0.1130116E+00
         25   -1    0    0    0    0  0.00000000000E+00  0.00000000000E+00  0.99999998245E-14  0.12500000000E+03  0.12500000000E+03 0.  0.
        -11    1    3    3    0    0 -0.21473936066E+02  0.27936677464E+02  0.34056344512E+02  0.49004310827E+02  0.51100000000E-03 0.  1.
         23    2    1    0    0    0  0.12008963911E+02  0.25670402797E+02  0.22305666235E+00  0.96658607157E+02  0.92410236388E+02 0.  0.
         11    1    3    3    0    0  0.33482899977E+02 -0.22662746666E+01 -0.33833287850E+02  0.47654296330E+02  0.51100000000E-03 0. -1.
         22    1    1    0    0    0 -0.12008963911E+02 -0.25670402797E+02 -0.22305666235E+00  0.28341392843E+02  0.00000000000E+00 0. -1.
</event>
<event>
 5    1  0.1692178E-003  0.9118800E+02  0.7818608E-02  0.1130116E+00
         25   -1    0    0    0    0  0.00000000000E+00  0.00000000000E+00  0.99999998245E-14  0.12500000000E+03  0.12500000000E+03 0.  0.
        -11    1    3    3    0    0 -0.18031618573E+02 -0.42597085083E+02  0.23917267969E+02  0.52073857484E+02  0.51100000000E-03 0. -1.
         23    2    1    0    0    0 -0.18044580800E+02 -0.20822103533E+02 -0.12687945028E+02  0.94666011789E+02  0.89674427498E+02 0.  0.
         11    1    3    3    0    0 -0.12962226329E-01  0.21774981550E+02 -0.36605212996E+02  0.42592154304E+02  0.51100000000E-03 0.  1.
         22    1    1    0    0    0  0.18044580800E+02  0.20822103533E+02  0.12687945028E+02  0.30333988211E+02  0.00000000000E+00 0. -1.
</event>
<event>
 5    1  0.1692178E-003  0.9118800E+02  0.7818608E-02  0.1130116E+00
         25   -1    0    0    0    0  0.00000000000E+00  0.00000000000E+00  0.99999998245E-14  0.12500000000E+03  0.12500000000E+03 0.  0.
        -11    1    3    3    0    0 -0.20140454558E+02  0.22903170386E+02  0.13534404753E+01  0.30529083264E+02  0.51100000000E-03 0. -1.
         23    2    1    0    0    0 -0.75700833199E+01 -0.16418992018E+02 -0.35044809337E+02  0.85566155123E+02  0.75937729626E+02 0.  0.
         11    1    3    3    0    0  0.12570371238E+02 -0.39322162404E+02 -0.36398249812E+02  0.55037071859E+02  0.51100000000E-03 0.  1.
         22    1    1    0    0    0  0.75700833199E+01  0.16418992018E+02  0.35044809337E+02  0.39433844877E+02  0.00000000000E+00 0.  1.
</event>
<event>
 5    1  0.1692178E-003  0.9118800E+02  0.7818608E-02  0.1130116E+00
         25   -1    0    0    0    0  0.00000000000E+00  0.00000000000E+00  0.99999998245E-14  0.12500000000E+03  0.12500000000E+03 0.  0.
        -11    1    3    3    0    0 -0.44775141804E+02 -0.19875355599E+02 -0.13069382180E+02  0.50701595977E+02  0.51100000000E-03 0. -1.
         23    2    1    0    0    0 -0.19973481692E+02 -0.79774344179E+01  0.21304346380E+02  0.94726998737E+02  0.89759398863E+02 0.  0.
         11    1    3    3    0    0  0.24801660112E+02  0.11897921181E+02  0.34373728560E+02  0.44025402760E+02  0.51100000000E-03 0.  1.
         22    1    1    0    0    0  0.19973481692E+02  0.79774344179E+01 -0.21304346380E+02  0.30273001263E+02  0.00000000000E+00 0. -1.
</event>
<event>
 5    1  0.1692178E-003  0.9118800E+02  0.7818608E-02  0.1130116E+00
         25   -1    0    0    0    0  0.00000000000E+00  0.00000000000E+00  0.99999998245E-14  0.12500000000E+03  0.12500000000E+03 0.  0.
        -11    1    3    3    0    0  0.15139377707E+02 -0.52853534501E+02  0.11859986637E+02  0.56243720982E+02  0.51100000000E-03 0.  1.
         23    2    1    0    0    0 -0.12526551758E+02 -0.21038833757E+02  0.10306430120E+02  0.98433676833E+02  0.94780901073E+02 0.  0.
         11    1    3    3    0    0 -0.27665929465E+02  0.31814700744E+02 -0.15535565167E+01  0.42189955851E+02  0.51100000000E-03 0. -1.
         22    1    1    0    0    0  0.12526551758E+02  0.21038833757E+02 -0.10306430120E+02  0.26566323167E+02  0.00000000000E+00 0.  1.
</event>
<event>
 5    1  0.1692178E-003  0.9118800E+02  0.7818608E-02  0.1130116E+00
         25   -1    0    0    0    0  0.00000000000E+00  0.00000000000E+00  0.99999998245E-14  0.12500000000E+03  0.12500000000E+03 0.  0.
        -11    1    3    3    0    0  0.49302264215E+01  0.79858422817E+01 -0.45410018907E+02  0.46369716701E+02  0.51100000000E-03 0. -1.
         23    2    1    0    0    0  0.13199561206E+02  0.26498894939E+02 -0.78487560968E+00  0.95385208447E+02  0.90671396326E+02 0.  0.
         11    1    3    3    0    0  0.82693347840E+01  0.18513052658E+02  0.44625143298E+02  0.49015491746E+02  0.51100000000E-03 0.  1.
         22    1    1    0    0    0 -0.13199561206E+02 -0.26498894939E+02  0.78487560968E+00  0.29614791553E+02  0.00000000000E+00 0.  1.
</event>
<event>
 5    1  0.1692178E-003  0.9118800E+02  0.7818608E-02  0.1130116E+00
         25   -1    0    0    0    0  0.00000000000E+00  0.00000000000E+00  0.99999998245E-14  0.12500000000E+03  0.12500000000E+03 0.  0.
        -11    1    3    3    0    0  0.31644426039E+00  0.10435625631E+02  0.36021717474E+02  0.37504220420E+02  0.51100000000E-03 0. -1.
         23    2    1    0    0    0 -0.12201390387E+00 -0.26264557539E+02 -0.10459417531E+02  0.96729144243E+02  0.92505600159E+02 0.  0.
         11    1    3    3    0    0 -0.43845816426E+00 -0.36700183170E+02 -0.46481135005E+02  0.59224923823E+02  0.51100000000E-03 0.  1.
         22    1    1    0    0    0  0.12201390387E+00  0.26264557539E+02  0.10459417531E+02  0.28270855757E+02  0.00000000000E+00 0.  1.
</event>
<event>
 5    1  0.1692178E-003  0.9118800E+02  0.7818608E-02  0.1130116E+00
         25   -1    0    0    0    0  0.00000000000E+00  0.00000000000E+00  0.99999998245E-14  0.12500000000E+03  0.12500000000E+03 0.  0.
        -11    1    3    3    0    0  0.31633616394E+00 -0.91566170236E+01 -0.61258475657E+02  0.61939846173E+02  0.51100000000E-03 0.  1.
         23    2    1    0    0    0 -0.15598004761E+01  0.13073960812E+01 -0.29489658531E+02  0.95440192452E+02  0.90747165867E+02 0.  0.
         11    1    3    3    0    0 -0.18761366400E+01  0.10464013105E+02  0.31768817126E+02  0.33500346279E+02  0.51100000000E-03 0. -1.
         22    1    1    0    0    0  0.15598004761E+01 -0.13073960812E+01  0.29489658531E+02  0.29559807548E+02  0.00000000000E+00 0.  1.
</event>
<event>
 5    1  0.1692178E-003  0.9118800E+02  0.7818608E-02  0.1130116E+00
         25   -1    0    0    0    0  0.00000000000E+00  0.00000000000E+00  0.99999998245E-14  0.12500000000E+03  0.12500000000E+03 0.  0.
        -11    1    3    3    0    0  0.37634762910E+02 -0.30193905488E+02  0.14658986427E+01  0.48272105475E+02  0.51100000000E-03 0.  1.
         23    2    1    0    0    0  0.21469231270E+02  0.16025139048E+02  0.63122281289E+01  0.97475879728E+02  0.93509197044E+02 0.  0.
         11    1    3    3    0    0 -0.16165531640E+02  0.46219044536E+02  0.48463294862E+01  0.49203774253E+02  0.51100000000E-03 0. -1.
         22    1    1    0    0    0 -0.21469231270E+02 -0.16025139048E+02 -0.63122281289E+01  0.27524120272E+02  0.00000000000E+00 0. -1.
</event>
<event>
 5    1  0.1692178E-003  0.9118800E+02  0.7818608E-02  0.1130116E+00
         25   -1    0    0    0    0  0.00000000000E+00  0.00000000000E+00  0.99999998245E-14  0.12500000000E+03  0.12500000000E+03 0.  0.
        -11    1    3    3    0    0 -0.36759942150E+02 -0.18367809341E+02 -0.66818527823E+01  0.41633122916E+02  0.51100000000E-03 0.  1.
         23    2    1    0    0    0 -0.76829979134E+01  0.25769368506E+02  0.87971933256E+01  0.96707254984E+02  0.92476017140E+02 0.  0.
         11    1    3    3    0    0  0.29076944237E+02  0.44137177847E+02  0.15479046108E+02  0.55074132068E+02  0.51100000000E-03 0. -1.
         22    1    1    0    0    0  0.76829979134E+01 -0.25769368506E+02 -0.87971933256E+01  0.28292745016E+02  0.00000000000E+00 0. -1.
</event>
<event>
 5    1  0.1692178E-003  0.9118800E+02  0.7818608E-02  0.1130116E+00
         25   -1    0    0    0    0  0.00000000000E+00  0.00000000000E+00  0.99999998245E-14  0.12500000000E+03  0.12500000000E+03 0.  0.
        -11    1    3    3    0    0 -0.93212518932E+01 -0.42036926238E+02  0.33159108425E+01  0.43185462477E+02  0.51100000000E-03 0.  1.
         23    2    1    0    0    0  0.14142022489E+02 -0.15127581604E+02  0.30552587560E+02  0.88090636257E+02  0.79985367814E+02 0.  0.
         11    1    3    3    0    0  0.23463274382E+02  0.26909344634E+02  0.27236676718E+02  0.44905173780E+02  0.51100000000E-03 0. -1.
         22    1    1    0    0    0 -0.14142022489E+02  0.15127581604E+02 -0.30552587560E+02  0.36909363743E+02  0.00000000000E+00 0.  1.
</event>
<event>
 5    1  0.1692178E-003  0.9118800E+02  0.7818608E-02  0.1130116E+00
         25   -1    0    0    0    0  0.00000000000E+00  0.00000000000E+00  0.99999998245E-14  0.12500000000E+03  0.12500000000E+03 0.  0.
        -11    1    3    3    0    0  0.29642502519E+02  0.36996722762E+00  0.18201665954E+02  0.34786714060E+02  0.51100000000E-03 0. -1.
         23    2    1    0    0    0 -0.54855095082E+00  0.13269713876E+01 -0.31780362204E+02  0.93187216673E+02  0.87588835866E+02 0.  0.
         11    1    3    3    0    0 -0.30191053470E+02  0.95700416003E+00 -0.49982028157E+02  0.58400502614E+02  0.51100000000E-03 0.  1.
         22    1    1    0    0    0  0.54855095082E+00 -0.13269713876E+01  0.31780362204E+02  0.31812783327E+02  0.00000000000E+00 0. -1.
</event>
<event>
 5    1  0.1692178E-003  0.9118800E+02  0.7818608E-02  0.1130116E+00
         25   -1    0    0    0    0  0.00000000000E+00  0.00000000000E+00  0.99999998245E-14  0.12500000000E+03  0.12500000000E+03 0.  0.
        -11    1    3    3    0    0  0.28253850134E+02 -0.12008557380E+02  0.51120832674E+01  0.31122642776E+02  0.51100000000E-03 0. -1.
         23    2    1    0    0    0 -0.12190826992E+02  0.69830447336E+01 -0.32542198430E+02  0.89554635632E+02  0.82241467084E+02 0.  0.
         11    1    3    3    0    0 -0.40444677127E+02  0.18991602114E+02 -0.37654281697E+02  0.58431992856E+02  0.51100000000E-03 0.  1.
         22    1    1    0    0    0  0.12190826992E+02 -0.69830447336E+01  0.32542198430E+02  0.35445364368E+02  0.00000000000E+00 0.  1.
</event>
<event>
 5    1  0.1692178E-003  0.9118800E+02  0.7818608E-02  0.1130116E+00
         25   -1    0    0    0    0  0.00000000000E+00  0.00000000000E+00  0.99999998245E-14  0.12500000000E+03  0.12500000000E+03 0.  0.
        -11    1    3    3    0    0 -0.28325870492E+02 -0.12274476849E+02  0.27676431354E+02  0.41460855922E+02  0.51100000000E-03 0.  1.
         23    2    1    0    0    0 -0.53553515705E+01  0.27503350985E+02 -0.31854934117E+01  0.96799619255E+02  0.92600781929E+02 0.  0.
         11    1    3    3    0    0  0.22970518921E+02  0.39777827834E+02 -0.30861924766E+02  0.55338763333E+02  0.51100000000E-03 0. -1.
         22    1    1    0    0    0  0.53553515705E+01 -0.27503350985E+02  0.31854934117E+01  0.28200380745E+02  0.00000000000E+00 0. -1.
</event>
<event>
 5    1  0.1692178E-003  0.9118800E+02  0.7818608E-02  0.1130116E+00
         25   -1    0    0    0    0  0.00000000000E+00  0.00000000000E+00  0.99999998245E-14  0.12500000000E+03  0.12500000000E+03 0.  0.
        -11    1    3    3    0    0  0.41308207404E+02  0.79623982238E+01 -0.17568910223E+02  0.45589849650E+02  0.51100000000E-03 0. -1.
         23    2    1    0    0    0  0.86738066831E+01 -0.25511091816E+02  0.51498390574E+01  0.97566962065E+02  0.93630873734E+02 0.  0.
         11    1    3    3    0    0 -0.32634400721E+02 -0.33473490040E+02  0.22718749281E+02  0.51977112415E+02  0.51100000000E-03 0.  1.
         22    1    1    0    0    0 -0.86738066831E+01  0.25511091816E+02 -0.51498390574E+01  0.27433037935E+02  0.00000000000E+00 0.  1.
</event>
<event>
 5    1  0.1692178E-003  0.9118800E+02  0.7818608E-02  0.1130116E+00
         25   -1    0    0    0    0  0.00000000000E+00  0.00000000000E+00  0.99999998245E-14  0.12500000000E+03  0.12500000000E+03 0.  0.
        -11    1    3    3    0    0 -0.19581212148E+02  0.37051335303E+02  0.42573507828E+02  0.59738839008E+02  0.51100000000E-03 0.  1.
         23    2    1    0    0    0 -0.12241110526E+01  0.26272437795E+02  0.14512487434E+02  0.94960830120E+02  0.90084446660E+02 0.  0.
         11    1    3    3    0    0  0.18357101095E+02 -0.10778897509E+02 -0.28061020393E+02  0.35221991112E+02  0.51100000000E-03 0. -1.
         22    1    1    0    0    0  0.12241110526E+01 -0.26272437795E+02 -0.14512487434E+02  0.30039169880E+02  0.00000000000E+00 0.  1.
</event>
<event>
 5    1  0.1692178E-003  0.9118800E+02  0.7818608E-02  0.1130116E+00
         25   -1    0    0    0    0  0.00000000000E+00  0.00000000000E+00  0.99999998245E-14  0.12500000000E+03  0.12500000000E+03 0.  0.
        -11    1    3    3    0    0 -0.22698159062E+02  0.28486729747E+02 -0.13530390075E+01  0.36449017975E+02  0.51100000000E-03 0.  1.
         23    2    1    0    0    0  0.25540259705E+02 -0.39957087740E+01 -0.13465255001E+02  0.95852381802E+02  0.91313172382E+02 0.  0.
         11    1    3    3    0    0  0.48238418767E+02 -0.32482438521E+02 -0.12112215993E+02  0.59403363827E+02  0.51100000000E-03 0. -1.
         22    1    1    0    0    0 -0.25540259705E+02  0.39957087740E+01  0.13465255001E+02  0.29147618198E+02  0.00000000000E+00 0. -1.
</event>
<event>
 5    1  0.1692178E-003  0.9118800E+02  0.7818608E-02  0.1130116E+00
         25   -1    0    0    0    0  0.00000000000E+00  0.00000000000E+00  0.99999998245E-14  0.12500000000E+03  0.12500000000E+03 0.  0.
        -11    1    3    3    0    0 -0.39723921657E+01 -0.32595900286E+02 -0.48750748998E+01  0.33196972309E+02  0.51100000000E-03 0. -1.
         23    2    1    0    0    0  0.95705191372E+01  0.27993580518E+02 -0.11466374551E+01  0.95393410122E+02  0.90682702488E+02 0.  0.
         11    1    3    3    0    0  0.13542911303E+02  0.60589480803E+02  0.37284374447E+01  0.62196437813E+02  0.51100000000E-03 0.  1.
         22    1    1    0    0    0 -0.95705191372E+01 -0.27993580518E+02  0.11466374551E+01  0.29606589878E+02  0.00000000000E+00 0.  1.
</event>
<event>
 5    1  0.1692178E-003  0.9118800E+02  0.7818608E-02  0.1130116E+00
         25   -1    0    0    0    0  0.00000000000E+00  0.00000000000E+00  0.99999998245E-14  0.12500000000E+03  0.12500000000E+03 0.  0.
        -11    1    3    3    0    0  0.23032374144E+02  0.16892672903E+02 -0.36932660248E+02  0.46689121321E+02  0.51100000000E-03 0.  1.
         23    2    1    0    0    0  0.24578952745E+02  0.95423053105E+01  0.11883264729E+02  0.96079548944E+02  0.91623617239E+02 0.  0.
         11    1    3    3    0    0  0.15465786012E+01 -0.73503675922E+01  0.48815924977E+02  0.49390427622E+02  0.51100000000E-03 0. -1.
         22    1    1    0    0    0 -0.24578952745E+02 -0.95423053105E+01 -0.11883264729E+02  0.28920451056E+02  0.00000000000E+00 0. -1.
</event>
<event>
 5    1  0.1692178E-003  0.9118800E+02  0.7818608E-02  0.1130116E+00
         25   -1    0    0    0    0  0.00000000000E+00  0.00000000000E+00  0.99999998245E-14  0.12500000000E+03  0.12500000000E+03 0.  0.
        -11    1    3    3    0    0 -0.34912556445E+02  0.40914244569E+02  0.21618868228E+02  0.57967555321E+02  0.51100000000E-03 0.  1.
         23    2    1    0    0    0 -0.16946067932E+02  0.19880849035E+02 -0.71885765883E+01  0.97905849154E+02  0.94082210266E+02 0.  0.
         11    1    3    3    0    0  0.17966488513E+02 -0.21033395535E+02 -0.28807444816E+02  0.39938293833E+02  0.51100000000E-03 0. -1.
         22    1    1    0    0    0  0.16946067932E+02 -0.19880849035E+02  0.71885765883E+01  0.27094150846E+02  0.00000000000E+00 0.  1.
</event>
<event>
 5    1  0.1692178E-003  0.9118800E+02  0.7818608E-02  0.1130116E+00
         25   -1    0    0    0    0  0.00000000000E+00  0.00000000000E+00  0.99999998245E-14  0.12500000000E+03  0.12500000000E+03 0.  0.
        -11    1    3    3    0    0  0.21577245745E+02  0.13097114687E+02 -0.47182234228E+02  0.53509580209E+02  0.51100000000E-03 0.  1.
         23    2    1    0    0    0 -0.12445844321E+02 -0.20333970405E+01 -0.25382492194E+02  0.96657370370E+02  0.92408563415E+02 0.  0.
         11    1    3    3    0    0 -0.34023090066E+02 -0.15130511727E+02  0.21799742034E+02  0.43147790161E+02  0.51100000000E-03 0. -1.
         22    1    1    0    0    0  0.12445844321E+02  0.20333970405E+01  0.25382492194E+02  0.28342629630E+02  0.00000000000E+00 0.  1.
</event>
<event>
 5    1  0.1692178E-003  0.9118800E+02  0.7818608E-02  0.1130116E+00
         25   -1    0    0    0    0  0.00000000000E+00  0.00000000000E+00  0.99999998245E-14  0.12500000000E+03  0.12500000000E+03 0.  0.
        -11    1    3    3    0    0  0.37497725956E+02 -0.12826842742E+02  0.71746293997E+01  0.40275087261E+02  0.51100000000E-03 0.  1.
         23    2    1    0    0    0 -0.22802977153E+02 -0.69000036540E+01  0.24505583294E+01  0.10105023897E+03  0.98171073854E+02 0.  0.
         11    1    3    3    0    0 -0.60300703109E+02  0.59268390878E+01 -0.47240710703E+01  0.60775151705E+02  0.51100000000E-03 0. -1.
         22    1    1    0    0    0  0.22802977153E+02  0.69000036540E+01 -0.24505583294E+01  0.23949761034E+02  0.00000000000E+00 0. -1.
</event>
<event>
 5    1  0.1692178E-003  0.9118800E+02  0.7818608E-02  0.1130116E+00
         25   -1    0    0    0    0  0.00000000000E+00  0.00000000000E+00  0.99999998245E-14  0.12500000000E+03  0.12500000000E+03 0.  0.
        -11    1    3    3    0    0  0.39073923554E+02 -0.87022726633E+01 -0.24050827094E+02  0.46700571042E+02  0.51100000000E-03 0. -1.
         23    2    1    0    0    0 -0.10277332318E+02 -0.21775260923E+01 -0.26451033885E+02  0.96539108007E+02  0.92248452571E+02 0.  0.
         11    1    3    3    0    0 -0.49351255872E+02  0.65247465710E+01 -0.24002067907E+01  0.49838536965E+02  0.51100000000E-03 0.  1.
         22    1    1    0    0    0  0.10277332318E+02  0.21775260923E+01  0.26451033885E+02  0.28460891993E+02  0.00000000000E+00 0.  1.
</event>
<event>
 5    1  0.1692178E-003  0.9118800E+02  0.7818608E-02  0.1130116E+00
         25   -1    0    0    0    0  0.00000000000E+00  0.00000000000E+00  0.99999998245E-14  0.12500000000E+03  0.12500000000E+03 0.  0.
        -11    1    3    3    0    0  0.14743262264E+02  0.28275513506E+02  0.29892710608E+02  0.43708610067E+02  0.51100000000E-03 0.  1.
         23    2    1    0    0    0 -0.24220882309E+02  0.26671060238E+02  0.93818744508E+01  0.87770761997E+02  0.79483900881E+02 0.  0.
         11    1    3    3    0    0 -0.38964144573E+02 -0.16044532680E+01 -0.20510836157E+02  0.44062151930E+02  0.51100000000E-03 0. -1.
         22    1    1    0    0    0  0.24220882309E+02 -0.26671060238E+02 -0.93818744508E+01  0.37229238003E+02  0.00000000000E+00 0. -1.
</event>
<event>
 5    1  0.1692178E-003  0.9118800E+02  0.7818608E-02  0.1130116E+00
         25   -1    0    0    0    0  0.00000000000E+00  0.00000000000E+00  0.99999998245E-14  0.12500000000E+03  0.12500000000E+03 0.  0.
        -11    1    3    3    0    0 -0.72651013212E+00  0.15264468504E+02 -0.30091272924E+02  0.33749318839E+02  0.51100000000E-03 0. -1.
         23    2    1    0    0    0 -0.16063250863E+02 -0.91280112971E+00  0.26177835254E+02  0.94273134023E+02  0.89125100312E+02 0.  0.
         11    1    3    3    0    0 -0.15336740730E+02 -0.16177269633E+02  0.56269108178E+02  0.60523815184E+02  0.51100000000E-03 0.  1.
         22    1    1    0    0    0  0.16063250863E+02  0.91280112971E+00 -0.26177835254E+02  0.30726865977E+02  0.00000000000E+00 0.  1.
</event>
<event>
 5    1  0.1692178E-003  0.9118800E+02  0.7818608E-02  0.1130116E+00
         25   -1    0    0    0    0  0.00000000000E+00  0.00000000000E+00  0.99999998245E-14  0.12500000000E+03  0.12500000000E+03 0.  0.
        -11    1    3    3    0    0  0.34628676863E+02  0.65890278981E+01  0.16576224485E+02  0.38952943000E+02  0.51100000000E-03 0.  1.
         23    2    1    0    0    0 -0.24725268513E+02  0.29969960871E+01  0.33405222416E+01  0.99870734642E+02  0.96657558734E+02 0.  0.
         11    1    3    3    0    0 -0.59353945377E+02 -0.35920318110E+01 -0.13235702244E+02  0.60917791641E+02  0.51100000000E-03 0. -1.
         22    1    1    0    0    0  0.24725268513E+02 -0.29969960871E+01 -0.33405222416E+01  0.25129265358E+02  0.00000000000E+00 0. -1.
</event>
<event>
 5    1  0.1692178E-003  0.9118800E+02  0.7818608E-02  0.1130116E+00
         25   -1    0    0    0    0  0.00000000000E+00  0.00000000000E+00  0.99999998245E-14  0.12500000000E+03  0.12500000000E+03 0.  0.
        -11    1    3    3    0    0  0.49629364255E+02 -0.25767834348E+02  0.23926231369E+02  0.60823676567E+02  0.51100000000E-03 0.  1.
         23    2    1    0    0    0  0.21798599903E+02 -0.47806621274E+01  0.18316268476E+02  0.96129264315E+02  0.91691417694E+02 0.  0.
         11    1    3    3    0    0 -0.27830764352E+02  0.20987172221E+02 -0.56099628928E+01  0.35305587747E+02  0.51100000000E-03 0. -1.
         22    1    1    0    0    0 -0.21798599903E+02  0.47806621274E+01 -0.18316268476E+02  0.28870735685E+02  0.00000000000E+00 0.  1.
</event>
<event>
 5    1  0.1692178E-003  0.9118800E+02  0.7818608E-02  0.1130116E+00
         25   -1    0    0    0    0  0.00000000000E+00  0.00000000000E+00  0.99999998245E-14  0.12500000000E+03  0.12500000000E+03 0.  0.
        -11    1    3    3    0    0 -0.54566587976E+01 -0.28654455209E+02  0.37641083110E+02  0.47620416488E+02  0.51100000000E-03 0. -1.
         23    2    1    0    0    0  0.26474842012E+02 -0.37267861935E+01  0.18921775450E+02  0.92245766975E+02  0.86234805872E+02 0.  0.
         11    1    3    3    0    0  0.31931500810E+02  0.24927669016E+02 -0.18719307660E+02  0.44625350487E+02  0.51100000000E-03 0.  1.
         22    1    1    0    0    0 -0.26474842012E+02  0.37267861935E+01 -0.18921775450E+02  0.32754233025E+02  0.00000000000E+00 0.  1.
</event>
<event>
 5    1  0.1692178E-003  0.9118800E+02  0.7818608E-02  0.1130116E+00
         25   -1    0    0    0    0  0.00000000000E+00  0.00000000000E+00  0.99999998245E-14  0.12500000000E+03  0.12500000000E+03 0.  0.
        -11    1    3    3    0    0  0.13121581144E+02 -0.43506001514E+02 -0.38216117530E+01  0.45602113724E+02  0.51100000000E-03 0.  1.
         23    2    1    0    0    0  0.30257721692E+02  0.22246796188E+01  0.74861966320E+00  0.94651369836E+02  0.89654015298E+02 0.  0.
         11    1    3    3    0    0  0.17136140548E+02  0.45730681132E+02  0.45702314162E+01  0.49049256113E+02  0.51100000000E-03 0. -1.
         22    1    1    0    0    0 -0.30257721692E+02 -0.22246796188E+01 -0.74861966320E+00  0.30348630164E+02  0.00000000000E+00 0. -1.
</event>
<event>
 5    1  0.1692178E-003  0.9118800E+02  0.7818608E-02  0.1130116E+00
         25   -1    0    0    0    0  0.00000000000E+00  0.00000000000E+00  0.99999998245E-14  0.12500000000E+03  0.12500000000E+03 0.  0.
        -11    1    3    3    0    0  0.49358499275E+02  0.21981013785E+02 -0.18399894621E+02  0.57078739825E+02  0.51100000000E-03 0.  1.
         23    2    1    0    0    0  0.29702867340E+02  0.26417547188E+01  0.67785783997E+01  0.94419151069E+02  0.89329657825E+02 0.  0.
         11    1    3    3    0    0 -0.19655631934E+02 -0.19339259066E+02  0.25178473021E+02  0.37340411244E+02  0.51100000000E-03 0. -1.
         22    1    1    0    0    0 -0.29702867340E+02 -0.26417547188E+01 -0.67785783997E+01  0.30580848931E+02  0.00000000000E+00 0.  1.
</event>
<event>
 5    1  0.1692178E-003  0.9118800E+02  0.7818608E-02  0.1130116E+00
         25   -1    0    0    0    0  0.00000000000E+00  0.00000000000E+00  0.99999998245E-14  0.12500000000E+03  0.12500000000E+03 0.  0.
        -11    1    3    3    0    0 -0.25915765357E+02 -0.40197632340E+02 -0.34796238060E+02  0.59146045710E+02  0.51100000000E-03 0.  1.
         23    2    1    0    0    0 -0.68671762134E+01 -0.93494533897E+01 -0.26112136492E+02  0.96427039705E+02  0.92096470759E+02 0.  0.
         11    1    3    3    0    0  0.19048589144E+02  0.30848178950E+02  0.86841015672E+01  0.37280993995E+02  0.51100000000E-03 0. -1.
         22    1    1    0    0    0  0.68671762134E+01  0.93494533897E+01  0.26112136492E+02  0.28572960295E+02  0.00000000000E+00 0. -1.
</event>
<event>
 5    1  0.1692178E-003  0.9118800E+02  0.7818608E-02  0.1130116E+00
         25   -1    0    0    0    0  0.00000000000E+00  0.00000000000E+00  0.99999998245E-14  0.12500000000E+03  0.12500000000E+03 0.  0.
        -11    1    3    3    0    0 -0.36774640560E+02 -0.19934111988E+02  0.17333919265E+02  0.45279220029E+02  0.51100000000E-03 0. -1.
         23    2    1    0    0    0  0.60999587351E+01 -0.27147295961E+02 -0.85670957312E+01  0.95886767547E+02  0.91360231429E+02 0.  0.
         11    1    3    3    0    0  0.42874599295E+02 -0.72131839728E+01 -0.25901014996E+02  0.50607547518E+02  0.51100000000E-03 0.  1.
         22    1    1    0    0    0 -0.60999587351E+01  0.27147295961E+02  0.85670957312E+01  0.29113232453E+02  0.00000000000E+00 0.  1.
</event>
<event>
 5    1  0.1692178E-003  0.9118800E+02  0.7818608E-02  0.1130116E+00
         25   -1    0    0    0    0  0.00000000000E+00  0.00000000000E+00  0.99999998245E-14  0.12500000000E+03  0.12500000000E+03 0.  0.
        -11    1    3    3    0    0  0.42135225421E+02  0.33592194724E+02 -0.26578772516E+02  0.60085305328E+02  0.51100000000E-03 0.  1.
         23    2    1    0    0    0  0.11014574653E+02  0.16331857705E+02 -0.21173154489E+02  0.96080233370E+02  0.91624550982E+02 0.  0.
         11    1    3    3    0    0 -0.31120650768E+02 -0.17260337019E+02  0.54056180270E+01  0.35994928042E+02  0.51100000000E-03 0. -1.
         22    1    1    0    0    0 -0.11014574653E+02 -0.16331857705E+02  0.21173154489E+02  0.28919766630E+02  0.00000000000E+00 0.  1.
</event>
<event>
 5    1  0.1692178E-003  0.9118800E+02  0.7818608E-02  0.1130116E+00
         25   -1    0    0    0    0  0.00000000000E+00  0.00000000000E+00  0.99999998245E-14  0.12500000000E+03  0.12500000000E+03 0.  0.
        -11    1    3    3    0    0  0.16063777127E+02 -0.38902511961E+02 -0.10838435736E+02  0.43461731005E+02  0.51100000000E-03 0. -1.
         23    2    1    0    0    0 -0.26949562030E+02 -0.16887403026E+02  0.88768762799E+00  0.93184103598E+02  0.87584393013E+02 0.  0.
         11    1    3    3    0    0 -0.43013339157E+02  0.22015108936E+02  0.11726123364E+02  0.49722372593E+02  0.51100000000E-03 0.  1.
         22    1    1    0    0    0  0.26949562030E+02  0.16887403026E+02 -0.88768762799E+00  0.31815896402E+02  0.00000000000E+00 0.  1.
</event>
<event>
 5    1  0.1692178E-003  0.9118800E+02  0.7818608E-02  0.1130116E+00
         25   -1    0    0    0    0  0.00000000000E+00  0.00000000000E+00  0.99999998245E-14  0.12500000000E+03  0.12500000000E+03 0.  0.
        -11    1    3    3    0    0 -0.21989183071E+02  0.23729392372E+02  0.80562560116E+01  0.33339338561E+02  0.51100000000E-03 0. -1.
         23    2    1    0    0    0  0.17881570013E+02 -0.17978388945E+02 -0.15072466578E+02  0.95501656590E+02  0.90831790401E+02 0.  0.
         11    1    3    3    0    0  0.39870753084E+02 -0.41707781317E+02 -0.23128722590E+02  0.62162318029E+02  0.51100000000E-03 0.  1.
         22    1    1    0    0    0 -0.17881570013E+02  0.17978388945E+02  0.15072466578E+02  0.29498343410E+02  0.00000000000E+00 0.  1.
</event>
<event>
 5    1  0.1692178E-003  0.9118800E+02  0.7818608E-02  0.1130116E+00
         25   -1    0    0    0    0  0.00000000000E+00  0.00000000000E+00  0.99999998245E-14  0.12500000000E+03  0.12500000000E+03 0.  0.
        -11    1    3    3    0    0 -0.34768599640E+02 -0.24058169874E+02 -0.64380790669E+01  0.42767977751E+02  0.51100000000E-03 0. -1.
         23    2    1    0    0    0 -0.93673531416E+01  0.14590262047E+02  0.21945465311E+02  0.97031687588E+02  0.92913518376E+02 0.  0.
         11    1    3    3    0    0  0.25401246498E+02  0.38648431920E+02  0.28383544378E+02  0.54263709837E+02  0.51100000000E-03 0.  1.
         22    1    1    0    0    0  0.93673531416E+01 -0.14590262047E+02 -0.21945465311E+02  0.27968312412E+02  0.00000000000E+00 0.  1.
</event>
<event>
 5    1  0.1692178E-003  0.9118800E+02  0.7818608E-02  0.1130116E+00
         25   -1    0    0    0    0  0.00000000000E+00  0.00000000000E+00  0.99999998245E-14  0.12500000000E+03  0.12500000000E+03 0.  0.
        -11    1    3    3    0    0 -0.16454294465E+02  0.31392816174E+01  0.32243248715E+02  0.36334914110E+02  0.51100000000E-03 0.  1.
         23    2    1    0    0    0 -0.12045824714E+02 -0.70820762182E+01 -0.25919778300E+02  0.95553563820E+02  0.90903195515E+02 0.  0.
         11    1    3    3    0    0  0.44084697511E+01 -0.10221357836E+02 -0.58163027015E+02  0.59218649709E+02  0.51100000000E-03 0. -1.
         22    1    1    0    0    0  0.12045824714E+02  0.70820762182E+01  0.25919778300E+02  0.29446436180E+02  0.00000000000E+00 0. -1.
</event>
<event>
 5    1  0.1692178E-003  0.9118800E+02  0.7818608E-02  0.1130116E+00
         25   -1    0    0    0    0  0.00000000000E+00  0.00000000000E+00  0.99999998245E-14  0.12500000000E+03  0.12500000000E+03 0.  0.
        -11    1    3    3    0    0 -0.26670120798E+02  0.20650190197E+02 -0.20446272614E+02  0.39443323423E+02  0.51100000000E-03 0.  1.
         23    2    1    0    0    0  0.25728444545E+02  0.13846423264E+02 -0.94064574240E+00  0.95767122784E+02  0.91196385323E+02 0.  0.
         11    1    3    3    0    0  0.52398565344E+02 -0.68037669333E+01  0.19505626872E+02  0.56323799361E+02  0.51100000000E-03 0. -1.
         22    1    1    0    0    0 -0.25728444545E+02 -0.13846423264E+02  0.94064574240E+00  0.29232877216E+02  0.00000000000E+00 0. -1.
</event>
<event>
 5    1  0.1692178E-003  0.9118800E+02  0.7818608E-02  0.1130116E+00
         25   -1    0    0    0    0  0.00000000000E+00  0.00000000000E+00  0.99999998245E-14  0.12500000000E+03  0.12500000000E+03 0.  0.
        -11    1    3    3    0    0 -0.16745035144E+02 -0.48192770291E+01  0.30184824258E+02  0.34853195675E+02  0.51100000000E-03 0.  1.
         23    2    1    0    0    0  0.19718637412E+02 -0.27466960565E+02 -0.55871251469E+01  0.90729392310E+02  0.84008023887E+02 0.  0.
         11    1    3    3    0    0  0.36463672556E+02 -0.22647683536E+02 -0.35771949405E+02  0.55876196634E+02  0.51100000000E-03 0. -1.
         22    1    1    0    0    0 -0.19718637412E+02  0.27466960565E+02  0.55871251469E+01  0.34270607690E+02  0.00000000000E+00 0. -1.
</event>
<event>
 5    1  0.1692178E-003  0.9118800E+02  0.7818608E-02  0.1130116E+00
         25   -1    0    0    0    0  0.00000000000E+00  0.00000000000E+00  0.99999998245E-14  0.12500000000E+03  0.12500000000E+03 0.  0.
        -11    1    3    3    0    0  0.27182046825E+02  0.37659886402E+02  0.41597395283E+02  0.62349611129E+02  0.51100000000E-03 0. -1.
         23    2    1    0    0    0  0.12453071351E+02  0.15580386758E+02  0.21735041293E+02  0.95500178685E+02  0.90829756530E+02 0.  0.
         11    1    3    3    0    0 -0.14728975474E+02 -0.22079499643E+02 -0.19862353990E+02  0.33150567556E+02  0.51100000000E-03 0.  1.
         22    1    1    0    0    0 -0.12453071351E+02 -0.15580386758E+02 -0.21735041293E+02  0.29499821315E+02  0.00000000000E+00 0. -1.
</event>
<event>
 5    1  0.1692178E-003  0.9118800E+02  0.7818608E-02  0.1130116E+00
         25   -1    0    0    0    0  0.00000000000E+00  0.00000000000E+00  0.99999998245E-14  0.12500000000E+03  0.12500000000E+03 0.  0.
        -11    1    3    3    0    0 -0.33499151633E+02  0.86837363143E+01  0.34968578592E+02  0.49197580484E+02  0.51100000000E-03 0. -1.
         23    2    1    0    0    0  0.79530765235E+01 -0.11295995882E+02  0.25233758822E+02  0.96232074571E+02  0.91831468696E+02 0.  0.
         11    1    3    3    0    0  0.41452228157E+02 -0.19979732197E+02 -0.97348197698E+01  0.47034494087E+02  0.51100000000E-03 0.  1.
         22    1    1    0    0    0 -0.79530765235E+01  0.11295995882E+02 -0.25233758822E+02  0.28767925429E+02  0.00000000000E+00 0. -1.
</event>
<event>
 5    1  0.1692178E-003  0.9118800E+02  0.7818608E-02  0.1130116E+00
         25   -1    0    0    0    0  0.00000000000E+00  0.00000000000E+00  0.99999998245E-14  0.12500000000E+03  0.12500000000E+03 0.  0.
        -11    1    3    3    0    0  0.40657925821E+02  0.35819479431E+02  0.29075181697E+02  0.61493643816E+02  0.51100000000E-03 0. -1.
         23    2    1    0    0    0  0.11568120618E+02  0.18725676838E+02  0.16460461697E+02  0.97515109843E+02  0.93561623867E+02 0.  0.
         11    1    3    3    0    0 -0.29089805203E+02 -0.17093802593E+02 -0.12614720000E+02  0.36021466027E+02  0.51100000000E-03 0.  1.
         22    1    1    0    0    0 -0.11568120618E+02 -0.18725676838E+02 -0.16460461697E+02  0.27484890157E+02  0.00000000000E+00 0. -1.
</event>
<event>
 5    1  0.1692178E-003  0.9118800E+02  0.7818608E-02  0.1130116E+00
         25   -1    0    0    0    0  0.00000000000E+00  0.00000000000E+00  0.99999998245E-14  0.12500000000E+03  0.12500000000E+03 0.  0.
        -11    1    3    3    0    0 -0.17977641408E+02  0.15233639499E+02  0.27027114720E+02  0.35856997829E+02  0.51100000000E-03 0.  1.
         23    2    1    0    0    0  0.14017242486E+02  0.10214933275E+02 -0.23451457317E+02  0.95831544452E+02  0.91284643359E+02 0.  0.
         11    1    3    3    0    0  0.31994883894E+02 -0.50187062237E+01 -0.50478572037E+02  0.59974546623E+02  0.51100000000E-03 0. -1.
         22    1    1    0    0    0 -0.14017242486E+02 -0.10214933275E+02  0.23451457317E+02  0.29168455548E+02  0.00000000000E+00 0. -1.
</event>
<event>
 5    1  0.1692178E-003  0.9118800E+02  0.7818608E-02  0.1130116E+00
         25   -1    0    0    0    0  0.00000000000E+00  0.00000000000E+00  0.99999998245E-14  0.12500000000E+03  0.12500000000E+03 0.  0.
        -11    1    3    3    0    0 -0.26103635450E+01 -0.13891831434E+02  0.46667740473E+02  0.48761408712E+02  0.51100000000E-03 0.  1.
         23    2    1    0    0    0 -0.26576086025E+02  0.64744811912E+01  0.13405297433E+02  0.94538397049E+02  0.89496364519E+02 0.  0.
         11    1    3    3    0    0 -0.23965722480E+02  0.20366312625E+02 -0.33262443040E+02  0.45776988337E+02  0.51100000000E-03 0. -1.
         22    1    1    0    0    0  0.26576086025E+02 -0.64744811912E+01 -0.13405297433E+02  0.30461602951E+02  0.00000000000E+00 0.  1.
</event>
<event>
 5    1  0.1692178E-003  0.9118800E+02  0.7818608E-02  0.1130116E+00
         25   -1    0    0    0    0  0.00000000000E+00  0.00000000000E+00  0.99999998245E-14  0.12500000000E+03  0.12500000000E+03 0.  0.
        -11    1    3    3    0    0  0.45938984432E+02  0.23496902890E+02  0.34114721968E+02  0.61857166046E+02  0.51100000000E-03 0.  1.
         23    2    1    0    0    0  0.19436633806E+02  0.16773969972E+02  0.18626426513E+02  0.93281037738E+02  0.87722627836E+02 0.  0.
         11    1    3    3    0    0 -0.26502350626E+02 -0.67229329182E+01 -0.15488295456E+02  0.31423871691E+02  0.51100000000E-03 0. -1.
         22    1    1    0    0    0 -0.19436633806E+02 -0.16773969972E+02 -0.18626426513E+02  0.31718962262E+02  0.00000000000E+00 0.  1.
</event>
<event>
 5    1  0.1692178E-003  0.9118800E+02  0.7818608E-02  0.1130116E+00
         25   -1    0    0    0    0  0.00000000000E+00  0.00000000000E+00  0.99999998245E-14  0.12500000000E+03  0.12500000000E+03 0.  0.
        -11    1    3    3    0    0  0.13652617785E+02  0.58919992760E+01 -0.42933545736E+02  0.45435657556E+02  0.51100000000E-03 0. -1.
         23    2    1    0    0    0  0.21073149982E+02 -0.20643192334E+02 -0.11600146172E+01  0.95477725802E+02  0.90798851592E+02 0.  0.
         11    1    3    3    0    0  0.74205321972E+01 -0.26535191610E+02  0.41773531119E+02  0.50042068245E+02  0.51100000000E-03 0.  1.
         22    1    1    0    0    0 -0.21073149982E+02  0.20643192334E+02  0.11600146172E+01  0.29522274198E+02  0.00000000000E+00 0.  1.
</event>
<event>
 5    1  0.1692178E-003  0.9118800E+02  0.7818608E-02  0.1130116E+00
         25   -1    0    0    0    0  0.00000000000E+00  0.00000000000E+00  0.99999998245E-14  0.12500000000E+03  0.12500000000E+03 0.  0.
        -11    1    3    3    0    0 -0.15377225471E+02  0.42785271033E+02 -0.19556719027E+02  0.49492461446E+02  0.51100000000E-03 0.  1.
         23    2    1    0    0    0 -0.20222556001E+02 -0.73103841590E+01  0.23896136314E-01  0.10349665006E+03  0.10123814752E+03 0.  0.
         11    1    3    3    0    0 -0.48453305296E+01 -0.50095655192E+02  0.19580615163E+02  0.54004188611E+02  0.51100000000E-03 0. -1.
         22    1    1    0    0    0  0.20222556001E+02  0.73103841590E+01 -0.23896136314E-01  0.21503349944E+02  0.00000000000E+00 0. -1.
</event>
<event>
 5    1  0.1692178E-003  0.9118800E+02  0.7818608E-02  0.1130116E+00
         25   -1    0    0    0    0  0.00000000000E+00  0.00000000000E+00  0.99999998245E-14  0.12500000000E+03  0.12500000000E+03 0.  0.
        -11    1    3    3    0    0 -0.33943084684E+02  0.48280604035E+01  0.54062680469E+00  0.34288998859E+02  0.51100000000E-03 0.  1.
         23    2    1    0    0    0  0.23782483674E+02  0.15845951861E+01 -0.18138359596E+02  0.95048079186E+02  0.90205431081E+02 0.  0.
         11    1    3    3    0    0  0.57725568359E+02 -0.32434652174E+01 -0.18678986401E+02  0.60759080327E+02  0.51100000000E-03 0. -1.
         22    1    1    0    0    0 -0.23782483674E+02 -0.15845951861E+01  0.18138359596E+02  0.29951920814E+02  0.00000000000E+00 0. -1.
</event>
<event>
 5    1  0.1692178E-003  0.9118800E+02  0.7818608E-02  0.1130116E+00
         25   -1    0    0    0    0  0.00000000000E+00  0.00000000000E+00  0.99999998245E-14  0.12500000000E+03  0.12500000000E+03 0.  0.
        -11    1    3    3    0    0 -0.14091845146E+02  0.11859792538E+02 -0.59540182544E+02  0.62323896832E+02  0.51100000000E-03 0. -1.
         23    2    1    0    0    0 -0.95600533273E+01  0.72159781326E+01 -0.27655248199E+02  0.94862353892E+02  0.89947698541E+02 0.  0.
         11    1    3    3    0    0  0.45317918185E+01 -0.46438144049E+01  0.31884934346E+02  0.32538457059E+02  0.51100000000E-03 0.  1.
         22    1    1    0    0    0  0.95600533273E+01 -0.72159781326E+01  0.27655248199E+02  0.30137646108E+02  0.00000000000E+00 0. -1.
</event>
<event>
 5    1  0.1692178E-003  0.9118800E+02  0.7818608E-02  0.1130116E+00
         25   -1    0    0    0    0  0.00000000000E+00  0.00000000000E+00  0.99999998245E-14  0.12500000000E+03  0.12500000000E+03 0.  0.
        -11    1    3    3    0    0  0.34262565449E+01 -0.26075463511E+02  0.30895351184E+02  0.40573288704E+02  0.51100000000E-03 0. -1.
         23    2    1    0    0    0  0.27503390705E+01  0.25866021931E+02  0.15356160583E+02  0.94793591352E+02  0.89852088668E+02 0.  0.
         11    1    3    3    0    0 -0.67591747443E+00  0.51941485442E+02 -0.15539190602E+02  0.54220302648E+02  0.51100000000E-03 0.  1.
         22    1    1    0    0    0 -0.27503390705E+01 -0.25866021931E+02 -0.15356160583E+02  0.30206408648E+02  0.00000000000E+00 0.  1.
</event>
<event>
 5    1  0.1692178E-003  0.9118800E+02  0.7818608E-02  0.1130116E+00
         25   -1    0    0    0    0  0.00000000000E+00  0.00000000000E+00  0.99999998245E-14  0.12500000000E+03  0.12500000000E+03 0.  0.
        -11    1    3    3    0    0  0.58340513971E+02  0.68460141651E+01  0.61499011410E+00  0.58744035386E+02  0.51100000000E-03 0.  1.
         23    2    1    0    0    0  0.24873196990E+02  0.76810948938E+00 -0.14754255240E+02  0.96069843270E+02  0.91610375054E+02 0.  0.
         11    1    3    3    0    0 -0.33467316981E+02 -0.60779046757E+01 -0.15369245354E+02  0.37325807884E+02  0.51100000000E-03 0. -1.
         22    1    1    0    0    0 -0.24873196990E+02 -0.76810948938E+00  0.14754255240E+02  0.28930156730E+02  0.00000000000E+00 0.  1.
</event>
<event>
 5    1  0.1692178E-003  0.9118800E+02  0.7818608E-02  0.1130116E+00
         25   -1    0    0    0    0  0.00000000000E+00  0.00000000000E+00  0.99999998245E-14  0.12500000000E+03  0.12500000000E+03 0.  0.
        -11    1    3    3    0    0  0.14508027134E+02 -0.31760065334E+02  0.98801462787E+01  0.36287765047E+02  0.51100000000E-03 0.  1.
         23    2    1    0    0    0 -0.18084915403E+02  0.17910414999E+02  0.14200347271E+02  0.95853868299E+02  0.91315207247E+02 0.  0.
         11    1    3    3    0    0 -0.32592942536E+02  0.49670480333E+02  0.43202009920E+01  0.59566103252E+02  0.51100000000E-03 0. -1.
         22    1    1    0    0    0  0.18084915403E+02 -0.17910414999E+02 -0.14200347271E+02  0.29146131701E+02  0.00000000000E+00 0. -1.
</event>
<event>
 5    1  0.1692178E-003  0.9118800E+02  0.7818608E-02  0.1130116E+00
         25   -1    0    0    0    0  0.00000000000E+00  0.00000000000E+00  0.99999998245E-14  0.12500000000E+03  0.12500000000E+03 0.  0.
        -11    1    3    3    0    0  0.20722375856E+02  0.32138731024E+02  0.32891327339E+02  0.50439610499E+02  0.51100000000E-03 0. -1.
         23    2    1    0    0    0  0.32408872142E+01 -0.60291686869E+01  0.31838866885E+02  0.92433642060E+02  0.86506707919E+02 0.  0.
         11    1    3    3    0    0 -0.17481488642E+02 -0.38167899710E+02 -0.10524604548E+01  0.41994031560E+02  0.51100000000E-03 0.  1.
         22    1    1    0    0    0 -0.32408872142E+01  0.60291686869E+01 -0.31838866885E+02  0.32566357940E+02  0.00000000000E+00 0.  1.
</event>
<event>
 5    1  0.1692178E-003  0.9118800E+02  0.7818608E-02  0.1130116E+00
         25   -1    0    0    0    0  0.00000000000E+00  0.00000000000E+00  0.99999998245E-14  0.12500000000E+03  0.12500000000E+03 0.  0.
        -11    1    3    3    0    0  0.25929546490E+02  0.63355178950E+01 -0.46784644442E+02  0.53863560261E+02  0.51100000000E-03 0. -1.
         23    2    1    0    0    0  0.22793956903E+02  0.16299813234E+02 -0.55079595957E+01  0.96441533626E+02  0.92116140857E+02 0.  0.
         11    1    3    3    0    0 -0.31355895877E+01  0.99642953387E+01  0.41276684846E+02  0.42577973364E+02  0.51100000000E-03 0.  1.
         22    1    1    0    0    0 -0.22793956903E+02 -0.16299813234E+02  0.55079595957E+01  0.28558466374E+02  0.00000000000E+00 0. -1.
</event>
<event>
 5    1  0.1692178E-003  0.9118800E+02  0.7818608E-02  0.1130116E+00
         25   -1    0    0    0    0  0.00000000000E+00  0.00000000000E+00  0.99999998245E-14  0.12500000000E+03  0.12500000000E+03 0.  0.
        -11    1    3    3    0    0 -0.34582445717E+02 -0.41907748201E+01  0.26726306809E+02  0.43906760542E+02  0.51100000000E-03 0.  1.
         23    2    1    0    0    0  0.63277919541E+01  0.19122080704E+02  0.27394205625E+02  0.90997979129E+02  0.84406722376E+02 0.  0.
         11    1    3    3    0    0  0.40910237671E+02  0.23312855524E+02  0.66789881558E+00  0.47091218588E+02  0.51100000000E-03 0. -1.
         22    1    1    0    0    0 -0.63277919541E+01 -0.19122080704E+02 -0.27394205625E+02  0.34002020871E+02  0.00000000000E+00 0.  1.
</event>
<event>
 5    1  0.1692178E-003  0.9118800E+02  0.7818608E-02  0.1130116E+00
         25   -1    0    0    0    0  0.00000000000E+00  0.00000000000E+00  0.99999998245E-14  0.12500000000E+03  0.12500000000E+03 0.  0.
        -11    1    3    3    0    0  0.16269794104E+02 -0.88375851659E+00  0.33172423769E+02  0.36958042809E+02  0.51100000000E-03 0.  1.
         23    2    1    0    0    0 -0.97718232425E+01  0.24479903398E+02 -0.12907741734E+02  0.95650996669E+02  0.91037075784E+02 0.  0.
         11    1    3    3    0    0 -0.26041617346E+02  0.25363661914E+02 -0.46080165504E+02  0.58692953860E+02  0.51100000000E-03 0. -1.
         22    1    1    0    0    0  0.97718232425E+01 -0.24479903398E+02  0.12907741734E+02  0.29349003331E+02  0.00000000000E+00 0.  1.
</event>
<event>
 5    1  0.1692178E-003  0.9118800E+02  0.7818608E-02  0.1130116E+00
         25   -1    0    0    0    0  0.00000000000E+00  0.00000000000E+00  0.99999998245E-14  0.12500000000E+03  0.12500000000E+03 0.  0.
        -11    1    3    3    0    0 -0.75576248422E+01 -0.39120039794E+02 -0.43736765486E+02  0.59164177187E+02  0.51100000000E-03 0.  1.
         23    2    1    0    0    0 -0.13181162035E+02 -0.23497101251E+02 -0.10945371393E+02  0.95919801330E+02  0.91405417413E+02 0.  0.
         11    1    3    3    0    0 -0.56235371929E+01  0.15622938543E+02  0.32791394093E+02  0.36755624143E+02  0.51100000000E-03 0. -1.
         22    1    1    0    0    0  0.13181162035E+02  0.23497101251E+02  0.10945371393E+02  0.29080198670E+02  0.00000000000E+00 0.  1.
</event>
<event>
 5    1  0.1692178E-003  0.9118800E+02  0.7818608E-02  0.1130116E+00
         25   -1    0    0    0    0  0.00000000000E+00  0.00000000000E+00  0.99999998245E-14  0.12500000000E+03  0.12500000000E+03 0.  0.
        -11    1    3    3    0    0  0.18658200828E+02 -0.27242196049E+02 -0.57041856073E+01  0.33508259242E+02  0.51100000000E-03 0. -1.
         23    2    1    0    0    0 -0.97346124458E+01  0.27758656114E+02 -0.19945022637E+01  0.95516382379E+02  0.90852053333E+02 0.  0.
         11    1    3    3    0    0 -0.28392813274E+02  0.55000852163E+02  0.37096833435E+01  0.62008123137E+02  0.51100000000E-03 0.  1.
         22    1    1    0    0    0  0.97346124458E+01 -0.27758656114E+02  0.19945022637E+01  0.29483617621E+02  0.00000000000E+00 0.  1.
</event>
<event>
 5    1  0.1692178E-003  0.9118800E+02  0.7818608E-02  0.1130116E+00
         25   -1    0    0    0    0  0.00000000000E+00  0.00000000000E+00  0.99999998245E-14  0.12500000000E+03  0.12500000000E+03 0.  0.
        -11    1    3    3    0    0 -0.28750023349E+02 -0.10834496621E+02  0.54669460639E+01  0.31206372091E+02  0.51100000000E-03 0.  1.
         23    2    1    0    0    0 -0.89156650996E-01 -0.24299787844E+01  0.44543435280E+02  0.80390243530E+02  0.66877207495E+02 0.  0.
         11    1    3    3    0    0  0.28660866698E+02  0.84045178364E+01  0.39076489216E+02  0.49183871438E+02  0.51100000000E-03 0. -1.
         22    1    1    0    0    0  0.89156650996E-01  0.24299787844E+01 -0.44543435280E+02  0.44609756470E+02  0.00000000000E+00 0. -1.
</event>
<event>
 5    1  0.1692178E-003  0.9118800E+02  0.7818608E-02  0.1130116E+00
         25   -1    0    0    0    0  0.00000000000E+00  0.00000000000E+00  0.99999998245E-14  0.12500000000E+03  0.12500000000E+03 0.  0.
        -11    1    3    3    0    0  0.11835753729E+02 -0.14700454125E+02 -0.38822611142E+02  0.43166926622E+02  0.51100000000E-03 0.  1.
         23    2    1    0    0    0 -0.26704742492E+02  0.57980244565E+01 -0.82709373843E+01  0.96448839527E+02  0.92126054304E+02 0.  0.
         11    1    3    3    0    0 -0.38540496221E+02  0.20498478582E+02  0.30551673758E+02  0.53281912905E+02  0.51100000000E-03 0. -1.
         22    1    1    0    0    0  0.26704742492E+02 -0.57980244565E+01  0.82709373843E+01  0.28551160473E+02  0.00000000000E+00 0. -1.
</event>
<event>
 5    1  0.1692178E-003  0.9118800E+02  0.7818608E-02  0.1130116E+00
         25   -1    0    0    0    0  0.00000000000E+00  0.00000000000E+00  0.99999998245E-14  0.12500000000E+03  0.12500000000E+03 0.  0.
        -11    1    3    3    0    0 -0.23357045450E+02 -0.23680177291E+02  0.36162105706E+02  0.49132476612E+02  0.51100000000E-03 0.  1.
         23    2    1    0    0    0 -0.29538637182E+02  0.32867458560E+01 -0.75924451236E+00  0.95269372070E+02  0.90511562894E+02 0.  0.
         11    1    3    3    0    0 -0.61815917316E+01  0.26966923147E+02 -0.36921350218E+02  0.46136895458E+02  0.51100000000E-03 0. -1.
         22    1    1    0    0    0  0.29538637182E+02 -0.32867458560E+01  0.75924451236E+00  0.29730627930E+02  0.00000000000E+00 0.  1.
</event>
<event>
 5    1  0.1692178E-003  0.9118800E+02  0.7818608E-02  0.1130116E+00
         25   -1    0    0    0    0  0.00000000000E+00  0.00000000000E+00  0.99999998245E-14  0.12500000000E+03  0.12500000000E+03 0.  0.
        -11    1    3    3    0    0  0.55222252792E+02  0.24543578595E+02  0.70670348814E+01  0.60842644879E+02  0.51100000000E-03 0.  1.
         23    2    1    0    0    0  0.19656682708E+02  0.19374898605E+02  0.38876467420E+00  0.97397047096E+02  0.93403756745E+02 0.  0.
         11    1    3    3    0    0 -0.35565570084E+02 -0.51686799902E+01 -0.66782702072E+01  0.36554402217E+02  0.51100000000E-03 0. -1.
         22    1    1    0    0    0 -0.19656682708E+02 -0.19374898605E+02 -0.38876467420E+00  0.27602952904E+02  0.00000000000E+00 0.  1.
</event>
<event>
 5    1  0.1692178E-003  0.9118800E+02  0.7818608E-02  0.1130116E+00
         25   -1    0    0    0    0  0.00000000000E+00  0.00000000000E+00  0.99999998245E-14  0.12500000000E+03  0.12500000000E+03 0.  0.
        -11    1    3    3    0    0  0.28773192868E+02  0.17353208132E+02  0.17856467284E+02  0.38051069425E+02  0.51100000000E-03 0.  1.
         23    2    1    0    0    0 -0.10082127443E+02  0.20732841639E+02 -0.21512023692E+02  0.93467997534E+02  0.87988632126E+02 0.  0.
         11    1    3    3    0    0 -0.38855320310E+02  0.33796335074E+01 -0.39368490976E+02  0.55416928109E+02  0.51100000000E-03 0. -1.
         22    1    1    0    0    0  0.10082127443E+02 -0.20732841639E+02  0.21512023692E+02  0.31532002466E+02  0.00000000000E+00 0. -1.
</event>
<event>
 4    1  0.1692178E-003  0.9118800E+02  0.7818608E-02  0.1130116E+00
         25   -1    0    0    0    0  0.00000000000E+00  0.00000000000E+00  0.99999998245E-14  0.12500000000E+03  0.12500000000E+03 0.  0.
        -11    1    1    0    0    0 -0.95311902028E+00 -0.25188357168E+02  0.44253306341E+01  0.25591899581E+02  0.51100000000E-03 0. -1.
         11    1    1    0    0    0  0.29731228288E+02 -0.15741508331E+02 -0.28307302659E+02  0.43966400855E+02  0.51100000000E-03 0.  1.
         22    1    1    0    0    0 -0.28778109268E+02  0.40929865499E+02  0.23881972025E+02  0.55441699564E+02  0.00000000000E+00 0. -1.
</event>
<event>
 5    1  0.1692178E-003  0.9118800E+02  0.7818608E-02  0.1130116E+00
         25   -1    0    0    0    0  0.00000000000E+00  0.00000000000E+00  0.99999998245E-14  0.12500000000E+03  0.12500000000E+03 0.  0.
        -11    1    3    3    0    0  0.44763692898E+02  0.40467052609E+02 -0.10813472839E+02  0.61304989551E+02  0.51100000000E-03 0.  1.
         23    2    1    0    0    0  0.16669805526E+02  0.26719650866E+02 -0.54771341454E+01  0.93034062549E+02  0.87369992774E+02 0.  0.
         11    1    3    3    0    0 -0.28093887373E+02 -0.13747401744E+02  0.53363386935E+01  0.31729072998E+02  0.51100000000E-03 0. -1.
         22    1    1    0    0    0 -0.16669805526E+02 -0.26719650866E+02  0.54771341454E+01  0.31965937451E+02  0.00000000000E+00 0.  1.
</event>
<event>
 5    1  0.1692178E-003  0.9118800E+02  0.7818608E-02  0.1130116E+00
         25   -1    0    0    0    0  0.00000000000E+00  0.00000000000E+00  0.99999998245E-14  0.12500000000E+03  0.12500000000E+03 0.  0.
        -11    1    3    3    0    0 -0.30762754457E+02  0.22124461700E+02 -0.37538603730E+01  0.38077950775E+02  0.51100000000E-03 0. -1.
         23    2    1    0    0    0  0.60870454673E+01 -0.17385269238E+02 -0.23091595686E+02  0.95461525085E+02  0.90776545821E+02 0.  0.
         11    1    3    3    0    0  0.36849799924E+02 -0.39509730938E+02 -0.19337735313E+02  0.57383574309E+02  0.51100000000E-03 0.  1.
         22    1    1    0    0    0 -0.60870454673E+01  0.17385269238E+02  0.23091595686E+02  0.29538474915E+02  0.00000000000E+00 0.  1.
</event>
<event>
 5    1  0.1692178E-003  0.9118800E+02  0.7818608E-02  0.1130116E+00
         25   -1    0    0    0    0  0.00000000000E+00  0.00000000000E+00  0.99999998245E-14  0.12500000000E+03  0.12500000000E+03 0.  0.
        -11    1    3    3    0    0 -0.47148062590E+02  0.19452398895E+02  0.17589780086E+01  0.51033612773E+02  0.51100000000E-03 0. -1.
         23    2    1    0    0    0 -0.44358029766E+01  0.28016759742E+02  0.91001260259E+01  0.95210279152E+02  0.90429916444E+02 0.  0.
         11    1    3    3    0    0  0.42712259613E+02  0.85643608469E+01  0.73411480173E+01  0.44176666380E+02  0.51100000000E-03 0.  1.
         22    1    1    0    0    0  0.44358029766E+01 -0.28016759742E+02 -0.91001260259E+01  0.29789720848E+02  0.00000000000E+00 0.  1.
</event>
<event>
 5    1  0.1692178E-003  0.9118800E+02  0.7818608E-02  0.1130116E+00
         25   -1    0    0    0    0  0.00000000000E+00  0.00000000000E+00  0.99999998245E-14  0.12500000000E+03  0.12500000000E+03 0.  0.
        -11    1    3    3    0    0 -0.59313085728E+01 -0.14232502440E+02  0.30467988466E+02  0.34147369863E+02  0.51100000000E-03 0. -1.
         23    2    1    0    0    0  0.83874367390E+01 -0.23435743250E-01 -0.27880877917E+02  0.95884832171E+02  0.91357583389E+02 0.  0.
         11    1    3    3    0    0  0.14318745312E+02  0.14209066696E+02 -0.58348866384E+02  0.61737462308E+02  0.51100000000E-03 0.  1.
         22    1    1    0    0    0 -0.83874367390E+01  0.23435743250E-01  0.27880877917E+02  0.29115167829E+02  0.00000000000E+00 0.  1.
</event>
<event>
 5    1  0.1692178E-003  0.9118800E+02  0.7818608E-02  0.1130116E+00
         25   -1    0    0    0    0  0.00000000000E+00  0.00000000000E+00  0.99999998245E-14  0.12500000000E+03  0.12500000000E+03 0.  0.
        -11    1    3    3    0    0  0.39517150594E+02 -0.36503147574E+02 -0.27626652941E+02  0.60475754868E+02  0.51100000000E-03 0. -1.
         23    2    1    0    0    0  0.18432402797E+02 -0.22165022009E+02 -0.28454871710E+01  0.96032113112E+02  0.91558878750E+02 0.  0.
         11    1    3    3    0    0 -0.21084747797E+02  0.14338125565E+02  0.24781165770E+02  0.35556358244E+02  0.51100000000E-03 0.  1.
         22    1    1    0    0    0 -0.18432402797E+02  0.22165022009E+02  0.28454871710E+01  0.28967886888E+02  0.00000000000E+00 0. -1.
</event>
<event>
 5    1  0.1692178E-003  0.9118800E+02  0.7818608E-02  0.1130116E+00
         25   -1    0    0    0    0  0.00000000000E+00  0.00000000000E+00  0.99999998245E-14  0.12500000000E+03  0.12500000000E+03 0.  0.
        -11    1    3    3    0    0 -0.30307984375E+02  0.11475940472E+01  0.21513899946E+02  0.37185195712E+02  0.51100000000E-03 0.  1.
         23    2    1    0    0    0  0.26401413669E+02 -0.38740537529E+00  0.15865339394E+02  0.94195881432E+02  0.89016685841E+02 0.  0.
         11    1    3    3    0    0  0.56709398044E+02 -0.15349994225E+01 -0.56485605520E+01  0.57010685720E+02  0.51100000000E-03 0. -1.
         22    1    1    0    0    0 -0.26401413669E+02  0.38740537529E+00 -0.15865339394E+02  0.30804118568E+02  0.00000000000E+00 0. -1.
</event>
<event>
 5    1  0.1692178E-003  0.9118800E+02  0.7818608E-02  0.1130116E+00
         25   -1    0    0    0    0  0.00000000000E+00  0.00000000000E+00  0.99999998245E-14  0.12500000000E+03  0.12500000000E+03 0.  0.
        -11    1    3    3    0    0  0.67751909313E+01 -0.12790987328E+02  0.35320897529E+02  0.38171695947E+02  0.51100000000E-03 0. -1.
         23    2    1    0    0    0 -0.24550699019E+02 -0.23107189593E+00 -0.13082829656E+02  0.97180031482E+02  0.93112877039E+02 0.  0.
         11    1    3    3    0    0 -0.31325889950E+02  0.12559915432E+02 -0.48403727186E+02  0.59008335534E+02  0.51100000000E-03 0.  1.
         22    1    1    0    0    0  0.24550699019E+02  0.23107189593E+00  0.13082829656E+02  0.27819968518E+02  0.00000000000E+00 0.  1.
</event>
<event>
 5    1  0.1692178E-003  0.9118800E+02  0.7818608E-02  0.1130116E+00
         25   -1    0    0    0    0  0.00000000000E+00  0.00000000000E+00  0.99999998245E-14  0.12500000000E+03  0.12500000000E+03 0.  0.
        -11    1    3    3    0    0 -0.71474190495E+01  0.58389573961E+01  0.37508489039E+02  0.38627267219E+02  0.51100000000E-03 0.  1.
         23    2    1    0    0    0  0.23034545175E+02  0.14974436494E+02 -0.10096647081E+02  0.95729429421E+02  0.91144705580E+02 0.  0.
         11    1    3    3    0    0  0.30181964225E+02  0.91354790977E+01 -0.47605136120E+02  0.57102162202E+02  0.51100000000E-03 0. -1.
         22    1    1    0    0    0 -0.23034545175E+02 -0.14974436494E+02  0.10096647081E+02  0.29270570579E+02  0.00000000000E+00 0. -1.
</event>
<event>
 5    1  0.1692178E-003  0.9118800E+02  0.7818608E-02  0.1130116E+00
         25   -1    0    0    0    0  0.00000000000E+00  0.00000000000E+00  0.99999998245E-14  0.12500000000E+03  0.12500000000E+03 0.  0.
        -11    1    3    3    0    0 -0.37920802250E+02 -0.45699372845E+02 -0.11573499338E+02  0.60500957091E+02  0.51100000000E-03 0. -1.
         23    2    1    0    0    0 -0.89412927118E+01 -0.23941786236E+02 -0.12055708143E+02  0.96742329496E+02  0.92523415274E+02 0.  0.
         11    1    3    3    0    0  0.28979509539E+02  0.21757586610E+02 -0.48220880501E+00  0.36241372404E+02  0.51100000000E-03 0.  1.
         22    1    1    0    0    0  0.89412927118E+01  0.23941786236E+02  0.12055708143E+02  0.28257670504E+02  0.00000000000E+00 0. -1.
</event>
<event>
 5    1  0.1692178E-003  0.9118800E+02  0.7818608E-02  0.1130116E+00
         25   -1    0    0    0    0  0.00000000000E+00  0.00000000000E+00  0.99999998245E-14  0.12500000000E+03  0.12500000000E+03 0.  0.
        -11    1    3    3    0    0  0.22481368963E+02 -0.24127810736E+02 -0.22663691102E+02  0.40015073361E+02  0.51100000000E-03 0.  1.
         23    2    1    0    0    0 -0.17428002128E+02 -0.12131214085E+02  0.17191435000E+02  0.97678816814E+02  0.93780084258E+02 0.  0.
         11    1    3    3    0    0 -0.39909371091E+02  0.11996596652E+02  0.39855126103E+02  0.57663743453E+02  0.51100000000E-03 0. -1.
         22    1    1    0    0    0  0.17428002128E+02  0.12131214085E+02 -0.17191435000E+02  0.27321183186E+02  0.00000000000E+00 0. -1.
</event>
<event>
 5    1  0.1692178E-003  0.9118800E+02  0.7818608E-02  0.1130116E+00
         25   -1    0    0    0    0  0.00000000000E+00  0.00000000000E+00  0.99999998245E-14  0.12500000000E+03  0.12500000000E+03 0.  0.
        -11    1    3    3    0    0  0.38795623098E+02 -0.15057238997E+02 -0.24765618169E+02  0.48426817585E+02  0.51100000000E-03 0.  1.
         23    2    1    0    0    0  0.93475587651E+00 -0.29323492078E+02 -0.39549643691E+00  0.95658947298E+02  0.91047991876E+02 0.  0.
         11    1    3    3    0    0 -0.37860867222E+02 -0.14266253081E+02  0.24370121733E+02  0.47232129714E+02  0.51100000000E-03 0. -1.
         22    1    1    0    0    0 -0.93475587651E+00  0.29323492078E+02  0.39549643691E+00  0.29341052702E+02  0.00000000000E+00 0. -1.
</event>
<event>
 5    1  0.1692178E-003  0.9118800E+02  0.7818608E-02  0.1130116E+00
         25   -1    0    0    0    0  0.00000000000E+00  0.00000000000E+00  0.99999998245E-14  0.12500000000E+03  0.12500000000E+03 0.  0.
        -11    1    3    3    0    0 -0.44643618603E+02 -0.28875292463E+02 -0.33781630712E+01  0.53275202325E+02  0.51100000000E-03 0.  1.
         23    2    1    0    0    0 -0.63941757079E+01 -0.27987872475E+02 -0.14109130009E+02  0.93011345163E+02  0.87337485027E+02 0.  0.
         11    1    3    3    0    0  0.38249442895E+02  0.88741998759E+00 -0.10730966938E+02  0.39736142838E+02  0.51100000000E-03 0. -1.
         22    1    1    0    0    0  0.63941757079E+01  0.27987872475E+02  0.14109130009E+02  0.31988654837E+02  0.00000000000E+00 0.  1.
</event>
<event>
 5    1  0.1692178E-003  0.9118800E+02  0.7818608E-02  0.1130116E+00
         25   -1    0    0    0    0  0.00000000000E+00  0.00000000000E+00  0.99999998245E-14  0.12500000000E+03  0.12500000000E+03 0.  0.
        -11    1    3    3    0    0  0.11852884230E+02  0.50105962038E+02  0.30203497126E+00  0.51489703065E+02  0.51100000000E-03 0.  1.
         23    2    1    0    0    0  0.17231442250E+02  0.10741062191E+02 -0.20337409552E+02  0.96261467569E+02  0.91871469414E+02 0.  0.
         11    1    3    3    0    0  0.53785580199E+01 -0.39364899848E+02 -0.20639444523E+02  0.44771764505E+02  0.51100000000E-03 0. -1.
         22    1    1    0    0    0 -0.17231442250E+02 -0.10741062191E+02  0.20337409552E+02  0.28738532431E+02  0.00000000000E+00 0.  1.
</event>
<event>
 5    1  0.1692178E-003  0.9118800E+02  0.7818608E-02  0.1130116E+00
         25   -1    0    0    0    0  0.00000000000E+00  0.00000000000E+00  0.99999998245E-14  0.12500000000E+03  0.12500000000E+03 0.  0.
        -11    1    3    3    0    0  0.32133326126E+02 -0.23731045496E+02  0.88405351153E+01  0.40912934748E+02  0.51100000000E-03 0.  1.
         23    2    1    0    0    0  0.73164738471E+01  0.21934605152E+02 -0.14308237299E+02  0.97808395646E+02  0.93952641855E+02 0.  0.
         11    1    3    3    0    0 -0.24816852279E+02  0.45665650649E+02 -0.23148772414E+02  0.56895460898E+02  0.51100000000E-03 0. -1.
         22    1    1    0    0    0 -0.73164738471E+01 -0.21934605152E+02  0.14308237299E+02  0.27191604354E+02  0.00000000000E+00 0. -1.
</event>
<event>
 5    1  0.1692178E-003  0.9118800E+02  0.7818608E-02  0.1130116E+00
         25   -1    0    0    0    0  0.00000000000E+00  0.00000000000E+00  0.99999998245E-14  0.12500000000E+03  0.12500000000E+03 0.  0.
        -11    1    3    3    0    0  0.35771027655E+02 -0.95021752614E+01 -0.71935303809E+01  0.37704172631E+02  0.51100000000E-03 0.  1.
         23    2    1    0    0    0  0.23135626816E+02 -0.66723854341E+01 -0.42965480159E+02  0.75747482898E+02  0.57548855111E+02 0.  0.
         11    1    3    3    0    0 -0.12635400840E+02  0.28297898273E+01 -0.35771949779E+02  0.38043310267E+02  0.51100000000E-03 0. -1.
         22    1    1    0    0    0 -0.23135626816E+02  0.66723854341E+01  0.42965480159E+02  0.49252517102E+02  0.00000000000E+00 0. -1.
</event>
<event>
 5    1  0.1692178E-003  0.9118800E+02  0.7818608E-02  0.1130116E+00
         25   -1    0    0    0    0  0.00000000000E+00  0.00000000000E+00  0.99999998245E-14  0.12500000000E+03  0.12500000000E+03 0.  0.
        -11    1    3    3    0    0  0.23386057660E+02 -0.20838320679E+02 -0.15354088958E+02  0.34883969808E+02  0.51100000000E-03 0.  1.
         23    2    1    0    0    0 -0.25869084413E+00  0.28519942179E+02  0.94255478971E+01  0.94961774753E+02  0.90085757411E+02 0.  0.
         11    1    3    3    0    0 -0.23644748504E+02  0.49358262858E+02  0.24779636855E+02  0.60077804945E+02  0.51100000000E-03 0. -1.
         22    1    1    0    0    0  0.25869084413E+00 -0.28519942179E+02 -0.94255478971E+01  0.30038225247E+02  0.00000000000E+00 0. -1.
</event>
<event>
 5    1  0.1692178E-003  0.9118800E+02  0.7818608E-02  0.1130116E+00
         25   -1    0    0    0    0  0.00000000000E+00  0.00000000000E+00  0.99999998245E-14  0.12500000000E+03  0.12500000000E+03 0.  0.
        -11    1    3    3    0    0  0.38005431681E+02 -0.36301760381E+02 -0.27324120819E+01  0.52627908186E+02  0.51100000000E-03 0.  1.
         23    2    1    0    0    0  0.15237511599E+02 -0.39850655170E+01 -0.23056086088E+02  0.97077865185E+02  0.92975622054E+02 0.  0.
         11    1    3    3    0    0 -0.22767920082E+02  0.32316694864E+02 -0.20323674006E+02  0.44449956999E+02  0.51100000000E-03 0. -1.
         22    1    1    0    0    0 -0.15237511599E+02  0.39850655170E+01  0.23056086088E+02  0.27922134815E+02  0.00000000000E+00 0. -1.
</event>
<event>
 5    1  0.1692178E-003  0.9118800E+02  0.7818608E-02  0.1130116E+00
         25   -1    0    0    0    0  0.00000000000E+00  0.00000000000E+00  0.99999998245E-14  0.12500000000E+03  0.12500000000E+03 0.  0.
        -11    1    3    3    0    0 -0.47962018572E+02  0.25100171580E+02  0.50223715600E+01  0.54365412306E+02  0.51100000000E-03 0.  1.
         23    2    1    0    0    0 -0.97773847321E+01  0.22472571147E+02 -0.13645127033E+02  0.96949987560E+02  0.92803539210E+02 0.  0.
         11    1    3    3    0    0  0.38184633840E+02 -0.26276004327E+01 -0.18667498592E+02  0.42584575253E+02  0.51100000000E-03 0. -1.
         22    1    1    0    0    0  0.97773847321E+01 -0.22472571147E+02  0.13645127033E+02  0.28050012440E+02  0.00000000000E+00 0.  1.
</event>
<event>
 5    1  0.1692178E-003  0.9118800E+02  0.7818608E-02  0.1130116E+00
         25   -1    0    0    0    0  0.00000000000E+00  0.00000000000E+00  0.99999998245E-14  0.12500000000E+03  0.12500000000E+03 0.  0.
        -11    1    3    3    0    0  0.54279277886E+02  0.53139952159E+01 -0.65966673046E+00  0.54542769580E+02  0.51100000000E-03 0. -1.
         23    2    1    0    0    0  0.19907780507E+02  0.19517507630E+02 -0.13678183864E+02  0.93946086517E+02  0.88665222208E+02 0.  0.
         11    1    3    3    0    0 -0.34371497380E+02  0.14203512414E+02 -0.13018517133E+02  0.39403316937E+02  0.51100000000E-03 0.  1.
         22    1    1    0    0    0 -0.19907780507E+02 -0.19517507630E+02  0.13678183864E+02  0.31053913483E+02  0.00000000000E+00 0. -1.
</event>
<event>
 5    1  0.1692178E-003  0.9118800E+02  0.7818608E-02  0.1130116E+00
         25   -1    0    0    0    0  0.00000000000E+00  0.00000000000E+00  0.99999998245E-14  0.12500000000E+03  0.12500000000E+03 0.  0.
        -11    1    3    3    0    0  0.36986205456E+02 -0.85615332687E+01 -0.30249446978E+02  0.48541819998E+02  0.51100000000E-03 0.  1.
         23    2    1    0    0    0  0.29454881223E+01  0.21268249462E+02 -0.21449079908E+02  0.94650743595E+02  0.89653142157E+02 0.  0.
         11    1    3    3    0    0 -0.34040717334E+02  0.29829782731E+02  0.88003670702E+01  0.46108923597E+02  0.51100000000E-03 0. -1.
         22    1    1    0    0    0 -0.29454881223E+01 -0.21268249462E+02  0.21449079908E+02  0.30349256405E+02  0.00000000000E+00 0.  1.
</event>
<event>
 5    1  0.1692178E-003  0.9118800E+02  0.7818608E-02  0.1130116E+00
         25   -1    0    0    0    0  0.00000000000E+00  0.00000000000E+00  0.99999998245E-14  0.12500000000E+03  0.12500000000E+03 0.  0.
        -11    1    3    3    0    0  0.13055820067E+02 -0.21861332657E+02  0.31353317580E+02  0.40390627956E+02  0.51100000000E-03 0. -1.
         23    2    1    0    0    0 -0.80686036336E+01  0.25489477596E+02  0.10805667817E+02  0.96162900810E+02  0.91737261800E+02 0.  0.
         11    1    3    3    0    0 -0.21124423700E+02  0.47350810253E+02 -0.20547649763E+02  0.55772272854E+02  0.51100000000E-03 0.  1.
         22    1    1    0    0    0  0.80686036336E+01 -0.25489477596E+02 -0.10805667817E+02  0.28837099190E+02  0.00000000000E+00 0.  1.
</event>
<event>
 5    1  0.1692178E-003  0.9118800E+02  0.7818608E-02  0.1130116E+00
         25   -1    0    0    0    0  0.00000000000E+00  0.00000000000E+00  0.99999998245E-14  0.12500000000E+03  0.12500000000E+03 0.  0.
        -11    1    3    3    0    0  0.50395688624E+02  0.23512848759E+02 -0.22882899748E+02  0.60134903257E+02  0.51100000000E-03 0. -1.
         23    2    1    0    0    0  0.27672680441E+02 -0.39179578697E+00 -0.11584804728E+02  0.94997692634E+02  0.90135582088E+02 0.  0.
         11    1    3    3    0    0 -0.22723008183E+02 -0.23904644546E+02  0.11298095020E+02  0.34862789376E+02  0.51100000000E-03 0.  1.
         22    1    1    0    0    0 -0.27672680441E+02  0.39179578697E+00  0.11584804728E+02  0.30002307366E+02  0.00000000000E+00 0. -1.
</event>
<event>
 5    1  0.1692178E-003  0.9118800E+02  0.7818608E-02  0.1130116E+00
         25   -1    0    0    0    0  0.00000000000E+00  0.00000000000E+00  0.99999998245E-14  0.12500000000E+03  0.12500000000E+03 0.  0.
        -11    1    3    3    0    0  0.15483911055E+02 -0.87105742077E+01  0.31857043966E+02  0.36475976410E+02  0.51100000000E-03 0.  1.
         23    2    1    0    0    0 -0.15893364056E+01 -0.26716537123E+02 -0.18397614510E+02  0.92522753108E+02  0.86635375436E+02 0.  0.
         11    1    3    3    0    0 -0.17073247461E+02 -0.18005962915E+02 -0.50254658476E+02  0.56046776697E+02  0.51100000000E-03 0. -1.
         22    1    1    0    0    0  0.15893364056E+01  0.26716537123E+02  0.18397614510E+02  0.32477246892E+02  0.00000000000E+00 0. -1.
</event>
<event>
 5    1  0.1692178E-003  0.9118800E+02  0.7818608E-02  0.1130116E+00
         25   -1    0    0    0    0  0.00000000000E+00  0.00000000000E+00  0.99999998245E-14  0.12500000000E+03  0.12500000000E+03 0.  0.
        -11    1    3    3    0    0 -0.91483912025E+01 -0.66799275417E+01  0.50381038220E+02  0.51638779091E+02  0.51100000000E-03 0. -1.
         23    2    1    0    0    0  0.17585328168E+02  0.11484366372E+02  0.20123113939E+02  0.95912646178E+02  0.91395631977E+02 0.  0.
         11    1    3    3    0    0  0.26733719371E+02  0.18164293914E+02 -0.30257924282E+02  0.44273867087E+02  0.51100000000E-03 0.  1.
         22    1    1    0    0    0 -0.17585328168E+02 -0.11484366372E+02 -0.20123113939E+02  0.29087353822E+02  0.00000000000E+00 0. -1.
</event>
<event>
 5    1  0.1692178E-003  0.9118800E+02  0.7818608E-02  0.1130116E+00
         25   -1    0    0    0    0  0.00000000000E+00  0.00000000000E+00  0.99999998245E-14  0.12500000000E+03  0.12500000000E+03 0.  0.
        -11    1    3    3    0    0  0.52259120040E+01  0.12775673053E+02  0.46062720244E+02  0.48086403221E+02  0.51100000000E-03 0.  1.
         23    2    1    0    0    0  0.24478982920E+02 -0.12252956493E+02  0.10408106886E+02  0.95713753458E+02  0.91123204314E+02 0.  0.
         11    1    3    3    0    0  0.19253070915E+02 -0.25028629545E+02 -0.35654613358E+02  0.47627350237E+02  0.51100000000E-03 0. -1.
         22    1    1    0    0    0 -0.24478982920E+02  0.12252956493E+02 -0.10408106886E+02  0.29286246542E+02  0.00000000000E+00 0.  1.
</event>
<event>
 5    1  0.1692178E-003  0.9118800E+02  0.7818608E-02  0.1130116E+00
         25   -1    0    0    0    0  0.00000000000E+00  0.00000000000E+00  0.99999998245E-14  0.12500000000E+03  0.12500000000E+03 0.  0.
        -11    1    3    3    0    0  0.19300195171E+02 -0.36920858732E+02 -0.17253913616E+02  0.45092625545E+02  0.51100000000E-03 0. -1.
         23    2    1    0    0    0  0.46787726062E+01 -0.11779812556E+02  0.25338846320E+02  0.96667826949E+02  0.92422706827E+02 0.  0.
         11    1    3    3    0    0 -0.14621422565E+02  0.25141046176E+02  0.42592759936E+02  0.51575201404E+02  0.51100000000E-03 0.  1.
         22    1    1    0    0    0 -0.46787726062E+01  0.11779812556E+02 -0.25338846320E+02  0.28332173051E+02  0.00000000000E+00 0.  1.
</event>
<event>
 5    1  0.1692178E-003  0.9118800E+02  0.7818608E-02  0.1130116E+00
         25   -1    0    0    0    0  0.00000000000E+00  0.00000000000E+00  0.99999998245E-14  0.12500000000E+03  0.12500000000E+03 0.  0.
        -11    1    3    3    0    0  0.84895648738E+01 -0.56064084065E+02  0.50579234592E+01  0.56928348156E+02  0.51100000000E-03 0. -1.
         23    2    1    0    0    0 -0.14475881021E+02 -0.22686965889E+02  0.58877717667E+01  0.97451580645E+02  0.93476709192E+02 0.  0.
         11    1    3    3    0    0 -0.22965445895E+02  0.33377118176E+02  0.82984830759E+00  0.40523232489E+02  0.51100000000E-03 0.  1.
         22    1    1    0    0    0  0.14475881021E+02  0.22686965889E+02 -0.58877717667E+01  0.27548419355E+02  0.00000000000E+00 0.  1.
</event>
<event>
 5    1  0.1692178E-003  0.9118800E+02  0.7818608E-02  0.1130116E+00
         25   -1    0    0    0    0  0.00000000000E+00  0.00000000000E+00  0.99999998245E-14  0.12500000000E+03  0.12500000000E+03 0.  0.
        -11    1    3    3    0    0 -0.31228251377E+02 -0.24696612636E+02  0.77544445042E+01  0.40561777200E+02  0.51100000000E-03 0.  1.
         23    2    1    0    0    0  0.75790507775E+01  0.91674347328E+01  0.26961163196E+02  0.95531572978E+02  0.90872951116E+02 0.  0.
         11    1    3    3    0    0  0.38807302155E+02  0.33864047369E+02  0.19206718692E+02  0.54969795778E+02  0.51100000000E-03 0. -1.
         22    1    1    0    0    0 -0.75790507775E+01 -0.91674347328E+01 -0.26961163196E+02  0.29468427022E+02  0.00000000000E+00 0. -1.
</event>
<event>
 5    1  0.1692178E-003  0.9118800E+02  0.7818608E-02  0.1130116E+00
         25   -1    0    0    0    0  0.00000000000E+00  0.00000000000E+00  0.99999998245E-14  0.12500000000E+03  0.12500000000E+03 0.  0.
        -11    1    3    3    0    0 -0.29058838198E+02 -0.19947567295E+02 -0.11941080988E+02  0.37214391488E+02  0.51100000000E-03 0. -1.
         23    2    1    0    0    0  0.17462458246E+01  0.62248315696E+01  0.29319697948E+02  0.94975966455E+02  0.90105447192E+02 0.  0.
         11    1    3    3    0    0  0.30805084023E+02  0.26172398865E+02  0.41260778936E+02  0.57761574967E+02  0.51100000000E-03 0.  1.
         22    1    1    0    0    0 -0.17462458246E+01 -0.62248315696E+01 -0.29319697948E+02  0.30024033545E+02  0.00000000000E+00 0.  1.
</event>
<event>
 5    1  0.1692178E-003  0.9118800E+02  0.7818608E-02  0.1130116E+00
         25   -1    0    0    0    0  0.00000000000E+00  0.00000000000E+00  0.99999998245E-14  0.12500000000E+03  0.12500000000E+03 0.  0.
        -11    1    3    3    0    0 -0.14786949570E+02  0.25315498093E+01 -0.32045301956E+02  0.35383103308E+02  0.51100000000E-03 0. -1.
         23    2    1    0    0    0  0.87963588019E+00 -0.20623763810E+02  0.21130279060E+02  0.95460161035E+02  0.90774667494E+02 0.  0.
         11    1    3    3    0    0  0.15666585450E+02 -0.23155313619E+02  0.53175581016E+02  0.60077057726E+02  0.51100000000E-03 0.  1.
         22    1    1    0    0    0 -0.87963588019E+00  0.20623763810E+02 -0.21130279060E+02  0.29539838965E+02  0.00000000000E+00 0.  1.
</event>
<event>
 5    1  0.1692178E-003  0.9118800E+02  0.7818608E-02  0.1130116E+00
         25   -1    0    0    0    0  0.00000000000E+00  0.00000000000E+00  0.99999998245E-14  0.12500000000E+03  0.12500000000E+03 0.  0.
        -11    1    3    3    0    0  0.23687261192E+02 -0.25343956920E+02 -0.93060121072E+01  0.35916630643E+02  0.51100000000E-03 0.  1.
         23    2    1    0    0    0 -0.24614709694E+02  0.11084438264E+02 -0.93980430835E+01  0.96415530113E+02  0.92080847782E+02 0.  0.
         11    1    3    3    0    0 -0.48301970886E+02  0.36428395184E+02 -0.92030976296E-01  0.60498899470E+02  0.51100000000E-03 0. -1.
         22    1    1    0    0    0  0.24614709694E+02 -0.11084438264E+02  0.93980430835E+01  0.28584469887E+02  0.00000000000E+00 0. -1.
</event>
<event>
 5    1  0.1692178E-003  0.9118800E+02  0.7818608E-02  0.1130116E+00
         25   -1    0    0    0    0  0.00000000000E+00  0.00000000000E+00  0.99999998245E-14  0.12500000000E+03  0.12500000000E+03 0.  0.
        -11    1    3    3    0    0 -0.14722063600E+02 -0.24744655874E+02  0.28239315382E+02  0.40329841116E+02  0.51100000000E-03 0. -1.
         23    2    1    0    0    0  0.24669126701E+02  0.10454614505E+02  0.12375217309E+02  0.95487108239E+02  0.90811767188E+02 0.  0.
         11    1    3    3    0    0  0.39391190301E+02  0.35199270379E+02 -0.15864098073E+02  0.55157267123E+02  0.51100000000E-03 0.  1.
         22    1    1    0    0    0 -0.24669126701E+02 -0.10454614505E+02 -0.12375217309E+02  0.29512891761E+02  0.00000000000E+00 0.  1.
</event>
<event>
 5    1  0.1692178E-003  0.9118800E+02  0.7818608E-02  0.1130116E+00
         25   -1    0    0    0    0  0.00000000000E+00  0.00000000000E+00  0.99999998245E-14  0.12500000000E+03  0.12500000000E+03 0.  0.
        -11    1    3    3    0    0 -0.21562599658E+02  0.36796284670E+02  0.39919299286E+01  0.42835123139E+02  0.51100000000E-03 0. -1.
         23    2    1    0    0    0 -0.61696331048E+01 -0.76164526793E+01  0.27798065402E+02  0.95524464990E+02  0.90863173219E+02 0.  0.
         11    1    3    3    0    0  0.15392966553E+02 -0.44412737350E+02  0.23806135473E+02  0.52689341850E+02  0.51100000000E-03 0.  1.
         22    1    1    0    0    0  0.61696331048E+01  0.76164526793E+01 -0.27798065402E+02  0.29475535010E+02  0.00000000000E+00 0.  1.
</event>
<event>
 5    1  0.1692178E-003  0.9118800E+02  0.7818608E-02  0.1130116E+00
         25   -1    0    0    0    0  0.00000000000E+00  0.00000000000E+00  0.99999998245E-14  0.12500000000E+03  0.12500000000E+03 0.  0.
        -11    1    3    3    0    0 -0.94466493593E+01 -0.21261055213E+02  0.29926569162E+02  0.37906083878E+02  0.51100000000E-03 0. -1.
         23    2    1    0    0    0  0.17020366508E+02 -0.93183601669E+01 -0.20924245484E+02  0.96463203379E+02  0.92145541644E+02 0.  0.
         11    1    3    3    0    0  0.26467015868E+02  0.11942695046E+02 -0.50850814646E+02  0.58557119502E+02  0.51100000000E-03 0.  1.
         22    1    1    0    0    0 -0.17020366508E+02  0.93183601669E+01  0.20924245484E+02  0.28536796621E+02  0.00000000000E+00 0.  1.
</event>
<event>
 5    1  0.1692178E-003  0.9118800E+02  0.7818608E-02  0.1130116E+00
         25   -1    0    0    0    0  0.00000000000E+00  0.00000000000E+00  0.99999998245E-14  0.12500000000E+03  0.12500000000E+03 0.  0.
        -11    1    3    3    0    0 -0.45427041268E+02  0.23793786648E+02  0.27071554492E+02  0.57988183488E+02  0.51100000000E-03 0. -1.
         23    2    1    0    0    0 -0.24748975173E+02  0.15801455488E+02 -0.31493909645E+01  0.95468382518E+02  0.90785988068E+02 0.  0.
         11    1    3    3    0    0  0.20678066095E+02 -0.79923311600E+01 -0.30220945456E+02  0.37480199030E+02  0.51100000000E-03 0.  1.
         22    1    1    0    0    0  0.24748975173E+02 -0.15801455488E+02  0.31493909645E+01  0.29531617482E+02  0.00000000000E+00 0. -1.
</event>
<event>
 5    1  0.1692178E-003  0.9118800E+02  0.7818608E-02  0.1130116E+00
         25   -1    0    0    0    0  0.00000000000E+00  0.00000000000E+00  0.99999998245E-14  0.12500000000E+03  0.12500000000E+03 0.  0.
        -11    1    3    3    0    0  0.29399343881E+02  0.13859733868E+02 -0.38846086237E+02  0.50650094371E+02  0.51100000000E-03 0. -1.
         23    2    1    0    0    0  0.29287017853E+02  0.94581120748E+01  0.42155543335E+01  0.93936255907E+02  0.88651361956E+02 0.  0.
         11    1    3    3    0    0 -0.11232602799E+00 -0.44016217937E+01  0.43061640571E+02  0.43286161535E+02  0.51100000000E-03 0.  1.
         22    1    1    0    0    0 -0.29287017853E+02 -0.94581120748E+01 -0.42155543335E+01  0.31063744093E+02  0.00000000000E+00 0.  1.
</event>
<event>
 5    1  0.1692178E-003  0.9118800E+02  0.7818608E-02  0.1130116E+00
         25   -1    0    0    0    0  0.00000000000E+00  0.00000000000E+00  0.99999998245E-14  0.12500000000E+03  0.12500000000E+03 0.  0.
        -11    1    3    3    0    0 -0.27660393525E+02  0.47609880769E+01  0.22103466940E+02  0.35725727822E+02  0.51100000000E-03 0.  1.
         23    2    1    0    0    0  0.84504521390E+01  0.42838305479E+01 -0.26832083761E+02  0.96544384307E+02  0.92255601872E+02 0.  0.
         11    1    3    3    0    0  0.36110845664E+02 -0.47715752896E+00 -0.48935550701E+02  0.60818656484E+02  0.51100000000E-03 0. -1.
         22    1    1    0    0    0 -0.84504521390E+01 -0.42838305479E+01  0.26832083761E+02  0.28455615693E+02  0.00000000000E+00 0. -1.
</event>
<event>
 5    1  0.1692178E-003  0.9118800E+02  0.7818608E-02  0.1130116E+00
         25   -1    0    0    0    0  0.00000000000E+00  0.00000000000E+00  0.99999998245E-14  0.12500000000E+03  0.12500000000E+03 0.  0.
        -11    1    3    3    0    0 -0.57215917608E+01  0.11914854456E+02  0.33790238841E+01  0.13642513392E+02  0.51100000000E-03 0. -1.
         23    2    1    0    0    0  0.45535949440E+02 -0.10893178879E+02 -0.19565011324E+02  0.74255801262E+02  0.54212086434E+02 0.  0.
         11    1    3    3    0    0  0.51257541201E+02 -0.22808033335E+02 -0.22944035208E+02  0.60613287870E+02  0.51100000000E-03 0.  1.
         22    1    1    0    0    0 -0.45535949440E+02  0.10893178879E+02  0.19565011324E+02  0.50744198738E+02  0.00000000000E+00 0.  1.
</event>
<event>
 5    1  0.1692178E-003  0.9118800E+02  0.7818608E-02  0.1130116E+00
         25   -1    0    0    0    0  0.00000000000E+00  0.00000000000E+00  0.99999998245E-14  0.12500000000E+03  0.12500000000E+03 0.  0.
        -11    1    3    3    0    0  0.56817646408E+01 -0.44011835630E+02 -0.20735964900E+01  0.44425487365E+02  0.51100000000E-03 0. -1.
         23    2    1    0    0    0  0.28830844917E+02 -0.24786855818E+01  0.11480916388E+02  0.93868457444E+02  0.88555713316E+02 0.  0.
         11    1    3    3    0    0  0.23149080276E+02  0.41533150048E+02  0.13554512878E+02  0.49442970079E+02  0.51100000000E-03 0.  1.
         22    1    1    0    0    0 -0.28830844917E+02  0.24786855818E+01 -0.11480916388E+02  0.31131542556E+02  0.00000000000E+00 0.  1.
</event>
<event>
 5    1  0.1692178E-003  0.9118800E+02  0.7818608E-02  0.1130116E+00
         25   -1    0    0    0    0  0.00000000000E+00  0.00000000000E+00  0.99999998245E-14  0.12500000000E+03  0.12500000000E+03 0.  0.
        -11    1    3    3    0    0  0.19799845100E+02  0.46295918372E+02  0.24225283351E+02  0.55876741831E+02  0.51100000000E-03 0. -1.
         23    2    1    0    0    0  0.22925935533E+02  0.71530448159E+01  0.16406193335E+02  0.95915162886E+02  0.91399073964E+02 0.  0.
         11    1    3    3    0    0  0.31260904337E+01 -0.39142873557E+02 -0.78190900157E+01  0.40038421055E+02  0.51100000000E-03 0.  1.
         22    1    1    0    0    0 -0.22925935533E+02 -0.71530448159E+01 -0.16406193335E+02  0.29084837114E+02  0.00000000000E+00 0.  1.
</event>
<event>
 5    1  0.1692178E-003  0.9118800E+02  0.7818608E-02  0.1130116E+00
         25   -1    0    0    0    0  0.00000000000E+00  0.00000000000E+00  0.99999998245E-14  0.12500000000E+03  0.12500000000E+03 0.  0.
        -11    1    3    3    0    0  0.22104628811E+02  0.28104976405E+02 -0.47525921270E+02  0.59474511401E+02  0.51100000000E-03 0.  1.
         23    2    1    0    0    0  0.36097214328E+01  0.49483182706E+01 -0.30987693873E+02  0.93412769762E+02  0.87910138440E+02 0.  0.
         11    1    3    3    0    0 -0.18494907378E+02 -0.23156658135E+02  0.16538227397E+02  0.33938258361E+02  0.51100000000E-03 0. -1.
         22    1    1    0    0    0 -0.36097214328E+01 -0.49483182706E+01  0.30987693873E+02  0.31587230238E+02  0.00000000000E+00 0.  1.
</event>
<event>
 5    1  0.1692178E-003  0.9118800E+02  0.7818608E-02  0.1130116E+00
         25   -1    0    0    0    0  0.00000000000E+00  0.00000000000E+00  0.99999998245E-14  0.12500000000E+03  0.12500000000E+03 0.  0.
        -11    1    3    3    0    0  0.30556879543E+02  0.15796554644E+02  0.46829967435E+01  0.34715767092E+02  0.51100000000E-03 0.  1.
         23    2    1    0    0    0 -0.26023877457E+02 -0.26280572418E+01 -0.11567819391E+02  0.96399941814E+02  0.92059684192E+02 0.  0.
         11    1    3    3    0    0 -0.56580757000E+02 -0.18424611886E+02 -0.16250816134E+02  0.61684174722E+02  0.51100000000E-03 0. -1.
         22    1    1    0    0    0  0.26023877457E+02  0.26280572418E+01  0.11567819391E+02  0.28600058186E+02  0.00000000000E+00 0. -1.
</event>
<event>
 5    1  0.1692178E-003  0.9118800E+02  0.7818608E-02  0.1130116E+00
         25   -1    0    0    0    0  0.00000000000E+00  0.00000000000E+00  0.99999998245E-14  0.12500000000E+03  0.12500000000E+03 0.  0.
        -11    1    3    3    0    0 -0.30221524549E+02  0.27532698692E+02 -0.22214272848E+02  0.46528098627E+02  0.51100000000E-03 0. -1.
         23    2    1    0    0    0 -0.45983326015E+01 -0.15785461299E+02 -0.22835933381E+02  0.96860964755E+02  0.92683554036E+02 0.  0.
         11    1    3    3    0    0  0.25623191948E+02 -0.43318159992E+02 -0.62166053220E+00  0.50332866129E+02  0.51100000000E-03 0.  1.
         22    1    1    0    0    0  0.45983326015E+01  0.15785461299E+02  0.22835933381E+02  0.28139035245E+02  0.00000000000E+00 0. -1.
</event>
<event>
 5    1  0.1692178E-003  0.9118800E+02  0.7818608E-02  0.1130116E+00
         25   -1    0    0    0    0  0.00000000000E+00  0.00000000000E+00  0.99999998245E-14  0.12500000000E+03  0.12500000000E+03 0.  0.
        -11    1    3    3    0    0  0.51289765721E+02  0.26177669223E+02  0.59001048774E+01  0.57885418470E+02  0.51100000000E-03 0. -1.
         23    2    1    0    0    0  0.29044652302E+02  0.69218204096E+00 -0.86155614173E+01  0.94696553961E+02  0.89716991090E+02 0.  0.
         11    1    3    3    0    0 -0.22245113419E+02 -0.25485487182E+02 -0.14515666295E+02  0.36811135491E+02  0.51100000000E-03 0.  1.
         22    1    1    0    0    0 -0.29044652302E+02 -0.69218204096E+00  0.86155614173E+01  0.30303446039E+02  0.00000000000E+00 0. -1.
</event>
<event>
 5    1  0.1692178E-003  0.9118800E+02  0.7818608E-02  0.1130116E+00
         25   -1    0    0    0    0  0.00000000000E+00  0.00000000000E+00  0.99999998245E-14  0.12500000000E+03  0.12500000000E+03 0.  0.
        -11    1    3    3    0    0 -0.11924722560E+02 -0.21719402987E+02 -0.21821543964E+02  0.33016832912E+02  0.51100000000E-03 0.  1.
         23    2    1    0    0    0  0.13449455554E+02  0.62199837176E+01  0.26684928749E+02  0.94476869844E+02  0.89410387881E+02 0.  0.
         11    1    3    3    0    0  0.25374178115E+02  0.27939386705E+02  0.48506472713E+02  0.61460036933E+02  0.51100000000E-03 0. -1.
         22    1    1    0    0    0 -0.13449455554E+02 -0.62199837176E+01 -0.26684928749E+02  0.30523130156E+02  0.00000000000E+00 0. -1.
</event>
<event>
 5    1  0.1692178E-003  0.9118800E+02  0.7818608E-02  0.1130116E+00
         25   -1    0    0    0    0  0.00000000000E+00  0.00000000000E+00  0.99999998245E-14  0.12500000000E+03  0.12500000000E+03 0.  0.
        -11    1    3    3    0    0  0.39977600477E+02  0.10255376047E+02 -0.32160809309E+02  0.52323024888E+02  0.51100000000E-03 0. -1.
         23    2    1    0    0    0  0.16656909211E+01 -0.10271020846E+02 -0.26965488410E+02  0.96096609876E+02  0.91646890122E+02 0.  0.
         11    1    3    3    0    0 -0.38311909556E+02 -0.20526396893E+02  0.51953208984E+01  0.43773584988E+02  0.51100000000E-03 0.  1.
         22    1    1    0    0    0 -0.16656909211E+01  0.10271020846E+02  0.26965488410E+02  0.28903390124E+02  0.00000000000E+00 0. -1.
</event>
<event>
 5    1  0.1692178E-003  0.9118800E+02  0.7818608E-02  0.1130116E+00
         25   -1    0    0    0    0  0.00000000000E+00  0.00000000000E+00  0.99999998245E-14  0.12500000000E+03  0.12500000000E+03 0.  0.
        -11    1    3    3    0    0 -0.16913650753E+01  0.42753458979E+02  0.39437291970E+02  0.58189509094E+02  0.51100000000E-03 0. -1.
         23    2    1    0    0    0  0.15103894035E+02  0.15832363332E+02  0.19695616515E+02  0.95560084008E+02  0.90912160914E+02 0.  0.
         11    1    3    3    0    0  0.16795259110E+02 -0.26921095647E+02 -0.19741675454E+02  0.37370574914E+02  0.51100000000E-03 0.  1.
         22    1    1    0    0    0 -0.15103894035E+02 -0.15832363332E+02 -0.19695616515E+02  0.29439915992E+02  0.00000000000E+00 0. -1.
</event>
<event>
 5    1  0.1692178E-003  0.9118800E+02  0.7818608E-02  0.1130116E+00
         25   -1    0    0    0    0  0.00000000000E+00  0.00000000000E+00  0.99999998245E-14  0.12500000000E+03  0.12500000000E+03 0.  0.
        -11    1    3    3    0    0  0.26924016653E+02  0.43349870878E+01  0.47373073984E+02  0.54661713518E+02  0.51100000000E-03 0. -1.
         23    2    1    0    0    0  0.45274426124E+00  0.20638487092E+02  0.22395322905E+02  0.94541789041E+02  0.89501102005E+02 0.  0.
         11    1    3    3    0    0 -0.26471272392E+02  0.16303500005E+02 -0.24977751079E+02  0.39880075523E+02  0.51100000000E-03 0.  1.
         22    1    1    0    0    0 -0.45274426124E+00 -0.20638487092E+02 -0.22395322905E+02  0.30458210959E+02  0.00000000000E+00 0. -1.
</event>
<event>
 5    1  0.1692178E-003  0.9118800E+02  0.7818608E-02  0.1130116E+00
         25   -1    0    0    0    0  0.00000000000E+00  0.00000000000E+00  0.99999998245E-14  0.12500000000E+03  0.12500000000E+03 0.  0.
        -11    1    3    3    0    0  0.23388252408E+02 -0.19748524756E+02  0.38114543174E+02  0.48884895237E+02  0.51100000000E-03 0. -1.
         23    2    1    0    0    0  0.27928761670E+02  0.30344554422E+01 -0.36451045668E+01  0.96671384863E+02  0.92427518715E+02 0.  0.
         11    1    3    3    0    0  0.45405092621E+01  0.22782980198E+02 -0.41759647741E+02  0.47786489626E+02  0.51100000000E-03 0.  1.
         22    1    1    0    0    0 -0.27928761670E+02 -0.30344554422E+01  0.36451045668E+01  0.28328615137E+02  0.00000000000E+00 0.  1.
</event>
<event>
 5    1  0.1692178E-003  0.9118800E+02  0.7818608E-02  0.1130116E+00
         25   -1    0    0    0    0  0.00000000000E+00  0.00000000000E+00  0.99999998245E-14  0.12500000000E+03  0.12500000000E+03 0.  0.
        -11    1    3    3    0    0  0.76198341690E+01 -0.33118517865E+02 -0.25241974995E+02  0.42332675326E+02  0.51100000000E-03 0.  1.
         23    2    1    0    0    0  0.16105133859E+01 -0.15125734080E+02  0.24831977504E+02  0.95879411208E+02  0.91350165857E+02 0.  0.
         11    1    3    3    0    0 -0.60093207831E+01  0.17992783785E+02  0.50073952498E+02  0.53546735882E+02  0.51100000000E-03 0. -1.
         22    1    1    0    0    0 -0.16105133859E+01  0.15125734080E+02 -0.24831977504E+02  0.29120588792E+02  0.00000000000E+00 0. -1.
</event>
<event>
 5    1  0.1692178E-003  0.9118800E+02  0.7818608E-02  0.1130116E+00
         25   -1    0    0    0    0  0.00000000000E+00  0.00000000000E+00  0.99999998245E-14  0.12500000000E+03  0.12500000000E+03 0.  0.
        -11    1    3    3    0    0 -0.15524923598E+02  0.58832303188E+02  0.12692983104E+02  0.62156053377E+02  0.51100000000E-03 0. -1.
         23    2    1    0    0    0 -0.62225379951E+01  0.33978773128E+02  0.33329880565E+01  0.90295737844E+02  0.83360269080E+02 0.  0.
         11    1    3    3    0    0  0.93023856025E+01 -0.24853530060E+02 -0.93599950479E+01  0.28139684467E+02  0.51100000000E-03 0.  1.
         22    1    1    0    0    0  0.62225379951E+01 -0.33978773128E+02 -0.33329880565E+01  0.34704262156E+02  0.00000000000E+00 0. -1.
</event>
<event>
 5    1  0.1692178E-003  0.9118800E+02  0.7818608E-02  0.1130116E+00
         25   -1    0    0    0    0  0.00000000000E+00  0.00000000000E+00  0.99999998245E-14  0.12500000000E+03  0.12500000000E+03 0.  0.
        -11    1    3    3    0    0 -0.30478575895E+02  0.43234584491E+00  0.25973783147E+02  0.40047071338E+02  0.51100000000E-03 0.  1.
         23    2    1    0    0    0  0.18833285446E+02  0.20312495322E+02  0.97117910833E+01  0.95646823120E+02  0.91031345041E+02 0.  0.
         11    1    3    3    0    0  0.49311861341E+02  0.19880149477E+02 -0.16261992064E+02  0.55599751782E+02  0.51100000000E-03 0. -1.
         22    1    1    0    0    0 -0.18833285446E+02 -0.20312495322E+02 -0.97117910833E+01  0.29353176880E+02  0.00000000000E+00 0. -1.
</event>
<event>
 5    1  0.1692178E-003  0.9118800E+02  0.7818608E-02  0.1130116E+00
         25   -1    0    0    0    0  0.00000000000E+00  0.00000000000E+00  0.99999998245E-14  0.12500000000E+03  0.12500000000E+03 0.  0.
        -11    1    3    3    0    0 -0.47838345183E+02 -0.81417612976E+01 -0.21884991546E+01  0.48575560477E+02  0.51100000000E-03 0.  1.
         23    2    1    0    0    0 -0.10257619349E+02 -0.57968510971E+01  0.26556360956E+02  0.95947245491E+02  0.91442940530E+02 0.  0.
         11    1    3    3    0    0  0.37580725834E+02  0.23449102005E+01  0.28744860110E+02  0.47371685014E+02  0.51100000000E-03 0. -1.
         22    1    1    0    0    0  0.10257619349E+02  0.57968510971E+01 -0.26556360956E+02  0.29052754509E+02  0.00000000000E+00 0.  1.
</event>
<event>
 5    1  0.1692178E-003  0.9118800E+02  0.7818608E-02  0.1130116E+00
         25   -1    0    0    0    0  0.00000000000E+00  0.00000000000E+00  0.99999998245E-14  0.12500000000E+03  0.12500000000E+03 0.  0.
        -11    1    3    3    0    0  0.67843683797E+01  0.33360516750E+02  0.85159735617E+01  0.35092357260E+02  0.51100000000E-03 0.  1.
         23    2    1    0    0    0  0.18761547012E+02 -0.22532777569E+02 -0.80268030623E+01  0.94600143444E+02  0.89582564492E+02 0.  0.
         11    1    3    3    0    0  0.11977178632E+02 -0.55893294319E+02 -0.16542776624E+02  0.59507786183E+02  0.51100000000E-03 0. -1.
         22    1    1    0    0    0 -0.18761547012E+02  0.22532777569E+02  0.80268030623E+01  0.30399856556E+02  0.00000000000E+00 0.  1.
</event>
<event>
 5    1  0.1692178E-003  0.9118800E+02  0.7818608E-02  0.1130116E+00
         25   -1    0    0    0    0  0.00000000000E+00  0.00000000000E+00  0.99999998245E-14  0.12500000000E+03  0.12500000000E+03 0.  0.
        -11    1    3    3    0    0 -0.35577799428E+02 -0.73942446126E+01  0.13981096166E+02  0.38934890725E+02  0.51100000000E-03 0.  1.
         23    2    1    0    0    0  0.47706755942E+01  0.17137941218E+02 -0.20835145894E+02  0.97603436725E+02  0.93679555834E+02 0.  0.
         11    1    3    3    0    0  0.40348475022E+02  0.24532185831E+02 -0.34816242060E+02  0.58668546000E+02  0.51100000000E-03 0. -1.
         22    1    1    0    0    0 -0.47706755942E+01 -0.17137941218E+02  0.20835145894E+02  0.27396563275E+02  0.00000000000E+00 0. -1.
</event>
<event>
 5    1  0.1692178E-003  0.9118800E+02  0.7818608E-02  0.1130116E+00
         25   -1    0    0    0    0  0.00000000000E+00  0.00000000000E+00  0.99999998245E-14  0.12500000000E+03  0.12500000000E+03 0.  0.
        -11    1    3    3    0    0 -0.53374115898E+02  0.10351976942E+02  0.27283047299E+02  0.60830291342E+02  0.51100000000E-03 0.  1.
         23    2    1    0    0    0 -0.28244653678E+02  0.66282095595E+01  0.32401570770E+01  0.95807668109E+02  0.91251942594E+02 0.  0.
         11    1    3    3    0    0  0.25129462220E+02 -0.37237673826E+01 -0.24042890222E+02  0.34977376767E+02  0.51100000000E-03 0. -1.
         22    1    1    0    0    0  0.28244653678E+02 -0.66282095595E+01 -0.32401570770E+01  0.29192331891E+02  0.00000000000E+00 0.  1.
</event>
<event>
 5    1  0.1692178E-003  0.9118800E+02  0.7818608E-02  0.1130116E+00
         25   -1    0    0    0    0  0.00000000000E+00  0.00000000000E+00  0.99999998245E-14  0.12500000000E+03  0.12500000000E+03 0.  0.
        -11    1    3    3    0    0  0.65737186884E+01 -0.70509328329E+01  0.38475003593E+02  0.39664282837E+02  0.51100000000E-03 0.  1.
         23    2    1    0    0    0  0.41800633423E+01  0.34168412405E+02  0.12860986352E+02  0.88252778258E+02  0.80238360928E+02 0.  0.
         11    1    3    3    0    0 -0.23936553461E+01  0.41219345238E+02 -0.25614017241E+02  0.48588495421E+02  0.51100000000E-03 0. -1.
         22    1    1    0    0    0 -0.41800633423E+01 -0.34168412405E+02 -0.12860986352E+02  0.36747221742E+02  0.00000000000E+00 0. -1.
</event>
<event>
 5    1  0.1692178E-003  0.9118800E+02  0.7818608E-02  0.1130116E+00
         25   -1    0    0    0    0  0.00000000000E+00  0.00000000000E+00  0.99999998245E-14  0.12500000000E+03  0.12500000000E+03 0.  0.
        -11    1    3    3    0    0  0.42596860674E+02  0.30019566779E+01  0.36122581729E+02  0.55931611761E+02  0.51100000000E-03 0. -1.
         23    2    1    0    0    0  0.36681440435E+02 -0.87620051218E+01  0.87822799568E+01  0.86277535624E+02  0.77099830778E+02 0.  0.
         11    1    3    3    0    0 -0.59154202395E+01 -0.11763961800E+02 -0.27340301772E+02  0.30345923863E+02  0.51100000000E-03 0.  1.
         22    1    1    0    0    0 -0.36681440435E+02  0.87620051218E+01 -0.87822799568E+01  0.38722464376E+02  0.00000000000E+00 0. -1.
</event>
<event>
 5    1  0.1692178E-003  0.9118800E+02  0.7818608E-02  0.1130116E+00
         25   -1    0    0    0    0  0.00000000000E+00  0.00000000000E+00  0.99999998245E-14  0.12500000000E+03  0.12500000000E+03 0.  0.
        -11    1    3    3    0    0 -0.24810881523E+02 -0.18562498965E+02  0.49759467478E+02  0.58618689970E+02  0.51100000000E-03 0. -1.
         23    2    1    0    0    0  0.31253741783E+01 -0.14688010359E+02  0.23229423268E+02  0.97339347126E+02  0.93326506318E+02 0.  0.
         11    1    3    3    0    0  0.27936255701E+02  0.38744886055E+01 -0.26530044211E+02  0.38720657157E+02  0.51100000000E-03 0.  1.
         22    1    1    0    0    0 -0.31253741783E+01  0.14688010359E+02 -0.23229423268E+02  0.27660652874E+02  0.00000000000E+00 0. -1.
</event>
<event>
 5    1  0.1692178E-003  0.9118800E+02  0.7818608E-02  0.1130116E+00
         25   -1    0    0    0    0  0.00000000000E+00  0.00000000000E+00  0.99999998245E-14  0.12500000000E+03  0.12500000000E+03 0.  0.
        -11    1    3    3    0    0 -0.14765085717E+02  0.39879794309E+02  0.20420002291E+02  0.47173957267E+02  0.51100000000E-03 0.  1.
         23    2    1    0    0    0 -0.58635786400E+01  0.10299960883E+02 -0.22213736645E+02  0.99822215260E+02  0.96594791863E+02 0.  0.
         11    1    3    3    0    0  0.89015070766E+01 -0.29579833427E+02 -0.42633738936E+02  0.52648257994E+02  0.51100000000E-03 0. -1.
         22    1    1    0    0    0  0.58635786400E+01 -0.10299960883E+02  0.22213736645E+02  0.25177784740E+02  0.00000000000E+00 0. -1.
</event>
<event>
 5    1  0.1692178E-003  0.9118800E+02  0.7818608E-02  0.1130116E+00
         25   -1    0    0    0    0  0.00000000000E+00  0.00000000000E+00  0.99999998245E-14  0.12500000000E+03  0.12500000000E+03 0.  0.
        -11    1    3    3    0    0  0.73257844950E+00 -0.24023517973E+02  0.35278635056E+02  0.42687798944E+02  0.51100000000E-03 0.  1.
         23    2    1    0    0    0 -0.94660849088E+01  0.23710751675E+02  0.13166135305E+02  0.96274512583E+02  0.91889216700E+02 0.  0.
         11    1    3    3    0    0 -0.10198663358E+02  0.47734269648E+02 -0.22112499751E+02  0.53586713639E+02  0.51100000000E-03 0. -1.
         22    1    1    0    0    0  0.94660849088E+01 -0.23710751675E+02 -0.13166135305E+02  0.28725487417E+02  0.00000000000E+00 0. -1.
</event>
<event>
 5    1  0.1692178E-003  0.9118800E+02  0.7818608E-02  0.1130116E+00
         25   -1    0    0    0    0  0.00000000000E+00  0.00000000000E+00  0.99999998245E-14  0.12500000000E+03  0.12500000000E+03 0.  0.
        -11    1    3    3    0    0  0.66262046682E+01 -0.35503859380E+02  0.33999355583E+02  0.49602286233E+02  0.51100000000E-03 0. -1.
         23    2    1    0    0    0  0.10614650663E+02  0.95152932247E+01  0.25783057290E+02  0.95538539461E+02  0.90882533335E+02 0.  0.
         11    1    3    3    0    0  0.39884459952E+01  0.45019152605E+02 -0.82162982932E+01  0.45936253228E+02  0.51100000000E-03 0.  1.
         22    1    1    0    0    0 -0.10614650663E+02 -0.95152932247E+01 -0.25783057290E+02  0.29461460539E+02  0.00000000000E+00 0.  1.
</event>
<event>
 5    1  0.1692178E-003  0.9118800E+02  0.7818608E-02  0.1130116E+00
         25   -1    0    0    0    0  0.00000000000E+00  0.00000000000E+00  0.99999998245E-14  0.12500000000E+03  0.12500000000E+03 0.  0.
        -11    1    3    3    0    0  0.31620344663E+02  0.24332434354E+02 -0.45424057691E+02  0.60458734485E+02  0.51100000000E-03 0. -1.
         23    2    1    0    0    0  0.22355559608E+02  0.10603422945E+02 -0.12579499982E+02  0.97243064951E+02  0.93197458322E+02 0.  0.
         11    1    3    3    0    0 -0.92647850545E+01 -0.13729011409E+02  0.32844557709E+02  0.36784330465E+02  0.51100000000E-03 0.  1.
         22    1    1    0    0    0 -0.22355559608E+02 -0.10603422945E+02  0.12579499982E+02  0.27756935049E+02  0.00000000000E+00 0. -1.
</event>
<event>
 5    1  0.1692178E-003  0.9118800E+02  0.7818608E-02  0.1130116E+00
         25   -1    0    0    0    0  0.00000000000E+00  0.00000000000E+00  0.99999998245E-14  0.12500000000E+03  0.12500000000E+03 0.  0.
        -11    1    3    3    0    0 -0.16618328976E+02 -0.45493596944E+02 -0.16524941133E+02  0.51175286034E+02  0.51100000000E-03 0. -1.
         23    2    1    0    0    0  0.17220466919E+02 -0.24112045411E+02  0.20420456510E+01  0.95299744694E+02  0.90553498958E+02 0.  0.
         11    1    3    3    0    0  0.33838795895E+02  0.21381551534E+02  0.18566986784E+02  0.44124458661E+02  0.51100000000E-03 0.  1.
         22    1    1    0    0    0 -0.17220466919E+02  0.24112045411E+02 -0.20420456510E+01  0.29700255306E+02  0.00000000000E+00 0. -1.
</event>
<event>
 5    1  0.1692178E-003  0.9118800E+02  0.7818608E-02  0.1130116E+00
         25   -1    0    0    0    0  0.00000000000E+00  0.00000000000E+00  0.99999998245E-14  0.12500000000E+03  0.12500000000E+03 0.  0.
        -11    1    3    3    0    0  0.24734704772E+02 -0.33110714739E+02 -0.37927385477E+02  0.56094666592E+02  0.51100000000E-03 0. -1.
         23    2    1    0    0    0  0.10202765179E+02 -0.28701918663E+02 -0.27442708218E+01  0.94415239504E+02  0.89324184161E+02 0.  0.
         11    1    3    3    0    0 -0.14531939593E+02  0.44087960763E+01  0.35183114656E+02  0.38320572912E+02  0.51100000000E-03 0.  1.
         22    1    1    0    0    0 -0.10202765179E+02  0.28701918663E+02  0.27442708218E+01  0.30584760496E+02  0.00000000000E+00 0. -1.
</event>
<event>
 5    1  0.1692178E-003  0.9118800E+02  0.7818608E-02  0.1130116E+00
         25   -1    0    0    0    0  0.00000000000E+00  0.00000000000E+00  0.99999998245E-14  0.12500000000E+03  0.12500000000E+03 0.  0.
        -11    1    3    3    0    0 -0.37935627501E+02 -0.23397431446E+02 -0.35210156704E+02  0.56800587739E+02  0.51100000000E-03 0.  1.
         23    2    1    0    0    0 -0.22295230960E+02  0.74832761513E+01 -0.17514879454E+02  0.95676839396E+02  0.91072552666E+02 0.  0.
         11    1    3    3    0    0  0.15640396541E+02  0.30880707598E+02  0.17695277250E+02  0.38876251657E+02  0.51100000000E-03 0. -1.
         22    1    1    0    0    0  0.22295230960E+02 -0.74832761513E+01  0.17514879454E+02  0.29323160604E+02  0.00000000000E+00 0.  1.
</event>
<event>
 5    1  0.1692178E-003  0.9118800E+02  0.7818608E-02  0.1130116E+00
         25   -1    0    0    0    0  0.00000000000E+00  0.00000000000E+00  0.99999998245E-14  0.12500000000E+03  0.12500000000E+03 0.  0.
        -11    1    3    3    0    0  0.53881902591E+01 -0.36471034879E+02  0.17218178289E+02  0.40689490576E+02  0.51100000000E-03 0. -1.
         23    2    1    0    0    0 -0.18416510363E+02 -0.32435901197E+01 -0.21162588612E+02  0.96759180473E+02  0.92546178301E+02 0.  0.
         11    1    3    3    0    0 -0.23804700622E+02  0.33227444760E+02 -0.38380766901E+02  0.56069689897E+02  0.51100000000E-03 0.  1.
         22    1    1    0    0    0  0.18416510363E+02  0.32435901197E+01  0.21162588612E+02  0.28240819527E+02  0.00000000000E+00 0. -1.
</event>
<event>
 5    1  0.1692178E-003  0.9118800E+02  0.7818608E-02  0.1130116E+00
         25   -1    0    0    0    0  0.00000000000E+00  0.00000000000E+00  0.99999998245E-14  0.12500000000E+03  0.12500000000E+03 0.  0.
        -11    1    3    3    0    0  0.31852556472E+02 -0.28398041911E+02 -0.30179105562E-01  0.42673587255E+02  0.51100000000E-03 0. -1.
         23    2    1    0    0    0 -0.53030096740E-01  0.11179933486E+02 -0.23733646877E+02  0.98764914351E+02  0.95216745312E+02 0.  0.
         11    1    3    3    0    0 -0.31905586568E+02  0.39577975397E+02 -0.23703467771E+02  0.56091327096E+02  0.51100000000E-03 0.  1.
         22    1    1    0    0    0  0.53030096740E-01 -0.11179933486E+02  0.23733646877E+02  0.26235085649E+02  0.00000000000E+00 0.  1.
</event>
<event>
 5    1  0.1692178E-003  0.9118800E+02  0.7818608E-02  0.1130116E+00
         25   -1    0    0    0    0  0.00000000000E+00  0.00000000000E+00  0.99999998245E-14  0.12500000000E+03  0.12500000000E+03 0.  0.
        -11    1    3    3    0    0 -0.42592755582E+02 -0.21329556904E+02  0.10039565228E+02  0.48681471794E+02  0.51100000000E-03 0. -1.
         23    2    1    0    0    0 -0.16694478177E+02 -0.25203806821E+01 -0.24161509890E+02  0.95523967694E+02  0.90862489089E+02 0.  0.
         11    1    3    3    0    0  0.25898277405E+02  0.18809176222E+02 -0.34201075118E+02  0.46842495900E+02  0.51100000000E-03 0.  1.
         22    1    1    0    0    0  0.16694478177E+02  0.25203806821E+01  0.24161509890E+02  0.29476032306E+02  0.00000000000E+00 0. -1.
</event>
<event>
 5    1  0.1692178E-003  0.9118800E+02  0.7818608E-02  0.1130116E+00
         25   -1    0    0    0    0  0.00000000000E+00  0.00000000000E+00  0.99999998245E-14  0.12500000000E+03  0.12500000000E+03 0.  0.
        -11    1    3    3    0    0 -0.27948416368E+02 -0.11734672557E+02  0.46536440799E+01  0.30667130955E+02  0.51100000000E-03 0.  1.
         23    2    1    0    0    0  0.23899135156E+02  0.86522589261E+01  0.24392062095E+02  0.89772128378E+02  0.82571375758E+02 0.  0.
         11    1    3    3    0    0  0.51847551525E+02  0.20386931483E+02  0.19738418015E+02  0.59104997423E+02  0.51100000000E-03 0. -1.
         22    1    1    0    0    0 -0.23899135156E+02 -0.86522589261E+01 -0.24392062095E+02  0.35227871622E+02  0.00000000000E+00 0. -1.
</event>
<event>
 5    1  0.1692178E-003  0.9118800E+02  0.7818608E-02  0.1130116E+00
         25   -1    0    0    0    0  0.00000000000E+00  0.00000000000E+00  0.99999998245E-14  0.12500000000E+03  0.12500000000E+03 0.  0.
        -11    1    3    3    0    0 -0.27201623652E+02 -0.17784630791E+02  0.26678575905E+02  0.42047209589E+02  0.51100000000E-03 0.  1.
         23    2    1    0    0    0  0.23497235555E+02 -0.61736433770E+01  0.17967390175E+02  0.94783099746E+02  0.89837491820E+02 0.  0.
         11    1    3    3    0    0  0.50698859207E+02  0.11610987414E+02 -0.87111857300E+01  0.52735890157E+02  0.51100000000E-03 0. -1.
         22    1    1    0    0    0 -0.23497235555E+02  0.61736433770E+01 -0.17967390175E+02  0.30216900254E+02  0.00000000000E+00 0. -1.
</event>
<event>
 5    1  0.1692178E-003  0.9118800E+02  0.7818608E-02  0.1130116E+00
         25   -1    0    0    0    0  0.00000000000E+00  0.00000000000E+00  0.99999998245E-14  0.12500000000E+03  0.12500000000E+03 0.  0.
        -11    1    3    3    0    0 -0.32380392803E+02 -0.15767781064E+02  0.25561537858E+02  0.44164521685E+02  0.51100000000E-03 0.  1.
         23    2    1    0    0    0 -0.15659387652E+02  0.25271729667E+02  0.10746147990E+00  0.95269741172E+02  0.90512072637E+02 0.  0.
         11    1    3    3    0    0  0.16721005152E+02  0.41039510731E+02 -0.25454076378E+02  0.51105219487E+02  0.51100000000E-03 0. -1.
         22    1    1    0    0    0  0.15659387652E+02 -0.25271729667E+02 -0.10746147990E+00  0.29730258828E+02  0.00000000000E+00 0. -1.
</event>
<event>
 5    1  0.1692178E-003  0.9118800E+02  0.7818608E-02  0.1130116E+00
         25   -1    0    0    0    0  0.00000000000E+00  0.00000000000E+00  0.99999998245E-14  0.12500000000E+03  0.12500000000E+03 0.  0.
        -11    1    3    3    0    0  0.26461561927E+02 -0.38041286456E+02  0.13491285574E+02  0.48263532005E+02  0.51100000000E-03 0. -1.
         23    2    1    0    0    0 -0.38477995918E+01 -0.22412594260E+02 -0.19000920323E+02  0.95366152524E+02  0.90645121937E+02 0.  0.
         11    1    3    3    0    0 -0.30309361519E+02  0.15628692196E+02 -0.32492205896E+02  0.47102620519E+02  0.51100000000E-03 0.  1.
         22    1    1    0    0    0  0.38477995918E+01  0.22412594260E+02  0.19000920323E+02  0.29633847476E+02  0.00000000000E+00 0.  1.
</event>
<event>
 5    1  0.1692178E-003  0.9118800E+02  0.7818608E-02  0.1130116E+00
         25   -1    0    0    0    0  0.00000000000E+00  0.00000000000E+00  0.99999998245E-14  0.12500000000E+03  0.12500000000E+03 0.  0.
        -11    1    3    3    0    0 -0.65343227156E+01  0.13478286029E+02  0.35555987546E+02  0.38582247450E+02  0.51100000000E-03 0. -1.
         23    2    1    0    0    0 -0.19604386526E+02  0.94497721200E+01 -0.19784758754E+02  0.95587981315E+02  0.90950510328E+02 0.  0.
         11    1    3    3    0    0 -0.13070063810E+02 -0.40285139086E+01 -0.55340746300E+02  0.57005733866E+02  0.51100000000E-03 0.  1.
         22    1    1    0    0    0  0.19604386526E+02 -0.94497721200E+01  0.19784758754E+02  0.29412018685E+02  0.00000000000E+00 0.  1.
</event>
<event>
 5    1  0.1692178E-003  0.9118800E+02  0.7818608E-02  0.1130116E+00
         25   -1    0    0    0    0  0.00000000000E+00  0.00000000000E+00  0.99999998245E-14  0.12500000000E+03  0.12500000000E+03 0.  0.
        -11    1    3    3    0    0 -0.17451534491E+02  0.49638338311E+02  0.27322096191E+02  0.59287584087E+02  0.51100000000E-03 0.  1.
         23    2    1    0    0    0 -0.68009270270E+01  0.13424728000E+02  0.23319007932E+02  0.97246584692E+02  0.93202179014E+02 0.  0.
         11    1    3    3    0    0  0.10650607464E+02 -0.36213610310E+02 -0.40030882591E+01  0.37959000605E+02  0.51100000000E-03 0. -1.
         22    1    1    0    0    0  0.68009270270E+01 -0.13424728000E+02 -0.23319007932E+02  0.27753415308E+02  0.00000000000E+00 0.  1.
</event>
<event>
 5    1  0.1692178E-003  0.9118800E+02  0.7818608E-02  0.1130116E+00
         25   -1    0    0    0    0  0.00000000000E+00  0.00000000000E+00  0.99999998245E-14  0.12500000000E+03  0.12500000000E+03 0.  0.
        -11    1    3    3    0    0  0.64272502545E+01  0.25942366649E+01 -0.42029240969E+02  0.42596909587E+02  0.51100000000E-03 0.  1.
         23    2    1    0    0    0  0.26002546938E+02 -0.13018315515E+02  0.46342047307E+01  0.95553695655E+02  0.90903376800E+02 0.  0.
         11    1    3    3    0    0  0.19575296683E+02 -0.15612552180E+02  0.46663445699E+02  0.52956786068E+02  0.51100000000E-03 0. -1.
         22    1    1    0    0    0 -0.26002546938E+02  0.13018315515E+02 -0.46342047307E+01  0.29446304345E+02  0.00000000000E+00 0. -1.
</event>
<event>
 5    1  0.1692178E-003  0.9118800E+02  0.7818608E-02  0.1130116E+00
         25   -1    0    0    0    0  0.00000000000E+00  0.00000000000E+00  0.99999998245E-14  0.12500000000E+03  0.12500000000E+03 0.  0.
        -11    1    3    3    0    0  0.18223798300E+02 -0.51914619308E+01  0.31131496671E+02  0.36444865025E+02  0.51100000000E-03 0.  1.
         23    2    1    0    0    0 -0.31894895787E+02 -0.36382220071E+01  0.17639871577E+02  0.88370966354E+02  0.80422270476E+02 0.  0.
         11    1    3    3    0    0 -0.50118694087E+02  0.15532399237E+01 -0.13491625095E+02  0.51926101328E+02  0.51100000000E-03 0. -1.
         22    1    1    0    0    0  0.31894895787E+02  0.36382220071E+01 -0.17639871577E+02  0.36629033646E+02  0.00000000000E+00 0.  1.
</event>
<event>
 5    1  0.1692178E-003  0.9118800E+02  0.7818608E-02  0.1130116E+00
         25   -1    0    0    0    0  0.00000000000E+00  0.00000000000E+00  0.99999998245E-14  0.12500000000E+03  0.12500000000E+03 0.  0.
        -11    1    3    3    0    0 -0.16191894167E+02 -0.43913383258E+02 -0.10658233026E+02  0.48001672861E+02  0.51100000000E-03 0.  1.
         23    2    1    0    0    0  0.18684653104E+02 -0.31841873642E+02 -0.14974147045E+02  0.85159740733E+02  0.75265763687E+02 0.  0.
         11    1    3    3    0    0  0.34876547271E+02  0.12071509616E+02 -0.43159140189E+01  0.37158067873E+02  0.51100000000E-03 0. -1.
         22    1    1    0    0    0 -0.18684653104E+02  0.31841873642E+02  0.14974147045E+02  0.39840259267E+02  0.00000000000E+00 0.  1.
</event>
<event>
 5    1  0.1692178E-003  0.9118800E+02  0.7818608E-02  0.1130116E+00
         25   -1    0    0    0    0  0.00000000000E+00  0.00000000000E+00  0.99999998245E-14  0.12500000000E+03  0.12500000000E+03 0.  0.
        -11    1    3    3    0    0 -0.25920775434E+01 -0.99137592367E+01  0.38277274507E+02  0.39625133843E+02  0.51100000000E-03 0.  1.
         23    2    1    0    0    0  0.32509546434E+02  0.63606103405E+01  0.34272394930E+01  0.91697238196E+02  0.85435996798E+02 0.  0.
         11    1    3    3    0    0  0.35101623977E+02  0.16274369577E+02 -0.34850035014E+02  0.52072104352E+02  0.51100000000E-03 0. -1.
         22    1    1    0    0    0 -0.32509546434E+02 -0.63606103405E+01 -0.34272394930E+01  0.33302761804E+02  0.00000000000E+00 0. -1.
</event>
<event>
 5    1  0.1692178E-003  0.9118800E+02  0.7818608E-02  0.1130116E+00
         25   -1    0    0    0    0  0.00000000000E+00  0.00000000000E+00  0.99999998245E-14  0.12500000000E+03  0.12500000000E+03 0.  0.
        -11    1    3    3    0    0  0.50988111152E+02 -0.31357417294E+02  0.31557511961E+01  0.59941920757E+02  0.51100000000E-03 0. -1.
         23    2    1    0    0    0  0.25481477084E+02 -0.10512859999E+02 -0.10366786390E+02  0.95550107644E+02  0.90898442841E+02 0.  0.
         11    1    3    3    0    0 -0.25506634068E+02  0.20844557295E+02 -0.13522537586E+02  0.35608186886E+02  0.51100000000E-03 0.  1.
         22    1    1    0    0    0 -0.25481477084E+02  0.10512859999E+02  0.10366786390E+02  0.29449892356E+02  0.00000000000E+00 0. -1.
</event>
<event>
 5    1  0.1692178E-003  0.9118800E+02  0.7818608E-02  0.1130116E+00
         25   -1    0    0    0    0  0.00000000000E+00  0.00000000000E+00  0.99999998245E-14  0.12500000000E+03  0.12500000000E+03 0.  0.
        -11    1    3    3    0    0  0.23176565272E+02 -0.10475738864E+02  0.41551934106E+02  0.48718143548E+02  0.51100000000E-03 0. -1.
         23    2    1    0    0    0 -0.69079687230E+01  0.65694548419E+01  0.40586126849E+02  0.83309336040E+02  0.72127207142E+02 0.  0.
         11    1    3    3    0    0 -0.30084533995E+02  0.17045193706E+02 -0.96580725719E+00  0.34591192492E+02  0.51100000000E-03 0.  1.
         22    1    1    0    0    0  0.69079687230E+01 -0.65694548419E+01 -0.40586126849E+02  0.41690663960E+02  0.00000000000E+00 0. -1.
</event>
<event>
 5    1  0.1692178E-003  0.9118800E+02  0.7818608E-02  0.1130116E+00
         25   -1    0    0    0    0  0.00000000000E+00  0.00000000000E+00  0.99999998245E-14  0.12500000000E+03  0.12500000000E+03 0.  0.
        -11    1    3    3    0    0  0.12856952982E+01 -0.48902360300E+02  0.38282432473E+02  0.62117940176E+02  0.51100000000E-03 0. -1.
         23    2    1    0    0    0  0.42274697476E+01 -0.22457088114E+02  0.21800703591E+02  0.93417362617E+02  0.87916668807E+02 0.  0.
         11    1    3    3    0    0  0.29417744494E+01  0.26445272186E+02 -0.16481728882E+02  0.31299422441E+02  0.51100000000E-03 0.  1.
         22    1    1    0    0    0 -0.42274697476E+01  0.22457088114E+02 -0.21800703591E+02  0.31582637383E+02  0.00000000000E+00 0. -1.
</event>
<event>
 5    1  0.1692178E-003  0.9118800E+02  0.7818608E-02  0.1130116E+00
         25   -1    0    0    0    0  0.00000000000E+00  0.00000000000E+00  0.99999998245E-14  0.12500000000E+03  0.12500000000E+03 0.  0.
        -11    1    3    3    0    0  0.16717763137E+02  0.36379927467E+02  0.17885064310E+01  0.40077194042E+02  0.51100000000E-03 0.  1.
         23    2    1    0    0    0 -0.22563931134E+02 -0.32921151768E-01 -0.16902572884E+02  0.96807287428E+02  0.92611132468E+02 0.  0.
         11    1    3    3    0    0 -0.39281694271E+02 -0.36412848619E+02 -0.18691079316E+02  0.56730093386E+02  0.51100000000E-03 0. -1.
         22    1    1    0    0    0  0.22563931134E+02  0.32921151768E-01  0.16902572884E+02  0.28192712572E+02  0.00000000000E+00 0. -1.
</event>
<event>
 5    1  0.1692178E-003  0.9118800E+02  0.7818608E-02  0.1130116E+00
         25   -1    0    0    0    0  0.00000000000E+00  0.00000000000E+00  0.99999998245E-14  0.12500000000E+03  0.12500000000E+03 0.  0.
        -11    1    3    3    0    0  0.24343719855E+02  0.55457903909E+01  0.23560427096E+02  0.34328795677E+02  0.51100000000E-03 0.  1.
         23    2    1    0    0    0 -0.69061502104E+01 -0.14417327427E+01 -0.28604704726E+02  0.95538115530E+02  0.90881950257E+02 0.  0.
         11    1    3    3    0    0 -0.31249870065E+02 -0.69875231336E+01 -0.52165131822E+02  0.61209319853E+02  0.51100000000E-03 0. -1.
         22    1    1    0    0    0  0.69061502104E+01  0.14417327427E+01  0.28604704726E+02  0.29461884470E+02  0.00000000000E+00 0. -1.
</event>
<event>
 5    1  0.1692178E-003  0.9118800E+02  0.7818608E-02  0.1130116E+00
         25   -1    0    0    0    0  0.00000000000E+00  0.00000000000E+00  0.99999998245E-14  0.12500000000E+03  0.12500000000E+03 0.  0.
        -11    1    3    3    0    0 -0.45840828217E+02  0.19018921136E+02  0.26479162260E+02  0.56251639328E+02  0.51100000000E-03 0.  1.
         23    2    1    0    0    0 -0.26373760949E+02 -0.91529418171E+01  0.50998332670E+01  0.96621136213E+02  0.92359536883E+02 0.  0.
         11    1    3    3    0    0  0.19467067268E+02 -0.28171862954E+02 -0.21379328993E+02  0.40369496885E+02  0.51100000000E-03 0. -1.
         22    1    1    0    0    0  0.26373760949E+02  0.91529418171E+01 -0.50998332670E+01  0.28378863787E+02  0.00000000000E+00 0.  1.
</event>
<event>
 5    1  0.1692178E-003  0.9118800E+02  0.7818608E-02  0.1130116E+00
         25   -1    0    0    0    0  0.00000000000E+00  0.00000000000E+00  0.99999998245E-14  0.12500000000E+03  0.12500000000E+03 0.  0.
        -11    1    3    3    0    0  0.67861577113E+01 -0.30049600479E+02  0.27686990421E+02  0.41419800389E+02  0.51100000000E-03 0.  1.
         23    2    1    0    0    0  0.27367548697E+02  0.71666692953E+01 -0.64849713235E+01  0.95975894096E+02  0.91482094008E+02 0.  0.
         11    1    3    3    0    0  0.20581390985E+02  0.37216269775E+02 -0.34171961745E+02  0.54556093707E+02  0.51100000000E-03 0. -1.
         22    1    1    0    0    0 -0.27367548697E+02 -0.71666692953E+01  0.64849713235E+01  0.29024105904E+02  0.00000000000E+00 0. -1.
</event>
<event>
 5    1  0.1692178E-003  0.9118800E+02  0.7818608E-02  0.1130116E+00
         25   -1    0    0    0    0  0.00000000000E+00  0.00000000000E+00  0.99999998245E-14  0.12500000000E+03  0.12500000000E+03 0.  0.
        -11    1    3    3    0    0 -0.96084595932E+01  0.39380266636E+02 -0.37611822885E+01  0.40709635083E+02  0.51100000000E-03 0.  1.
         23    2    1    0    0    0 -0.61016524876E+01 -0.38070521380E+01  0.29057932636E+02  0.95065283397E+02  0.90229268252E+02 0.  0.
         11    1    3    3    0    0  0.35068071056E+01 -0.43187318774E+02  0.32819114924E+02  0.54355648314E+02  0.51100000000E-03 0. -1.
         22    1    1    0    0    0  0.61016524876E+01  0.38070521380E+01 -0.29057932636E+02  0.29934716603E+02  0.00000000000E+00 0. -1.
</event>
<event>
 5    1  0.1692178E-003  0.9118800E+02  0.7818608E-02  0.1130116E+00
         25   -1    0    0    0    0  0.00000000000E+00  0.00000000000E+00  0.99999998245E-14  0.12500000000E+03  0.12500000000E+03 0.  0.
        -11    1    3    3    0    0 -0.61034293665E+01 -0.33019084863E+02  0.20165629035E+02  0.39168410867E+02  0.51100000000E-03 0.  1.
         23    2    1    0    0    0 -0.95454120298E+01 -0.42355957339E+01 -0.27850164592E+02  0.95256314455E+02  0.90493528021E+02 0.  0.
         11    1    3    3    0    0 -0.34419826633E+01  0.28783489129E+02 -0.48015793626E+02  0.56087903588E+02  0.51100000000E-03 0. -1.
         22    1    1    0    0    0  0.95454120298E+01  0.42355957339E+01  0.27850164592E+02  0.29743685545E+02  0.00000000000E+00 0. -1.
</event>
<event>
 5    1  0.1692178E-003  0.9118800E+02  0.7818608E-02  0.1130116E+00
         25   -1    0    0    0    0  0.00000000000E+00  0.00000000000E+00  0.99999998245E-14  0.12500000000E+03  0.12500000000E+03 0.  0.
        -11    1    3    3    0    0 -0.26163689727E+02 -0.46791850664E+02  0.24190548914E+02  0.58814952229E+02  0.51100000000E-03 0. -1.
         23    2    1    0    0    0 -0.28562137015E+01 -0.35577702586E+02  0.15322013628E+02  0.86158077035E+02  0.76905911728E+02 0.  0.
         11    1    3    3    0    0  0.23307476025E+02  0.11214148078E+02 -0.88685352853E+01  0.27343124806E+02  0.51100000000E-03 0.  1.
         22    1    1    0    0    0  0.28562137015E+01  0.35577702586E+02 -0.15322013628E+02  0.38841922965E+02  0.00000000000E+00 0. -1.
</event>
<event>
 5    1  0.1692178E-003  0.9118800E+02  0.7818608E-02  0.1130116E+00
         25   -1    0    0    0    0  0.00000000000E+00  0.00000000000E+00  0.99999998245E-14  0.12500000000E+03  0.12500000000E+03 0.  0.
        -11    1    3    3    0    0  0.22996453848E+02  0.14497496155E+02 -0.10443715860E+02  0.29121907313E+02  0.51100000000E-03 0.  1.
         23    2    1    0    0    0 -0.25266125581E+02 -0.19093135150E+02  0.10643750695E+02  0.91590205918E+02  0.85279255857E+02 0.  0.
         11    1    3    3    0    0 -0.48262579429E+02 -0.33590631304E+02  0.21087466556E+02  0.62468298605E+02  0.51100000000E-03 0. -1.
         22    1    1    0    0    0  0.25266125581E+02  0.19093135150E+02 -0.10643750695E+02  0.33409794082E+02  0.00000000000E+00 0. -1.
</event>
<event>
 5    1  0.1692178E-003  0.9118800E+02  0.7818608E-02  0.1130116E+00
         25   -1    0    0    0    0  0.00000000000E+00  0.00000000000E+00  0.99999998245E-14  0.12500000000E+03  0.12500000000E+03 0.  0.
        -11    1    3    3    0    0  0.16043171986E+02 -0.98632639670E+01 -0.33284764612E+02  0.38243207227E+02  0.51100000000E-03 0.  1.
         23    2    1    0    0    0 -0.33807637953E+01  0.29070023854E+02  0.38968656137E+01  0.95475748742E+02  0.90796129794E+02 0.  0.
         11    1    3    3    0    0 -0.19423935781E+02  0.38933287821E+02  0.37181630226E+02  0.57232541515E+02  0.51100000000E-03 0. -1.
         22    1    1    0    0    0  0.33807637953E+01 -0.29070023854E+02 -0.38968656137E+01  0.29524251258E+02  0.00000000000E+00 0. -1.
</event>
<event>
 5    1  0.1692178E-003  0.9118800E+02  0.7818608E-02  0.1130116E+00
         25   -1    0    0    0    0  0.00000000000E+00  0.00000000000E+00  0.99999998245E-14  0.12500000000E+03  0.12500000000E+03 0.  0.
        -11    1    3    3    0    0  0.42253101618E+02 -0.12620973760E+02 -0.17182461807E+02  0.47327059586E+02  0.51100000000E-03 0.  1.
         23    2    1    0    0    0  0.18473162598E+02 -0.46308401715E+01  0.23272106982E+02  0.94928528794E+02  0.90039614607E+02 0.  0.
         11    1    3    3    0    0 -0.23779939020E+02  0.79901335886E+01  0.40454568790E+02  0.47601469208E+02  0.51100000000E-03 0. -1.
         22    1    1    0    0    0 -0.18473162598E+02  0.46308401715E+01 -0.23272106982E+02  0.30071471206E+02  0.00000000000E+00 0. -1.
</event>
<event>
 5    1  0.1692178E-003  0.9118800E+02  0.7818608E-02  0.1130116E+00
         25   -1    0    0    0    0  0.00000000000E+00  0.00000000000E+00  0.99999998245E-14  0.12500000000E+03  0.12500000000E+03 0.  0.
        -11    1    3    3    0    0 -0.30223413370E+02  0.12036406433E+02 -0.21733781495E+02  0.39123995884E+02  0.51100000000E-03 0.  1.
         23    2    1    0    0    0  0.22361404648E+02 -0.70519296032E+01 -0.18453394624E+02  0.95162273845E+02  0.90363535020E+02 0.  0.
         11    1    3    3    0    0  0.52584818018E+02 -0.19088336036E+02  0.32803868719E+01  0.56038277962E+02  0.51100000000E-03 0. -1.
         22    1    1    0    0    0 -0.22361404648E+02  0.70519296032E+01  0.18453394624E+02  0.29837726155E+02  0.00000000000E+00 0. -1.
</event>
<event>
 5    1  0.1692178E-003  0.9118800E+02  0.7818608E-02  0.1130116E+00
         25   -1    0    0    0    0  0.00000000000E+00  0.00000000000E+00  0.99999998245E-14  0.12500000000E+03  0.12500000000E+03 0.  0.
        -11    1    3    3    0    0  0.21633944070E+02 -0.23453410287E+02  0.14046327999E+02  0.34862434233E+02  0.51100000000E-03 0.  1.
         23    2    1    0    0    0 -0.76316425601E+00  0.25783210293E+02 -0.13848703271E+02  0.95722996482E+02  0.91135882728E+02 0.  0.
         11    1    3    3    0    0 -0.22397108326E+02  0.49236620580E+02 -0.27895031270E+02  0.60860562250E+02  0.51100000000E-03 0. -1.
         22    1    1    0    0    0  0.76316425601E+00 -0.25783210293E+02  0.13848703271E+02  0.29277003518E+02  0.00000000000E+00 0. -1.
</event>
<event>
 5    1  0.1692178E-003  0.9118800E+02  0.7818608E-02  0.1130116E+00
         25   -1    0    0    0    0  0.00000000000E+00  0.00000000000E+00  0.99999998245E-14  0.12500000000E+03  0.12500000000E+03 0.  0.
        -11    1    3    3    0    0 -0.49485288720E+02  0.31442492122E+01 -0.34126732052E+02  0.60193969329E+02  0.51100000000E-03 0.  1.
         23    2    1    0    0    0 -0.42829237945E+02 -0.20859245871E+00 -0.16913044110E+02  0.78951784021E+02  0.64132254016E+02 0.  0.
         11    1    3    3    0    0  0.66560507746E+01 -0.33528416710E+01  0.17213687942E+02  0.18757814692E+02  0.51100000000E-03 0. -1.
         22    1    1    0    0    0  0.42829237945E+02  0.20859245871E+00  0.16913044110E+02  0.46048215979E+02  0.00000000000E+00 0.  1.
</event>
<event>
 5    1  0.1692178E-003  0.9118800E+02  0.7818608E-02  0.1130116E+00
         25   -1    0    0    0    0  0.00000000000E+00  0.00000000000E+00  0.99999998245E-14  0.12500000000E+03  0.12500000000E+03 0.  0.
        -11    1    3    3    0    0 -0.32759426506E+02  0.36598199292E+02  0.21798626439E+02  0.53738145961E+02  0.51100000000E-03 0.  1.
         23    2    1    0    0    0 -0.10078332308E+02  0.11694744995E+01  0.27029459483E+02  0.96129043440E+02  0.91691116582E+02 0.  0.
         11    1    3    3    0    0  0.22681094199E+02 -0.35428724793E+02  0.52308330438E+01  0.42390897479E+02  0.51100000000E-03 0. -1.
         22    1    1    0    0    0  0.10078332308E+02 -0.11694744995E+01 -0.27029459483E+02  0.28870956560E+02  0.00000000000E+00 0.  1.
</event>
<event>
 5    1  0.1692178E-003  0.9118800E+02  0.7818608E-02  0.1130116E+00
         25   -1    0    0    0    0  0.00000000000E+00  0.00000000000E+00  0.99999998245E-14  0.12500000000E+03  0.12500000000E+03 0.  0.
        -11    1    3    3    0    0 -0.21015965562E+02  0.24871415178E+02  0.75164384098E+01  0.33417883657E+02  0.51100000000E-03 0.  1.
         23    2    1    0    0    0  0.11153704710E+02 -0.24254426901E+02 -0.12586842668E+02  0.95485411041E+02  0.90809431010E+02 0.  0.
         11    1    3    3    0    0  0.32169670272E+02 -0.49125842079E+02 -0.20103281078E+02  0.62067527385E+02  0.51100000000E-03 0. -1.
         22    1    1    0    0    0 -0.11153704710E+02  0.24254426901E+02  0.12586842668E+02  0.29514588959E+02  0.00000000000E+00 0. -1.
</event>
<event>
 5    1  0.1692178E-003  0.9118800E+02  0.7818608E-02  0.1130116E+00
         25   -1    0    0    0    0  0.00000000000E+00  0.00000000000E+00  0.99999998245E-14  0.12500000000E+03  0.12500000000E+03 0.  0.
        -11    1    3    3    0    0 -0.29781213771E+02  0.91724385581E+01 -0.43088085805E+02  0.53175534425E+02  0.51100000000E-03 0.  1.
         23    2    1    0    0    0  0.91683724755E+01  0.12597745031E+02 -0.23228526613E+02  0.97029896633E+02  0.92911108907E+02 0.  0.
         11    1    3    3    0    0  0.38949586246E+02  0.34253064734E+01  0.19859559192E+02  0.43854362209E+02  0.51100000000E-03 0. -1.
         22    1    1    0    0    0 -0.91683724755E+01 -0.12597745031E+02  0.23228526613E+02  0.27970103367E+02  0.00000000000E+00 0.  1.
</event>
<event>
 5    1  0.1692178E-003  0.9118800E+02  0.7818608E-02  0.1130116E+00
         25   -1    0    0    0    0  0.00000000000E+00  0.00000000000E+00  0.99999998245E-14  0.12500000000E+03  0.12500000000E+03 0.  0.
        -11    1    3    3    0    0 -0.34941687940E+02 -0.21749018586E+02 -0.73654257786E+01  0.41811372408E+02  0.51100000000E-03 0.  1.
         23    2    1    0    0    0  0.15702800790E+02 -0.10581033753E+02 -0.22266620262E+02  0.95770928756E+02  0.91201601899E+02 0.  0.
         11    1    3    3    0    0  0.50644488729E+02  0.11167984833E+02 -0.14901194483E+02  0.53959556347E+02  0.51100000000E-03 0. -1.
         22    1    1    0    0    0 -0.15702800790E+02  0.10581033753E+02  0.22266620262E+02  0.29229071244E+02  0.00000000000E+00 0. -1.
</event>
<event>
 5    1  0.1692178E-003  0.9118800E+02  0.7818608E-02  0.1130116E+00
         25   -1    0    0    0    0  0.00000000000E+00  0.00000000000E+00  0.99999998245E-14  0.12500000000E+03  0.12500000000E+03 0.  0.
        -11    1    3    3    0    0  0.32508103925E+02 -0.13660412878E+02 -0.41576883301E+01  0.35505916032E+02  0.51100000000E-03 0.  1.
         23    2    1    0    0    0 -0.26358071114E+02 -0.15183966308E+02 -0.33498951932E+01  0.94397344176E+02  0.89299137980E+02 0.  0.
         11    1    3    3    0    0 -0.58866175039E+02 -0.15235534299E+01  0.80779313695E+00  0.58891428144E+02  0.51100000000E-03 0. -1.
         22    1    1    0    0    0  0.26358071114E+02  0.15183966308E+02  0.33498951932E+01  0.30602655824E+02  0.00000000000E+00 0. -1.
</event>
<event>
 5    1  0.1692178E-003  0.9118800E+02  0.7818608E-02  0.1130116E+00
         25   -1    0    0    0    0  0.00000000000E+00  0.00000000000E+00  0.99999998245E-14  0.12500000000E+03  0.12500000000E+03 0.  0.
        -11    1    3    3    0    0  0.10094377194E+02  0.20137231304E+02 -0.47240900118E+02  0.52336480392E+02  0.51100000000E-03 0.  1.
         23    2    1    0    0    0 -0.42792044619E+01  0.29733973126E+02 -0.10090459235E+02  0.93310283746E+02  0.87764291922E+02 0.  0.
         11    1    3    3    0    0 -0.14373581656E+02  0.95967418214E+01  0.37150440884E+02  0.40973803354E+02  0.51100000000E-03 0. -1.
         22    1    1    0    0    0  0.42792044619E+01 -0.29733973126E+02  0.10090459235E+02  0.31689716254E+02  0.00000000000E+00 0.  1.
</event>
<event>
 5    1  0.1692178E-003  0.9118800E+02  0.7818608E-02  0.1130116E+00
         25   -1    0    0    0    0  0.00000000000E+00  0.00000000000E+00  0.99999998245E-14  0.12500000000E+03  0.12500000000E+03 0.  0.
        -11    1    3    3    0    0  0.19163498816E+00  0.17542375200E+00 -0.37071080675E+02  0.37071991046E+02  0.51100000000E-03 0. -1.
         23    2    1    0    0    0  0.18839087707E+02 -0.29060921994E+01  0.20107389329E+02  0.97293255278E+02  0.93264751216E+02 0.  0.
         11    1    3    3    0    0  0.18647452719E+02 -0.30815159514E+01  0.57178470003E+02  0.60221264232E+02  0.51100000000E-03 0.  1.
         22    1    1    0    0    0 -0.18839087707E+02  0.29060921994E+01 -0.20107389329E+02  0.27706744722E+02  0.00000000000E+00 0.  1.
</event>
<event>
 5    1  0.1692178E-003  0.9118800E+02  0.7818608E-02  0.1130116E+00
         25   -1    0    0    0    0  0.00000000000E+00  0.00000000000E+00  0.99999998245E-14  0.12500000000E+03  0.12500000000E+03 0.  0.
        -11    1    3    3    0    0 -0.24282770772E+02 -0.34842697564E+02 -0.32039016597E+02  0.53199296186E+02  0.51100000000E-03 0. -1.
         23    2    1    0    0    0 -0.29195322625E+02 -0.12912471141E+02  0.88747300930E+00  0.93064339955E+02  0.87413299839E+02 0.  0.
         11    1    3    3    0    0 -0.49125518527E+01  0.21930226422E+02  0.32926489607E+02  0.39865043769E+02  0.51100000000E-03 0.  1.
         22    1    1    0    0    0  0.29195322625E+02  0.12912471141E+02 -0.88747300930E+00  0.31935660045E+02  0.00000000000E+00 0. -1.
</event>
<event>
 5    1  0.1692178E-003  0.9118800E+02  0.7818608E-02  0.1130116E+00
         25   -1    0    0    0    0  0.00000000000E+00  0.00000000000E+00  0.99999998245E-14  0.12500000000E+03  0.12500000000E+03 0.  0.
        -11    1    3    3    0    0  0.34992313831E+02 -0.38786772552E+02  0.21421557800E+02  0.56460241685E+02  0.51100000000E-03 0.  1.
         23    2    1    0    0    0  0.17586222375E+02 -0.20655687388E+02 -0.94534322327E+01  0.96271964566E+02  0.91885750481E+02 0.  0.
         11    1    3    3    0    0 -0.17406091456E+02  0.18131085164E+02 -0.30874990033E+02  0.39811722881E+02  0.51100000000E-03 0. -1.
         22    1    1    0    0    0 -0.17586222375E+02  0.20655687388E+02  0.94534322327E+01  0.28728035434E+02  0.00000000000E+00 0.  1.
</event>
<event>
 5    1  0.1692178E-003  0.9118800E+02  0.7818608E-02  0.1130116E+00
         25   -1    0    0    0    0  0.00000000000E+00  0.00000000000E+00  0.99999998245E-14  0.12500000000E+03  0.12500000000E+03 0.  0.
        -11    1    3    3    0    0  0.64422252157E+01  0.41804326463E+02 -0.19892049150E+02  0.46741818497E+02  0.51100000000E-03 0. -1.
         23    2    1    0    0    0  0.25017117266E+02  0.12458321736E+02  0.12638049672E+02  0.94327761146E+02  0.89201683204E+02 0.  0.
         11    1    3    3    0    0  0.18574892051E+02 -0.29346004727E+02  0.32530098823E+02  0.47585942649E+02  0.51100000000E-03 0.  1.
         22    1    1    0    0    0 -0.25017117266E+02 -0.12458321736E+02 -0.12638049672E+02  0.30672238854E+02  0.00000000000E+00 0.  1.
</event>
<event>
 5    1  0.1692178E-003  0.9118800E+02  0.7818608E-02  0.1130116E+00
         25   -1    0    0    0    0  0.00000000000E+00  0.00000000000E+00  0.99999998245E-14  0.12500000000E+03  0.12500000000E+03 0.  0.
        -11    1    3    3    0    0 -0.52837639619E+02 -0.25387513912E+02  0.12842802011E+02  0.60010662276E+02  0.51100000000E-03 0. -1.
         23    2    1    0    0    0 -0.18487438848E+02 -0.17970181954E+02  0.14916779326E+02  0.95213708856E+02  0.90434657151E+02 0.  0.
         11    1    3    3    0    0  0.34350200770E+02  0.74173319575E+01  0.20739773153E+01  0.35203046580E+02  0.51100000000E-03 0.  1.
         22    1    1    0    0    0  0.18487438848E+02  0.17970181954E+02 -0.14916779326E+02  0.29786291144E+02  0.00000000000E+00 0. -1.
</event>
<event>
 5    1  0.1692178E-003  0.9118800E+02  0.7818608E-02  0.1130116E+00
         25   -1    0    0    0    0  0.00000000000E+00  0.00000000000E+00  0.99999998245E-14  0.12500000000E+03  0.12500000000E+03 0.  0.
        -11    1    3    3    0    0 -0.20914280030E+02 -0.22433237057E+02 -0.23736163388E+02  0.38782247055E+02  0.51100000000E-03 0. -1.
         23    2    1    0    0    0  0.28041874638E+02  0.20088816020E+01 -0.95309114119E+01  0.95314639790E+02  0.90574057806E+02 0.  0.
         11    1    3    3    0    0  0.48956154667E+02  0.24442118659E+02  0.14205251976E+02  0.56532392734E+02  0.51100000000E-03 0.  1.
         22    1    1    0    0    0 -0.28041874638E+02 -0.20088816020E+01  0.95309114119E+01  0.29685360210E+02  0.00000000000E+00 0.  1.
</event>
<event>
 5    1  0.1692178E-003  0.9118800E+02  0.7818608E-02  0.1130116E+00
         25   -1    0    0    0    0  0.00000000000E+00  0.00000000000E+00  0.99999998245E-14  0.12500000000E+03  0.12500000000E+03 0.  0.
        -11    1    3    3    0    0  0.17874033389E+01  0.41210840595E+02  0.31992272148E+02  0.52201855050E+02  0.51100000000E-03 0. -1.
         23    2    1    0    0    0 -0.97959460642E+01  0.26544742627E+02 -0.73577750430E+01  0.95764392020E+02  0.91192642274E+02 0.  0.
         11    1    3    3    0    0 -0.11583349403E+02 -0.14666097969E+02 -0.39350047191E+02  0.43562536969E+02  0.51100000000E-03 0.  1.
         22    1    1    0    0    0  0.97959460642E+01 -0.26544742627E+02  0.73577750430E+01  0.29235607980E+02  0.00000000000E+00 0. -1.
</event>
<event>
 5    1  0.1692178E-003  0.9118800E+02  0.7818608E-02  0.1130116E+00
         25   -1    0    0    0    0  0.00000000000E+00  0.00000000000E+00  0.99999998245E-14  0.12500000000E+03  0.12500000000E+03 0.  0.
        -11    1    3    3    0    0 -0.20043843438E+02 -0.46254104557E+01  0.97643545238E+01  0.22770434805E+02  0.51100000000E-03 0. -1.
         23    2    1    0    0    0  0.24442964946E+02  0.11783756621E+02 -0.29924018210E+02  0.84604922066E+02  0.74338620626E+02 0.  0.
         11    1    3    3    0    0  0.44486808385E+02  0.16409167077E+02 -0.39688372733E+02  0.61834487262E+02  0.51100000000E-03 0.  1.
         22    1    1    0    0    0 -0.24442964946E+02 -0.11783756621E+02  0.29924018210E+02  0.40395077934E+02  0.00000000000E+00 0.  1.
</event>
<event>
 5    1  0.1692178E-003  0.9118800E+02  0.7818608E-02  0.1130116E+00
         25   -1    0    0    0    0  0.00000000000E+00  0.00000000000E+00  0.99999998245E-14  0.12500000000E+03  0.12500000000E+03 0.  0.
        -11    1    3    3    0    0  0.26960030493E+02  0.75401924282E+01 -0.38535286349E+02  0.47630515852E+02  0.51100000000E-03 0.  1.
         23    2    1    0    0    0  0.14278329233E+02 -0.24734407946E+02 -0.47437699520E+01  0.96048920997E+02  0.91581822701E+02 0.  0.
         11    1    3    3    0    0 -0.12681701260E+02 -0.32274600374E+02  0.33791516397E+02  0.48418405145E+02  0.51100000000E-03 0. -1.
         22    1    1    0    0    0 -0.14278329233E+02  0.24734407946E+02  0.47437699520E+01  0.28951079003E+02  0.00000000000E+00 0.  1.
</event>
<event>
 5    1  0.1692178E-003  0.9118800E+02  0.7818608E-02  0.1130116E+00
         25   -1    0    0    0    0  0.00000000000E+00  0.00000000000E+00  0.99999998245E-14  0.12500000000E+03  0.12500000000E+03 0.  0.
        -11    1    3    3    0    0  0.25102397259E+02  0.30177262882E+02 -0.39128813790E+02  0.55424377417E+02  0.51100000000E-03 0.  1.
         23    2    1    0    0    0  0.28065625583E+02  0.37073795473E+01 -0.98010770258E+01  0.95041944099E+02  0.90196929132E+02 0.  0.
         11    1    3    3    0    0  0.29632283245E+01 -0.26469883335E+02  0.29327736764E+02  0.39617566682E+02  0.51100000000E-03 0. -1.
         22    1    1    0    0    0 -0.28065625583E+02 -0.37073795473E+01  0.98010770258E+01  0.29958055901E+02  0.00000000000E+00 0.  1.
</event>
<event>
 5    1  0.1692178E-003  0.9118800E+02  0.7818608E-02  0.1130116E+00
         25   -1    0    0    0    0  0.00000000000E+00  0.00000000000E+00  0.99999998245E-14  0.12500000000E+03  0.12500000000E+03 0.  0.
        -11    1    3    3    0    0 -0.27096631055E+02  0.52296725273E+02 -0.48297492908E+01  0.59097388837E+02  0.51100000000E-03 0.  1.
         23    2    1    0    0    0 -0.18491195029E+02  0.18281557776E+02 -0.14143989591E+02  0.95399457947E+02  0.90691038624E+02 0.  0.
         11    1    3    3    0    0  0.86054360263E+01 -0.34015167497E+02 -0.93142402997E+01  0.36302069110E+02  0.51100000000E-03 0. -1.
         22    1    1    0    0    0  0.18491195029E+02 -0.18281557776E+02  0.14143989591E+02  0.29600542053E+02  0.00000000000E+00 0.  1.
</event>
<event>
 5    1  0.1692178E-003  0.9118800E+02  0.7818608E-02  0.1130116E+00
         25   -1    0    0    0    0  0.00000000000E+00  0.00000000000E+00  0.99999998245E-14  0.12500000000E+03  0.12500000000E+03 0.  0.
        -11    1    3    3    0    0 -0.51021454279E+02 -0.29913178673E+02  0.12312189298E+02  0.60411729495E+02  0.51100000000E-03 0.  1.
         23    2    1    0    0    0 -0.30790524357E+02 -0.64144159418E+01  0.11751953766E+02  0.91424569409E+02  0.85036123808E+02 0.  0.
         11    1    3    3    0    0  0.20230929922E+02  0.23498762731E+02 -0.56023553150E+00  0.31012839914E+02  0.51100000000E-03 0. -1.
         22    1    1    0    0    0  0.30790524357E+02  0.64144159418E+01 -0.11751953766E+02  0.33575430591E+02  0.00000000000E+00 0.  1.
</event>
<event>
 5    1  0.1692178E-003  0.9118800E+02  0.7818608E-02  0.1130116E+00
         25   -1    0    0    0    0  0.00000000000E+00  0.00000000000E+00  0.99999998245E-14  0.12500000000E+03  0.12500000000E+03 0.  0.
        -11    1    3    3    0    0 -0.31248567058E+02 -0.18564157299E+02 -0.46281799799E+01  0.36640427530E+02  0.51100000000E-03 0.  1.
         23    2    1    0    0    0  0.91889895241E+01  0.25127350550E+02  0.71038342150E+01  0.97318133468E+02  0.93298088764E+02 0.  0.
         11    1    3    3    0    0  0.40437556582E+02  0.43691507849E+02  0.11732014195E+02  0.60677705937E+02  0.51100000000E-03 0. -1.
         22    1    1    0    0    0 -0.91889895241E+01 -0.25127350550E+02 -0.71038342150E+01  0.27681866532E+02  0.00000000000E+00 0. -1.
</event>
<event>
 5    1  0.1692178E-003  0.9118800E+02  0.7818608E-02  0.1130116E+00
         25   -1    0    0    0    0  0.00000000000E+00  0.00000000000E+00  0.99999998245E-14  0.12500000000E+03  0.12500000000E+03 0.  0.
        -11    1    3    3    0    0 -0.38388973234E+02  0.34271669839E+02 -0.67452830967E+01  0.51901439901E+02  0.51100000000E-03 0.  1.
         23    2    1    0    0    0 -0.24660434035E+02 -0.65516299348E+01  0.92697505307E+01  0.97852456161E+02  0.94011244222E+02 0.  0.
         11    1    3    3    0    0  0.13728539198E+02 -0.40823299774E+02  0.16015033627E+02  0.45951016260E+02  0.51100000000E-03 0. -1.
         22    1    1    0    0    0  0.24660434035E+02  0.65516299348E+01 -0.92697505307E+01  0.27147543839E+02  0.00000000000E+00 0. -1.
</event>
<event>
 5    1  0.1692178E-003  0.9118800E+02  0.7818608E-02  0.1130116E+00
         25   -1    0    0    0    0  0.00000000000E+00  0.00000000000E+00  0.99999998245E-14  0.12500000000E+03  0.12500000000E+03 0.  0.
        -11    1    3    3    0    0  0.37884599861E+02  0.67914547031E+01 -0.28524487924E+02  0.47906295778E+02  0.51100000000E-03 0. -1.
         23    2    1    0    0    0  0.15136268230E+02 -0.26846010995E+02 -0.15141771670E+02  0.90662146666E+02  0.83907905865E+02 0.  0.
         11    1    3    3    0    0 -0.22748331631E+02 -0.33637465698E+02  0.13382716254E+02  0.42755850888E+02  0.51100000000E-03 0.  1.
         22    1    1    0    0    0 -0.15136268230E+02  0.26846010995E+02  0.15141771670E+02  0.34337853334E+02  0.00000000000E+00 0.  1.
</event>
<event>
 5    1  0.1692178E-003  0.9118800E+02  0.7818608E-02  0.1130116E+00
         25   -1    0    0    0    0  0.00000000000E+00  0.00000000000E+00  0.99999998245E-14  0.12500000000E+03  0.12500000000E+03 0.  0.
        -11    1    3    3    0    0  0.22520672789E+02 -0.54502921166E+02  0.16923266610E+01  0.58996720996E+02  0.51100000000E-03 0. -1.
         23    2    1    0    0    0  0.23802235503E+02 -0.19037383811E+02  0.14576382594E+01  0.94486181710E+02  0.89423405368E+02 0.  0.
         11    1    3    3    0    0  0.12815627140E+01  0.35465537355E+02 -0.23468840165E+00  0.35489460714E+02  0.51100000000E-03 0.  1.
         22    1    1    0    0    0 -0.23802235503E+02  0.19037383811E+02 -0.14576382594E+01  0.30513818290E+02  0.00000000000E+00 0. -1.
</event>
<event>
 5    1  0.1692178E-003  0.9118800E+02  0.7818608E-02  0.1130116E+00
         25   -1    0    0    0    0  0.00000000000E+00  0.00000000000E+00  0.99999998245E-14  0.12500000000E+03  0.12500000000E+03 0.  0.
        -11    1    3    3    0    0 -0.44249008723E+01  0.45808531724E+01 -0.41496310020E+02  0.41982230873E+02  0.51100000000E-03 0.  1.
         23    2    1    0    0    0 -0.28402087102E+02  0.93255520240E+01  0.51702893390E+01  0.94662294679E+02  0.89669245953E+02 0.  0.
         11    1    3    3    0    0 -0.23977186229E+02  0.47446988516E+01  0.46666599359E+02  0.52680063807E+02  0.51100000000E-03 0. -1.
         22    1    1    0    0    0  0.28402087102E+02 -0.93255520240E+01 -0.51702893390E+01  0.30337705321E+02  0.00000000000E+00 0. -1.
</event>
<event>
 5    1  0.1692178E-003  0.9118800E+02  0.7818608E-02  0.1130116E+00
         25   -1    0    0    0    0  0.00000000000E+00  0.00000000000E+00  0.99999998245E-14  0.12500000000E+03  0.12500000000E+03 0.  0.
        -11    1    3    3    0    0  0.37530258621E+02  0.17074916074E+02  0.31988048388E+01  0.41355839053E+02  0.51100000000E-03 0. -1.
         23    2    1    0    0    0 -0.16276545649E+02  0.20888469352E+02  0.11852442424E+02  0.95987339289E+02  0.91497731241E+02 0.  0.
         11    1    3    3    0    0 -0.53806804270E+02  0.38135532780E+01  0.86536375851E+01  0.54631500236E+02  0.51100000000E-03 0.  1.
         22    1    1    0    0    0  0.16276545649E+02 -0.20888469352E+02 -0.11852442424E+02  0.29012660711E+02  0.00000000000E+00 0.  1.
</event>
<event>
 5    1  0.1692178E-003  0.9118800E+02  0.7818608E-02  0.1130116E+00
         25   -1    0    0    0    0  0.00000000000E+00  0.00000000000E+00  0.99999998245E-14  0.12500000000E+03  0.12500000000E+03 0.  0.
        -11    1    3    3    0    0 -0.52998889249E+02  0.16823347115E+02 -0.10054312829E+02  0.56506605601E+02  0.51100000000E-03 0.  1.
         23    2    1    0    0    0 -0.26901132988E+02 -0.10914283677E+02  0.27606271853E+00  0.95967797968E+02  0.91471030889E+02 0.  0.
         11    1    3    3    0    0  0.26097756261E+02 -0.27737630792E+02  0.10330375547E+02  0.39461192367E+02  0.51100000000E-03 0. -1.
         22    1    1    0    0    0  0.26901132988E+02  0.10914283677E+02 -0.27606271853E+00  0.29032202032E+02  0.00000000000E+00 0. -1.
</event>
<event>
 5    1  0.1692178E-003  0.9118800E+02  0.7818608E-02  0.1130116E+00
         25   -1    0    0    0    0  0.00000000000E+00  0.00000000000E+00  0.99999998245E-14  0.12500000000E+03  0.12500000000E+03 0.  0.
        -11    1    3    3    0    0 -0.34587019826E+02 -0.54406521711E+01  0.58189332245E+01  0.35492571344E+02  0.51100000000E-03 0. -1.
         23    2    1    0    0    0  0.24871691072E+02  0.48566185154E+01  0.13439055306E+02  0.96315579704E+02  0.91945064718E+02 0.  0.
         11    1    3    3    0    0  0.59458710898E+02  0.10297270686E+02  0.76201220818E+01  0.60823008360E+02  0.51100000000E-03 0.  1.
         22    1    1    0    0    0 -0.24871691072E+02 -0.48566185154E+01 -0.13439055306E+02  0.28684420296E+02  0.00000000000E+00 0.  1.
</event>
<event>
 5    1  0.1692178E-003  0.9118800E+02  0.7818608E-02  0.1130116E+00
         25   -1    0    0    0    0  0.00000000000E+00  0.00000000000E+00  0.99999998245E-14  0.12500000000E+03  0.12500000000E+03 0.  0.
        -11    1    3    3    0    0  0.16391143812E+02  0.40896963836E+02  0.52548274573E+01  0.44371662785E+02  0.51100000000E-03 0. -1.
         23    2    1    0    0    0 -0.20556856963E+02  0.32150991575E+01  0.16637727831E+02  0.98359143817E+02  0.94682553589E+02 0.  0.
         11    1    3    3    0    0 -0.36948000775E+02 -0.37681864679E+02  0.11382900373E+02  0.53987481031E+02  0.51100000000E-03 0.  1.
         22    1    1    0    0    0  0.20556856963E+02 -0.32150991575E+01 -0.16637727831E+02  0.26640856183E+02  0.00000000000E+00 0.  1.
</event>
<event>
 5    1  0.1692178E-003  0.9118800E+02  0.7818608E-02  0.1130116E+00
         25   -1    0    0    0    0  0.00000000000E+00  0.00000000000E+00  0.99999998245E-14  0.12500000000E+03  0.12500000000E+03 0.  0.
        -11    1    3    3    0    0 -0.33470978758E+02 -0.51351892608E+01 -0.35804841194E+02  0.49281469549E+02  0.51100000000E-03 0. -1.
         23    2    1    0    0    0  0.12893403005E+02 -0.39065002937E+01 -0.24531600348E+02  0.97012502769E+02  0.92887704743E+02 0.  0.
         11    1    3    3    0    0  0.46364381763E+02  0.12286889670E+01  0.11273240846E+02  0.47731033220E+02  0.51100000000E-03 0.  1.
         22    1    1    0    0    0 -0.12893403005E+02  0.39065002937E+01  0.24531600348E+02  0.27987497231E+02  0.00000000000E+00 0. -1.
</event>
<event>
 5    1  0.1692178E-003  0.9118800E+02  0.7818608E-02  0.1130116E+00
         25   -1    0    0    0    0  0.00000000000E+00  0.00000000000E+00  0.99999998245E-14  0.12500000000E+03  0.12500000000E+03 0.  0.
        -11    1    3    3    0    0 -0.23859394921E+01 -0.29328922433E+02 -0.17941123420E+02  0.34463927637E+02  0.51100000000E-03 0. -1.
         23    2    1    0    0    0 -0.72458337094E+01  0.27299801258E+02  0.59788431262E+01  0.96129118129E+02  0.91691218403E+02 0.  0.
         11    1    3    3    0    0 -0.48598942174E+01  0.56628723691E+02  0.23919966546E+02  0.61665190492E+02  0.51100000000E-03 0.  1.
         22    1    1    0    0    0  0.72458337094E+01 -0.27299801258E+02 -0.59788431262E+01  0.28870881871E+02  0.00000000000E+00 0.  1.
</event>
<event>
 5    1  0.1692178E-003  0.9118800E+02  0.7818608E-02  0.1130116E+00
         25   -1    0    0    0    0  0.00000000000E+00  0.00000000000E+00  0.99999998245E-14  0.12500000000E+03  0.12500000000E+03 0.  0.
        -11    1    3    3    0    0 -0.29875457958E+01 -0.37649712537E+02 -0.36246834191E+02  0.52347485833E+02  0.51100000000E-03 0. -1.
         23    2    1    0    0    0  0.18066040520E+02 -0.35168585236E+02 -0.14052437958E+02  0.83039515969E+02  0.71658069973E+02 0.  0.
         11    1    3    3    0    0  0.21053586316E+02  0.24811273011E+01  0.22194396233E+02  0.30692030136E+02  0.51100000000E-03 0.  1.
         22    1    1    0    0    0 -0.18066040520E+02  0.35168585236E+02  0.14052437958E+02  0.41960484031E+02  0.00000000000E+00 0. -1.
</event>
<event>
 5    1  0.1692178E-003  0.9118800E+02  0.7818608E-02  0.1130116E+00
         25   -1    0    0    0    0  0.00000000000E+00  0.00000000000E+00  0.99999998245E-14  0.12500000000E+03  0.12500000000E+03 0.  0.
        -11    1    3    3    0    0 -0.48233404397E+02  0.23343047626E+02  0.11395021199E+02  0.54783260952E+02  0.51100000000E-03 0.  1.
         23    2    1    0    0    0 -0.10944407565E+02  0.29104119740E+02  0.91784963935E+01  0.92579718712E+02  0.86717528089E+02 0.  0.
         11    1    3    3    0    0  0.37288996832E+02  0.57610721136E+01 -0.22165248055E+01  0.37796457759E+02  0.51100000000E-03 0. -1.
         22    1    1    0    0    0  0.10944407565E+02 -0.29104119740E+02 -0.91784963935E+01  0.32420281288E+02  0.00000000000E+00 0.  1.
</event>
<event>
 5    1  0.1692178E-003  0.9118800E+02  0.7818608E-02  0.1130116E+00
         25   -1    0    0    0    0  0.00000000000E+00  0.00000000000E+00  0.99999998245E-14  0.12500000000E+03  0.12500000000E+03 0.  0.
        -11    1    3    3    0    0  0.18559713052E+02  0.14077278779E+02  0.32755145535E+02  0.40193684649E+02  0.51100000000E-03 0. -1.
         23    2    1    0    0    0  0.20308945418E+02 -0.18787267371E+02 -0.11241100844E+02  0.95137364024E+02  0.90329070658E+02 0.  0.
         11    1    3    3    0    0  0.17492323662E+01 -0.32864546150E+02 -0.43996246379E+02  0.54943679375E+02  0.51100000000E-03 0.  1.
         22    1    1    0    0    0 -0.20308945418E+02  0.18787267371E+02  0.11241100844E+02  0.29862635976E+02  0.00000000000E+00 0.  1.
</event>
<event>
 5    1  0.1692178E-003  0.9118800E+02  0.7818608E-02  0.1130116E+00
         25   -1    0    0    0    0  0.00000000000E+00  0.00000000000E+00  0.99999998245E-14  0.12500000000E+03  0.12500000000E+03 0.  0.
        -11    1    3    3    0    0  0.17431367973E+02 -0.87600602510E+01 -0.27537203301E+02  0.33747426730E+02  0.51100000000E-03 0.  1.
         23    2    1    0    0    0 -0.25877345647E+02  0.89951364322E+01  0.12069657447E+02  0.95062963940E+02  0.90226054912E+02 0.  0.
         11    1    3    3    0    0 -0.43308713620E+02  0.17755196683E+02  0.39606860748E+02  0.61315537210E+02  0.51100000000E-03 0. -1.
         22    1    1    0    0    0  0.25877345647E+02 -0.89951364322E+01 -0.12069657447E+02  0.29937036060E+02  0.00000000000E+00 0. -1.
</event>
<event>
 5    1  0.1692178E-003  0.9118800E+02  0.7818608E-02  0.1130116E+00
         25   -1    0    0    0    0  0.00000000000E+00  0.00000000000E+00  0.99999998245E-14  0.12500000000E+03  0.12500000000E+03 0.  0.
        -11    1    3    3    0    0 -0.15898717392E+01  0.52981870234E+02 -0.39822806816E+01  0.53155101593E+02  0.51100000000E-03 0. -1.
         23    2    1    0    0    0 -0.54242699387E+01  0.20061726347E+02  0.21602329438E+02  0.95024072900E+02  0.90172158813E+02 0.  0.
         11    1    3    3    0    0 -0.38343981995E+01 -0.32920143887E+02  0.25584610119E+02  0.41868971307E+02  0.51100000000E-03 0.  1.
         22    1    1    0    0    0  0.54242699387E+01 -0.20061726347E+02 -0.21602329438E+02  0.29975927100E+02  0.00000000000E+00 0. -1.
</event>
<event>
 5    1  0.1692178E-003  0.9118800E+02  0.7818608E-02  0.1130116E+00
         25   -1    0    0    0    0  0.00000000000E+00  0.00000000000E+00  0.99999998245E-14  0.12500000000E+03  0.12500000000E+03 0.  0.
        -11    1    3    3    0    0  0.17225122193E+02 -0.12540349674E+02  0.37236670147E+02  0.42901454619E+02  0.51100000000E-03 0.  1.
         23    2    1    0    0    0 -0.97499696259E+01 -0.26219678812E+02 -0.66934314415E+01  0.96236559851E+02  0.91837573807E+02 0.  0.
         11    1    3    3    0    0 -0.26975091819E+02 -0.13679329138E+02 -0.43930101589E+02  0.53335105233E+02  0.51100000000E-03 0. -1.
         22    1    1    0    0    0  0.97499696259E+01  0.26219678812E+02  0.66934314415E+01  0.28763440149E+02  0.00000000000E+00 0.  1.
</event>
<event>
 5    1  0.1692178E-003  0.9118800E+02  0.7818608E-02  0.1130116E+00
         25   -1    0    0    0    0  0.00000000000E+00  0.00000000000E+00  0.99999998245E-14  0.12500000000E+03  0.12500000000E+03 0.  0.
        -11    1    3    3    0    0 -0.26470289668E+02  0.60959805162E+01  0.11258781738E+02  0.29404036798E+02  0.51100000000E-03 0. -1.
         23    2    1    0    0    0  0.29794852125E+02  0.17076682083E+01  0.23333442156E+02  0.87117301222E+02  0.78449508000E+02 0.  0.
         11    1    3    3    0    0  0.56265141793E+02 -0.43883123079E+01  0.12074660418E+02  0.57713264423E+02  0.51100000000E-03 0.  1.
         22    1    1    0    0    0 -0.29794852125E+02 -0.17076682083E+01 -0.23333442156E+02  0.37882698778E+02  0.00000000000E+00 0.  1.
</event>
<event>
 5    1  0.1692178E-003  0.9118800E+02  0.7818608E-02  0.1130116E+00
         25   -1    0    0    0    0  0.00000000000E+00  0.00000000000E+00  0.99999998245E-14  0.12500000000E+03  0.12500000000E+03 0.  0.
        -11    1    3    3    0    0 -0.28923765266E+02 -0.94833153804E+01 -0.11535596564E+02  0.32551304983E+02  0.51100000000E-03 0. -1.
         23    2    1    0    0    0  0.21375038255E+02  0.17800262986E+02  0.12358810498E+02  0.94561836131E+02  0.89529096013E+02 0.  0.
         11    1    3    3    0    0  0.50298803521E+02  0.27283578366E+02  0.23894407063E+02  0.62010531148E+02  0.51100000000E-03 0.  1.
         22    1    1    0    0    0 -0.21375038255E+02 -0.17800262986E+02 -0.12358810498E+02  0.30438163869E+02  0.00000000000E+00 0.  1.
</event>
<event>
 5    1  0.1692178E-003  0.9118800E+02  0.7818608E-02  0.1130116E+00
         25   -1    0    0    0    0  0.00000000000E+00  0.00000000000E+00  0.99999998245E-14  0.12500000000E+03  0.12500000000E+03 0.  0.
        -11    1    3    3    0    0 -0.24270182339E+02 -0.44943294379E+02 -0.12465770080E+02  0.52576961536E+02  0.51100000000E-03 0.  1.
         23    2    1    0    0    0 -0.10666428381E+02 -0.18749198806E+02  0.19383119970E+02  0.95999819137E+02  0.91514779049E+02 0.  0.
         11    1    3    3    0    0  0.13603753957E+02  0.26194095573E+02  0.31848890050E+02  0.43422857602E+02  0.51100000000E-03 0. -1.
         22    1    1    0    0    0  0.10666428381E+02  0.18749198806E+02 -0.19383119970E+02  0.29000180863E+02  0.00000000000E+00 0.  1.
</event>
<event>
 5    1  0.1692178E-003  0.9118800E+02  0.7818608E-02  0.1130116E+00
         25   -1    0    0    0    0  0.00000000000E+00  0.00000000000E+00  0.99999998245E-14  0.12500000000E+03  0.12500000000E+03 0.  0.
        -11    1    3    3    0    0 -0.69310719896E+01  0.29732086581E+02  0.44478465477E+02  0.53947850956E+02  0.51100000000E-03 0. -1.
         23    2    1    0    0    0  0.33990242339E+01  0.29424852523E+02  0.47468735900E+01  0.95001531362E+02  0.90140905479E+02 0.  0.
         11    1    3    3    0    0  0.10330096223E+02 -0.30723405844E+00 -0.39731591887E+02  0.41053680406E+02  0.51100000000E-03 0.  1.
         22    1    1    0    0    0 -0.33990242339E+01 -0.29424852523E+02 -0.47468735900E+01  0.29998468638E+02  0.00000000000E+00 0. -1.
</event>
<event>
 5    1  0.1692178E-003  0.9118800E+02  0.7818608E-02  0.1130116E+00
         25   -1    0    0    0    0  0.00000000000E+00  0.00000000000E+00  0.99999998245E-14  0.12500000000E+03  0.12500000000E+03 0.  0.
        -11    1    3    3    0    0  0.22388455403E+02  0.55502182144E+02 -0.31305858287E+01  0.59929422874E+02  0.51100000000E-03 0.  1.
         23    2    1    0    0    0 -0.49844146942E+01  0.16498759015E+02 -0.25046078570E+01  0.10758372889E+03  0.10616464676E+03 0.  0.
         11    1    3    3    0    0 -0.27372870097E+02 -0.39003423130E+02  0.62597797168E+00  0.47654306016E+02  0.51100000000E-03 0. -1.
         22    1    1    0    0    0  0.49844146942E+01 -0.16498759015E+02  0.25046078570E+01  0.17416271110E+02  0.00000000000E+00 0.  1.
</event>
<event>
 5    1  0.1692178E-003  0.9118800E+02  0.7818608E-02  0.1130116E+00
         25   -1    0    0    0    0  0.00000000000E+00  0.00000000000E+00  0.99999998245E-14  0.12500000000E+03  0.12500000000E+03 0.  0.
        -11    1    3    3    0    0 -0.41916826693E+02 -0.14270036430E+02  0.11959595631E+02  0.45865959356E+02  0.51100000000E-03 0.  1.
         23    2    1    0    0    0 -0.14639121898E+02  0.21744077141E+02 -0.11034555320E+02  0.96559356691E+02  0.92275886194E+02 0.  0.
         11    1    3    3    0    0  0.27277704795E+02  0.36014113572E+02 -0.22994150951E+02  0.50693397336E+02  0.51100000000E-03 0. -1.
         22    1    1    0    0    0  0.14639121898E+02 -0.21744077141E+02  0.11034555320E+02  0.28440643309E+02  0.00000000000E+00 0.  1.
</event>
<event>
 5    1  0.1692178E-003  0.9118800E+02  0.7818608E-02  0.1130116E+00
         25   -1    0    0    0    0  0.00000000000E+00  0.00000000000E+00  0.99999998245E-14  0.12500000000E+03  0.12500000000E+03 0.  0.
        -11    1    3    3    0    0 -0.18773316540E+02 -0.49370417551E+02  0.20600153990E+02  0.56694284437E+02  0.51100000000E-03 0. -1.
         23    2    1    0    0    0  0.10145763643E+02 -0.24450455891E+02  0.12528260177E+02  0.95713166503E+02  0.91122399144E+02 0.  0.
         11    1    3    3    0    0  0.28919080183E+02  0.24919961660E+02 -0.80718938130E+01  0.39018882067E+02  0.51100000000E-03 0.  1.
         22    1    1    0    0    0 -0.10145763643E+02  0.24450455891E+02 -0.12528260177E+02  0.29286833497E+02  0.00000000000E+00 0. -1.
</event>
<event>
 5    1  0.1692178E-003  0.9118800E+02  0.7818608E-02  0.1130116E+00
         25   -1    0    0    0    0  0.00000000000E+00  0.00000000000E+00  0.99999998245E-14  0.12500000000E+03  0.12500000000E+03 0.  0.
        -11    1    3    3    0    0 -0.19702987699E+02  0.92618784973E+01  0.25565217230E+02  0.33579315804E+02  0.51100000000E-03 0.  1.
         23    2    1    0    0    0  0.28858401131E+02  0.39583282724E+01 -0.10215806946E+02  0.94131919559E+02  0.88926823229E+02 0.  0.
         11    1    3    3    0    0  0.48561388830E+02 -0.53035502250E+01 -0.35781024177E+02  0.60552603755E+02  0.51100000000E-03 0. -1.
         22    1    1    0    0    0 -0.28858401131E+02 -0.39583282724E+01  0.10215806946E+02  0.30868080441E+02  0.00000000000E+00 0. -1.
</event>
<event>
 5    1  0.1692178E-003  0.9118800E+02  0.7818608E-02  0.1130116E+00
         25   -1    0    0    0    0  0.00000000000E+00  0.00000000000E+00  0.99999998245E-14  0.12500000000E+03  0.12500000000E+03 0.  0.
        -11    1    3    3    0    0 -0.52309934088E+01  0.23943015642E+02  0.43222941180E+02  0.49687563179E+02  0.51100000000E-03 0.  1.
         23    2    1    0    0    0 -0.12983085865E+02 -0.15685410570E+02  0.20876240415E+02  0.95838209294E+02  0.91293769357E+02 0.  0.
         11    1    3    3    0    0 -0.77520924562E+01 -0.39628426212E+02 -0.22346700765E+02  0.46150646115E+02  0.51100000000E-03 0. -1.
         22    1    1    0    0    0  0.12983085865E+02  0.15685410570E+02 -0.20876240415E+02  0.29161790706E+02  0.00000000000E+00 0.  1.
</event>
<event>
 5    1  0.1692178E-003  0.9118800E+02  0.7818608E-02  0.1130116E+00
         25   -1    0    0    0    0  0.00000000000E+00  0.00000000000E+00  0.99999998245E-14  0.12500000000E+03  0.12500000000E+03 0.  0.
        -11    1    3    3    0    0 -0.33968651314E+02  0.30724627888E+00 -0.29176370415E+01  0.34095106372E+02  0.51100000000E-03 0.  1.
         23    2    1    0    0    0  0.20198844238E+02  0.12730134397E+02 -0.21679202861E+02  0.92750388111E+02  0.86963193523E+02 0.  0.
         11    1    3    3    0    0  0.54167495552E+02  0.12422888118E+02 -0.18761565820E+02  0.58655281739E+02  0.51100000000E-03 0. -1.
         22    1    1    0    0    0 -0.20198844238E+02 -0.12730134397E+02  0.21679202861E+02  0.32249611889E+02  0.00000000000E+00 0. -1.
</event>
<event>
 5    1  0.1692178E-003  0.9118800E+02  0.7818608E-02  0.1130116E+00
         25   -1    0    0    0    0  0.00000000000E+00  0.00000000000E+00  0.99999998245E-14  0.12500000000E+03  0.12500000000E+03 0.  0.
        -11    1    3    3    0    0  0.29089070923E+02 -0.50369205189E+01  0.85467829610E+01  0.30734217327E+02  0.51100000000E-03 0.  1.
         23    2    1    0    0    0  0.49253369762E+01  0.23832152543E+02 -0.31167841975E+02  0.85456798150E+02  0.75757504826E+02 0.  0.
         11    1    3    3    0    0 -0.24163733947E+02  0.28869073062E+02 -0.39714624936E+02  0.54722580822E+02  0.51100000000E-03 0. -1.
         22    1    1    0    0    0 -0.49253369762E+01 -0.23832152543E+02  0.31167841975E+02  0.39543201850E+02  0.00000000000E+00 0. -1.
</event>
<event>
 5    1  0.1692178E-003  0.9118800E+02  0.7818608E-02  0.1130116E+00
         25   -1    0    0    0    0  0.00000000000E+00  0.00000000000E+00  0.99999998245E-14  0.12500000000E+03  0.12500000000E+03 0.  0.
        -11    1    3    3    0    0 -0.53117716630E+01  0.30904289610E+02 -0.53711580213E+02  0.62195047099E+02  0.51100000000E-03 0. -1.
         23    2    1    0    0    0  0.17879880600E+01  0.14271224677E+02 -0.26030962310E+02  0.95259862915E+02  0.90498429427E+02 0.  0.
         11    1    3    3    0    0  0.70997597231E+01 -0.16633064932E+02  0.27680617903E+02  0.33064815816E+02  0.51100000000E-03 0.  1.
         22    1    1    0    0    0 -0.17879880600E+01 -0.14271224677E+02  0.26030962310E+02  0.29740137085E+02  0.00000000000E+00 0. -1.
</event>
<event>
 5    1  0.1692178E-003  0.9118800E+02  0.7818608E-02  0.1130116E+00
         25   -1    0    0    0    0  0.00000000000E+00  0.00000000000E+00  0.99999998245E-14  0.12500000000E+03  0.12500000000E+03 0.  0.
        -11    1    3    3    0    0 -0.24436095665E+02  0.24145478843E+01  0.55530037003E+02  0.60716866047E+02  0.51100000000E-03 0.  1.
         23    2    1    0    0    0 -0.19912664844E+02 -0.24597711151E+01  0.20715311733E+02  0.96160984148E+02  0.91734650144E+02 0.  0.
         11    1    3    3    0    0  0.45234308211E+01 -0.48743189994E+01 -0.34814725269E+02  0.35444118101E+02  0.51100000000E-03 0. -1.
         22    1    1    0    0    0  0.19912664844E+02  0.24597711151E+01 -0.20715311733E+02  0.28839015852E+02  0.00000000000E+00 0.  1.
</event>
<event>
 5    1  0.1692178E-003  0.9118800E+02  0.7818608E-02  0.1130116E+00
         25   -1    0    0    0    0  0.00000000000E+00  0.00000000000E+00  0.99999998245E-14  0.12500000000E+03  0.12500000000E+03 0.  0.
        -11    1    3    3    0    0 -0.78828490975E+01  0.98408818529E+01  0.60174634503E+02  0.61481451702E+02  0.51100000000E-03 0. -1.
         23    2    1    0    0    0 -0.56485948178E+01 -0.35613697656E+01  0.17375876059E+02  0.10638519281E+03  0.10474396499E+03 0.  0.
         11    1    3    3    0    0  0.22342542797E+01 -0.13402251619E+02 -0.42798758444E+02  0.44903741105E+02  0.51100000000E-03 0.  1.
         22    1    1    0    0    0  0.56485948178E+01  0.35613697656E+01 -0.17375876059E+02  0.18614807193E+02  0.00000000000E+00 0. -1.
</event>
<event>
 5    1  0.1692178E-003  0.9118800E+02  0.7818608E-02  0.1130116E+00
         25   -1    0    0    0    0  0.00000000000E+00  0.00000000000E+00  0.99999998245E-14  0.12500000000E+03  0.12500000000E+03 0.  0.
        -11    1    3    3    0    0  0.31489861312E+02 -0.17087953009E+01 -0.19608851262E+02  0.37135406217E+02  0.51100000000E-03 0.  1.
         23    2    1    0    0    0 -0.18410243892E+02 -0.96240424469E+01  0.15857863951E+02  0.98865135886E+02  0.95348224795E+02 0.  0.
         11    1    3    3    0    0 -0.49900105204E+02 -0.79152471460E+01  0.35466715213E+02  0.61729729669E+02  0.51100000000E-03 0. -1.
         22    1    1    0    0    0  0.18410243892E+02  0.96240424469E+01 -0.15857863951E+02  0.26134864114E+02  0.00000000000E+00 0. -1.
</event>
<event>
 5    1  0.1692178E-003  0.9118800E+02  0.7818608E-02  0.1130116E+00
         25   -1    0    0    0    0  0.00000000000E+00  0.00000000000E+00  0.99999998245E-14  0.12500000000E+03  0.12500000000E+03 0.  0.
        -11    1    3    3    0    0 -0.34075783508E+02 -0.66027129544E+01 -0.24113744186E+02  0.42263784721E+02  0.51100000000E-03 0. -1.
         23    2    1    0    0    0 -0.10350810791E+02 -0.99676913066E+01  0.24576320171E+02  0.96530899783E+02  0.92237329459E+02 0.  0.
         11    1    3    3    0    0  0.23724972717E+02 -0.33649783522E+01  0.48690064357E+02  0.54267115061E+02  0.51100000000E-03 0.  1.
         22    1    1    0    0    0  0.10350810791E+02  0.99676913066E+01 -0.24576320171E+02  0.28469100217E+02  0.00000000000E+00 0.  1.
</event>
<event>
 5    1  0.1692178E-003  0.9118800E+02  0.7818608E-02  0.1130116E+00
         25   -1    0    0    0    0  0.00000000000E+00  0.00000000000E+00  0.99999998245E-14  0.12500000000E+03  0.12500000000E+03 0.  0.
        -11    1    3    3    0    0 -0.30726774823E+02 -0.30340511688E+02  0.12245679898E+02  0.44884719193E+02  0.51100000000E-03 0.  1.
         23    2    1    0    0    0 -0.60143712248E+01  0.11707526287E+02  0.26256172022E+02  0.95629514777E+02  0.91007574928E+02 0.  0.
         11    1    3    3    0    0  0.24712403599E+02  0.42048037975E+02  0.14010492123E+02  0.50744795585E+02  0.51100000000E-03 0. -1.
         22    1    1    0    0    0  0.60143712248E+01 -0.11707526287E+02 -0.26256172022E+02  0.29370485223E+02  0.00000000000E+00 0.  1.
</event>
<event>
 5    1  0.1692178E-003  0.9118800E+02  0.7818608E-02  0.1130116E+00
         25   -1    0    0    0    0  0.00000000000E+00  0.00000000000E+00  0.99999998245E-14  0.12500000000E+03  0.12500000000E+03 0.  0.
        -11    1    3    3    0    0  0.39875429533E+01  0.40776735625E+02  0.47156636263E+02  0.62469120459E+02  0.51100000000E-03 0. -1.
         23    2    1    0    0    0  0.17431249119E+01  0.18473799099E+02  0.23471111902E+02  0.95079892522E+02  0.90249504876E+02 0.  0.
         11    1    3    3    0    0 -0.22444180414E+01 -0.22302936526E+02 -0.23685524361E+02  0.32610772063E+02  0.51100000000E-03 0.  1.
         22    1    1    0    0    0 -0.17431249119E+01 -0.18473799099E+02 -0.23471111902E+02  0.29920107478E+02  0.00000000000E+00 0. -1.
</event>
<event>
 5    1  0.1692178E-003  0.9118800E+02  0.7818608E-02  0.1130116E+00
         25   -1    0    0    0    0  0.00000000000E+00  0.00000000000E+00  0.99999998245E-14  0.12500000000E+03  0.12500000000E+03 0.  0.
        -11    1    3    3    0    0  0.10839997161E+02 -0.14566726400E+02 -0.29344061264E+02  0.34507520748E+02  0.51100000000E-03 0. -1.
         23    2    1    0    0    0 -0.41970779955E+01  0.27784543249E+02  0.10925121313E+02  0.94851126340E+02  0.89932094298E+02 0.  0.
         11    1    3    3    0    0 -0.15037075156E+02  0.42351269649E+02  0.40269182577E+02  0.60343605592E+02  0.51100000000E-03 0.  1.
         22    1    1    0    0    0  0.41970779955E+01 -0.27784543249E+02 -0.10925121313E+02  0.30148873660E+02  0.00000000000E+00 0.  1.
</event>
<event>
 5    1  0.1692178E-003  0.9118800E+02  0.7818608E-02  0.1130116E+00
         25   -1    0    0    0    0  0.00000000000E+00  0.00000000000E+00  0.99999998245E-14  0.12500000000E+03  0.12500000000E+03 0.  0.
        -11    1    3    3    0    0  0.13280511237E+02 -0.37413424194E+02  0.12948071233E+00  0.39700794125E+02  0.51100000000E-03 0.  1.
         23    2    1    0    0    0  0.15871454906E+02  0.18392144084E+02 -0.13503392006E+02  0.97205834416E+02  0.93147509918E+02 0.  0.
         11    1    3    3    0    0  0.25909436690E+01  0.55805568279E+02 -0.13632872718E+02  0.57505040290E+02  0.51100000000E-03 0. -1.
         22    1    1    0    0    0 -0.15871454906E+02 -0.18392144084E+02  0.13503392006E+02  0.27794165584E+02  0.00000000000E+00 0. -1.
</event>
<event>
 5    1  0.1692178E-003  0.9118800E+02  0.7818608E-02  0.1130116E+00
         25   -1    0    0    0    0  0.00000000000E+00  0.00000000000E+00  0.99999998245E-14  0.12500000000E+03  0.12500000000E+03 0.  0.
        -11    1    3    3    0    0  0.36658800233E+02 -0.38472149362E+01 -0.47421033395E+02  0.60061827360E+02  0.51100000000E-03 0.  1.
         23    2    1    0    0    0  0.16713750197E+02  0.10497438034E+02 -0.22808521366E+02  0.94837534951E+02  0.89913201131E+02 0.  0.
         11    1    3    3    0    0 -0.19945050036E+02  0.14344652970E+02  0.24612512029E+02  0.34775707591E+02  0.51100000000E-03 0. -1.
         22    1    1    0    0    0 -0.16713750197E+02 -0.10497438034E+02  0.22808521366E+02  0.30162465049E+02  0.00000000000E+00 0.  1.
</event>
<event>
 5    1  0.1692178E-003  0.9118800E+02  0.7818608E-02  0.1130116E+00
         25   -1    0    0    0    0  0.00000000000E+00  0.00000000000E+00  0.99999998245E-14  0.12500000000E+03  0.12500000000E+03 0.  0.
        -11    1    3    3    0    0  0.27725964177E+02 -0.22207719791E+02 -0.42363406447E+02  0.55286256103E+02  0.51100000000E-03 0.  1.
         23    2    1    0    0    0  0.27197899434E+02 -0.99277778740E+01 -0.37545465139E+01  0.95804398848E+02  0.91247464140E+02 0.  0.
         11    1    3    3    0    0 -0.52806474389E+00  0.12279941917E+02  0.38608859933E+02  0.40518142744E+02  0.51100000000E-03 0. -1.
         22    1    1    0    0    0 -0.27197899434E+02  0.99277778740E+01  0.37545465139E+01  0.29195601152E+02  0.00000000000E+00 0.  1.
</event>
<event>
 5    1  0.1692178E-003  0.9118800E+02  0.7818608E-02  0.1130116E+00
         25   -1    0    0    0    0  0.00000000000E+00  0.00000000000E+00  0.99999998245E-14  0.12500000000E+03  0.12500000000E+03 0.  0.
        -11    1    3    3    0    0 -0.40201128463E+02  0.12881679021E+02 -0.32461198329E+02  0.53252209169E+02  0.51100000000E-03 0.  1.
         23    2    1    0    0    0 -0.23979843701E+02  0.18795048523E+02  0.46464888886E+01  0.94179931669E+02  0.88994285869E+02 0.  0.
         11    1    3    3    0    0  0.16221284762E+02  0.59133695017E+01  0.37107687218E+02  0.40927722501E+02  0.51100000000E-03 0. -1.
         22    1    1    0    0    0  0.23979843701E+02 -0.18795048523E+02 -0.46464888886E+01  0.30820068331E+02  0.00000000000E+00 0.  1.
</event>
<event>
 5    1  0.1692178E-003  0.9118800E+02  0.7818608E-02  0.1130116E+00
         25   -1    0    0    0    0  0.00000000000E+00  0.00000000000E+00  0.99999998245E-14  0.12500000000E+03  0.12500000000E+03 0.  0.
        -11    1    3    3    0    0 -0.26453264088E+02 -0.15165976070E+02  0.43666060655E+02  0.53258866534E+02  0.51100000000E-03 0.  1.
         23    2    1    0    0    0 -0.18582258641E+02 -0.21899472779E+02  0.19817591672E+01  0.96210859450E+02  0.91802586361E+02 0.  0.
         11    1    3    3    0    0  0.78710054470E+01 -0.67334967096E+01 -0.41684301488E+02  0.42951992916E+02  0.51100000000E-03 0. -1.
         22    1    1    0    0    0  0.18582258641E+02  0.21899472779E+02 -0.19817591672E+01  0.28789140550E+02  0.00000000000E+00 0.  1.
</event>
<event>
 5    1  0.1692178E-003  0.9118800E+02  0.7818608E-02  0.1130116E+00
         25   -1    0    0    0    0  0.00000000000E+00  0.00000000000E+00  0.99999998245E-14  0.12500000000E+03  0.12500000000E+03 0.  0.
        -11    1    3    3    0    0  0.21389599804E+02  0.10315488740E+02 -0.33971917379E+02  0.41448950028E+02  0.51100000000E-03 0.  1.
         23    2    1    0    0    0 -0.24205339862E+02 -0.10271847981E+02 -0.11040431745E+02  0.96481576623E+02  0.92170462491E+02 0.  0.
         11    1    3    3    0    0 -0.45594939666E+02 -0.20587336721E+02  0.22931485634E+02  0.55032626596E+02  0.51100000000E-03 0. -1.
         22    1    1    0    0    0  0.24205339862E+02  0.10271847981E+02  0.11040431745E+02  0.28518423377E+02  0.00000000000E+00 0. -1.
</event>
<event>
 5    1  0.1692178E-003  0.9118800E+02  0.7818608E-02  0.1130116E+00
         25   -1    0    0    0    0  0.00000000000E+00  0.00000000000E+00  0.99999998245E-14  0.12500000000E+03  0.12500000000E+03 0.  0.
        -11    1    3    3    0    0  0.22360502938E+02  0.33088733997E+02 -0.99863663583E+01  0.41165324273E+02  0.51100000000E-03 0.  1.
         23    2    1    0    0    0  0.75266993844E+01 -0.12134810260E+01  0.28907338362E+02  0.95104215163E+02  0.90283186645E+02 0.  0.
         11    1    3    3    0    0 -0.14833803554E+02 -0.34302215023E+02  0.38893704720E+02  0.53938890890E+02  0.51100000000E-03 0. -1.
         22    1    1    0    0    0 -0.75266993844E+01  0.12134810260E+01 -0.28907338362E+02  0.29895784837E+02  0.00000000000E+00 0. -1.
</event>
<event>
 5    1  0.1692178E-003  0.9118800E+02  0.7818608E-02  0.1130116E+00
         25   -1    0    0    0    0  0.00000000000E+00  0.00000000000E+00  0.99999998245E-14  0.12500000000E+03  0.12500000000E+03 0.  0.
        -11    1    3    3    0    0 -0.27645760300E+01  0.19399916625E+02  0.23680817056E+02  0.30737285866E+02  0.51100000000E-03 0. -1.
         23    2    1    0    0    0 -0.91288995106E+01 -0.18444630193E+02 -0.24931480835E+02  0.92671685385E+02  0.86849993357E+02 0.  0.
         11    1    3    3    0    0 -0.63643234806E+01 -0.37844546817E+02 -0.48612297892E+02  0.61934399519E+02  0.51100000000E-03 0.  1.
         22    1    1    0    0    0  0.91288995106E+01  0.18444630193E+02  0.24931480835E+02  0.32328314615E+02  0.00000000000E+00 0.  1.
</event>
<event>
 5    1  0.1692178E-003  0.9118800E+02  0.7818608E-02  0.1130116E+00
         25   -1    0    0    0    0  0.00000000000E+00  0.00000000000E+00  0.99999998245E-14  0.12500000000E+03  0.12500000000E+03 0.  0.
        -11    1    3    3    0    0 -0.21005378187E+02 -0.50271184938E+02 -0.26372845213E+02  0.60530528766E+02  0.51100000000E-03 0.  1.
         23    2    1    0    0    0 -0.15625891186E+02 -0.16317007089E+02 -0.18503482680E+02  0.95797396230E+02  0.91237870741E+02 0.  0.
         11    1    3    3    0    0  0.53794870015E+01  0.33954177849E+02  0.78693625327E+01  0.35266867464E+02  0.51100000000E-03 0. -1.
         22    1    1    0    0    0  0.15625891186E+02  0.16317007089E+02  0.18503482680E+02  0.29202603770E+02  0.00000000000E+00 0.  1.
</event>
<event>
 5    1  0.1692178E-003  0.9118800E+02  0.7818608E-02  0.1130116E+00
         25   -1    0    0    0    0  0.00000000000E+00  0.00000000000E+00  0.99999998245E-14  0.12500000000E+03  0.12500000000E+03 0.  0.
        -11    1    3    3    0    0  0.50623159538E+00  0.21003879169E+02  0.55643731604E+02  0.59478097462E+02  0.51100000000E-03 0.  1.
         23    2    1    0    0    0  0.12746635914E+02  0.42931268562E+01  0.27098074283E+02  0.94747507620E+02  0.89787955234E+02 0.  0.
         11    1    3    3    0    0  0.12240404319E+02 -0.16710752313E+02 -0.28545657321E+02  0.35269410158E+02  0.51100000000E-03 0. -1.
         22    1    1    0    0    0 -0.12746635914E+02 -0.42931268562E+01 -0.27098074283E+02  0.30252492380E+02  0.00000000000E+00 0.  1.
</event>
<event>
 5    1  0.1692178E-003  0.9118800E+02  0.7818608E-02  0.1130116E+00
         25   -1    0    0    0    0  0.00000000000E+00  0.00000000000E+00  0.99999998245E-14  0.12500000000E+03  0.12500000000E+03 0.  0.
        -11    1    3    3    0    0  0.17062885046E+02  0.56374082646E+02  0.18703630897E+02  0.61798099075E+02  0.51100000000E-03 0.  1.
         23    2    1    0    0    0  0.99855410578E+01  0.33027878347E+02  0.40435705010E+01  0.90259501433E+02  0.83305914305E+02 0.  0.
         11    1    3    3    0    0 -0.70773439887E+01 -0.23346204299E+02 -0.14660060396E+02  0.28461402358E+02  0.51100000000E-03 0. -1.
         22    1    1    0    0    0 -0.99855410578E+01 -0.33027878347E+02 -0.40435705010E+01  0.34740498567E+02  0.00000000000E+00 0.  1.
</event>
<event>
 5    1  0.1692178E-003  0.9118800E+02  0.7818608E-02  0.1130116E+00
         25   -1    0    0    0    0  0.00000000000E+00  0.00000000000E+00  0.99999998245E-14  0.12500000000E+03  0.12500000000E+03 0.  0.
        -11    1    3    3    0    0 -0.10087148387E+02  0.13344907544E+02  0.39180255126E+02  0.42601989530E+02  0.51100000000E-03 0. -1.
         23    2    1    0    0    0 -0.16891897959E+02  0.17605743695E+02 -0.14325376874E+02  0.96706628863E+02  0.92475170807E+02 0.  0.
         11    1    3    3    0    0 -0.68047495720E+01  0.42608361518E+01 -0.53505632000E+02  0.54104639333E+02  0.51100000000E-03 0.  1.
         22    1    1    0    0    0  0.16891897959E+02 -0.17605743695E+02  0.14325376874E+02  0.28293371137E+02  0.00000000000E+00 0.  1.
</event>
<event>
 5    1  0.1692178E-003  0.9118800E+02  0.7818608E-02  0.1130116E+00
         25   -1    0    0    0    0  0.00000000000E+00  0.00000000000E+00  0.99999998245E-14  0.12500000000E+03  0.12500000000E+03 0.  0.
        -11    1    3    3    0    0 -0.37517521859E+02  0.21931621839E+02 -0.14551164100E+02  0.45828995842E+02  0.51100000000E-03 0.  1.
         23    2    1    0    0    0 -0.87532999036E+01 -0.22922805889E+02 -0.45818405885E+01  0.10003865885E+03  0.96874479155E+02 0.  0.
         11    1    3    3    0    0  0.28764221955E+02 -0.44854427728E+02  0.99693235118E+01  0.54209663004E+02  0.51100000000E-03 0. -1.
         22    1    1    0    0    0  0.87532999036E+01  0.22922805889E+02  0.45818405885E+01  0.24961341154E+02  0.00000000000E+00 0. -1.
</event>
<event>
 5    1  0.1692178E-003  0.9118800E+02  0.7818608E-02  0.1130116E+00
         25   -1    0    0    0    0  0.00000000000E+00  0.00000000000E+00  0.99999998245E-14  0.12500000000E+03  0.12500000000E+03 0.  0.
        -11    1    3    3    0    0  0.12311852494E+02  0.15654355287E+02  0.28348187670E+02  0.34644772992E+02  0.51100000000E-03 0.  1.
         23    2    1    0    0    0  0.10133572570E+02 -0.14832540031E+02 -0.23855152128E+02  0.95137618651E+02  0.90329423017E+02 0.  0.
         11    1    3    3    0    0 -0.21782799235E+01 -0.30486895317E+02 -0.52203339798E+02  0.60492845658E+02  0.51100000000E-03 0. -1.
         22    1    1    0    0    0 -0.10133572570E+02  0.14832540031E+02  0.23855152128E+02  0.29862381349E+02  0.00000000000E+00 0. -1.
</event>
<event>
 5    1  0.1692178E-003  0.9118800E+02  0.7818608E-02  0.1130116E+00
         25   -1    0    0    0    0  0.00000000000E+00  0.00000000000E+00  0.99999998245E-14  0.12500000000E+03  0.12500000000E+03 0.  0.
        -11    1    3    3    0    0  0.17675719098E+01  0.42828115363E+02  0.24632695683E+02  0.49438259201E+02  0.51100000000E-03 0. -1.
         23    2    1    0    0    0 -0.22913172026E+02  0.43058713337E+01  0.17737578067E+02  0.95705364724E+02  0.91111696182E+02 0.  0.
         11    1    3    3    0    0 -0.24680743936E+02 -0.38522244029E+02 -0.68951176166E+01  0.46267105523E+02  0.51100000000E-03 0.  1.
         22    1    1    0    0    0  0.22913172026E+02 -0.43058713337E+01 -0.17737578067E+02  0.29294635276E+02  0.00000000000E+00 0. -1.
</event>
<event>
 5    1  0.1692178E-003  0.9118800E+02  0.7818608E-02  0.1130116E+00
         25   -1    0    0    0    0  0.00000000000E+00  0.00000000000E+00  0.99999998245E-14  0.12500000000E+03  0.12500000000E+03 0.  0.
        -11    1    3    3    0    0 -0.21889602827E+02 -0.39742424642E+02  0.70311039839E+01  0.45913521449E+02  0.51100000000E-03 0.  1.
         23    2    1    0    0    0  0.21611471349E+02 -0.20139513258E+02 -0.47986341618E+01  0.95072043538E+02  0.90238632994E+02 0.  0.
         11    1    3    3    0    0  0.43501074176E+02  0.19602911383E+02 -0.11829738146E+02  0.49158522090E+02  0.51100000000E-03 0. -1.
         22    1    1    0    0    0 -0.21611471349E+02  0.20139513258E+02  0.47986341618E+01  0.29927956462E+02  0.00000000000E+00 0. -1.
</event>
<event>
 5    1  0.1692178E-003  0.9118800E+02  0.7818608E-02  0.1130116E+00
         25   -1    0    0    0    0  0.00000000000E+00  0.00000000000E+00  0.99999998245E-14  0.12500000000E+03  0.12500000000E+03 0.  0.
        -11    1    3    3    0    0  0.21042957011E+02 -0.20056769632E+02  0.22955509981E+02  0.37040997376E+02  0.51100000000E-03 0. -1.
         23    2    1    0    0    0 -0.25473794217E+02 -0.15513214032E+02 -0.92178702758E+01  0.93782326579E+02  0.88434052517E+02 0.  0.
         11    1    3    3    0    0 -0.46516751228E+02  0.45435556000E+01 -0.32173380257E+02  0.56741329203E+02  0.51100000000E-03 0.  1.
         22    1    1    0    0    0  0.25473794217E+02  0.15513214032E+02  0.92178702758E+01  0.31217673421E+02  0.00000000000E+00 0.  1.
</event>
<event>
 5    1  0.1692178E-003  0.9118800E+02  0.7818608E-02  0.1130116E+00
         25   -1    0    0    0    0  0.00000000000E+00  0.00000000000E+00  0.99999998245E-14  0.12500000000E+03  0.12500000000E+03 0.  0.
        -11    1    3    3    0    0 -0.57683756702E+01 -0.21294234458E+02 -0.23603062551E+02  0.32308251904E+02  0.51100000000E-03 0. -1.
         23    2    1    0    0    0 -0.41429090768E+01  0.77757297913E+01  0.30231001252E+02  0.93511286052E+02  0.88050107967E+02 0.  0.
         11    1    3    3    0    0  0.16254665934E+01  0.29069964249E+02  0.53834063803E+02  0.61203034148E+02  0.51100000000E-03 0.  1.
         22    1    1    0    0    0  0.41429090768E+01 -0.77757297913E+01 -0.30231001252E+02  0.31488713948E+02  0.00000000000E+00 0.  1.
</event>
<event>
 5    1  0.1692178E-003  0.9118800E+02  0.7818608E-02  0.1130116E+00
         25   -1    0    0    0    0  0.00000000000E+00  0.00000000000E+00  0.99999998245E-14  0.12500000000E+03  0.12500000000E+03 0.  0.
        -11    1    3    3    0    0  0.44315190594E+01 -0.16656705041E+02 -0.50144822316E+02  0.53024403716E+02  0.51100000000E-03 0.  1.
         23    2    1    0    0    0  0.23431555435E+02  0.26185288916E+01 -0.16412545027E+02  0.96272554622E+02  0.91886553181E+02 0.  0.
         11    1    3    3    0    0  0.19000036376E+02  0.19275233933E+02  0.33732277289E+02  0.43248150906E+02  0.51100000000E-03 0. -1.
         22    1    1    0    0    0 -0.23431555435E+02 -0.26185288916E+01  0.16412545027E+02  0.28727445378E+02  0.00000000000E+00 0.  1.
</event>
<event>
 5    1  0.1692178E-003  0.9118800E+02  0.7818608E-02  0.1130116E+00
         25   -1    0    0    0    0  0.00000000000E+00  0.00000000000E+00  0.99999998245E-14  0.12500000000E+03  0.12500000000E+03 0.  0.
        -11    1    3    3    0    0 -0.21296865135E+02 -0.24941618142E+02 -0.21849346467E+02  0.39408561524E+02  0.51100000000E-03 0. -1.
         23    2    1    0    0    0 -0.11241207006E+01 -0.76549416718E+01  0.28030125742E+02  0.95921662213E+02  0.91407962198E+02 0.  0.
         11    1    3    3    0    0  0.20172744434E+02  0.17286676470E+02  0.49879472209E+02  0.56513100689E+02  0.51100000000E-03 0.  1.
         22    1    1    0    0    0  0.11241207006E+01  0.76549416718E+01 -0.28030125742E+02  0.29078337787E+02  0.00000000000E+00 0.  1.
</event>
<event>
 5    1  0.1692178E-003  0.9118800E+02  0.7818608E-02  0.1130116E+00
         25   -1    0    0    0    0  0.00000000000E+00  0.00000000000E+00  0.99999998245E-14  0.12500000000E+03  0.12500000000E+03 0.  0.
        -11    1    3    3    0    0  0.21653421949E+02 -0.36581773586E+02  0.41430071170E+02  0.59359478082E+02  0.51100000000E-03 0. -1.
         23    2    1    0    0    0  0.23397402076E+01 -0.27305232675E+02  0.13821645119E+02  0.94306548101E+02  0.89171952010E+02 0.  0.
         11    1    3    3    0    0 -0.19313681741E+02  0.92765409119E+01 -0.27608426050E+02  0.34947070019E+02  0.51100000000E-03 0.  1.
         22    1    1    0    0    0 -0.23397402076E+01  0.27305232675E+02 -0.13821645119E+02  0.30693451899E+02  0.00000000000E+00 0. -1.
</event>
<event>
 5    1  0.1692178E-003  0.9118800E+02  0.7818608E-02  0.1130116E+00
         25   -1    0    0    0    0  0.00000000000E+00  0.00000000000E+00  0.99999998245E-14  0.12500000000E+03  0.12500000000E+03 0.  0.
        -11    1    3    3    0    0  0.22689189203E+01 -0.21714396896E+02 -0.35299158268E+02  0.41505344238E+02  0.51100000000E-03 0. -1.
         23    2    1    0    0    0  0.21323453301E+02  0.18777503237E+02 -0.35690615605E+01  0.96363965203E+02  0.92010821650E+02 0.  0.
         11    1    3    3    0    0  0.19054534381E+02  0.40491900132E+02  0.31730096708E+02  0.54858620965E+02  0.51100000000E-03 0.  1.
         22    1    1    0    0    0 -0.21323453301E+02 -0.18777503237E+02  0.35690615605E+01  0.28636034797E+02  0.00000000000E+00 0.  1.
</event>
<event>
 5    1  0.1692178E-003  0.9118800E+02  0.7818608E-02  0.1130116E+00
         25   -1    0    0    0    0  0.00000000000E+00  0.00000000000E+00  0.99999998245E-14  0.12500000000E+03  0.12500000000E+03 0.  0.
        -11    1    3    3    0    0  0.50617144601E+02 -0.29743676043E+02  0.84606711527E+01  0.59315803532E+02  0.51100000000E-03 0.  1.
         23    2    1    0    0    0  0.27561367794E+02 -0.10335248488E+02 -0.90923926269E+01  0.94192241892E+02  0.89011574938E+02 0.  0.
         11    1    3    3    0    0 -0.23055776807E+02  0.19408427555E+02 -0.17553063780E+02  0.34876438359E+02  0.51100000000E-03 0. -1.
         22    1    1    0    0    0 -0.27561367794E+02  0.10335248488E+02  0.90923926269E+01  0.30807758108E+02  0.00000000000E+00 0.  1.
</event>
<event>
 5    1  0.1692178E-003  0.9118800E+02  0.7818608E-02  0.1130116E+00
         25   -1    0    0    0    0  0.00000000000E+00  0.00000000000E+00  0.99999998245E-14  0.12500000000E+03  0.12500000000E+03 0.  0.
        -11    1    3    3    0    0 -0.41490154877E+02  0.19112388393E+01 -0.26729957774E+02  0.49392068478E+02  0.51100000000E-03 0.  1.
         23    2    1    0    0    0 -0.23165454939E+02 -0.14434758496E+02  0.11946542188E+02  0.95205362469E+02  0.90423119926E+02 0.  0.
         11    1    3    3    0    0  0.18324699938E+02 -0.16345997335E+02  0.38676499963E+02  0.45813293991E+02  0.51100000000E-03 0. -1.
         22    1    1    0    0    0  0.23165454939E+02  0.14434758496E+02 -0.11946542188E+02  0.29794637531E+02  0.00000000000E+00 0.  1.
</event>
<event>
 5    1  0.1692178E-003  0.9118800E+02  0.7818608E-02  0.1130116E+00
         25   -1    0    0    0    0  0.00000000000E+00  0.00000000000E+00  0.99999998245E-14  0.12500000000E+03  0.12500000000E+03 0.  0.
        -11    1    3    3    0    0  0.64348211105E+01  0.19616046314E+02 -0.55131775725E+01  0.21367997635E+02  0.51100000000E-03 0.  1.
         23    2    1    0    0    0 -0.36454930028E+02 -0.19510811650E+02 -0.16549650484E+02  0.80463221651E+02  0.67013471875E+02 0.  0.
         11    1    3    3    0    0 -0.42889751138E+02 -0.39126857965E+02 -0.11036472911E+02  0.59095224016E+02  0.51100000000E-03 0. -1.
         22    1    1    0    0    0  0.36454930028E+02  0.19510811650E+02  0.16549650484E+02  0.44536778349E+02  0.00000000000E+00 0. -1.
</event>
<event>
 5    1  0.1692178E-003  0.9118800E+02  0.7818608E-02  0.1130116E+00
         25   -1    0    0    0    0  0.00000000000E+00  0.00000000000E+00  0.99999998245E-14  0.12500000000E+03  0.12500000000E+03 0.  0.
        -11    1    3    3    0    0  0.18556410649E+02  0.15594106030E+02  0.25557969454E+02  0.35223945292E+02  0.51100000000E-03 0. -1.
         23    2    1    0    0    0 -0.27898116216E+02 -0.37809292870E+01 -0.80170024814E+01  0.95727612953E+02  0.91142214359E+02 0.  0.
         11    1    3    3    0    0 -0.46454526864E+02 -0.19375035317E+02 -0.33574971935E+02  0.60503667661E+02  0.51100000000E-03 0.  1.
         22    1    1    0    0    0  0.27898116216E+02  0.37809292870E+01  0.80170024814E+01  0.29272387047E+02  0.00000000000E+00 0.  1.
</event>
<event>
 5    1  0.1692178E-003  0.9118800E+02  0.7818608E-02  0.1130116E+00
         25   -1    0    0    0    0  0.00000000000E+00  0.00000000000E+00  0.99999998245E-14  0.12500000000E+03  0.12500000000E+03 0.  0.
        -11    1    3    3    0    0  0.23614079190E+02 -0.57781719860E+02 -0.20850740674E+01  0.62455579575E+02  0.51100000000E-03 0. -1.
         23    2    1    0    0    0  0.11055184501E+02 -0.27364596715E+02 -0.26464526623E+01  0.95368227029E+02  0.90647982643E+02 0.  0.
         11    1    3    3    0    0 -0.12558894689E+02  0.30417123145E+02 -0.56137859486E+00  0.32912647454E+02  0.51100000000E-03 0.  1.
         22    1    1    0    0    0 -0.11055184501E+02  0.27364596715E+02  0.26464526623E+01  0.29631772971E+02  0.00000000000E+00 0. -1.
</event>
<event>
 5    1  0.1692178E-003  0.9118800E+02  0.7818608E-02  0.1130116E+00
         25   -1    0    0    0    0  0.00000000000E+00  0.00000000000E+00  0.99999998245E-14  0.12500000000E+03  0.12500000000E+03 0.  0.
        -11    1    3    3    0    0  0.27959404370E+02 -0.21933436058E+02 -0.44576594003E+02  0.57007689334E+02  0.51100000000E-03 0. -1.
         23    2    1    0    0    0  0.12240983589E+02  0.75519166408E+01 -0.26125302924E+02  0.95177113200E+02  0.90384059989E+02 0.  0.
         11    1    3    3    0    0 -0.15718420780E+02  0.29485352699E+02  0.18451291079E+02  0.38169423867E+02  0.51100000000E-03 0.  1.
         22    1    1    0    0    0 -0.12240983589E+02 -0.75519166408E+01  0.26125302924E+02  0.29822886800E+02  0.00000000000E+00 0. -1.
</event>
<event>
 5    1  0.1692178E-003  0.9118800E+02  0.7818608E-02  0.1130116E+00
         25   -1    0    0    0    0  0.00000000000E+00  0.00000000000E+00  0.99999998245E-14  0.12500000000E+03  0.12500000000E+03 0.  0.
        -11    1    3    3    0    0  0.46090938211E+02  0.25439174621E+02 -0.31658814767E+02  0.61431317285E+02  0.51100000000E-03 0.  1.
         23    2    1    0    0    0  0.25931218341E+02  0.50819592919E+01 -0.13842144346E+02  0.95169489528E+02  0.90373515933E+02 0.  0.
         11    1    3    3    0    0 -0.20159719870E+02 -0.20357215329E+02  0.17816670421E+02  0.33738172244E+02  0.51100000000E-03 0. -1.
         22    1    1    0    0    0 -0.25931218341E+02 -0.50819592919E+01  0.13842144346E+02  0.29830510472E+02  0.00000000000E+00 0.  1.
</event>
<event>
 5    1  0.1692178E-003  0.9118800E+02  0.7818608E-02  0.1130116E+00
         25   -1    0    0    0    0  0.00000000000E+00  0.00000000000E+00  0.99999998245E-14  0.12500000000E+03  0.12500000000E+03 0.  0.
        -11    1    3    3    0    0 -0.47021242917E+02 -0.27136238747E+02  0.14204209871E+02  0.56117130336E+02  0.51100000000E-03 0.  1.
         23    2    1    0    0    0 -0.13295243873E+02 -0.88667202982E+01  0.24424629640E+02  0.95811907025E+02  0.91257749020E+02 0.  0.
         11    1    3    3    0    0  0.33725999044E+02  0.18269518449E+02  0.10220419768E+02  0.39694776689E+02  0.51100000000E-03 0. -1.
         22    1    1    0    0    0  0.13295243873E+02  0.88667202982E+01 -0.24424629640E+02  0.29188092975E+02  0.00000000000E+00 0.  1.
</event>
<event>
 5    1  0.1692178E-003  0.9118800E+02  0.7818608E-02  0.1130116E+00
         25   -1    0    0    0    0  0.00000000000E+00  0.00000000000E+00  0.99999998245E-14  0.12500000000E+03  0.12500000000E+03 0.  0.
        -11    1    3    3    0    0 -0.32422105761E+02  0.99826261722E+01 -0.15678159938E+02  0.37371787040E+02  0.51100000000E-03 0. -1.
         23    2    1    0    0    0  0.25827470828E+02  0.81974948993E+01 -0.10720472225E+02  0.95859209058E+02  0.91322517839E+02 0.  0.
         11    1    3    3    0    0  0.58249576590E+02 -0.17851312730E+01  0.49576877122E+01  0.58487422017E+02  0.51100000000E-03 0.  1.
         22    1    1    0    0    0 -0.25827470828E+02 -0.81974948993E+01  0.10720472225E+02  0.29140790942E+02  0.00000000000E+00 0.  1.
</event>
<event>
 4    1  0.1692178E-003  0.9118800E+02  0.7818608E-02  0.1130116E+00
         25   -1    0    0    0    0  0.00000000000E+00  0.00000000000E+00  0.99999998245E-14  0.12500000000E+03  0.12500000000E+03 0.  0.
        -11    1    1    0    0    0 -0.44687134262E+02 -0.20049243121E+02 -0.26570447502E+02  0.55721636722E+02  0.51100000000E-03 0.  1.
         11    1    1    0    0    0  0.53770284059E+01 -0.14078415673E+01 -0.10011949139E+02  0.11451357046E+02  0.51100000000E-03 0. -1.
         22    1    1    0    0    0  0.39310105856E+02  0.21457084688E+02  0.36582396641E+02  0.57827006232E+02  0.00000000000E+00 0.  1.
</event>
<event>
 5    1  0.1692178E-003  0.9118800E+02  0.7818608E-02  0.1130116E+00
         25   -1    0    0    0    0  0.00000000000E+00  0.00000000000E+00  0.99999998245E-14  0.12500000000E+03  0.12500000000E+03 0.  0.
        -11    1    3    3    0    0  0.52102875374E+01  0.19467548443E+02  0.31340735372E+02  0.37260894146E+02  0.51100000000E-03 0. -1.
         23    2    1    0    0    0 -0.16544131628E+02 -0.24755854709E+02  0.85411141321E+00  0.95212584201E+02  0.90433102624E+02 0.  0.
         11    1    3    3    0    0 -0.21754419166E+02 -0.44223403152E+02 -0.30486623959E+02  0.57951690055E+02  0.51100000000E-03 0.  1.
         22    1    1    0    0    0  0.16544131628E+02  0.24755854709E+02 -0.85411141321E+00  0.29787415799E+02  0.00000000000E+00 0.  1.
</event>
<event>
 5    1  0.1692178E-003  0.9118800E+02  0.7818608E-02  0.1130116E+00
         25   -1    0    0    0    0  0.00000000000E+00  0.00000000000E+00  0.99999998245E-14  0.12500000000E+03  0.12500000000E+03 0.  0.
        -11    1    3    3    0    0 -0.38875625627E+02  0.17481789233E+01  0.29603222622E+01  0.39027348176E+02  0.51100000000E-03 0.  1.
         23    2    1    0    0    0  0.86672004854E+01  0.11498183946E+02  0.27908093069E+02  0.93596333700E+02  0.88170762870E+02 0.  0.
         11    1    3    3    0    0  0.47542826113E+02  0.97500050230E+01  0.24947770807E+02  0.54568985525E+02  0.51100000000E-03 0. -1.
         22    1    1    0    0    0 -0.86672004854E+01 -0.11498183946E+02 -0.27908093069E+02  0.31403666300E+02  0.00000000000E+00 0. -1.
</event>
<event>
 5    1  0.1692178E-003  0.9118800E+02  0.7818608E-02  0.1130116E+00
         25   -1    0    0    0    0  0.00000000000E+00  0.00000000000E+00  0.99999998245E-14  0.12500000000E+03  0.12500000000E+03 0.  0.
        -11    1    3    3    0    0 -0.40331877421E+02 -0.24896024571E+02 -0.36413614828E+02  0.59769755904E+02  0.51100000000E-03 0.  1.
         23    2    1    0    0    0 -0.23814702784E+02 -0.16639148311E+02 -0.60233099417E+01  0.95330460269E+02  0.90595888798E+02 0.  0.
         11    1    3    3    0    0  0.16517174637E+02  0.82568762600E+01  0.30390304886E+02  0.35560704364E+02  0.51100000000E-03 0. -1.
         22    1    1    0    0    0  0.23814702784E+02  0.16639148311E+02  0.60233099417E+01  0.29669539731E+02  0.00000000000E+00 0.  1.
</event>
<event>
 5    1  0.1692178E-003  0.9118800E+02  0.7818608E-02  0.1130116E+00
         25   -1    0    0    0    0  0.00000000000E+00  0.00000000000E+00  0.99999998245E-14  0.12500000000E+03  0.12500000000E+03 0.  0.
        -11    1    3    3    0    0  0.14158200450E+00 -0.37362502540E+02  0.68701554754E+01  0.37989152110E+02  0.51100000000E-03 0. -1.
         23    2    1    0    0    0  0.15686075944E+02  0.16283045729E+02 -0.14886930084E+02  0.97929513413E+02  0.94113645946E+02 0.  0.
         11    1    3    3    0    0  0.15544493939E+02  0.53645548269E+02 -0.21757085559E+02  0.59940361303E+02  0.51100000000E-03 0.  1.
         22    1    1    0    0    0 -0.15686075944E+02 -0.16283045729E+02  0.14886930084E+02  0.27070486587E+02  0.00000000000E+00 0.  1.
</event>
<event>
 5    1  0.1692178E-003  0.9118800E+02  0.7818608E-02  0.1130116E+00
         25   -1    0    0    0    0  0.00000000000E+00  0.00000000000E+00  0.99999998245E-14  0.12500000000E+03  0.12500000000E+03 0.  0.
        -11    1    3    3    0    0 -0.28969576657E+02 -0.80463854080E+01 -0.53975777753E+02  0.61784830453E+02  0.51100000000E-03 0.  1.
         23    2    1    0    0    0 -0.92087623853E+01  0.80168394033E+00 -0.27509621012E+02  0.95978917146E+02  0.91486224572E+02 0.  0.
         11    1    3    3    0    0  0.19760814271E+02  0.88480693483E+01  0.26466156741E+02  0.34194086693E+02  0.51100000000E-03 0. -1.
         22    1    1    0    0    0  0.92087623853E+01 -0.80168394033E+00  0.27509621012E+02  0.29021082854E+02  0.00000000000E+00 0.  1.
</event>
<event>
 5    1  0.1692178E-003  0.9118800E+02  0.7818608E-02  0.1130116E+00
         25   -1    0    0    0    0  0.00000000000E+00  0.00000000000E+00  0.99999998245E-14  0.12500000000E+03  0.12500000000E+03 0.  0.
        -11    1    3    3    0    0 -0.19397091430E+02 -0.17431385986E+02  0.22132461095E+02  0.34204476428E+02  0.51100000000E-03 0.  1.
         23    2    1    0    0    0  0.22029602789E+02  0.15743873287E+02 -0.98704196854E+01  0.96179900592E+02  0.91760422558E+02 0.  0.
         11    1    3    3    0    0  0.41426694219E+02  0.33175259274E+02 -0.32002880780E+02  0.61975424164E+02  0.51100000000E-03 0. -1.
         22    1    1    0    0    0 -0.22029602789E+02 -0.15743873287E+02  0.98704196854E+01  0.28820099408E+02  0.00000000000E+00 0. -1.
</event>
<event>
 5    1  0.1692178E-003  0.9118800E+02  0.7818608E-02  0.1130116E+00
         25   -1    0    0    0    0  0.00000000000E+00  0.00000000000E+00  0.99999998245E-14  0.12500000000E+03  0.12500000000E+03 0.  0.
        -11    1    3    3    0    0  0.35984548895E+02 -0.35645131439E+02 -0.23971086528E+02  0.56036382325E+02  0.51100000000E-03 0.  1.
         23    2    1    0    0    0  0.75337012182E+01 -0.86041079321E+01 -0.27272938549E+02  0.95426354562E+02  0.90728102816E+02 0.  0.
         11    1    3    3    0    0 -0.28450847677E+02  0.27041023507E+02 -0.33018520208E+01  0.39389972237E+02  0.51100000000E-03 0. -1.
         22    1    1    0    0    0 -0.75337012182E+01  0.86041079321E+01  0.27272938549E+02  0.29573645438E+02  0.00000000000E+00 0.  1.
</event>
<event>
 5    1  0.1692178E-003  0.9118800E+02  0.7818608E-02  0.1130116E+00
         25   -1    0    0    0    0  0.00000000000E+00  0.00000000000E+00  0.99999998245E-14  0.12500000000E+03  0.12500000000E+03 0.  0.
        -11    1    3    3    0    0 -0.12532474600E+02  0.50103946563E+02  0.15838476742E+02  0.54021530213E+02  0.51100000000E-03 0.  1.
         23    2    1    0    0    0 -0.44337701298E+01  0.10678329806E+02  0.26864246465E+02  0.95753243203E+02  0.91177359036E+02 0.  0.
         11    1    3    3    0    0  0.80987044705E+01 -0.39425616757E+02  0.11025769723E+02  0.41731712990E+02  0.51100000000E-03 0. -1.
         22    1    1    0    0    0  0.44337701298E+01 -0.10678329806E+02 -0.26864246465E+02  0.29246756797E+02  0.00000000000E+00 0.  1.
</event>
<event>
 5    1  0.1692178E-003  0.9118800E+02  0.7818608E-02  0.1130116E+00
         25   -1    0    0    0    0  0.00000000000E+00  0.00000000000E+00  0.99999998245E-14  0.12500000000E+03  0.12500000000E+03 0.  0.
        -11    1    3    3    0    0  0.17734566067E+02 -0.26608450242E+02  0.18534079706E+02  0.36959931935E+02  0.51100000000E-03 0. -1.
         23    2    1    0    0    0  0.57655718165E+01  0.12228171013E+02 -0.25039806663E+02  0.96543684314E+02  0.92254653424E+02 0.  0.
         11    1    3    3    0    0 -0.11968994250E+02  0.38836621256E+02 -0.43573886369E+02  0.59583752378E+02  0.51100000000E-03 0.  1.
         22    1    1    0    0    0 -0.57655718165E+01 -0.12228171013E+02  0.25039806663E+02  0.28456315686E+02  0.00000000000E+00 0.  1.
</event>
<event>
 5    1  0.1692178E-003  0.9118800E+02  0.7818608E-02  0.1130116E+00
         25   -1    0    0    0    0  0.00000000000E+00  0.00000000000E+00  0.99999998245E-14  0.12500000000E+03  0.12500000000E+03 0.  0.
        -11    1    3    3    0    0 -0.34278708174E+02 -0.30584933032E+02  0.33892730791E+02  0.57089273628E+02  0.51100000000E-03 0.  1.
         23    2    1    0    0    0 -0.27638191576E+02 -0.78192659310E+01  0.28754037083E+01  0.96133436301E+02  0.91697105054E+02 0.  0.
         11    1    3    3    0    0  0.66405165984E+01  0.22765667101E+02 -0.31017327082E+02  0.39044162673E+02  0.51100000000E-03 0. -1.
         22    1    1    0    0    0  0.27638191576E+02  0.78192659310E+01 -0.28754037083E+01  0.28866563699E+02  0.00000000000E+00 0.  1.
</event>
<event>
 5    1  0.1692178E-003  0.9118800E+02  0.7818608E-02  0.1130116E+00
         25   -1    0    0    0    0  0.00000000000E+00  0.00000000000E+00  0.99999998245E-14  0.12500000000E+03  0.12500000000E+03 0.  0.
        -11    1    3    3    0    0  0.25174848678E+02 -0.21740088653E+02 -0.81242367567E+01  0.34240439304E+02  0.51100000000E-03 0. -1.
         23    2    1    0    0    0 -0.11076929931E+02  0.26996357831E+02 -0.70004492115E+01  0.94991534495E+02  0.90127041578E+02 0.  0.
         11    1    3    3    0    0 -0.36251778609E+02  0.48736446483E+02  0.11237875452E+01  0.60751095191E+02  0.51100000000E-03 0.  1.
         22    1    1    0    0    0  0.11076929931E+02 -0.26996357831E+02  0.70004492115E+01  0.30008465505E+02  0.00000000000E+00 0.  1.
</event>
<event>
 5    1  0.1692178E-003  0.9118800E+02  0.7818608E-02  0.1130116E+00
         25   -1    0    0    0    0  0.00000000000E+00  0.00000000000E+00  0.99999998245E-14  0.12500000000E+03  0.12500000000E+03 0.  0.
        -11    1    3    3    0    0  0.22040821620E+02 -0.50713961307E+02  0.24618618545E+02  0.60529167089E+02  0.51100000000E-03 0.  1.
         23    2    1    0    0    0  0.11729747073E+02 -0.17595518492E+02  0.20651997820E+02  0.95441680505E+02  0.90749215569E+02 0.  0.
         11    1    3    3    0    0 -0.10311074546E+02  0.33118442816E+02 -0.39666207247E+01  0.34912513417E+02  0.51100000000E-03 0. -1.
         22    1    1    0    0    0 -0.11729747073E+02  0.17595518492E+02 -0.20651997820E+02  0.29558319495E+02  0.00000000000E+00 0.  1.
</event>
<event>
 5    1  0.1692178E-003  0.9118800E+02  0.7818608E-02  0.1130116E+00
         25   -1    0    0    0    0  0.00000000000E+00  0.00000000000E+00  0.99999998245E-14  0.12500000000E+03  0.12500000000E+03 0.  0.
        -11    1    3    3    0    0  0.58673481988E+01 -0.33065544503E+02 -0.22929342692E+02  0.40663383587E+02  0.51100000000E-03 0.  1.
         23    2    1    0    0    0  0.13289808330E+02  0.21833018569E+02 -0.10025177990E+02  0.97544510585E+02  0.93600895542E+02 0.  0.
         11    1    3    3    0    0  0.74224601312E+01  0.54898563071E+02  0.12904164703E+02  0.56881126999E+02  0.51100000000E-03 0. -1.
         22    1    1    0    0    0 -0.13289808330E+02 -0.21833018569E+02  0.10025177990E+02  0.27455489415E+02  0.00000000000E+00 0. -1.
</event>
<event>
 4    1  0.1692178E-003  0.9118800E+02  0.7818608E-02  0.1130116E+00
         25   -1    0    0    0    0  0.00000000000E+00  0.00000000000E+00  0.99999998245E-14  0.12500000000E+03  0.12500000000E+03 0.  0.
        -11    1    1    0    0    0  0.35018062027E+00 -0.77446680793E+01  0.20901405106E+02  0.22292851899E+02  0.51100000000E-03 0. -1.
         11    1    1    0    0    0 -0.57941905367E+01 -0.46059836941E+02 -0.11361314599E+02  0.47792893746E+02  0.51100000000E-03 0.  1.
         22    1    1    0    0    0  0.54440099164E+01  0.53804505020E+02 -0.95400905073E+01  0.54914254354E+02  0.00000000000E+00 0.  1.
</event>
<event>
 5    1  0.1692178E-003  0.9118800E+02  0.7818608E-02  0.1130116E+00
         25   -1    0    0    0    0  0.00000000000E+00  0.00000000000E+00  0.99999998245E-14  0.12500000000E+03  0.12500000000E+03 0.  0.
        -11    1    3    3    0    0 -0.43672065612E+01 -0.53623682785E+02  0.20241242691E+02  0.57482864877E+02  0.51100000000E-03 0. -1.
         23    2    1    0    0    0  0.58926504675E+01 -0.21203557682E+02  0.24858461457E+02  0.91799739551E+02  0.85585833452E+02 0.  0.
         11    1    3    3    0    0  0.10259857029E+02  0.32420125103E+02  0.46172187654E+01  0.34316874673E+02  0.51100000000E-03 0.  1.
         22    1    1    0    0    0 -0.58926504675E+01  0.21203557682E+02 -0.24858461457E+02  0.33200260449E+02  0.00000000000E+00 0. -1.
</event>
<event>
 5    1  0.1692178E-003  0.9118800E+02  0.7818608E-02  0.1130116E+00
         25   -1    0    0    0    0  0.00000000000E+00  0.00000000000E+00  0.99999998245E-14  0.12500000000E+03  0.12500000000E+03 0.  0.
        -11    1    3    3    0    0 -0.58529133482E+02 -0.21812625093E+01 -0.25072790184E+01  0.58623406764E+02  0.51100000000E-03 0. -1.
         23    2    1    0    0    0 -0.23335751944E+02 -0.16035379227E+02 -0.35781843056E+01  0.96460656828E+02  0.92142087056E+02 0.  0.
         11    1    3    3    0    0  0.35193381537E+02 -0.13854116717E+02 -0.10709052872E+01  0.37837250065E+02  0.51100000000E-03 0.  1.
         22    1    1    0    0    0  0.23335751944E+02  0.16035379227E+02  0.35781843056E+01  0.28539343172E+02  0.00000000000E+00 0. -1.
</event>
<event>
 5    1  0.1692178E-003  0.9118800E+02  0.7818608E-02  0.1130116E+00
         25   -1    0    0    0    0  0.00000000000E+00  0.00000000000E+00  0.99999998245E-14  0.12500000000E+03  0.12500000000E+03 0.  0.
        -11    1    3    3    0    0 -0.25177005408E+02  0.39245024953E+02 -0.46165197680E+01  0.46854731244E+02  0.51100000000E-03 0.  1.
         23    2    1    0    0    0 -0.20173068222E+02 -0.85066426442E+01  0.14723162410E+02  0.98616536203E+02  0.95021755671E+02 0.  0.
         11    1    3    3    0    0  0.50039371858E+01 -0.47751667597E+02  0.19339682178E+02  0.51761804960E+02  0.51100000000E-03 0. -1.
         22    1    1    0    0    0  0.20173068222E+02  0.85066426442E+01 -0.14723162410E+02  0.26383463797E+02  0.00000000000E+00 0. -1.
</event>
<event>
 5    1  0.1692178E-003  0.9118800E+02  0.7818608E-02  0.1130116E+00
         25   -1    0    0    0    0  0.00000000000E+00  0.00000000000E+00  0.99999998245E-14  0.12500000000E+03  0.12500000000E+03 0.  0.
        -11    1    3    3    0    0 -0.69147575690E+01  0.64308013716E+01  0.53558145873E+02  0.54384226280E+02  0.51100000000E-03 0.  1.
         23    2    1    0    0    0  0.15032168675E+02  0.16886605746E+01  0.31756810316E+01  0.10954352499E+03  0.10844759679E+03 0.  0.
         11    1    3    3    0    0  0.21946926244E+02 -0.47421407969E+01 -0.50382464841E+02  0.55159298714E+02  0.51100000000E-03 0. -1.
         22    1    1    0    0    0 -0.15032168675E+02 -0.16886605746E+01 -0.31756810316E+01  0.15456475006E+02  0.00000000000E+00 0. -1.
</event>
<event>
 5    1  0.1692178E-003  0.9118800E+02  0.7818608E-02  0.1130116E+00
         25   -1    0    0    0    0  0.00000000000E+00  0.00000000000E+00  0.99999998245E-14  0.12500000000E+03  0.12500000000E+03 0.  0.
        -11    1    3    3    0    0  0.40173615257E+01  0.18433448403E+02 -0.38992589005E+02  0.43316892909E+02  0.51100000000E-03 0. -1.
         23    2    1    0    0    0  0.84060927805E+01 -0.25649196295E+02 -0.10234476926E+02  0.96133268554E+02  0.91696876384E+02 0.  0.
         11    1    3    3    0    0  0.43887312548E+01 -0.44082644699E+02  0.28758112080E+02  0.52816375645E+02  0.51100000000E-03 0.  1.
         22    1    1    0    0    0 -0.84060927805E+01  0.25649196295E+02  0.10234476926E+02  0.28866731446E+02  0.00000000000E+00 0.  1.
</event>
<event>
 5    1  0.1692178E-003  0.9118800E+02  0.7818608E-02  0.1130116E+00
         25   -1    0    0    0    0  0.00000000000E+00  0.00000000000E+00  0.99999998245E-14  0.12500000000E+03  0.12500000000E+03 0.  0.
        -11    1    3    3    0    0  0.34256372214E+02 -0.27928533594E+02  0.20546874936E+02  0.48740907827E+02  0.51100000000E-03 0.  1.
         23    2    1    0    0    0  0.22818475631E+02 -0.44417969421E+01 -0.18203098763E+02  0.95474329901E+02  0.90794176440E+02 0.  0.
         11    1    3    3    0    0 -0.11437896583E+02  0.23486736651E+02 -0.38749973699E+02  0.46733422074E+02  0.51100000000E-03 0. -1.
         22    1    1    0    0    0 -0.22818475631E+02  0.44417969421E+01  0.18203098763E+02  0.29525670099E+02  0.00000000000E+00 0. -1.
</event>
<event>
 5    1  0.1692178E-003  0.9118800E+02  0.7818608E-02  0.1130116E+00
         25   -1    0    0    0    0  0.00000000000E+00  0.00000000000E+00  0.99999998245E-14  0.12500000000E+03  0.12500000000E+03 0.  0.
        -11    1    3    3    0    0 -0.54172665125E+02 -0.25505938804E+01 -0.23482475631E+02  0.59098306557E+02  0.51100000000E-03 0.  1.
         23    2    1    0    0    0 -0.27723814080E+02  0.13178330977E+02 -0.97845018878E+01  0.92781763678E+02  0.87008280753E+02 0.  0.
         11    1    3    3    0    0  0.26448851045E+02  0.15728924857E+02  0.13697973743E+02  0.33683457122E+02  0.51100000000E-03 0. -1.
         22    1    1    0    0    0  0.27723814080E+02 -0.13178330977E+02  0.97845018878E+01  0.32218236322E+02  0.00000000000E+00 0.  1.
</event>
<event>
 5    1  0.1692178E-003  0.9118800E+02  0.7818608E-02  0.1130116E+00
         25   -1    0    0    0    0  0.00000000000E+00  0.00000000000E+00  0.99999998245E-14  0.12500000000E+03  0.12500000000E+03 0.  0.
        -11    1    3    3    0    0 -0.40596385407E+02  0.33580470128E+02  0.24825574686E+02  0.58241082072E+02  0.51100000000E-03 0.  1.
         23    2    1    0    0    0 -0.48940242073E+01  0.19764494255E+02  0.19345677115E+02  0.96913670067E+02  0.92754609140E+02 0.  0.
         11    1    3    3    0    0  0.35702361200E+02 -0.13815975873E+02 -0.54798975714E+01  0.38672587995E+02  0.51100000000E-03 0. -1.
         22    1    1    0    0    0  0.48940242073E+01 -0.19764494255E+02 -0.19345677115E+02  0.28086329933E+02  0.00000000000E+00 0.  1.
</event>
<event>
 5    1  0.1692178E-003  0.9118800E+02  0.7818608E-02  0.1130116E+00
         25   -1    0    0    0    0  0.00000000000E+00  0.00000000000E+00  0.99999998245E-14  0.12500000000E+03  0.12500000000E+03 0.  0.
        -11    1    3    3    0    0  0.42128683812E+02  0.60770642166E+01  0.32092931187E+02  0.53307719344E+02  0.51100000000E-03 0.  1.
         23    2    1    0    0    0  0.39780623760E+00  0.58650022438E+01  0.29282073338E+02  0.95133692560E+02  0.90323989837E+02 0.  0.
         11    1    3    3    0    0 -0.41730877574E+02 -0.21206197274E+00 -0.28108578488E+01  0.41825973216E+02  0.51100000000E-03 0. -1.
         22    1    1    0    0    0 -0.39780623760E+00 -0.58650022438E+01 -0.29282073338E+02  0.29866307440E+02  0.00000000000E+00 0.  1.
</event>
<event>
 5    1  0.1692178E-003  0.9118800E+02  0.7818608E-02  0.1130116E+00
         25   -1    0    0    0    0  0.00000000000E+00  0.00000000000E+00  0.99999998245E-14  0.12500000000E+03  0.12500000000E+03 0.  0.
        -11    1    3    3    0    0  0.20634712548E+02  0.12127133990E+02  0.50649206136E+02  0.56019646761E+02  0.51100000000E-03 0.  1.
         23    2    1    0    0    0  0.24050945038E+02  0.17237146413E+02  0.15704645828E+02  0.91500700392E+02  0.85147960034E+02 0.  0.
         11    1    3    3    0    0  0.34162324900E+01  0.51100124230E+01 -0.34944560308E+02  0.35481053631E+02  0.51100000000E-03 0. -1.
         22    1    1    0    0    0 -0.24050945038E+02 -0.17237146413E+02 -0.15704645828E+02  0.33499299608E+02  0.00000000000E+00 0.  1.
</event>
<event>
 5    1  0.1692178E-003  0.9118800E+02  0.7818608E-02  0.1130116E+00
         25   -1    0    0    0    0  0.00000000000E+00  0.00000000000E+00  0.99999998245E-14  0.12500000000E+03  0.12500000000E+03 0.  0.
        -11    1    3    3    0    0 -0.20302842242E+01 -0.20901042314E+02 -0.21506328868E+02  0.30058240226E+02  0.51100000000E-03 0.  1.
         23    2    1    0    0    0  0.68172822234E+01  0.25130543115E+02  0.19604380743E+02  0.92406269338E+02  0.86467145983E+02 0.  0.
         11    1    3    3    0    0  0.88475664476E+01  0.46031585429E+02  0.41110709610E+02  0.62348029112E+02  0.51100000000E-03 0. -1.
         22    1    1    0    0    0 -0.68172822234E+01 -0.25130543115E+02 -0.19604380743E+02  0.32593730662E+02  0.00000000000E+00 0. -1.
</event>
<event>
 5    1  0.1692178E-003  0.9118800E+02  0.7818608E-02  0.1130116E+00
         25   -1    0    0    0    0  0.00000000000E+00  0.00000000000E+00  0.99999998245E-14  0.12500000000E+03  0.12500000000E+03 0.  0.
        -11    1    3    3    0    0 -0.47281095744E+02 -0.24961735883E+02  0.16253903372E+01  0.53490486697E+02  0.51100000000E-03 0.  1.
         23    2    1    0    0    0 -0.10269072772E+02 -0.20453504028E+02  0.19586268235E+02  0.94876560854E+02  0.89967439740E+02 0.  0.
         11    1    3    3    0    0  0.37012022972E+02  0.45082318551E+01  0.17960877898E+02  0.41386074156E+02  0.51100000000E-03 0. -1.
         22    1    1    0    0    0  0.10269072772E+02  0.20453504028E+02 -0.19586268235E+02  0.30123439146E+02  0.00000000000E+00 0.  1.
</event>
<event>
 5    1  0.1692178E-003  0.9118800E+02  0.7818608E-02  0.1130116E+00
         25   -1    0    0    0    0  0.00000000000E+00  0.00000000000E+00  0.99999998245E-14  0.12500000000E+03  0.12500000000E+03 0.  0.
        -11    1    3    3    0    0 -0.73101725496E+01  0.14911738213E+01  0.35195232139E+02  0.35977306565E+02  0.51100000000E-03 0.  1.
         23    2    1    0    0    0  0.24279801304E+02 -0.21110870422E+01 -0.15715725374E+02  0.96000871325E+02  0.91516216220E+02 0.  0.
         11    1    3    3    0    0  0.31589973854E+02 -0.36022608635E+01 -0.50910957513E+02  0.60023564761E+02  0.51100000000E-03 0. -1.
         22    1    1    0    0    0 -0.24279801304E+02  0.21110870422E+01  0.15715725374E+02  0.28999128675E+02  0.00000000000E+00 0. -1.
</event>
<event>
 5    1  0.1692178E-003  0.9118800E+02  0.7818608E-02  0.1130116E+00
         25   -1    0    0    0    0  0.00000000000E+00  0.00000000000E+00  0.99999998245E-14  0.12500000000E+03  0.12500000000E+03 0.  0.
        -11    1    3    3    0    0 -0.53622601518E+02 -0.55230898101E+01  0.22268074680E+02  0.58324566563E+02  0.51100000000E-03 0.  1.
         23    2    1    0    0    0 -0.28576606994E+02 -0.78483942366E+01 -0.44646535939E+01  0.95030800960E+02  0.90181485018E+02 0.  0.
         11    1    3    3    0    0  0.25045994524E+02 -0.23253044265E+01 -0.26732728274E+02  0.36706234397E+02  0.51100000000E-03 0. -1.
         22    1    1    0    0    0  0.28576606994E+02  0.78483942366E+01  0.44646535939E+01  0.29969199040E+02  0.00000000000E+00 0.  1.
</event>
<event>
 5    1  0.1692178E-003  0.9118800E+02  0.7818608E-02  0.1130116E+00
         25   -1    0    0    0    0  0.00000000000E+00  0.00000000000E+00  0.99999998245E-14  0.12500000000E+03  0.12500000000E+03 0.  0.
        -11    1    3    3    0    0 -0.72292014109E+01 -0.11923257150E+01 -0.37474600833E+02  0.38184142016E+02  0.51100000000E-03 0.  1.
         23    2    1    0    0    0  0.24927883708E+02 -0.28496838529E+01  0.11979088072E+02  0.97196787321E+02  0.93135368310E+02 0.  0.
         11    1    3    3    0    0  0.32157085119E+02 -0.16573581380E+01  0.49453688905E+02  0.59012645305E+02  0.51100000000E-03 0. -1.
         22    1    1    0    0    0 -0.24927883708E+02  0.28496838529E+01 -0.11979088072E+02  0.27803212679E+02  0.00000000000E+00 0. -1.
</event>
<event>
 5    1  0.1692178E-003  0.9118800E+02  0.7818608E-02  0.1130116E+00
         25   -1    0    0    0    0  0.00000000000E+00  0.00000000000E+00  0.99999998245E-14  0.12500000000E+03  0.12500000000E+03 0.  0.
        -11    1    3    3    0    0 -0.46206592804E+02  0.24483408267E+01 -0.12483961111E+02  0.47925910285E+02  0.51100000000E-03 0.  1.
         23    2    1    0    0    0 -0.10289239428E+02  0.28262066162E+02  0.29647334936E+01  0.94777450862E+02  0.89829631611E+02 0.  0.
         11    1    3    3    0    0  0.35917353376E+02  0.25813725335E+02  0.15448694604E+02  0.46851540577E+02  0.51100000000E-03 0. -1.
         22    1    1    0    0    0  0.10289239428E+02 -0.28262066162E+02 -0.29647334936E+01  0.30222549138E+02  0.00000000000E+00 0.  1.
</event>
<event>
 5    1  0.1692178E-003  0.9118800E+02  0.7818608E-02  0.1130116E+00
         25   -1    0    0    0    0  0.00000000000E+00  0.00000000000E+00  0.99999998245E-14  0.12500000000E+03  0.12500000000E+03 0.  0.
        -11    1    3    3    0    0  0.24762448629E+02  0.21090944868E+02 -0.33332444193E+02  0.46573153787E+02  0.51100000000E-03 0.  1.
         23    2    1    0    0    0 -0.17310781352E+02  0.22495453937E+02 -0.88698540003E+01  0.95261423894E+02  0.90500585487E+02 0.  0.
         11    1    3    3    0    0 -0.42073229981E+02  0.14045090687E+01  0.24462590193E+02  0.48688270106E+02  0.51100000000E-03 0. -1.
         22    1    1    0    0    0  0.17310781352E+02 -0.22495453937E+02  0.88698540003E+01  0.29738576106E+02  0.00000000000E+00 0.  1.
</event>
<event>
 5    1  0.1692178E-003  0.9118800E+02  0.7818608E-02  0.1130116E+00
         25   -1    0    0    0    0  0.00000000000E+00  0.00000000000E+00  0.99999998245E-14  0.12500000000E+03  0.12500000000E+03 0.  0.
        -11    1    3    3    0    0  0.62298413020E+01  0.12549879863E+02 -0.38904562041E+02  0.41350639113E+02  0.51100000000E-03 0.  1.
         23    2    1    0    0    0 -0.12533921648E+02  0.25028410677E+02  0.10063224412E+02  0.95254596683E+02  0.90491155208E+02 0.  0.
         11    1    3    3    0    0 -0.18763762950E+02  0.12478530815E+02  0.48967786453E+02  0.53903957570E+02  0.51100000000E-03 0. -1.
         22    1    1    0    0    0  0.12533921648E+02 -0.25028410677E+02 -0.10063224412E+02  0.29745403317E+02  0.00000000000E+00 0. -1.
</event>
<event>
 5    1  0.1692178E-003  0.9118800E+02  0.7818608E-02  0.1130116E+00
         25   -1    0    0    0    0  0.00000000000E+00  0.00000000000E+00  0.99999998245E-14  0.12500000000E+03  0.12500000000E+03 0.  0.
        -11    1    3    3    0    0  0.32581651398E+02  0.13303618515E+02 -0.16371345597E+02  0.38814574974E+02  0.51100000000E-03 0.  1.
         23    2    1    0    0    0  0.64146972848E+01 -0.96396652042E+01  0.27704517405E+02  0.94973149164E+02  0.90101538782E+02 0.  0.
         11    1    3    3    0    0 -0.26166954114E+02 -0.22943283720E+02  0.44075863002E+02  0.56158574190E+02  0.51100000000E-03 0. -1.
         22    1    1    0    0    0 -0.64146972848E+01  0.96396652042E+01 -0.27704517405E+02  0.30026850836E+02  0.00000000000E+00 0. -1.
</event>
<event>
 5    1  0.1692178E-003  0.9118800E+02  0.7818608E-02  0.1130116E+00
         25   -1    0    0    0    0  0.00000000000E+00  0.00000000000E+00  0.99999998245E-14  0.12500000000E+03  0.12500000000E+03 0.  0.
        -11    1    3    3    0    0  0.32170636318E+02  0.28466870179E+02 -0.29574095773E+02  0.52153040946E+02  0.51100000000E-03 0. -1.
         23    2    1    0    0    0  0.28115263527E+02  0.24231988993E+01 -0.35975895089E+02  0.79276866210E+02  0.64762771347E+02 0.  0.
         11    1    3    3    0    0 -0.40553727908E+01 -0.26043671280E+02 -0.64017993157E+01  0.27123825264E+02  0.51100000000E-03 0.  1.
         22    1    1    0    0    0 -0.28115263527E+02 -0.24231988993E+01  0.35975895089E+02  0.45723133790E+02  0.00000000000E+00 0. -1.
</event>
<event>
 5    1  0.1692178E-003  0.9118800E+02  0.7818608E-02  0.1130116E+00
         25   -1    0    0    0    0  0.00000000000E+00  0.00000000000E+00  0.99999998245E-14  0.12500000000E+03  0.12500000000E+03 0.  0.
        -11    1    3    3    0    0  0.14704952326E+02 -0.15386662501E+02  0.26662298993E+02  0.34115439228E+02  0.51100000000E-03 0.  1.
         23    2    1    0    0    0 -0.27969742087E+02  0.58874470408E+01 -0.10478875126E+02  0.94557015111E+02  0.89522364679E+02 0.  0.
         11    1    3    3    0    0 -0.42674694412E+02  0.21274109542E+02 -0.37141174120E+02  0.60441575883E+02  0.51100000000E-03 0. -1.
         22    1    1    0    0    0  0.27969742087E+02 -0.58874470408E+01  0.10478875126E+02  0.30442984889E+02  0.00000000000E+00 0. -1.
</event>
<event>
 5    1  0.1692178E-003  0.9118800E+02  0.7818608E-02  0.1130116E+00
         25   -1    0    0    0    0  0.00000000000E+00  0.00000000000E+00  0.99999998245E-14  0.12500000000E+03  0.12500000000E+03 0.  0.
        -11    1    3    3    0    0  0.16538914512E+02 -0.55665762760E+02 -0.17335154473E+02  0.60602973671E+02  0.51100000000E-03 0. -1.
         23    2    1    0    0    0  0.55156986491E+01 -0.21744641835E+02 -0.17940233921E+02  0.96275369920E+02  0.91890382957E+02 0.  0.
         11    1    3    3    0    0 -0.11023215863E+02  0.33921120925E+02 -0.60507944791E+00  0.35672396249E+02  0.51100000000E-03 0.  1.
         22    1    1    0    0    0 -0.55156986491E+01  0.21744641835E+02  0.17940233921E+02  0.28724630080E+02  0.00000000000E+00 0. -1.
</event>
<event>
 5    1  0.1692178E-003  0.9118800E+02  0.7818608E-02  0.1130116E+00
         25   -1    0    0    0    0  0.00000000000E+00  0.00000000000E+00  0.99999998245E-14  0.12500000000E+03  0.12500000000E+03 0.  0.
        -11    1    3    3    0    0 -0.58466258186E+01  0.31578703578E+02  0.45033659563E+02  0.55312096751E+02  0.51100000000E-03 0. -1.
         23    2    1    0    0    0  0.17671596661E+02  0.18692544850E+02  0.16663467359E+02  0.94350893881E+02  0.89234093653E+02 0.  0.
         11    1    3    3    0    0  0.23518222479E+02 -0.12886158728E+02 -0.28370192204E+02  0.39038797129E+02  0.51100000000E-03 0.  1.
         22    1    1    0    0    0 -0.17671596661E+02 -0.18692544850E+02 -0.16663467359E+02  0.30649106119E+02  0.00000000000E+00 0. -1.
</event>
<event>
 5    1  0.1692178E-003  0.9118800E+02  0.7818608E-02  0.1130116E+00
         25   -1    0    0    0    0  0.00000000000E+00  0.00000000000E+00  0.99999998245E-14  0.12500000000E+03  0.12500000000E+03 0.  0.
        -11    1    3    3    0    0 -0.27461764914E+02 -0.14666931379E+02  0.97760183830E+01  0.32631854743E+02  0.51100000000E-03 0. -1.
         23    2    1    0    0    0  0.23585094492E+02  0.13946193002E+02 -0.12021656934E+02  0.95078883428E+02  0.90248107221E+02 0.  0.
         11    1    3    3    0    0  0.51046859406E+02  0.28613124381E+02 -0.21797675317E+02  0.62447028685E+02  0.51100000000E-03 0.  1.
         22    1    1    0    0    0 -0.23585094492E+02 -0.13946193002E+02  0.12021656934E+02  0.29921116572E+02  0.00000000000E+00 0.  1.
</event>
<event>
 5    1  0.1692178E-003  0.9118800E+02  0.7818608E-02  0.1130116E+00
         25   -1    0    0    0    0  0.00000000000E+00  0.00000000000E+00  0.99999998245E-14  0.12500000000E+03  0.12500000000E+03 0.  0.
        -11    1    3    3    0    0  0.83912056417E+01  0.26973804171E+01  0.57751640758E+02  0.58420374902E+02  0.51100000000E-03 0. -1.
         23    2    1    0    0    0 -0.96314624724E+01 -0.74271878069E+01  0.25813545149E+02  0.96464630697E+02  0.92147477851E+02 0.  0.
         11    1    3    3    0    0 -0.18022668114E+02 -0.10124568224E+02 -0.31938095609E+02  0.38044255795E+02  0.51100000000E-03 0.  1.
         22    1    1    0    0    0  0.96314624724E+01  0.74271878069E+01 -0.25813545149E+02  0.28535369303E+02  0.00000000000E+00 0. -1.
</event>
<event>
 5    1  0.1692178E-003  0.9118800E+02  0.7818608E-02  0.1130116E+00
         25   -1    0    0    0    0  0.00000000000E+00  0.00000000000E+00  0.99999998245E-14  0.12500000000E+03  0.12500000000E+03 0.  0.
        -11    1    3    3    0    0 -0.29073179382E+02  0.29929087098E+01  0.55011163085E+02  0.62293140282E+02  0.51100000000E-03 0.  1.
         23    2    1    0    0    0 -0.13961929592E+02 -0.15191438045E+01  0.21655271242E+02  0.99189264861E+02  0.95772210037E+02 0.  0.
         11    1    3    3    0    0  0.15111249790E+02 -0.45120525143E+01 -0.33355891843E+02  0.36896124580E+02  0.51100000000E-03 0. -1.
         22    1    1    0    0    0  0.13961929592E+02  0.15191438045E+01 -0.21655271242E+02  0.25810735139E+02  0.00000000000E+00 0.  1.
</event>
<event>
 5    1  0.1692178E-003  0.9118800E+02  0.7818608E-02  0.1130116E+00
         25   -1    0    0    0    0  0.00000000000E+00  0.00000000000E+00  0.99999998245E-14  0.12500000000E+03  0.12500000000E+03 0.  0.
        -11    1    3    3    0    0  0.27103566507E+02 -0.14373687962E+02  0.12128762747E+02  0.32989590920E+02  0.51100000000E-03 0.  1.
         23    2    1    0    0    0 -0.33901341442E+01  0.33910921020E+02  0.54662599364E+01  0.90484444498E+02  0.83642758948E+02 0.  0.
         11    1    3    3    0    0 -0.30493700652E+02  0.48284608982E+02 -0.66625028105E+01  0.57494853578E+02  0.51100000000E-03 0. -1.
         22    1    1    0    0    0  0.33901341442E+01 -0.33910921020E+02 -0.54662599364E+01  0.34515555502E+02  0.00000000000E+00 0. -1.
</event>
<event>
 5    1  0.1692178E-003  0.9118800E+02  0.7818608E-02  0.1130116E+00
         25   -1    0    0    0    0  0.00000000000E+00  0.00000000000E+00  0.99999998245E-14  0.12500000000E+03  0.12500000000E+03 0.  0.
        -11    1    3    3    0    0  0.20878988617E+02 -0.23241669366E+01 -0.37065630231E+02  0.42605103712E+02  0.51100000000E-03 0. -1.
         23    2    1    0    0    0  0.87714111070E+01 -0.26291264103E+02  0.89437406957E+01  0.95876835362E+02  0.91346641101E+02 0.  0.
         11    1    3    3    0    0 -0.12107577510E+02 -0.23967097166E+02  0.46009370926E+02  0.53271731650E+02  0.51100000000E-03 0.  1.
         22    1    1    0    0    0 -0.87714111070E+01  0.26291264103E+02 -0.89437406957E+01  0.29123164638E+02  0.00000000000E+00 0.  1.
</event>
<event>
 5    1  0.1692178E-003  0.9118800E+02  0.7818608E-02  0.1130116E+00
         25   -1    0    0    0    0  0.00000000000E+00  0.00000000000E+00  0.99999998245E-14  0.12500000000E+03  0.12500000000E+03 0.  0.
        -11    1    3    3    0    0  0.17359384369E+02  0.23049901793E+02 -0.22711884283E+02  0.36721599724E+02  0.51100000000E-03 0. -1.
         23    2    1    0    0    0 -0.31841345850E+02  0.49793865471E+01 -0.33486468390E+01  0.92598163145E+02  0.86744110961E+02 0.  0.
         11    1    3    3    0    0 -0.49200730218E+02 -0.18070515246E+02  0.19363237444E+02  0.55876563422E+02  0.51100000000E-03 0.  1.
         22    1    1    0    0    0  0.31841345850E+02 -0.49793865471E+01  0.33486468390E+01  0.32401836855E+02  0.00000000000E+00 0.  1.
</event>
<event>
 5    1  0.1692178E-003  0.9118800E+02  0.7818608E-02  0.1130116E+00
         25   -1    0    0    0    0  0.00000000000E+00  0.00000000000E+00  0.99999998245E-14  0.12500000000E+03  0.12500000000E+03 0.  0.
        -11    1    3    3    0    0  0.21551121144E+02 -0.23333618651E+02  0.41325991466E+02  0.52122415071E+02  0.51100000000E-03 0. -1.
         23    2    1    0    0    0  0.26123111228E+02 -0.12082873834E+02 -0.10444432889E+01  0.96198895123E+02  0.91786294079E+02 0.  0.
         11    1    3    3    0    0  0.45719900840E+01  0.11250744817E+02 -0.42370434754E+02  0.44076480052E+02  0.51100000000E-03 0.  1.
         22    1    1    0    0    0 -0.26123111228E+02  0.12082873834E+02  0.10444432889E+01  0.28801104877E+02  0.00000000000E+00 0. -1.
</event>
<event>
 5    1  0.1692178E-003  0.9118800E+02  0.7818608E-02  0.1130116E+00
         25   -1    0    0    0    0  0.00000000000E+00  0.00000000000E+00  0.99999998245E-14  0.12500000000E+03  0.12500000000E+03 0.  0.
        -11    1    3    3    0    0 -0.25857952255E+02  0.14738413275E+01  0.21015241773E+02  0.33353355005E+02  0.51100000000E-03 0. -1.
         23    2    1    0    0    0  0.75374965547E+00 -0.33783895160E+02 -0.12675784420E+02  0.88908515944E+02  0.81253485993E+02 0.  0.
         11    1    3    3    0    0  0.26611701910E+02 -0.35257736487E+02 -0.33691026193E+02  0.55555160939E+02  0.51100000000E-03 0.  1.
         22    1    1    0    0    0 -0.75374965547E+00  0.33783895160E+02  0.12675784420E+02  0.36091484056E+02  0.00000000000E+00 0.  1.
</event>
<event>
 5    1  0.1692178E-003  0.9118800E+02  0.7818608E-02  0.1130116E+00
         25   -1    0    0    0    0  0.00000000000E+00  0.00000000000E+00  0.99999998245E-14  0.12500000000E+03  0.12500000000E+03 0.  0.
        -11    1    3    3    0    0 -0.14848238159E+02  0.30709441729E+01 -0.31951708808E+02  0.35366828676E+02  0.51100000000E-03 0. -1.
         23    2    1    0    0    0  0.11286632522E+02 -0.13061324150E+02  0.21750848901E+02  0.97231570262E+02  0.93182039929E+02 0.  0.
         11    1    3    3    0    0  0.26134870681E+02 -0.16132268323E+02  0.53702557709E+02  0.61864741586E+02  0.51100000000E-03 0.  1.
         22    1    1    0    0    0 -0.11286632522E+02  0.13061324150E+02 -0.21750848901E+02  0.27768429738E+02  0.00000000000E+00 0.  1.
</event>
<event>
 5    1  0.1692178E-003  0.9118800E+02  0.7818608E-02  0.1130116E+00
         25   -1    0    0    0    0  0.00000000000E+00  0.00000000000E+00  0.99999998245E-14  0.12500000000E+03  0.12500000000E+03 0.  0.
        -11    1    3    3    0    0 -0.38669315104E+02  0.34628561411E+02  0.49153426607E+01  0.52140327864E+02  0.51100000000E-03 0.  1.
         23    2    1    0    0    0 -0.37995881685E+01  0.22484335865E+02 -0.18304956199E+02  0.95758699568E+02  0.91184839156E+02 0.  0.
         11    1    3    3    0    0  0.34869726936E+02 -0.12144225547E+02 -0.23220298860E+02  0.43618371704E+02  0.51100000000E-03 0. -1.
         22    1    1    0    0    0  0.37995881685E+01 -0.22484335865E+02  0.18304956199E+02  0.29241300432E+02  0.00000000000E+00 0.  1.
</event>
<event>
 5    1  0.1692178E-003  0.9118800E+02  0.7818608E-02  0.1130116E+00
         25   -1    0    0    0    0  0.00000000000E+00  0.00000000000E+00  0.99999998245E-14  0.12500000000E+03  0.12500000000E+03 0.  0.
        -11    1    3    3    0    0  0.12931685593E+02 -0.52024674626E+02 -0.63615097986E+01  0.53983924175E+02  0.51100000000E-03 0.  1.
         23    2    1    0    0    0 -0.95603108230E+01 -0.18586727552E+02  0.14692771959E+02  0.99451153999E+02  0.96113414775E+02 0.  0.
         11    1    3    3    0    0 -0.22491996416E+02  0.33437947073E+02  0.21054281758E+02  0.45467229824E+02  0.51100000000E-03 0. -1.
         22    1    1    0    0    0  0.95603108230E+01  0.18586727552E+02 -0.14692771959E+02  0.25548846001E+02  0.00000000000E+00 0.  1.
</event>
<event>
 5    1  0.1692178E-003  0.9118800E+02  0.7818608E-02  0.1130116E+00
         25   -1    0    0    0    0  0.00000000000E+00  0.00000000000E+00  0.99999998245E-14  0.12500000000E+03  0.12500000000E+03 0.  0.
        -11    1    3    3    0    0  0.35324816803E+02  0.49449024578E+02  0.14360106842E+02  0.62444066032E+02  0.51100000000E-03 0. -1.
         23    2    1    0    0    0  0.14952139417E+02  0.22512943845E+02  0.47266699741E+01  0.97563882878E+02  0.93626762838E+02 0.  0.
         11    1    3    3    0    0 -0.20372677386E+02 -0.26936080733E+02 -0.96334368674E+01  0.35119816846E+02  0.51100000000E-03 0.  1.
         22    1    1    0    0    0 -0.14952139417E+02 -0.22512943845E+02 -0.47266699741E+01  0.27436117122E+02  0.00000000000E+00 0. -1.
</event>
<event>
 5    1  0.1692178E-003  0.9118800E+02  0.7818608E-02  0.1130116E+00
         25   -1    0    0    0    0  0.00000000000E+00  0.00000000000E+00  0.99999998245E-14  0.12500000000E+03  0.12500000000E+03 0.  0.
        -11    1    3    3    0    0 -0.17458314099E+02 -0.11284841947E+02  0.29220090396E+02  0.35860201783E+02  0.51100000000E-03 0.  1.
         23    2    1    0    0    0  0.26821346681E+02  0.41271280587E+01 -0.90629491576E+01  0.96389602044E+02  0.92045643628E+02 0.  0.
         11    1    3    3    0    0  0.44279660779E+02  0.15411970006E+02 -0.38283039553E+02  0.60529400260E+02  0.51100000000E-03 0. -1.
         22    1    1    0    0    0 -0.26821346681E+02 -0.41271280587E+01  0.90629491576E+01  0.28610397956E+02  0.00000000000E+00 0. -1.
</event>
<event>
 5    1  0.1692178E-003  0.9118800E+02  0.7818608E-02  0.1130116E+00
         25   -1    0    0    0    0  0.00000000000E+00  0.00000000000E+00  0.99999998245E-14  0.12500000000E+03  0.12500000000E+03 0.  0.
        -11    1    3    3    0    0 -0.45200607967E+02 -0.18864362287E+02 -0.29698117170E+02  0.57279466554E+02  0.51100000000E-03 0. -1.
         23    2    1    0    0    0 -0.20768575559E+02 -0.18678428456E+02  0.16435018048E+01  0.97019318834E+02  0.92896876742E+02 0.  0.
         11    1    3    3    0    0  0.24432032407E+02  0.18593383085E+00  0.31341618975E+02  0.39739852279E+02  0.51100000000E-03 0.  1.
         22    1    1    0    0    0  0.20768575559E+02  0.18678428456E+02 -0.16435018048E+01  0.27980681166E+02  0.00000000000E+00 0. -1.
</event>
<event>
 5    1  0.1692178E-003  0.9118800E+02  0.7818608E-02  0.1130116E+00
         25   -1    0    0    0    0  0.00000000000E+00  0.00000000000E+00  0.99999998245E-14  0.12500000000E+03  0.12500000000E+03 0.  0.
        -11    1    3    3    0    0 -0.41220391264E+02 -0.39231005263E+01  0.90415013179E+01  0.42382309046E+02  0.51100000000E-03 0.  1.
         23    2    1    0    0    0  0.29299083076E+01  0.23165086492E+02  0.18715119800E+02  0.95075740544E+02  0.90243754000E+02 0.  0.
         11    1    3    3    0    0  0.44150299572E+02  0.27088187018E+02  0.96736184819E+01  0.52693431498E+02  0.51100000000E-03 0. -1.
         22    1    1    0    0    0 -0.29299083076E+01 -0.23165086492E+02 -0.18715119800E+02  0.29924259456E+02  0.00000000000E+00 0. -1.
</event>
<event>
 5    1  0.1692178E-003  0.9118800E+02  0.7818608E-02  0.1130116E+00
         25   -1    0    0    0    0  0.00000000000E+00  0.00000000000E+00  0.99999998245E-14  0.12500000000E+03  0.12500000000E+03 0.  0.
        -11    1    3    3    0    0 -0.25289527656E+02 -0.29109273637E+02 -0.10936234566E+01  0.38575977412E+02  0.51100000000E-03 0. -1.
         23    2    1    0    0    0 -0.87464448760E+00  0.23474798878E+02 -0.13559113548E+02  0.97876564643E+02  0.94043294076E+02 0.  0.
         11    1    3    3    0    0  0.24414883169E+02  0.52584072515E+02 -0.12465490092E+02  0.59300587231E+02  0.51100000000E-03 0.  1.
         22    1    1    0    0    0  0.87464448760E+00 -0.23474798878E+02  0.13559113548E+02  0.27123435357E+02  0.00000000000E+00 0.  1.
</event>
<event>
 5    1  0.1692178E-003  0.9118800E+02  0.7818608E-02  0.1130116E+00
         25   -1    0    0    0    0  0.00000000000E+00  0.00000000000E+00  0.99999998245E-14  0.12500000000E+03  0.12500000000E+03 0.  0.
        -11    1    3    3    0    0 -0.12364603454E+02 -0.13253526975E+02 -0.30639031925E+02  0.35599012253E+02  0.51100000000E-03 0.  1.
         23    2    1    0    0    0  0.15450702681E+02  0.26452494729E+02  0.24088458994E+01  0.94271166158E+02  0.89122340294E+02 0.  0.
         11    1    3    3    0    0  0.27815306135E+02  0.39706021704E+02  0.33047877824E+02  0.58672153905E+02  0.51100000000E-03 0. -1.
         22    1    1    0    0    0 -0.15450702681E+02 -0.26452494729E+02 -0.24088458994E+01  0.30728833842E+02  0.00000000000E+00 0. -1.
</event>
<event>
 5    1  0.1692178E-003  0.9118800E+02  0.7818608E-02  0.1130116E+00
         25   -1    0    0    0    0  0.00000000000E+00  0.00000000000E+00  0.99999998245E-14  0.12500000000E+03  0.12500000000E+03 0.  0.
        -11    1    3    3    0    0  0.48952148385E+02 -0.16668649826E+02  0.24264323000E+01  0.51769144212E+02  0.51100000000E-03 0.  1.
         23    2    1    0    0    0  0.16151788422E+02  0.15518241626E+02  0.13242250455E+02  0.98979752317E+02  0.95498366893E+02 0.  0.
         11    1    3    3    0    0 -0.32800359963E+02  0.32186891452E+02  0.10815818155E+02  0.47210608105E+02  0.51100000000E-03 0. -1.
         22    1    1    0    0    0 -0.16151788422E+02 -0.15518241626E+02 -0.13242250455E+02  0.26020247683E+02  0.00000000000E+00 0.  1.
</event>
<event>
 5    1  0.1692178E-003  0.9118800E+02  0.7818608E-02  0.1130116E+00
         25   -1    0    0    0    0  0.00000000000E+00  0.00000000000E+00  0.99999998245E-14  0.12500000000E+03  0.12500000000E+03 0.  0.
        -11    1    3    3    0    0  0.51812287117E+02  0.32072487131E+02 -0.40560064339E+00  0.60937033397E+02  0.51100000000E-03 0.  1.
         23    2    1    0    0    0  0.24331604391E+02  0.11555224993E+02  0.91735423244E+01  0.96544700394E+02  0.92256030147E+02 0.  0.
         11    1    3    3    0    0 -0.27480682726E+02 -0.20517262138E+02  0.95791429678E+01  0.35607666997E+02  0.51100000000E-03 0. -1.
         22    1    1    0    0    0 -0.24331604391E+02 -0.11555224993E+02 -0.91735423244E+01  0.28455299606E+02  0.00000000000E+00 0.  1.
</event>
<event>
 5    1  0.1692178E-003  0.9118800E+02  0.7818608E-02  0.1130116E+00
         25   -1    0    0    0    0  0.00000000000E+00  0.00000000000E+00  0.99999998245E-14  0.12500000000E+03  0.12500000000E+03 0.  0.
        -11    1    3    3    0    0 -0.29005338663E+02  0.19811689418E+02 -0.14653817542E+02  0.38059782939E+02  0.51100000000E-03 0. -1.
         23    2    1    0    0    0  0.20539893186E+02  0.17825896059E+02  0.13023228481E+02  0.94846156754E+02  0.89925186619E+02 0.  0.
         11    1    3    3    0    0  0.49545231849E+02 -0.19857933587E+01  0.27677046023E+02  0.56786373815E+02  0.51100000000E-03 0.  1.
         22    1    1    0    0    0 -0.20539893186E+02 -0.17825896059E+02 -0.13023228481E+02  0.30153843246E+02  0.00000000000E+00 0.  1.
</event>
<event>
 5    1  0.1692178E-003  0.9118800E+02  0.7818608E-02  0.1130116E+00
         25   -1    0    0    0    0  0.00000000000E+00  0.00000000000E+00  0.99999998245E-14  0.12500000000E+03  0.12500000000E+03 0.  0.
        -11    1    3    3    0    0  0.16860128206E+02  0.11212604860E+02  0.45161638097E+02  0.49493029678E+02  0.51100000000E-03 0.  1.
         23    2    1    0    0    0 -0.92860340503E+01 -0.18385899768E+02  0.19804423336E+02  0.96425764711E+02  0.92094740229E+02 0.  0.
         11    1    3    3    0    0 -0.26146162257E+02 -0.29598504628E+02 -0.25357214761E+02  0.46932735033E+02  0.51100000000E-03 0. -1.
         22    1    1    0    0    0  0.92860340503E+01  0.18385899768E+02 -0.19804423336E+02  0.28574235289E+02  0.00000000000E+00 0.  1.
</event>
<event>
 5    1  0.1692178E-003  0.9118800E+02  0.7818608E-02  0.1130116E+00
         25   -1    0    0    0    0  0.00000000000E+00  0.00000000000E+00  0.99999998245E-14  0.12500000000E+03  0.12500000000E+03 0.  0.
        -11    1    3    3    0    0  0.29229273156E+02 -0.24234673047E+02 -0.26131942580E+01  0.38059145700E+02  0.51100000000E-03 0. -1.
         23    2    1    0    0    0 -0.97201510441E+01  0.13565809159E+02 -0.23467020037E+02  0.96203931798E+02  0.91793153065E+02 0.  0.
         11    1    3    3    0    0 -0.38949424200E+02  0.37800482206E+02 -0.20853825779E+02  0.58144786098E+02  0.51100000000E-03 0.  1.
         22    1    1    0    0    0  0.97201510441E+01 -0.13565809159E+02  0.23467020037E+02  0.28796068202E+02  0.00000000000E+00 0.  1.
</event>
<event>
 5    1  0.1692178E-003  0.9118800E+02  0.7818608E-02  0.1130116E+00
         25   -1    0    0    0    0  0.00000000000E+00  0.00000000000E+00  0.99999998245E-14  0.12500000000E+03  0.12500000000E+03 0.  0.
        -11    1    3    3    0    0 -0.14052527992E+00  0.85670386685E+01  0.44388587934E+02  0.45207970955E+02  0.51100000000E-03 0.  1.
         23    2    1    0    0    0 -0.22537820125E+02  0.18011914072E+02 -0.37624388930E+00  0.96146508981E+02  0.91714923787E+02 0.  0.
         11    1    3    3    0    0 -0.22397294845E+02  0.94448754037E+01 -0.44764831823E+02  0.50938538025E+02  0.51100000000E-03 0. -1.
         22    1    1    0    0    0  0.22537820125E+02 -0.18011914072E+02  0.37624388930E+00  0.28853491019E+02  0.00000000000E+00 0. -1.
</event>
<event>
 5    1  0.1692178E-003  0.9118800E+02  0.7818608E-02  0.1130116E+00
         25   -1    0    0    0    0  0.00000000000E+00  0.00000000000E+00  0.99999998245E-14  0.12500000000E+03  0.12500000000E+03 0.  0.
        -11    1    3    3    0    0 -0.26702083688E+02 -0.31754037608E+02  0.44748595292E+01  0.41729420626E+02  0.51100000000E-03 0. -1.
         23    2    1    0    0    0 -0.28375705211E+02 -0.10358833197E+02 -0.30056952639E+02  0.82386545864E+02  0.70509832407E+02 0.  0.
         11    1    3    3    0    0 -0.16736215235E+01  0.21395204411E+02 -0.34531812168E+02  0.40657125239E+02  0.51100000000E-03 0.  1.
         22    1    1    0    0    0  0.28375705211E+02  0.10358833197E+02  0.30056952639E+02  0.42613454136E+02  0.00000000000E+00 0. -1.
</event>
<event>
 5    1  0.1692178E-003  0.9118800E+02  0.7818608E-02  0.1130116E+00
         25   -1    0    0    0    0  0.00000000000E+00  0.00000000000E+00  0.99999998245E-14  0.12500000000E+03  0.12500000000E+03 0.  0.
        -11    1    3    3    0    0 -0.33889048036E+02  0.35403295544E+02  0.34251372452E+02  0.59791449450E+02  0.51100000000E-03 0.  1.
         23    2    1    0    0    0 -0.76694627634E+01  0.11159082900E+02  0.24820329446E+02  0.96726433828E+02  0.92501937586E+02 0.  0.
         11    1    3    3    0    0  0.26219585273E+02 -0.24244212644E+02 -0.94310430055E+01  0.36934984379E+02  0.51100000000E-03 0. -1.
         22    1    1    0    0    0  0.76694627634E+01 -0.11159082900E+02 -0.24820329446E+02  0.28273566172E+02  0.00000000000E+00 0.  1.
</event>
<event>
 5    1  0.1692178E-003  0.9118800E+02  0.7818608E-02  0.1130116E+00
         25   -1    0    0    0    0  0.00000000000E+00  0.00000000000E+00  0.99999998245E-14  0.12500000000E+03  0.12500000000E+03 0.  0.
        -11    1    3    3    0    0  0.17415601651E+01  0.21533884700E+02 -0.46450330262E+02  0.51228648272E+02  0.51100000000E-03 0. -1.
         23    2    1    0    0    0  0.20287056325E+02  0.19863499889E+02 -0.56867287453E+01  0.96043788818E+02  0.91574817524E+02 0.  0.
         11    1    3    3    0    0  0.18545496160E+02 -0.16703848115E+01  0.40763601517E+02  0.44815140546E+02  0.51100000000E-03 0.  1.
         22    1    1    0    0    0 -0.20287056325E+02 -0.19863499889E+02  0.56867287453E+01  0.28956211182E+02  0.00000000000E+00 0. -1.
</event>
<event>
 5    1  0.1692178E-003  0.9118800E+02  0.7818608E-02  0.1130116E+00
         25   -1    0    0    0    0  0.00000000000E+00  0.00000000000E+00  0.99999998245E-14  0.12500000000E+03  0.12500000000E+03 0.  0.
        -11    1    3    3    0    0 -0.25417011239E+02 -0.49252309812E+02 -0.25902544315E+01  0.55484447374E+02  0.51100000000E-03 0.  1.
         23    2    1    0    0    0 -0.15775995178E+02 -0.13241184116E+02 -0.19696792952E+02  0.96501322255E+02  0.92197237289E+02 0.  0.
         11    1    3    3    0    0  0.96410160614E+01  0.36011125695E+02 -0.17106538520E+02  0.41016874880E+02  0.51100000000E-03 0. -1.
         22    1    1    0    0    0  0.15775995178E+02  0.13241184116E+02  0.19696792952E+02  0.28498677745E+02  0.00000000000E+00 0.  1.
</event>
<event>
 5    1  0.1692178E-003  0.9118800E+02  0.7818608E-02  0.1130116E+00
         25   -1    0    0    0    0  0.00000000000E+00  0.00000000000E+00  0.99999998245E-14  0.12500000000E+03  0.12500000000E+03 0.  0.
        -11    1    3    3    0    0 -0.47544006502E+02 -0.27122180401E+02  0.55015294866E+01  0.55011926443E+02  0.51100000000E-03 0. -1.
         23    2    1    0    0    0 -0.17466635893E+02 -0.14215383201E+02 -0.18708465794E+02  0.95722582400E+02  0.91135314780E+02 0.  0.
         11    1    3    3    0    0  0.30077370610E+02  0.12906797200E+02 -0.24209995280E+02  0.40710655957E+02  0.51100000000E-03 0.  1.
         22    1    1    0    0    0  0.17466635893E+02  0.14215383201E+02  0.18708465794E+02  0.29277417600E+02  0.00000000000E+00 0. -1.
</event>
<event>
 5    1  0.1692178E-003  0.9118800E+02  0.7818608E-02  0.1130116E+00
         25   -1    0    0    0    0  0.00000000000E+00  0.00000000000E+00  0.99999998245E-14  0.12500000000E+03  0.12500000000E+03 0.  0.
        -11    1    3    3    0    0  0.67502562553E+01 -0.22873941965E+01 -0.40516368767E+02  0.41138476759E+02  0.51100000000E-03 0. -1.
         23    2    1    0    0    0 -0.29016613031E+02  0.43014925256E+01  0.11092429028E+00  0.95666078101E+02  0.91057781245E+02 0.  0.
         11    1    3    3    0    0 -0.35766869287E+02  0.65888867221E+01  0.40627293057E+02  0.54527601343E+02  0.51100000000E-03 0.  1.
         22    1    1    0    0    0  0.29016613031E+02 -0.43014925256E+01 -0.11092429028E+00  0.29333921899E+02  0.00000000000E+00 0.  1.
</event>
<event>
 5    1  0.1692178E-003  0.9118800E+02  0.7818608E-02  0.1130116E+00
         25   -1    0    0    0    0  0.00000000000E+00  0.00000000000E+00  0.99999998245E-14  0.12500000000E+03  0.12500000000E+03 0.  0.
        -11    1    3    3    0    0  0.10955117270E+00 -0.49622140518E+02  0.22610643642E+02  0.54530817316E+02  0.51100000000E-03 0.  1.
         23    2    1    0    0    0 -0.17559838325E+02 -0.20362322318E+02 -0.39564586823E+01  0.97822331641E+02  0.93971181275E+02 0.  0.
         11    1    3    3    0    0 -0.17669389497E+02  0.29259818200E+02 -0.26567102325E+02  0.43291514324E+02  0.51100000000E-03 0. -1.
         22    1    1    0    0    0  0.17559838325E+02  0.20362322318E+02  0.39564586823E+01  0.27177668359E+02  0.00000000000E+00 0.  1.
</event>
<event>
 5    1  0.1692178E-003  0.9118800E+02  0.7818608E-02  0.1130116E+00
         25   -1    0    0    0    0  0.00000000000E+00  0.00000000000E+00  0.99999998245E-14  0.12500000000E+03  0.12500000000E+03 0.  0.
        -11    1    3    3    0    0  0.33373697325E+01 -0.49555631375E+02 -0.75773518300E+01  0.50242560631E+02  0.51100000000E-03 0. -1.
         23    2    1    0    0    0  0.22713410736E+02 -0.12339841795E+02  0.11950781565E+02  0.96522080434E+02  0.92225376706E+02 0.  0.
         11    1    3    3    0    0  0.19376041003E+02  0.37215789580E+02  0.19528133395E+02  0.46279519803E+02  0.51100000000E-03 0.  1.
         22    1    1    0    0    0 -0.22713410736E+02  0.12339841795E+02 -0.11950781565E+02  0.28477919566E+02  0.00000000000E+00 0. -1.
</event>
<event>
 5    1  0.1692178E-003  0.9118800E+02  0.7818608E-02  0.1130116E+00
         25   -1    0    0    0    0  0.00000000000E+00  0.00000000000E+00  0.99999998245E-14  0.12500000000E+03  0.12500000000E+03 0.  0.
        -11    1    3    3    0    0  0.38820529519E+02  0.95419890074E+01  0.38022330016E+02  0.55170468971E+02  0.51100000000E-03 0.  1.
         23    2    1    0    0    0  0.17579174507E+02 -0.16705982340E+02  0.11229237884E+02  0.98275236095E+02  0.94571713656E+02 0.  0.
         11    1    3    3    0    0 -0.21241355012E+02 -0.26247971348E+02 -0.26793092132E+02  0.43104767125E+02  0.51100000000E-03 0. -1.
         22    1    1    0    0    0 -0.17579174507E+02  0.16705982340E+02 -0.11229237884E+02  0.26724763905E+02  0.00000000000E+00 0. -1.
</event>
<event>
 5    1  0.1692178E-003  0.9118800E+02  0.7818608E-02  0.1130116E+00
         25   -1    0    0    0    0  0.00000000000E+00  0.00000000000E+00  0.99999998245E-14  0.12500000000E+03  0.12500000000E+03 0.  0.
        -11    1    3    3    0    0  0.16836831771E+02  0.32445109394E+01 -0.43716478902E+02  0.46958878640E+02  0.51100000000E-03 0. -1.
         23    2    1    0    0    0 -0.18862416958E+02  0.17796929025E+02 -0.14886652437E+02  0.95097928550E+02  0.90274482205E+02 0.  0.
         11    1    3    3    0    0 -0.35699248729E+02  0.14552418086E+02  0.28829826465E+02  0.48139049910E+02  0.51100000000E-03 0.  1.
         22    1    1    0    0    0  0.18862416958E+02 -0.17796929025E+02  0.14886652437E+02  0.29902071450E+02  0.00000000000E+00 0.  1.
</event>
<event>
 5    1  0.1692178E-003  0.9118800E+02  0.7818608E-02  0.1130116E+00
         25   -1    0    0    0    0  0.00000000000E+00  0.00000000000E+00  0.99999998245E-14  0.12500000000E+03  0.12500000000E+03 0.  0.
        -11    1    3    3    0    0  0.14870975428E+02 -0.57998169728E+02 -0.11102415251E+01  0.59884607693E+02  0.51100000000E-03 0. -1.
         23    2    1    0    0    0  0.13257181610E+01 -0.26106459940E+02  0.11070476527E+02  0.96612322572E+02  0.92347607673E+02 0.  0.
         11    1    3    3    0    0 -0.13545257267E+02  0.31891709788E+02  0.12180718052E+02  0.36727714879E+02  0.51100000000E-03 0.  1.
         22    1    1    0    0    0 -0.13257181610E+01  0.26106459940E+02 -0.11070476527E+02  0.28387677428E+02  0.00000000000E+00 0. -1.
</event>
<event>
 5    1  0.1692178E-003  0.9118800E+02  0.7818608E-02  0.1130116E+00
         25   -1    0    0    0    0  0.00000000000E+00  0.00000000000E+00  0.99999998245E-14  0.12500000000E+03  0.12500000000E+03 0.  0.
        -11    1    3    3    0    0 -0.35486783038E+02 -0.18954777400E+02  0.39569583345E+02  0.56430021115E+02  0.51100000000E-03 0. -1.
         23    2    1    0    0    0 -0.73187273698E+01  0.15128030609E+01 -0.71230583515E+01  0.11467574198E+03  0.11421004988E+03 0.  0.
         11    1    3    3    0    0  0.28168055669E+02  0.20467580461E+02 -0.46692641696E+02  0.58245720864E+02  0.51100000000E-03 0.  1.
         22    1    1    0    0    0  0.73187273698E+01 -0.15128030609E+01  0.71230583515E+01  0.10324258021E+02  0.00000000000E+00 0.  1.
</event>
<event>
 5    1  0.1692178E-003  0.9118800E+02  0.7818608E-02  0.1130116E+00
         25   -1    0    0    0    0  0.00000000000E+00  0.00000000000E+00  0.99999998245E-14  0.12500000000E+03  0.12500000000E+03 0.  0.
        -11    1    3    3    0    0 -0.19588379429E+02 -0.19200684795E+02  0.53064185602E+02  0.59734233895E+02  0.51100000000E-03 0.  1.
         23    2    1    0    0    0  0.14646267301E-01 -0.18216876496E+02  0.22627911340E+02  0.95950435883E+02  0.91447301604E+02 0.  0.
         11    1    3    3    0    0  0.19603025696E+02  0.98380829836E+00 -0.30436274262E+02  0.36216201987E+02  0.51100000000E-03 0. -1.
         22    1    1    0    0    0 -0.14646267301E-01  0.18216876496E+02 -0.22627911340E+02  0.29049564117E+02  0.00000000000E+00 0.  1.
</event>
<event>
 5    1  0.1692178E-003  0.9118800E+02  0.7818608E-02  0.1130116E+00
         25   -1    0    0    0    0  0.00000000000E+00  0.00000000000E+00  0.99999998245E-14  0.12500000000E+03  0.12500000000E+03 0.  0.
        -11    1    3    3    0    0  0.15919778184E+02  0.45284123004E+02  0.12132050559E+02  0.49510380575E+02  0.51100000000E-03 0. -1.
         23    2    1    0    0    0  0.17492959090E+02  0.69112624881E+01 -0.18486682941E+02  0.98627161452E+02  0.95035732032E+02 0.  0.
         11    1    3    3    0    0  0.15731809065E+01 -0.38372860516E+02 -0.30618733500E+02  0.49116780877E+02  0.51100000000E-03 0.  1.
         22    1    1    0    0    0 -0.17492959090E+02 -0.69112624881E+01  0.18486682941E+02  0.26372838548E+02  0.00000000000E+00 0. -1.
</event>
<event>
 5    1  0.1692178E-003  0.9118800E+02  0.7818608E-02  0.1130116E+00
         25   -1    0    0    0    0  0.00000000000E+00  0.00000000000E+00  0.99999998245E-14  0.12500000000E+03  0.12500000000E+03 0.  0.
        -11    1    3    3    0    0  0.18495381445E+02  0.62407282138E+00 -0.56046007070E+02  0.59022228952E+02  0.51100000000E-03 0.  1.
         23    2    1    0    0    0 -0.25214462130E+00 -0.53662185211E+01 -0.40614041786E+02  0.84032204498E+02  0.73369279160E+02 0.  0.
         11    1    3    3    0    0 -0.18747526067E+02 -0.59902913425E+01  0.15431965285E+02  0.25009975546E+02  0.51100000000E-03 0. -1.
         22    1    1    0    0    0  0.25214462130E+00  0.53662185211E+01  0.40614041786E+02  0.40967795502E+02  0.00000000000E+00 0.  1.
</event>
<event>
 5    1  0.1692178E-003  0.9118800E+02  0.7818608E-02  0.1130116E+00
         25   -1    0    0    0    0  0.00000000000E+00  0.00000000000E+00  0.99999998245E-14  0.12500000000E+03  0.12500000000E+03 0.  0.
        -11    1    3    3    0    0  0.14730587066E+02  0.42333206726E+02 -0.32187971058E+02  0.55182932761E+02  0.51100000000E-03 0. -1.
         23    2    1    0    0    0  0.16531253400E+02  0.24872838209E+02  0.34765479379E+01  0.94932961484E+02  0.90045768201E+02 0.  0.
         11    1    3    3    0    0  0.18006663348E+01 -0.17460368517E+02  0.35664518996E+02  0.39750028723E+02  0.51100000000E-03 0.  1.
         22    1    1    0    0    0 -0.16531253400E+02 -0.24872838209E+02 -0.34765479379E+01  0.30067038516E+02  0.00000000000E+00 0. -1.
</event>
<event>
 5    1  0.1692178E-003  0.9118800E+02  0.7818608E-02  0.1130116E+00
         25   -1    0    0    0    0  0.00000000000E+00  0.00000000000E+00  0.99999998245E-14  0.12500000000E+03  0.12500000000E+03 0.  0.
        -11    1    3    3    0    0 -0.13246042469E+02  0.31001220066E+02  0.18936059804E+02  0.38666621883E+02  0.51100000000E-03 0. -1.
         23    2    1    0    0    0  0.24786997688E+02 -0.10975088841E+02  0.10472970793E+02  0.95939185374E+02  0.91431921907E+02 0.  0.
         11    1    3    3    0    0  0.38033040157E+02 -0.41976308907E+02 -0.84630890112E+01  0.57272563492E+02  0.51100000000E-03 0.  1.
         22    1    1    0    0    0 -0.24786997688E+02  0.10975088841E+02 -0.10472970793E+02  0.29060814626E+02  0.00000000000E+00 0.  1.
</event>
<event>
 5    1  0.1692178E-003  0.9118800E+02  0.7818608E-02  0.1130116E+00
         25   -1    0    0    0    0  0.00000000000E+00  0.00000000000E+00  0.99999998245E-14  0.12500000000E+03  0.12500000000E+03 0.  0.
        -11    1    3    3    0    0 -0.97755574977E+01  0.27983493567E+02  0.24250309005E+02  0.38297714341E+02  0.51100000000E-03 0.  1.
         23    2    1    0    0    0 -0.22549623890E+02 -0.22087759747E+02  0.89217727348E+01  0.92198282104E+02  0.86165947601E+02 0.  0.
         11    1    3    3    0    0 -0.12774066392E+02 -0.50071253315E+02 -0.15328536270E+02  0.53900567763E+02  0.51100000000E-03 0. -1.
         22    1    1    0    0    0  0.22549623890E+02  0.22087759747E+02 -0.89217727348E+01  0.32801717896E+02  0.00000000000E+00 0. -1.
</event>
<event>
 5    1  0.1692178E-003  0.9118800E+02  0.7818608E-02  0.1130116E+00
         25   -1    0    0    0    0  0.00000000000E+00  0.00000000000E+00  0.99999998245E-14  0.12500000000E+03  0.12500000000E+03 0.  0.
        -11    1    3    3    0    0 -0.55577435872E+01  0.57806049343E+01  0.45779788712E+02  0.46476800255E+02  0.51100000000E-03 0.  1.
         23    2    1    0    0    0 -0.21070956499E+01  0.16576280975E+02 -0.11401919897E+02  0.10477089423E+03  0.10279943364E+03 0.  0.
         11    1    3    3    0    0  0.34506479372E+01  0.10795676040E+02 -0.57181708609E+02  0.58294093972E+02  0.51100000000E-03 0. -1.
         22    1    1    0    0    0  0.21070956499E+01 -0.16576280975E+02  0.11401919897E+02  0.20229105773E+02  0.00000000000E+00 0. -1.
</event>
<event>
 5    1  0.1692178E-003  0.9118800E+02  0.7818608E-02  0.1130116E+00
         25   -1    0    0    0    0  0.00000000000E+00  0.00000000000E+00  0.99999998245E-14  0.12500000000E+03  0.12500000000E+03 0.  0.
        -11    1    3    3    0    0  0.29987224036E+02  0.13969248171E+02  0.51839177454E+02  0.61495315425E+02  0.51100000000E-03 0.  1.
         23    2    1    0    0    0  0.17355657104E+02  0.12376588912E+02  0.20064618232E+02  0.95725647891E+02  0.91139519270E+02 0.  0.
         11    1    3    3    0    0 -0.12631566932E+02 -0.15926592592E+01 -0.31774559222E+02  0.34230332466E+02  0.51100000000E-03 0. -1.
         22    1    1    0    0    0 -0.17355657104E+02 -0.12376588912E+02 -0.20064618232E+02  0.29274352109E+02  0.00000000000E+00 0.  1.
</event>
<event>
 5    1  0.1692178E-003  0.9118800E+02  0.7818608E-02  0.1130116E+00
         25   -1    0    0    0    0  0.00000000000E+00  0.00000000000E+00  0.99999998245E-14  0.12500000000E+03  0.12500000000E+03 0.  0.
        -11    1    3    3    0    0 -0.25570589957E+02  0.25448778452E+02  0.15997876178E+02  0.39464255193E+02  0.51100000000E-03 0.  1.
         23    2    1    0    0    0  0.64598296506E+01  0.15241022194E+02 -0.26563442711E+02  0.93700884272E+02  0.88318860206E+02 0.  0.
         11    1    3    3    0    0  0.32030419608E+02 -0.10207756257E+02 -0.42561318889E+02  0.54236629080E+02  0.51100000000E-03 0. -1.
         22    1    1    0    0    0 -0.64598296506E+01 -0.15241022194E+02  0.26563442711E+02  0.31299115728E+02  0.00000000000E+00 0. -1.
</event>
<event>
 5    1  0.1692178E-003  0.9118800E+02  0.7818608E-02  0.1130116E+00
         25   -1    0    0    0    0  0.00000000000E+00  0.00000000000E+00  0.99999998245E-14  0.12500000000E+03  0.12500000000E+03 0.  0.
        -11    1    3    3    0    0 -0.73841737310E+01  0.44177232141E+02 -0.38199598885E+02  0.58867335736E+02  0.51100000000E-03 0. -1.
         23    2    1    0    0    0  0.10940856472E+02  0.18223524018E+02 -0.93630992057E+01  0.10177357551E+03  0.99087808921E+02 0.  0.
         11    1    3    3    0    0  0.18325030203E+02 -0.25953708123E+02  0.28836499679E+02  0.42906239771E+02  0.51100000000E-03 0.  1.
         22    1    1    0    0    0 -0.10940856472E+02 -0.18223524018E+02  0.93630992057E+01  0.23226424493E+02  0.00000000000E+00 0. -1.
</event>
<event>
 5    1  0.1692178E-003  0.9118800E+02  0.7818608E-02  0.1130116E+00
         25   -1    0    0    0    0  0.00000000000E+00  0.00000000000E+00  0.99999998245E-14  0.12500000000E+03  0.12500000000E+03 0.  0.
        -11    1    3    3    0    0  0.20345523861E+02 -0.10438753894E+02 -0.25233867694E+02  0.34053722310E+02  0.51100000000E-03 0.  1.
         23    2    1    0    0    0 -0.18273388741E+02  0.17657009458E+02  0.14113966684E+02  0.95932995087E+02  0.91423458542E+02 0.  0.
         11    1    3    3    0    0 -0.38618912602E+02  0.28095763352E+02  0.39347834378E+02  0.61879272777E+02  0.51100000000E-03 0. -1.
         22    1    1    0    0    0  0.18273388741E+02 -0.17657009458E+02 -0.14113966684E+02  0.29067004913E+02  0.00000000000E+00 0. -1.
</event>
<event>
 5    1  0.1692178E-003  0.9118800E+02  0.7818608E-02  0.1130116E+00
         25   -1    0    0    0    0  0.00000000000E+00  0.00000000000E+00  0.99999998245E-14  0.12500000000E+03  0.12500000000E+03 0.  0.
        -11    1    3    3    0    0  0.29790416279E+02 -0.46074107294E+02  0.21633911718E+02  0.58977270210E+02  0.51100000000E-03 0. -1.
         23    2    1    0    0    0  0.88653057327E+01 -0.16101186967E+02  0.23000573428E+02  0.95557373665E+02  0.90908434242E+02 0.  0.
         11    1    3    3    0    0 -0.20925110546E+02  0.29972920326E+02  0.13666617098E+01  0.36580103455E+02  0.51100000000E-03 0.  1.
         22    1    1    0    0    0 -0.88653057327E+01  0.16101186967E+02 -0.23000573428E+02  0.29442626335E+02  0.00000000000E+00 0. -1.
</event>
<event>
 5    1  0.1692178E-003  0.9118800E+02  0.7818608E-02  0.1130116E+00
         25   -1    0    0    0    0  0.00000000000E+00  0.00000000000E+00  0.99999998245E-14  0.12500000000E+03  0.12500000000E+03 0.  0.
        -11    1    3    3    0    0  0.38605419814E+02  0.10220890589E+01 -0.37494151264E+01  0.38800531171E+02  0.51100000000E-03 0.  1.
         23    2    1    0    0    0 -0.19893721244E+02 -0.15576713520E+02 -0.23411716956E+01  0.99625303274E+02  0.96339637837E+02 0.  0.
         11    1    3    3    0    0 -0.58499141058E+02 -0.16598802579E+02  0.14082434307E+01  0.60824772103E+02  0.51100000000E-03 0. -1.
         22    1    1    0    0    0  0.19893721244E+02  0.15576713520E+02  0.23411716956E+01  0.25374696726E+02  0.00000000000E+00 0. -1.
</event>
<event>
 5    1  0.1692178E-003  0.9118800E+02  0.7818608E-02  0.1130116E+00
         25   -1    0    0    0    0  0.00000000000E+00  0.00000000000E+00  0.99999998245E-14  0.12500000000E+03  0.12500000000E+03 0.  0.
        -11    1    3    3    0    0 -0.11927641727E+02  0.46937146037E+02 -0.55245018634E+01  0.48743045005E+02  0.51100000000E-03 0. -1.
         23    2    1    0    0    0  0.23784993903E+02  0.15958139788E+02  0.13437257344E+00  0.96357265905E+02  0.92001719964E+02 0.  0.
         11    1    3    3    0    0  0.35712635630E+02 -0.30979006249E+02  0.56588744368E+01  0.47614220900E+02  0.51100000000E-03 0.  1.
         22    1    1    0    0    0 -0.23784993903E+02 -0.15958139788E+02 -0.13437257344E+00  0.28642734095E+02  0.00000000000E+00 0.  1.
</event>
<event>
 5    1  0.1692178E-003  0.9118800E+02  0.7818608E-02  0.1130116E+00
         25   -1    0    0    0    0  0.00000000000E+00  0.00000000000E+00  0.99999998245E-14  0.12500000000E+03  0.12500000000E+03 0.  0.
        -11    1    3    3    0    0 -0.24937136964E+02 -0.35010061148E+02  0.37582907889E+02  0.57096761267E+02  0.51100000000E-03 0.  1.
         23    2    1    0    0    0 -0.15974510195E+02 -0.25359530286E+02  0.20885894206E+01  0.94955816569E+02  0.90077489653E+02 0.  0.
         11    1    3    3    0    0  0.89626267692E+01  0.96505308623E+01 -0.35494318468E+02  0.37859055302E+02  0.51100000000E-03 0. -1.
         22    1    1    0    0    0  0.15974510195E+02  0.25359530286E+02 -0.20885894206E+01  0.30044183431E+02  0.00000000000E+00 0.  1.
</event>
<event>
 5    1  0.1692178E-003  0.9118800E+02  0.7818608E-02  0.1130116E+00
         25   -1    0    0    0    0  0.00000000000E+00  0.00000000000E+00  0.99999998245E-14  0.12500000000E+03  0.12500000000E+03 0.  0.
        -11    1    3    3    0    0 -0.15698694114E+02  0.28114341544E+02 -0.49050686729E+02  0.58675676956E+02  0.51100000000E-03 0. -1.
         23    2    1    0    0    0  0.50683233340E+01  0.38880458210E+01 -0.26479939308E+02  0.97760470131E+02  0.93888857341E+02 0.  0.
         11    1    3    3    0    0  0.20767017448E+02 -0.24226295723E+02  0.22570747421E+02  0.39084793175E+02  0.51100000000E-03 0.  1.
         22    1    1    0    0    0 -0.50683233340E+01 -0.38880458210E+01  0.26479939308E+02  0.27239529869E+02  0.00000000000E+00 0. -1.
</event>
<event>
 5    1  0.1692178E-003  0.9118800E+02  0.7818608E-02  0.1130116E+00
         25   -1    0    0    0    0  0.00000000000E+00  0.00000000000E+00  0.99999998245E-14  0.12500000000E+03  0.12500000000E+03 0.  0.
        -11    1    3    3    0    0 -0.32026408258E+02  0.35429849789E+02 -0.28177712829E+02  0.55452218914E+02  0.51100000000E-03 0. -1.
         23    2    1    0    0    0 -0.12556950310E+02  0.18001023767E+02 -0.36094752091E+02  0.82756124867E+02  0.71162006834E+02 0.  0.
         11    1    3    3    0    0  0.19469457949E+02 -0.17428826022E+02 -0.79170392628E+01  0.27303905953E+02  0.51100000000E-03 0.  1.
         22    1    1    0    0    0  0.12556950310E+02 -0.18001023767E+02  0.36094752091E+02  0.42243875133E+02  0.00000000000E+00 0. -1.
</event>
<event>
 5    1  0.1692178E-003  0.9118800E+02  0.7818608E-02  0.1130116E+00
         25   -1    0    0    0    0  0.00000000000E+00  0.00000000000E+00  0.99999998245E-14  0.12500000000E+03  0.12500000000E+03 0.  0.
        -11    1    3    3    0    0 -0.12259825356E+02 -0.49328823623E+02  0.15597631032E+02  0.53168809013E+02  0.51100000000E-03 0. -1.
         23    2    1    0    0    0 -0.25337716634E+02 -0.16747440520E+02  0.20121510484E+02  0.88567159974E+02  0.80726637448E+02 0.  0.
         11    1    3    3    0    0 -0.13077891278E+02  0.32581383104E+02  0.45238794513E+01  0.35398350961E+02  0.51100000000E-03 0.  1.
         22    1    1    0    0    0  0.25337716634E+02  0.16747440520E+02 -0.20121510484E+02  0.36432840026E+02  0.00000000000E+00 0. -1.
</event>
<event>
 5    1  0.1692178E-003  0.9118800E+02  0.7818608E-02  0.1130116E+00
         25   -1    0    0    0    0  0.00000000000E+00  0.00000000000E+00  0.99999998245E-14  0.12500000000E+03  0.12500000000E+03 0.  0.
        -11    1    3    3    0    0 -0.71762825311E+01  0.24363560360E+02 -0.35673795734E+02  0.43791572325E+02  0.51100000000E-03 0.  1.
         23    2    1    0    0    0 -0.10858285553E+02  0.22484546492E+02  0.15813511189E+02  0.95444554948E+02  0.90753174804E+02 0.  0.
         11    1    3    3    0    0 -0.36820030217E+01 -0.18790138680E+01  0.51487306923E+02  0.51652982623E+02  0.51100000000E-03 0. -1.
         22    1    1    0    0    0  0.10858285553E+02 -0.22484546492E+02 -0.15813511189E+02  0.29555445052E+02  0.00000000000E+00 0. -1.
</event>
<event>
 5    1  0.1692178E-003  0.9118800E+02  0.7818608E-02  0.1130116E+00
         25   -1    0    0    0    0  0.00000000000E+00  0.00000000000E+00  0.99999998245E-14  0.12500000000E+03  0.12500000000E+03 0.  0.
        -11    1    3    3    0    0  0.29435721313E+02 -0.42070878745E+02 -0.29814198570E+02  0.59374295484E+02  0.51100000000E-03 0.  1.
         23    2    1    0    0    0 -0.28865592453E+00 -0.10651257030E+02 -0.17784283505E+02  0.10426805995E+03  0.10218617806E+03 0.  0.
         11    1    3    3    0    0 -0.29724377238E+02  0.31419621715E+02  0.12029915065E+02  0.44893764462E+02  0.51100000000E-03 0. -1.
         22    1    1    0    0    0  0.28865592453E+00  0.10651257030E+02  0.17784283505E+02  0.20731940053E+02  0.00000000000E+00 0.  1.
</event>
<event>
 5    1  0.1692178E-003  0.9118800E+02  0.7818608E-02  0.1130116E+00
         25   -1    0    0    0    0  0.00000000000E+00  0.00000000000E+00  0.99999998245E-14  0.12500000000E+03  0.12500000000E+03 0.  0.
        -11    1    3    3    0    0  0.18486967078E+01  0.14852566777E+02  0.51296514712E+02  0.53435464265E+02  0.51100000000E-03 0. -1.
         23    2    1    0    0    0 -0.15555781585E+02 -0.10085994587E+02  0.26414340226E+02  0.92728851940E+02  0.86932232141E+02 0.  0.
         11    1    3    3    0    0 -0.17404478293E+02 -0.24938561364E+02 -0.24882174486E+02  0.39293387675E+02  0.51100000000E-03 0.  1.
         22    1    1    0    0    0  0.15555781585E+02  0.10085994587E+02 -0.26414340226E+02  0.32271148060E+02  0.00000000000E+00 0. -1.
</event>
<event>
 5    1  0.1692178E-003  0.9118800E+02  0.7818608E-02  0.1130116E+00
         25   -1    0    0    0    0  0.00000000000E+00  0.00000000000E+00  0.99999998245E-14  0.12500000000E+03  0.12500000000E+03 0.  0.
        -11    1    3    3    0    0 -0.19694506569E+02 -0.53385526755E+02  0.33121560294E+01  0.56998758177E+02  0.51100000000E-03 0.  1.
         23    2    1    0    0    0  0.25107207245E+01 -0.17359788218E+02  0.16082247268E+02  0.10120284381E+03  0.98365191773E+02 0.  0.
         11    1    3    3    0    0  0.22205227293E+02  0.36025738536E+02  0.12770091238E+02  0.44204085634E+02  0.51100000000E-03 0. -1.
         22    1    1    0    0    0 -0.25107207245E+01  0.17359788218E+02 -0.16082247268E+02  0.23797156190E+02  0.00000000000E+00 0.  1.
</event>
<event>
 5    1  0.1692178E-003  0.9118800E+02  0.7818608E-02  0.1130116E+00
         25   -1    0    0    0    0  0.00000000000E+00  0.00000000000E+00  0.99999998245E-14  0.12500000000E+03  0.12500000000E+03 0.  0.
        -11    1    3    3    0    0 -0.19081831816E+02  0.13138120616E+02  0.33056646535E+02  0.40366674363E+02  0.51100000000E-03 0. -1.
         23    2    1    0    0    0  0.15825209336E+02 -0.17437390594E+00 -0.16308361313E+02  0.10227489702E+03  0.99718224286E+02 0.  0.
         11    1    3    3    0    0  0.34907041152E+02 -0.13312494522E+02 -0.49365007847E+02  0.61908222656E+02  0.51100000000E-03 0.  1.
         22    1    1    0    0    0 -0.15825209336E+02  0.17437390594E+00  0.16308361313E+02  0.22725102981E+02  0.00000000000E+00 0.  1.
</event>
<event>
 5    1  0.1692178E-003  0.9118800E+02  0.7818608E-02  0.1130116E+00
         25   -1    0    0    0    0  0.00000000000E+00  0.00000000000E+00  0.99999998245E-14  0.12500000000E+03  0.12500000000E+03 0.  0.
        -11    1    3    3    0    0  0.10392696656E+02  0.21787447891E+01 -0.33470696737E+02  0.35114706505E+02  0.51100000000E-03 0. -1.
         23    2    1    0    0    0  0.75412653425E+00  0.48048991870E+01  0.27588662224E+02  0.96985895582E+02  0.92851892256E+02 0.  0.
         11    1    3    3    0    0 -0.96385701214E+01  0.26261543979E+01  0.61059358961E+02  0.61871189077E+02  0.51100000000E-03 0.  1.
         22    1    1    0    0    0 -0.75412653425E+00 -0.48048991870E+01 -0.27588662224E+02  0.28014104418E+02  0.00000000000E+00 0.  1.
</event>
<event>
 5    1  0.1692178E-003  0.9118800E+02  0.7818608E-02  0.1130116E+00
         25   -1    0    0    0    0  0.00000000000E+00  0.00000000000E+00  0.99999998245E-14  0.12500000000E+03  0.12500000000E+03 0.  0.
        -11    1    3    3    0    0 -0.19125920342E+02  0.50990746881E+02 -0.74074615898E+01  0.54961146130E+02  0.51100000000E-03 0.  1.
         23    2    1    0    0    0  0.10550088649E+02  0.25278121928E+02  0.69008949845E+01  0.96752696230E+02  0.92537419769E+02 0.  0.
         11    1    3    3    0    0  0.29676008991E+02 -0.25712624954E+02  0.14308356574E+02  0.41791550100E+02  0.51100000000E-03 0. -1.
         22    1    1    0    0    0 -0.10550088649E+02 -0.25278121928E+02 -0.69008949845E+01  0.28247303770E+02  0.00000000000E+00 0. -1.
</event>
<event>
 5    1  0.1692178E-003  0.9118800E+02  0.7818608E-02  0.1130116E+00
         25   -1    0    0    0    0  0.00000000000E+00  0.00000000000E+00  0.99999998245E-14  0.12500000000E+03  0.12500000000E+03 0.  0.
        -11    1    3    3    0    0 -0.26459020872E+02  0.45231963660E+01 -0.21121912890E+02  0.34156614225E+02  0.51100000000E-03 0. -1.
         23    2    1    0    0    0  0.28488770502E+02 -0.27817709486E+01  0.58224528881E+01  0.95789569466E+02  0.91227147092E+02 0.  0.
         11    1    3    3    0    0  0.54947791374E+02 -0.73049673147E+01  0.26944365778E+02  0.61632955242E+02  0.51100000000E-03 0.  1.
         22    1    1    0    0    0 -0.28488770502E+02  0.27817709486E+01 -0.58224528881E+01  0.29210430534E+02  0.00000000000E+00 0.  1.
</event>
<event>
 5    1  0.1692178E-003  0.9118800E+02  0.7818608E-02  0.1130116E+00
         25   -1    0    0    0    0  0.00000000000E+00  0.00000000000E+00  0.99999998245E-14  0.12500000000E+03  0.12500000000E+03 0.  0.
        -11    1    3    3    0    0 -0.18148735642E+02  0.22025677838E+02  0.43918188213E+02  0.52376658407E+02  0.51100000000E-03 0.  1.
         23    2    1    0    0    0 -0.15012356124E+02  0.28403186309E+02  0.43472929539E+01  0.92580703510E+02  0.86718947627E+02 0.  0.
         11    1    3    3    0    0  0.31363795183E+01  0.63775084704E+01 -0.39570895260E+02  0.40204045103E+02  0.51100000000E-03 0. -1.
         22    1    1    0    0    0  0.15012356124E+02 -0.28403186309E+02 -0.43472929539E+01  0.32419296490E+02  0.00000000000E+00 0.  1.
</event>
<event>
 5    1  0.1692178E-003  0.9118800E+02  0.7818608E-02  0.1130116E+00
         25   -1    0    0    0    0  0.00000000000E+00  0.00000000000E+00  0.99999998245E-14  0.12500000000E+03  0.12500000000E+03 0.  0.
        -11    1    3    3    0    0 -0.46882723705E+02 -0.30088912515E+02  0.25491457224E+02  0.61262931941E+02  0.51100000000E-03 0. -1.
         23    2    1    0    0    0 -0.26707276629E+02 -0.10120403678E+02  0.56773052496E+01  0.95880711025E+02  0.91351944458E+02 0.  0.
         11    1    3    3    0    0  0.20175447077E+02  0.19968508837E+02 -0.19814151975E+02  0.34617779083E+02  0.51100000000E-03 0.  1.
         22    1    1    0    0    0  0.26707276629E+02  0.10120403678E+02 -0.56773052496E+01  0.29119288975E+02  0.00000000000E+00 0. -1.
</event>
<event>
 5    1  0.1692178E-003  0.9118800E+02  0.7818608E-02  0.1130116E+00
         25   -1    0    0    0    0  0.00000000000E+00  0.00000000000E+00  0.99999998245E-14  0.12500000000E+03  0.12500000000E+03 0.  0.
        -11    1    3    3    0    0  0.37611157313E+01  0.35738685247E+02  0.10937772939E+02  0.37563739056E+02  0.51100000000E-03 0.  1.
         23    2    1    0    0    0 -0.97831050659E+01 -0.21785693756E+02  0.14996527842E+02  0.96800329001E+02  0.92601739996E+02 0.  0.
         11    1    3    3    0    0 -0.13544220797E+02 -0.57524379003E+02  0.40587549023E+01  0.59236589945E+02  0.51100000000E-03 0. -1.
         22    1    1    0    0    0  0.97831050659E+01  0.21785693756E+02 -0.14996527842E+02  0.28199670999E+02  0.00000000000E+00 0. -1.
</event>
<event>
 5    1  0.1692178E-003  0.9118800E+02  0.7818608E-02  0.1130116E+00
         25   -1    0    0    0    0  0.00000000000E+00  0.00000000000E+00  0.99999998245E-14  0.12500000000E+03  0.12500000000E+03 0.  0.
        -11    1    3    3    0    0  0.42766645177E+01 -0.35831279055E+02 -0.21197140070E+02  0.41850796474E+02  0.51100000000E-03 0. -1.
         23    2    1    0    0    0 -0.28127315367E+02 -0.43710066395E+01  0.77548430161E+01  0.95497641467E+02  0.90826264741E+02 0.  0.
         11    1    3    3    0    0 -0.32403979885E+02  0.31460272415E+02  0.28951983086E+02  0.53646844993E+02  0.51100000000E-03 0.  1.
         22    1    1    0    0    0  0.28127315367E+02  0.43710066395E+01 -0.77548430161E+01  0.29502358533E+02  0.00000000000E+00 0.  1.
</event>
<event>
 5    1  0.1692178E-003  0.9118800E+02  0.7818608E-02  0.1130116E+00
         25   -1    0    0    0    0  0.00000000000E+00  0.00000000000E+00  0.99999998245E-14  0.12500000000E+03  0.12500000000E+03 0.  0.
        -11    1    3    3    0    0 -0.23474282107E+02  0.26982791376E+02  0.65203486869E+01  0.36354200557E+02  0.51100000000E-03 0.  1.
         23    2    1    0    0    0 -0.62892505151E+01 -0.27742549476E+02 -0.78562341282E+01  0.95488576142E+02  0.90813787695E+02 0.  0.
         11    1    3    3    0    0  0.17185031592E+02 -0.54725340851E+02 -0.14376582815E+02  0.59134375585E+02  0.51100000000E-03 0. -1.
         22    1    1    0    0    0  0.62892505151E+01  0.27742549476E+02  0.78562341282E+01  0.29511423858E+02  0.00000000000E+00 0. -1.
</event>
<event>
 5    1  0.1692178E-003  0.9118800E+02  0.7818608E-02  0.1130116E+00
         25   -1    0    0    0    0  0.00000000000E+00  0.00000000000E+00  0.99999998245E-14  0.12500000000E+03  0.12500000000E+03 0.  0.
        -11    1    3    3    0    0  0.11327023936E+02  0.27776029586E+02 -0.37906339708E+01  0.30235379888E+02  0.51100000000E-03 0.  1.
         23    2    1    0    0    0 -0.13222687087E+02 -0.29245465239E+02  0.33660246634E+01  0.92728235052E+02  0.86931345112E+02 0.  0.
         11    1    3    3    0    0 -0.24549711023E+02 -0.57021494825E+02  0.71566586342E+01  0.62492855163E+02  0.51100000000E-03 0. -1.
         22    1    1    0    0    0  0.13222687087E+02  0.29245465239E+02 -0.33660246634E+01  0.32271764948E+02  0.00000000000E+00 0. -1.
</event>
<event>
 5    1  0.1692178E-003  0.9118800E+02  0.7818608E-02  0.1130116E+00
         25   -1    0    0    0    0  0.00000000000E+00  0.00000000000E+00  0.99999998245E-14  0.12500000000E+03  0.12500000000E+03 0.  0.
        -11    1    3    3    0    0 -0.22401825623E+02 -0.19709372543E+02  0.38213472620E+02  0.48482683993E+02  0.51100000000E-03 0.  1.
         23    2    1    0    0    0  0.36595592134E+01  0.17036239382E+02  0.23235610930E+02  0.95956593842E+02  0.91455718578E+02 0.  0.
         11    1    3    3    0    0  0.26061384836E+02  0.36745611925E+02 -0.14977861690E+02  0.47473909849E+02  0.51100000000E-03 0. -1.
         22    1    1    0    0    0 -0.36595592134E+01 -0.17036239382E+02 -0.23235610930E+02  0.29043406158E+02  0.00000000000E+00 0.  1.
</event>
<event>
 5    1  0.1692178E-003  0.9118800E+02  0.7818608E-02  0.1130116E+00
         25   -1    0    0    0    0  0.00000000000E+00  0.00000000000E+00  0.99999998245E-14  0.12500000000E+03  0.12500000000E+03 0.  0.
        -11    1    3    3    0    0 -0.50205943276E+01 -0.27010230817E+02 -0.18538286577E+02  0.33142525638E+02  0.51100000000E-03 0. -1.
         23    2    1    0    0    0 -0.14751565208E+02  0.24953033406E+02  0.11346424222E+02  0.93871172607E+02  0.88559545797E+02 0.  0.
         11    1    3    3    0    0 -0.97309708807E+01  0.51963264223E+02  0.29884710799E+02  0.60728646969E+02  0.51100000000E-03 0.  1.
         22    1    1    0    0    0  0.14751565208E+02 -0.24953033406E+02 -0.11346424222E+02  0.31128827393E+02  0.00000000000E+00 0.  1.
</event>
<event>
 5    1  0.1692178E-003  0.9118800E+02  0.7818608E-02  0.1130116E+00
         25   -1    0    0    0    0  0.00000000000E+00  0.00000000000E+00  0.99999998245E-14  0.12500000000E+03  0.12500000000E+03 0.  0.
        -11    1    3    3    0    0  0.48706955918E+02  0.26094649471E+02 -0.73878942583E+01  0.55748356637E+02  0.51100000000E-03 0. -1.
         23    2    1    0    0    0  0.26165598773E+02 -0.67350488133E+01 -0.11196490683E+02  0.95753447293E+02  0.91177638833E+02 0.  0.
         11    1    3    3    0    0 -0.22541357146E+02 -0.32829698285E+02 -0.38085964248E+01  0.40005090656E+02  0.51100000000E-03 0.  1.
         22    1    1    0    0    0 -0.26165598773E+02  0.67350488133E+01  0.11196490683E+02  0.29246552707E+02  0.00000000000E+00 0. -1.
</event>
<event>
 5    1  0.1692178E-003  0.9118800E+02  0.7818608E-02  0.1130116E+00
         25   -1    0    0    0    0  0.00000000000E+00  0.00000000000E+00  0.99999998245E-14  0.12500000000E+03  0.12500000000E+03 0.  0.
        -11    1    3    3    0    0  0.27566315768E+02 -0.17477617354E+02  0.12199882922E+02  0.34845459058E+02  0.51100000000E-03 0.  1.
         23    2    1    0    0    0 -0.22673280479E+02  0.79650167946E+01 -0.14248677446E+02  0.97061783357E+02  0.92953998511E+02 0.  0.
         11    1    3    3    0    0 -0.50239596247E+02  0.25442634148E+02 -0.26448560368E+02  0.62216324299E+02  0.51100000000E-03 0. -1.
         22    1    1    0    0    0  0.22673280479E+02 -0.79650167946E+01  0.14248677446E+02  0.27938216643E+02  0.00000000000E+00 0. -1.
</event>
<event>
 5    1  0.1692178E-003  0.9118800E+02  0.7818608E-02  0.1130116E+00
         25   -1    0    0    0    0  0.00000000000E+00  0.00000000000E+00  0.99999998245E-14  0.12500000000E+03  0.12500000000E+03 0.  0.
        -11    1    3    3    0    0 -0.29710212848E+02 -0.23203342465E+02 -0.24562035215E+02  0.44993170851E+02  0.51100000000E-03 0.  1.
         23    2    1    0    0    0 -0.70164772571E+00 -0.22036423453E+02  0.18016391506E+02  0.96527440737E+02  0.92232641642E+02 0.  0.
         11    1    3    3    0    0  0.29008565122E+02  0.11669190124E+01  0.42578426720E+02  0.51534269886E+02  0.51100000000E-03 0. -1.
         22    1    1    0    0    0  0.70164772571E+00  0.22036423453E+02 -0.18016391506E+02  0.28472559263E+02  0.00000000000E+00 0. -1.
</event>
<event>
 5    1  0.1692178E-003  0.9118800E+02  0.7818608E-02  0.1130116E+00
         25   -1    0    0    0    0  0.00000000000E+00  0.00000000000E+00  0.99999998245E-14  0.12500000000E+03  0.12500000000E+03 0.  0.
        -11    1    3    3    0    0  0.41871425680E+02  0.33947592693E+02 -0.23108625212E+02  0.58648647875E+02  0.51100000000E-03 0. -1.
         23    2    1    0    0    0  0.14265207670E+02  0.28218982005E+02 -0.30845969736E+01  0.93230174162E+02  0.87650120026E+02 0.  0.
         11    1    3    3    0    0 -0.27606218010E+02 -0.57286106873E+01  0.20024028239E+02  0.34581526287E+02  0.51100000000E-03 0.  1.
         22    1    1    0    0    0 -0.14265207670E+02 -0.28218982005E+02  0.30845969736E+01  0.31769825838E+02  0.00000000000E+00 0. -1.
</event>
<event>
 5    1  0.1692178E-003  0.9118800E+02  0.7818608E-02  0.1130116E+00
         25   -1    0    0    0    0  0.00000000000E+00  0.00000000000E+00  0.99999998245E-14  0.12500000000E+03  0.12500000000E+03 0.  0.
        -11    1    3    3    0    0  0.50887370049E+01 -0.32846775070E+02  0.31785739057E+02  0.45990641271E+02  0.51100000000E-03 0.  1.
         23    2    1    0    0    0 -0.27148454444E+02 -0.75572850788E+01  0.24607335510E+02  0.87587808173E+02  0.79195656719E+02 0.  0.
         11    1    3    3    0    0 -0.32237191449E+02  0.25289489991E+02 -0.71784035470E+01  0.41597166902E+02  0.51100000000E-03 0. -1.
         22    1    1    0    0    0  0.27148454444E+02  0.75572850788E+01 -0.24607335510E+02  0.37412191827E+02  0.00000000000E+00 0. -1.
</event>
<event>
 5    1  0.1692178E-003  0.9118800E+02  0.7818608E-02  0.1130116E+00
         25   -1    0    0    0    0  0.00000000000E+00  0.00000000000E+00  0.99999998245E-14  0.12500000000E+03  0.12500000000E+03 0.  0.
        -11    1    3    3    0    0  0.10697369243E+02  0.52470981249E+02 -0.26397423811E+02  0.59703111862E+02  0.51100000000E-03 0. -1.
         23    2    1    0    0    0  0.13397464345E+02  0.16561346536E+02 -0.18977928266E+02  0.96470506292E+02  0.92155447875E+02 0.  0.
         11    1    3    3    0    0  0.27000951024E+01 -0.35909634713E+02  0.74194955450E+01  0.36767394430E+02  0.51100000000E-03 0.  1.
         22    1    1    0    0    0 -0.13397464345E+02 -0.16561346536E+02  0.18977928266E+02  0.28529493708E+02  0.00000000000E+00 0. -1.
</event>
<event>
 5    1  0.1692178E-003  0.9118800E+02  0.7818608E-02  0.1130116E+00
         25   -1    0    0    0    0  0.00000000000E+00  0.00000000000E+00  0.99999998245E-14  0.12500000000E+03  0.12500000000E+03 0.  0.
        -11    1    3    3    0    0  0.77923749722E+01  0.49833309811E+02  0.22453484614E+02  0.55210858044E+02  0.51100000000E-03 0.  1.
         23    2    1    0    0    0  0.81228099921E+01  0.84425671671E+01  0.25725840334E+02  0.96732070408E+02  0.92509554112E+02 0.  0.
         11    1    3    3    0    0  0.33043501992E+00 -0.41390742644E+02  0.32723557195E+01  0.41521212363E+02  0.51100000000E-03 0. -1.
         22    1    1    0    0    0 -0.81228099921E+01 -0.84425671671E+01 -0.25725840334E+02  0.28267929592E+02  0.00000000000E+00 0.  1.
</event>
<event>
 5    1  0.1692178E-003  0.9118800E+02  0.7818608E-02  0.1130116E+00
         25   -1    0    0    0    0  0.00000000000E+00  0.00000000000E+00  0.99999998245E-14  0.12500000000E+03  0.12500000000E+03 0.  0.
        -11    1    3    3    0    0  0.22906288674E+02  0.14584263870E+02 -0.50453178605E+02  0.57296789134E+02  0.51100000000E-03 0. -1.
         23    2    1    0    0    0  0.89558354864E+01 -0.11592886124E+02 -0.23103521902E+02  0.97643561594E+02  0.93733080599E+02 0.  0.
         11    1    3    3    0    0 -0.13950453187E+02 -0.26177149994E+02  0.27349656703E+02  0.40346772460E+02  0.51100000000E-03 0.  1.
         22    1    1    0    0    0 -0.89558354864E+01  0.11592886124E+02  0.23103521902E+02  0.27356438406E+02  0.00000000000E+00 0. -1.
</event>
<event>
 5    1  0.1692178E-003  0.9118800E+02  0.7818608E-02  0.1130116E+00
         25   -1    0    0    0    0  0.00000000000E+00  0.00000000000E+00  0.99999998245E-14  0.12500000000E+03  0.12500000000E+03 0.  0.
        -11    1    3    3    0    0  0.29916504015E+02 -0.61303363644E+01  0.33009541775E+01  0.30716030590E+02  0.51100000000E-03 0. -1.
         23    2    1    0    0    0 -0.30034099908E+02 -0.80200879557E+01  0.12683096682E+02  0.91425755264E+02  0.85037866954E+02 0.  0.
         11    1    3    3    0    0 -0.59950603923E+02 -0.18897515912E+01  0.93821425047E+01  0.60709724675E+02  0.51100000000E-03 0.  1.
         22    1    1    0    0    0  0.30034099908E+02  0.80200879557E+01 -0.12683096682E+02  0.33574244736E+02  0.00000000000E+00 0.  1.
</event>
<event>
 5    1  0.1692178E-003  0.9118800E+02  0.7818608E-02  0.1130116E+00
         25   -1    0    0    0    0  0.00000000000E+00  0.00000000000E+00  0.99999998245E-14  0.12500000000E+03  0.12500000000E+03 0.  0.
        -11    1    3    3    0    0 -0.18193206646E+02 -0.23011732183E+02  0.25692146009E+02  0.38995114475E+02  0.51100000000E-03 0. -1.
         23    2    1    0    0    0  0.40958205417E+01 -0.18217461360E+02 -0.24542888796E+02  0.94161630478E+02  0.88968576584E+02 0.  0.
         11    1    3    3    0    0  0.22289027187E+02  0.47942708226E+01 -0.50235034806E+02  0.55166516003E+02  0.51100000000E-03 0.  1.
         22    1    1    0    0    0 -0.40958205417E+01  0.18217461360E+02  0.24542888796E+02  0.30838369522E+02  0.00000000000E+00 0.  1.
</event>
<event>
 5    1  0.1692178E-003  0.9118800E+02  0.7818608E-02  0.1130116E+00
         25   -1    0    0    0    0  0.00000000000E+00  0.00000000000E+00  0.99999998245E-14  0.12500000000E+03  0.12500000000E+03 0.  0.
        -11    1    3    3    0    0  0.30315321873E+02 -0.80179981142E+01  0.15962751251E+02  0.35186879114E+02  0.51100000000E-03 0.  1.
         23    2    1    0    0    0 -0.26779864001E+02  0.91339058025E+01  0.83104797916E+00  0.96693110523E+02  0.92456896069E+02 0.  0.
         11    1    3    3    0    0 -0.57095185874E+02  0.17151903917E+02 -0.15131703272E+02  0.61506231409E+02  0.51100000000E-03 0. -1.
         22    1    1    0    0    0  0.26779864001E+02 -0.91339058025E+01 -0.83104797916E+00  0.28306889477E+02  0.00000000000E+00 0. -1.
</event>
<event>
 5    1  0.1692178E-003  0.9118800E+02  0.7818608E-02  0.1130116E+00
         25   -1    0    0    0    0  0.00000000000E+00  0.00000000000E+00  0.99999998245E-14  0.12500000000E+03  0.12500000000E+03 0.  0.
        -11    1    3    3    0    0 -0.34786984383E+02 -0.99945708868E+01 -0.12530571934E+01  0.36215961706E+02  0.51100000000E-03 0.  1.
         23    2    1    0    0    0  0.24026085695E+02 -0.10971470938E+02 -0.11963483864E+02  0.96004294895E+02  0.91520892280E+02 0.  0.
         11    1    3    3    0    0  0.58813070079E+02 -0.97690005090E+00 -0.10710426670E+02  0.59788333189E+02  0.51100000000E-03 0. -1.
         22    1    1    0    0    0 -0.24026085695E+02  0.10971470938E+02  0.11963483864E+02  0.28995705105E+02  0.00000000000E+00 0. -1.
</event>
<event>
 5    1  0.1692178E-003  0.9118800E+02  0.7818608E-02  0.1130116E+00
         25   -1    0    0    0    0  0.00000000000E+00  0.00000000000E+00  0.99999998245E-14  0.12500000000E+03  0.12500000000E+03 0.  0.
        -11    1    3    3    0    0  0.21732817025E+02 -0.22660211814E+02  0.10956015280E+02  0.33254094580E+02  0.51100000000E-03 0.  1.
         23    2    1    0    0    0 -0.11275766043E+02  0.24328884344E+02 -0.12662437820E+02  0.95345744912E+02  0.90616975385E+02 0.  0.
         11    1    3    3    0    0 -0.33008583068E+02  0.46989096158E+02 -0.23618453100E+02  0.62091650332E+02  0.51100000000E-03 0. -1.
         22    1    1    0    0    0  0.11275766043E+02 -0.24328884344E+02  0.12662437820E+02  0.29654255088E+02  0.00000000000E+00 0. -1.
</event>
<event>
 5    1  0.1692178E-003  0.9118800E+02  0.7818608E-02  0.1130116E+00
         25   -1    0    0    0    0  0.00000000000E+00  0.00000000000E+00  0.99999998245E-14  0.12500000000E+03  0.12500000000E+03 0.  0.
        -11    1    3    3    0    0  0.16441500036E-01  0.53045138867E+02 -0.35411610735E+01  0.53163209551E+02  0.51100000000E-03 0.  1.
         23    2    1    0    0    0  0.24186715458E+01  0.13381582612E+02  0.21084003050E+02  0.99911119797E+02  0.96709771736E+02 0.  0.
         11    1    3    3    0    0  0.24022300457E+01 -0.39663556255E+02  0.24625164123E+02  0.46747910246E+02  0.51100000000E-03 0. -1.
         22    1    1    0    0    0 -0.24186715458E+01 -0.13381582612E+02 -0.21084003050E+02  0.25088880203E+02  0.00000000000E+00 0.  1.
</event>
<event>
 5    1  0.1692178E-003  0.9118800E+02  0.7818608E-02  0.1130116E+00
         25   -1    0    0    0    0  0.00000000000E+00  0.00000000000E+00  0.99999998245E-14  0.12500000000E+03  0.12500000000E+03 0.  0.
        -11    1    3    3    0    0  0.89054774058E+01  0.38280133492E+02 -0.83744380463E+00  0.39311289223E+02  0.51100000000E-03 0.  1.
         23    2    1    0    0    0  0.23516485955E+02 -0.14919518315E+02  0.97598503115E+01  0.95489462619E+02  0.90815007871E+02 0.  0.
         11    1    3    3    0    0  0.14611008550E+02 -0.53199651807E+02  0.10597294116E+02  0.56178173395E+02  0.51100000000E-03 0. -1.
         22    1    1    0    0    0 -0.23516485955E+02  0.14919518315E+02 -0.97598503115E+01  0.29510537381E+02  0.00000000000E+00 0. -1.
</event>
<event>
 5    1  0.1692178E-003  0.9118800E+02  0.7818608E-02  0.1130116E+00
         25   -1    0    0    0    0  0.00000000000E+00  0.00000000000E+00  0.99999998245E-14  0.12500000000E+03  0.12500000000E+03 0.  0.
        -11    1    3    3    0    0 -0.33144664304E+02 -0.60858717031E+01  0.24737051528E+02  0.41803448719E+02  0.51100000000E-03 0. -1.
         23    2    1    0    0    0  0.20718999834E+02  0.50014741328E+01  0.17797177057E+02  0.97232551273E+02  0.93183355907E+02 0.  0.
         11    1    3    3    0    0  0.53863664138E+02  0.11087345836E+02 -0.69398744706E+01  0.55429102554E+02  0.51100000000E-03 0.  1.
         22    1    1    0    0    0 -0.20718999834E+02 -0.50014741328E+01 -0.17797177057E+02  0.27767448727E+02  0.00000000000E+00 0.  1.
</event>
<event>
 5    1  0.1692178E-003  0.9118800E+02  0.7818608E-02  0.1130116E+00
         25   -1    0    0    0    0  0.00000000000E+00  0.00000000000E+00  0.99999998245E-14  0.12500000000E+03  0.12500000000E+03 0.  0.
        -11    1    3    3    0    0  0.11582618258E+02 -0.48336032822E+02 -0.35891922142E+02  0.61308720342E+02  0.51100000000E-03 0. -1.
         23    2    1    0    0    0  0.52368833941E+01 -0.16802181327E+02 -0.23180859576E+02  0.95895180885E+02  0.91371741919E+02 0.  0.
         11    1    3    3    0    0 -0.63457348641E+01  0.31533851495E+02  0.12711062566E+02  0.34586460543E+02  0.51100000000E-03 0.  1.
         22    1    1    0    0    0 -0.52368833941E+01  0.16802181327E+02  0.23180859576E+02  0.29104819115E+02  0.00000000000E+00 0. -1.
</event>
<event>
 5    1  0.1692178E-003  0.9118800E+02  0.7818608E-02  0.1130116E+00
         25   -1    0    0    0    0  0.00000000000E+00  0.00000000000E+00  0.99999998245E-14  0.12500000000E+03  0.12500000000E+03 0.  0.
        -11    1    3    3    0    0  0.13702101541E+02 -0.37166139370E+02 -0.19748755363E+02  0.44261527775E+02  0.51100000000E-03 0.  1.
         23    2    1    0    0    0 -0.13877446619E+02 -0.19969144239E+02  0.18493138728E+02  0.94449281084E+02  0.89371809151E+02 0.  0.
         11    1    3    3    0    0 -0.27579548160E+02  0.17196995131E+02  0.38241894091E+02  0.50187753309E+02  0.51100000000E-03 0. -1.
         22    1    1    0    0    0  0.13877446619E+02  0.19969144239E+02 -0.18493138728E+02  0.30550718916E+02  0.00000000000E+00 0. -1.
</event>
<event>
 5    1  0.1692178E-003  0.9118800E+02  0.7818608E-02  0.1130116E+00
         25   -1    0    0    0    0  0.00000000000E+00  0.00000000000E+00  0.99999998245E-14  0.12500000000E+03  0.12500000000E+03 0.  0.
        -11    1    3    3    0    0  0.18882743611E+02  0.26775583974E+02 -0.36369597097E+01  0.32965396700E+02  0.51100000000E-03 0. -1.
         23    2    1    0    0    0 -0.22304186812E+02  0.12442531337E+02 -0.31294935816E+02  0.84606110077E+02  0.74340618233E+02 0.  0.
         11    1    3    3    0    0 -0.41186930422E+02 -0.14333052637E+02 -0.27657976106E+02  0.51640713377E+02  0.51100000000E-03 0.  1.
         22    1    1    0    0    0  0.22304186812E+02 -0.12442531337E+02  0.31294935816E+02  0.40393889923E+02  0.00000000000E+00 0. -1.
</event>
<event>
 5    1  0.1692178E-003  0.9118800E+02  0.7818608E-02  0.1130116E+00
         25   -1    0    0    0    0  0.00000000000E+00  0.00000000000E+00  0.99999998245E-14  0.12500000000E+03  0.12500000000E+03 0.  0.
        -11    1    3    3    0    0 -0.32105434474E+02  0.15741707246E+02 -0.17838775871E+00  0.35757406117E+02  0.51100000000E-03 0.  1.
         23    2    1    0    0    0  0.22331787180E+02  0.63157797075E+01  0.19787522726E+02  0.94501740253E+02  0.89445151145E+02 0.  0.
         11    1    3    3    0    0  0.54437221654E+02 -0.94259275384E+01  0.19965910485E+02  0.58744334136E+02  0.51100000000E-03 0. -1.
         22    1    1    0    0    0 -0.22331787180E+02 -0.63157797075E+01 -0.19787522726E+02  0.30498259747E+02  0.00000000000E+00 0. -1.
</event>
<event>
 5    1  0.1692178E-003  0.9118800E+02  0.7818608E-02  0.1130116E+00
         25   -1    0    0    0    0  0.00000000000E+00  0.00000000000E+00  0.99999998245E-14  0.12500000000E+03  0.12500000000E+03 0.  0.
        -11    1    3    3    0    0 -0.33976438445E+02  0.27809865741E+02 -0.56915485403E+01  0.44273928299E+02  0.51100000000E-03 0. -1.
         23    2    1    0    0    0 -0.98943753216E+01 -0.94393824485E+01  0.23808298774E+02  0.97543931554E+02  0.93600122267E+02 0.  0.
         11    1    3    3    0    0  0.24082063124E+02 -0.37249248189E+02  0.29499847314E+02  0.53270003255E+02  0.51100000000E-03 0.  1.
         22    1    1    0    0    0  0.98943753216E+01  0.94393824485E+01 -0.23808298774E+02  0.27456068446E+02  0.00000000000E+00 0. -1.
</event>
<event>
 5    1  0.1692178E-003  0.9118800E+02  0.7818608E-02  0.1130116E+00
         25   -1    0    0    0    0  0.00000000000E+00  0.00000000000E+00  0.99999998245E-14  0.12500000000E+03  0.12500000000E+03 0.  0.
        -11    1    3    3    0    0  0.32378112861E+00  0.19425936483E+02 -0.28690454853E+02  0.34649877957E+02  0.51100000000E-03 0. -1.
         23    2    1    0    0    0 -0.23810392163E+01 -0.27018239444E+01  0.28625719343E+02  0.96148639403E+02  0.91717827333E+02 0.  0.
         11    1    3    3    0    0 -0.27048203449E+01 -0.22127760428E+02  0.57316174196E+02  0.61498761446E+02  0.51100000000E-03 0.  1.
         22    1    1    0    0    0  0.23810392163E+01  0.27018239444E+01 -0.28625719343E+02  0.28851360597E+02  0.00000000000E+00 0.  1.
</event>
<event>
 5    1  0.1692178E-003  0.9118800E+02  0.7818608E-02  0.1130116E+00
         25   -1    0    0    0    0  0.00000000000E+00  0.00000000000E+00  0.99999998245E-14  0.12500000000E+03  0.12500000000E+03 0.  0.
        -11    1    3    3    0    0  0.37667830394E+02 -0.34740261276E+02 -0.34578223828E+02  0.61817511786E+02  0.51100000000E-03 0.  1.
         23    2    1    0    0    0  0.23701589357E+02 -0.12977978556E+02 -0.17781968105E+02  0.92652022395E+02  0.86821688527E+02 0.  0.
         11    1    3    3    0    0 -0.13966241037E+02  0.21762282720E+02  0.16796255723E+02  0.30834510609E+02  0.51100000000E-03 0. -1.
         22    1    1    0    0    0 -0.23701589357E+02  0.12977978556E+02  0.17781968105E+02  0.32347977605E+02  0.00000000000E+00 0.  1.
</event>
<event>
 5    1  0.1692178E-003  0.9118800E+02  0.7818608E-02  0.1130116E+00
         25   -1    0    0    0    0  0.00000000000E+00  0.00000000000E+00  0.99999998245E-14  0.12500000000E+03  0.12500000000E+03 0.  0.
        -11    1    3    3    0    0 -0.23513774552E+02 -0.15650557071E+02  0.21175547877E+02  0.35302143823E+02  0.51100000000E-03 0.  1.
         23    2    1    0    0    0 -0.17464088786E+01  0.28280311724E+02 -0.11713918178E+02  0.94339898006E+02  0.89218689195E+02 0.  0.
         11    1    3    3    0    0  0.21767365674E+02  0.43930868795E+02 -0.32889466054E+02  0.59037754184E+02  0.51100000000E-03 0. -1.
         22    1    1    0    0    0  0.17464088786E+01 -0.28280311724E+02  0.11713918178E+02  0.30660101994E+02  0.00000000000E+00 0. -1.
</event>
<event>
 5    1  0.1692178E-003  0.9118800E+02  0.7818608E-02  0.1130116E+00
         25   -1    0    0    0    0  0.00000000000E+00  0.00000000000E+00  0.99999998245E-14  0.12500000000E+03  0.12500000000E+03 0.  0.
        -11    1    3    3    0    0  0.20570131843E+02 -0.59857113754E+01  0.36501934096E+02  0.42324345921E+02  0.51100000000E-03 0. -1.
         23    2    1    0    0    0  0.13642209756E+02 -0.21442178790E+02 -0.14274536163E+02  0.95851427120E+02  0.91311865493E+02 0.  0.
         11    1    3    3    0    0 -0.69279220865E+01 -0.15456467415E+02 -0.50776470259E+02  0.53527081198E+02  0.51100000000E-03 0.  1.
         22    1    1    0    0    0 -0.13642209756E+02  0.21442178790E+02  0.14274536163E+02  0.29148572880E+02  0.00000000000E+00 0.  1.
</event>
<event>
 5    1  0.1692178E-003  0.9118800E+02  0.7818608E-02  0.1130116E+00
         25   -1    0    0    0    0  0.00000000000E+00  0.00000000000E+00  0.99999998245E-14  0.12500000000E+03  0.12500000000E+03 0.  0.
        -11    1    3    3    0    0 -0.16789990486E+02 -0.34092439111E+02 -0.15233623254E+02  0.40942172179E+02  0.51100000000E-03 0.  1.
         23    2    1    0    0    0  0.15158388608E+02  0.10752690628E+02 -0.21753640201E+02  0.96388499464E+02  0.92044146288E+02 0.  0.
         11    1    3    3    0    0  0.31948379094E+02  0.44845129739E+02 -0.65200169469E+01  0.55446327284E+02  0.51100000000E-03 0. -1.
         22    1    1    0    0    0 -0.15158388608E+02 -0.10752690628E+02  0.21753640201E+02  0.28611500536E+02  0.00000000000E+00 0. -1.
</event>
<event>
 5    1  0.1692178E-003  0.9118800E+02  0.7818608E-02  0.1130116E+00
         25   -1    0    0    0    0  0.00000000000E+00  0.00000000000E+00  0.99999998245E-14  0.12500000000E+03  0.12500000000E+03 0.  0.
        -11    1    3    3    0    0 -0.17572709081E+02 -0.51263751912E+02  0.29790360401E+02  0.61840423169E+02  0.51100000000E-03 0.  1.
         23    2    1    0    0    0 -0.12468602202E+02 -0.25525644096E+02  0.93798028761E+01  0.95083361663E+02  0.90254309679E+02 0.  0.
         11    1    3    3    0    0  0.51041068788E+01  0.25738107816E+02 -0.20410557525E+02  0.33242938494E+02  0.51100000000E-03 0. -1.
         22    1    1    0    0    0  0.12468602202E+02  0.25525644096E+02 -0.93798028761E+01  0.29916638337E+02  0.00000000000E+00 0.  1.
</event>
<event>
 5    1  0.1692178E-003  0.9118800E+02  0.7818608E-02  0.1130116E+00
         25   -1    0    0    0    0  0.00000000000E+00  0.00000000000E+00  0.99999998245E-14  0.12500000000E+03  0.12500000000E+03 0.  0.
        -11    1    3    3    0    0  0.46155919675E+02 -0.13977708033E+02  0.83100801910E+01  0.48936721140E+02  0.51100000000E-03 0. -1.
         23    2    1    0    0    0  0.30740332940E+01 -0.28059621075E+02 -0.53386380430E+01  0.96272085497E+02  0.91885914993E+02 0.  0.
         11    1    3    3    0    0 -0.43081886381E+02 -0.14081913042E+02 -0.13648718234E+02  0.47335364356E+02  0.51100000000E-03 0.  1.
         22    1    1    0    0    0 -0.30740332940E+01  0.28059621075E+02  0.53386380430E+01  0.28727914503E+02  0.00000000000E+00 0.  1.
</event>
<event>
 5    1  0.1692178E-003  0.9118800E+02  0.7818608E-02  0.1130116E+00
         25   -1    0    0    0    0  0.00000000000E+00  0.00000000000E+00  0.99999998245E-14  0.12500000000E+03  0.12500000000E+03 0.  0.
        -11    1    3    3    0    0 -0.32328451028E+02  0.12854402260E+02 -0.39811150942E+02  0.52870522439E+02  0.51100000000E-03 0.  1.
         23    2    1    0    0    0  0.25360314774E+01  0.23521216435E+02 -0.16789564168E+02  0.95990199187E+02  0.91501638219E+02 0.  0.
         11    1    3    3    0    0  0.34864482505E+02  0.10666814175E+02  0.23021586774E+02  0.43119676749E+02  0.51100000000E-03 0. -1.
         22    1    1    0    0    0 -0.25360314774E+01 -0.23521216435E+02  0.16789564168E+02  0.29009800813E+02  0.00000000000E+00 0.  1.
</event>
<event>
 5    1  0.1692178E-003  0.9118800E+02  0.7818608E-02  0.1130116E+00
         25   -1    0    0    0    0  0.00000000000E+00  0.00000000000E+00  0.99999998245E-14  0.12500000000E+03  0.12500000000E+03 0.  0.
        -11    1    3    3    0    0  0.67161352464E+01  0.15336345255E+01  0.35837946066E+02  0.36494066449E+02  0.51100000000E-03 0. -1.
         23    2    1    0    0    0 -0.32156413740E+02  0.73326724332E+01 -0.31671109338E+01  0.91866427580E+02  0.85683177433E+02 0.  0.
         11    1    3    3    0    0 -0.38872548987E+02  0.57990379077E+01 -0.39005057000E+02  0.55372361131E+02  0.51100000000E-03 0.  1.
         22    1    1    0    0    0  0.32156413740E+02 -0.73326724332E+01  0.31671109338E+01  0.33133572420E+02  0.00000000000E+00 0.  1.
</event>
<event>
 5    1  0.1692178E-003  0.9118800E+02  0.7818608E-02  0.1130116E+00
         25   -1    0    0    0    0  0.00000000000E+00  0.00000000000E+00  0.99999998245E-14  0.12500000000E+03  0.12500000000E+03 0.  0.
        -11    1    3    3    0    0 -0.84394989917E+01  0.36557224555E+02  0.67281493419E+01  0.38117237626E+02  0.51100000000E-03 0. -1.
         23    2    1    0    0    0  0.12256726926E+02 -0.20090114352E+02  0.11863362524E+02  0.98645125308E+02  0.95059356862E+02 0.  0.
         11    1    3    3    0    0  0.20696225918E+02 -0.56647338908E+02  0.51352131825E+01  0.60527887682E+02  0.51100000000E-03 0.  1.
         22    1    1    0    0    0 -0.12256726926E+02  0.20090114352E+02 -0.11863362524E+02  0.26354874692E+02  0.00000000000E+00 0.  1.
</event>
<event>
 5    1  0.1692178E-003  0.9118800E+02  0.7818608E-02  0.1130116E+00
         25   -1    0    0    0    0  0.00000000000E+00  0.00000000000E+00  0.99999998245E-14  0.12500000000E+03  0.12500000000E+03 0.  0.
        -11    1    3    3    0    0 -0.26548373233E+02  0.22811852602E+02  0.24064996293E+02  0.42477297316E+02  0.51100000000E-03 0.  1.
         23    2    1    0    0    0  0.71971540001E+01 -0.18321853794E+02  0.21653026428E+02  0.95736662774E+02  0.91154625189E+02 0.  0.
         11    1    3    3    0    0  0.33745527233E+02 -0.41133706396E+02 -0.24119698655E+01  0.53259365458E+02  0.51100000000E-03 0. -1.
         22    1    1    0    0    0 -0.71971540001E+01  0.18321853794E+02 -0.21653026428E+02  0.29263337226E+02  0.00000000000E+00 0.  1.
</event>
<event>
 5    1  0.1692178E-003  0.9118800E+02  0.7818608E-02  0.1130116E+00
         25   -1    0    0    0    0  0.00000000000E+00  0.00000000000E+00  0.99999998245E-14  0.12500000000E+03  0.12500000000E+03 0.  0.
        -11    1    3    3    0    0  0.25308895529E+02 -0.22064219602E+02  0.21493145553E+01  0.33645052130E+02  0.51100000000E-03 0. -1.
         23    2    1    0    0    0 -0.78769851487E+01  0.27621300849E+02  0.11384324225E+02  0.94103624911E+02  0.88887041956E+02 0.  0.
         11    1    3    3    0    0 -0.33185880677E+02  0.49685520451E+02  0.92350096695E+01  0.60458572780E+02  0.51100000000E-03 0.  1.
         22    1    1    0    0    0  0.78769851487E+01 -0.27621300849E+02 -0.11384324225E+02  0.30896375089E+02  0.00000000000E+00 0.  1.
</event>
<event>
 5    1  0.1692178E-003  0.9118800E+02  0.7818608E-02  0.1130116E+00
         25   -1    0    0    0    0  0.00000000000E+00  0.00000000000E+00  0.99999998245E-14  0.12500000000E+03  0.12500000000E+03 0.  0.
        -11    1    3    3    0    0  0.34016240171E+01  0.41257003063E+02 -0.33183179524E+02  0.53055016268E+02  0.51100000000E-03 0. -1.
         23    2    1    0    0    0  0.23056842069E+02  0.70258953984E+01 -0.15755779994E+02  0.96203719415E+02  0.91792863849E+02 0.  0.
         11    1    3    3    0    0  0.19655218052E+02 -0.34231107664E+02  0.17427399530E+02  0.43148703146E+02  0.51100000000E-03 0.  1.
         22    1    1    0    0    0 -0.23056842069E+02 -0.70258953984E+01  0.15755779994E+02  0.28796280585E+02  0.00000000000E+00 0. -1.
</event>
<event>
 5    1  0.1692178E-003  0.9118800E+02  0.7818608E-02  0.1130116E+00
         25   -1    0    0    0    0  0.00000000000E+00  0.00000000000E+00  0.99999998245E-14  0.12500000000E+03  0.12500000000E+03 0.  0.
        -11    1    3    3    0    0  0.80769090212E+01  0.30301175236E+02  0.20620956498E+02  0.37531607042E+02  0.51100000000E-03 0.  1.
         23    2    1    0    0    0  0.32879498437E+02 -0.11145233805E+02 -0.57395354655E+00  0.90278146986E+02  0.83333887144E+02 0.  0.
         11    1    3    3    0    0  0.24802589416E+02 -0.41446409040E+02 -0.21194910045E+02  0.52746539944E+02  0.51100000000E-03 0. -1.
         22    1    1    0    0    0 -0.32879498437E+02  0.11145233805E+02  0.57395354655E+00  0.34721853014E+02  0.00000000000E+00 0. -1.
</event>
<event>
 5    1  0.1692178E-003  0.9118800E+02  0.7818608E-02  0.1130116E+00
         25   -1    0    0    0    0  0.00000000000E+00  0.00000000000E+00  0.99999998245E-14  0.12500000000E+03  0.12500000000E+03 0.  0.
        -11    1    3    3    0    0  0.18023035941E+02  0.39992153643E+02  0.39594159503E+01  0.44044059218E+02  0.51100000000E-03 0.  1.
         23    2    1    0    0    0 -0.78934376785E+00  0.10023099423E+02  0.33428229423E+02  0.90092520744E+02  0.83054982909E+02 0.  0.
         11    1    3    3    0    0 -0.18812379709E+02 -0.29969054219E+02  0.29468813473E+02  0.46048461526E+02  0.51100000000E-03 0. -1.
         22    1    1    0    0    0  0.78934376785E+00 -0.10023099423E+02 -0.33428229423E+02  0.34907479256E+02  0.00000000000E+00 0.  1.
</event>
<event>
 5    1  0.1692178E-003  0.9118800E+02  0.7818608E-02  0.1130116E+00
         25   -1    0    0    0    0  0.00000000000E+00  0.00000000000E+00  0.99999998245E-14  0.12500000000E+03  0.12500000000E+03 0.  0.
        -11    1    3    3    0    0 -0.34245571565E+02  0.35992430217E+02 -0.16867867807E+02  0.52466552863E+02  0.51100000000E-03 0.  1.
         23    2    1    0    0    0 -0.10581367182E+02  0.64772578363E+01 -0.30019503703E+02  0.92517838695E+02  0.86628284490E+02 0.  0.
         11    1    3    3    0    0  0.23664204383E+02 -0.29515172381E+02 -0.13151635896E+02  0.40051285832E+02  0.51100000000E-03 0. -1.
         22    1    1    0    0    0  0.10581367182E+02 -0.64772578363E+01  0.30019503703E+02  0.32482161305E+02  0.00000000000E+00 0.  1.
</event>
<event>
 5    1  0.1692178E-003  0.9118800E+02  0.7818608E-02  0.1130116E+00
         25   -1    0    0    0    0  0.00000000000E+00  0.00000000000E+00  0.99999998245E-14  0.12500000000E+03  0.12500000000E+03 0.  0.
        -11    1    3    3    0    0  0.35397131962E+02  0.25972232861E+02  0.75799287620E+01  0.44552992618E+02  0.51100000000E-03 0. -1.
         23    2    1    0    0    0  0.16689145652E+02 -0.11017187371E+02 -0.21843165700E+02  0.95385309592E+02  0.90671535765E+02 0.  0.
         11    1    3    3    0    0 -0.18707986310E+02 -0.36989420232E+02 -0.29423094462E+02  0.50832316973E+02  0.51100000000E-03 0.  1.
         22    1    1    0    0    0 -0.16689145652E+02  0.11017187371E+02  0.21843165700E+02  0.29614690408E+02  0.00000000000E+00 0.  1.
</event>
<event>
 5    1  0.1692178E-003  0.9118800E+02  0.7818608E-02  0.1130116E+00
         25   -1    0    0    0    0  0.00000000000E+00  0.00000000000E+00  0.99999998245E-14  0.12500000000E+03  0.12500000000E+03 0.  0.
        -11    1    3    3    0    0 -0.69348175003E+01  0.15088245166E+02  0.30937126156E+02  0.35112000955E+02  0.51100000000E-03 0.  1.
         23    2    1    0    0    0 -0.32048202866E+02  0.89670034114E+01 -0.15522977409E+02  0.88278653555E+02  0.80278660855E+02 0.  0.
         11    1    3    3    0    0 -0.25113385365E+02 -0.61212417550E+01 -0.46460103566E+02  0.53166652600E+02  0.51100000000E-03 0. -1.
         22    1    1    0    0    0  0.32048202866E+02 -0.89670034114E+01  0.15522977409E+02  0.36721346445E+02  0.00000000000E+00 0. -1.
</event>
<event>
 5    1  0.1692178E-003  0.9118800E+02  0.7818608E-02  0.1130116E+00
         25   -1    0    0    0    0  0.00000000000E+00  0.00000000000E+00  0.99999998245E-14  0.12500000000E+03  0.12500000000E+03 0.  0.
        -11    1    3    3    0    0 -0.47574345255E+02 -0.33793245141E+02  0.95211976370E+01  0.59126601021E+02  0.51100000000E-03 0.  1.
         23    2    1    0    0    0 -0.29516512720E+02 -0.34589090341E+01  0.66575486073E+01  0.94544926066E+02  0.89505483164E+02 0.  0.
         11    1    3    3    0    0  0.18057832535E+02  0.30334336107E+02 -0.28636490297E+01  0.35418325045E+02  0.51100000000E-03 0. -1.
         22    1    1    0    0    0  0.29516512720E+02  0.34589090341E+01 -0.66575486073E+01  0.30455073934E+02  0.00000000000E+00 0.  1.
</event>
<event>
 5    1  0.1692178E-003  0.9118800E+02  0.7818608E-02  0.1130116E+00
         25   -1    0    0    0    0  0.00000000000E+00  0.00000000000E+00  0.99999998245E-14  0.12500000000E+03  0.12500000000E+03 0.  0.
        -11    1    3    3    0    0 -0.67259779153E+01  0.26471090002E+02 -0.27128113671E+02  0.38495349543E+02  0.51100000000E-03 0.  1.
         23    2    1    0    0    0 -0.25286571325E+02  0.21055155995E+01  0.18603512363E+02  0.93536774521E+02  0.88086285143E+02 0.  0.
         11    1    3    3    0    0 -0.18560593410E+02 -0.24365574403E+02  0.45731626033E+02  0.55041424978E+02  0.51100000000E-03 0. -1.
         22    1    1    0    0    0  0.25286571325E+02 -0.21055155995E+01 -0.18603512363E+02  0.31463225479E+02  0.00000000000E+00 0. -1.
</event>
<event>
 5    1  0.1692178E-003  0.9118800E+02  0.7818608E-02  0.1130116E+00
         25   -1    0    0    0    0  0.00000000000E+00  0.00000000000E+00  0.99999998245E-14  0.12500000000E+03  0.12500000000E+03 0.  0.
        -11    1    3    3    0    0  0.21639789144E+02  0.58168896763E+01 -0.29480874251E+02  0.37030239354E+02  0.51100000000E-03 0.  1.
         23    2    1    0    0    0 -0.25387680075E+02  0.13065563755E+02  0.52874519216E+01  0.95962086789E+02  0.91463225929E+02 0.  0.
         11    1    3    3    0    0 -0.47027469219E+02  0.72486740792E+01  0.34768326173E+02  0.58931847435E+02  0.51100000000E-03 0. -1.
         22    1    1    0    0    0  0.25387680075E+02 -0.13065563755E+02 -0.52874519216E+01  0.29037913211E+02  0.00000000000E+00 0. -1.
</event>
<event>
 5    1  0.1692178E-003  0.9118800E+02  0.7818608E-02  0.1130116E+00
         25   -1    0    0    0    0  0.00000000000E+00  0.00000000000E+00  0.99999998245E-14  0.12500000000E+03  0.12500000000E+03 0.  0.
        -11    1    3    3    0    0 -0.36042299233E+02  0.35746778869E+01 -0.24289190336E+02  0.43609522165E+02  0.51100000000E-03 0. -1.
         23    2    1    0    0    0 -0.18857157014E+02 -0.31450085085E+02 -0.26216648634E+01  0.88236249523E+02  0.80212607367E+02 0.  0.
         11    1    3    3    0    0  0.17185142219E+02 -0.35024762972E+02  0.21667525472E+02  0.44626727358E+02  0.51100000000E-03 0.  1.
         22    1    1    0    0    0  0.18857157014E+02  0.31450085085E+02  0.26216648634E+01  0.36763750477E+02  0.00000000000E+00 0. -1.
</event>
<event>
 5    1  0.1692178E-003  0.9118800E+02  0.7818608E-02  0.1130116E+00
         25   -1    0    0    0    0  0.00000000000E+00  0.00000000000E+00  0.99999998245E-14  0.12500000000E+03  0.12500000000E+03 0.  0.
        -11    1    3    3    0    0  0.96581927167E+01 -0.24139014050E+02 -0.32273561869E+02  0.41443400944E+02  0.51100000000E-03 0.  1.
         23    2    1    0    0    0 -0.11779435716E+02 -0.19584991672E+02  0.17753341366E+02  0.96060267205E+02  0.91597307828E+02 0.  0.
         11    1    3    3    0    0 -0.21437628433E+02  0.45540223776E+01  0.50026903235E+02  0.54616866261E+02  0.51100000000E-03 0. -1.
         22    1    1    0    0    0  0.11779435716E+02  0.19584991672E+02 -0.17753341366E+02  0.28939732795E+02  0.00000000000E+00 0. -1.
</event>
<event>
 5    1  0.1692178E-003  0.9118800E+02  0.7818608E-02  0.1130116E+00
         25   -1    0    0    0    0  0.00000000000E+00  0.00000000000E+00  0.99999998245E-14  0.12500000000E+03  0.12500000000E+03 0.  0.
        -11    1    3    3    0    0  0.16770491273E+02 -0.24491664598E+02  0.15180314756E+02  0.33339660596E+02  0.51100000000E-03 0.  1.
         23    2    1    0    0    0 -0.26009055578E+02  0.16774955502E+02  0.47038266706E+01  0.93695110773E+02  0.88310688443E+02 0.  0.
         11    1    3    3    0    0 -0.42779546850E+02  0.41266620100E+02 -0.10476488085E+02  0.60355450177E+02  0.51100000000E-03 0. -1.
         22    1    1    0    0    0  0.26009055578E+02 -0.16774955502E+02 -0.47038266706E+01  0.31304889227E+02  0.00000000000E+00 0. -1.
</event>
<event>
 5    1  0.1692178E-003  0.9118800E+02  0.7818608E-02  0.1130116E+00
         25   -1    0    0    0    0  0.00000000000E+00  0.00000000000E+00  0.99999998245E-14  0.12500000000E+03  0.12500000000E+03 0.  0.
        -11    1    3    3    0    0  0.11542302901E+02  0.14587884206E+02 -0.29834040144E+02  0.35158229100E+02  0.51100000000E-03 0.  1.
         23    2    1    0    0    0 -0.26244535510E+02  0.13775707789E+01  0.14577272120E+02  0.94947209649E+02  0.90065545090E+02 0.  0.
         11    1    3    3    0    0 -0.37786838412E+02 -0.13210313427E+02  0.44411312263E+02  0.59788980550E+02  0.51100000000E-03 0. -1.
         22    1    1    0    0    0  0.26244535510E+02 -0.13775707789E+01 -0.14577272120E+02  0.30052790351E+02  0.00000000000E+00 0. -1.
</event>
<event>
 5    1  0.1692178E-003  0.9118800E+02  0.7818608E-02  0.1130116E+00
         25   -1    0    0    0    0  0.00000000000E+00  0.00000000000E+00  0.99999998245E-14  0.12500000000E+03  0.12500000000E+03 0.  0.
        -11    1    3    3    0    0 -0.41691254155E+02  0.39474663561E+02  0.19379654087E+02  0.60596870621E+02  0.51100000000E-03 0.  1.
         23    2    1    0    0    0 -0.10817895866E+02  0.23781785778E+02  0.13020577860E+02  0.95808637346E+02  0.91253270279E+02 0.  0.
         11    1    3    3    0    0  0.30873358290E+02 -0.15692877783E+02 -0.63590762271E+01  0.35211766725E+02  0.51100000000E-03 0. -1.
         22    1    1    0    0    0  0.10817895866E+02 -0.23781785778E+02 -0.13020577860E+02  0.29191362654E+02  0.00000000000E+00 0.  1.
</event>
<event>
 5    1  0.1692178E-003  0.9118800E+02  0.7818608E-02  0.1130116E+00
         25   -1    0    0    0    0  0.00000000000E+00  0.00000000000E+00  0.99999998245E-14  0.12500000000E+03  0.12500000000E+03 0.  0.
        -11    1    3    3    0    0  0.45314598126E+02 -0.96402801145E+01 -0.21333447080E+02  0.51004546548E+02  0.51100000000E-03 0.  1.
         23    2    1    0    0    0  0.45844379870E+01 -0.26166366337E+02 -0.11535953365E+02  0.96038404412E+02  0.91567467493E+02 0.  0.
         11    1    3    3    0    0 -0.40730160139E+02 -0.16526086223E+02  0.97974937149E+01  0.45033857864E+02  0.51100000000E-03 0. -1.
         22    1    1    0    0    0 -0.45844379870E+01  0.26166366337E+02  0.11535953365E+02  0.28961595588E+02  0.00000000000E+00 0.  1.
</event>
<event>
 5    1  0.1692178E-003  0.9118800E+02  0.7818608E-02  0.1130116E+00
         25   -1    0    0    0    0  0.00000000000E+00  0.00000000000E+00  0.99999998245E-14  0.12500000000E+03  0.12500000000E+03 0.  0.
        -11    1    3    3    0    0 -0.23575482727E+02  0.18222039069E+02  0.14267910429E+02  0.33036636662E+02  0.51100000000E-03 0.  1.
         23    2    1    0    0    0  0.20139886017E+02 -0.20698690826E+02 -0.69516495402E+01  0.95295181502E+02  0.90547199711E+02 0.  0.
         11    1    3    3    0    0  0.43715368744E+02 -0.38920729896E+02 -0.21219559970E+02  0.62258544840E+02  0.51100000000E-03 0. -1.
         22    1    1    0    0    0 -0.20139886017E+02  0.20698690826E+02  0.69516495402E+01  0.29704818498E+02  0.00000000000E+00 0. -1.
</event>
<event>
 5    1  0.1692178E-003  0.9118800E+02  0.7818608E-02  0.1130116E+00
         25   -1    0    0    0    0  0.00000000000E+00  0.00000000000E+00  0.99999998245E-14  0.12500000000E+03  0.12500000000E+03 0.  0.
        -11    1    3    3    0    0 -0.19658145432E+02 -0.26049035395E+02  0.50836869313E+02  0.60410116774E+02  0.51100000000E-03 0.  1.
         23    2    1    0    0    0 -0.61524193323E+01 -0.25473713678E+01  0.29078769555E+02  0.95168536688E+02  0.90372198003E+02 0.  0.
         11    1    3    3    0    0  0.13505726100E+02  0.23501664027E+02 -0.21758099758E+02  0.34758419914E+02  0.51100000000E-03 0. -1.
         22    1    1    0    0    0  0.61524193323E+01  0.25473713678E+01 -0.29078769555E+02  0.29831463312E+02  0.00000000000E+00 0.  1.
</event>
<event>
 5    1  0.1692178E-003  0.9118800E+02  0.7818608E-02  0.1130116E+00
         25   -1    0    0    0    0  0.00000000000E+00  0.00000000000E+00  0.99999998245E-14  0.12500000000E+03  0.12500000000E+03 0.  0.
        -11    1    3    3    0    0  0.20249553495E+02 -0.37516660897E+02  0.16977603897E+02  0.45888814497E+02  0.51100000000E-03 0.  1.
         23    2    1    0    0    0 -0.23887656272E+00 -0.14972448229E+02 -0.23855890914E+02  0.96833800412E+02  0.92646910919E+02 0.  0.
         11    1    3    3    0    0 -0.20488430058E+02  0.22544212668E+02 -0.40833494811E+02  0.50944985914E+02  0.51100000000E-03 0. -1.
         22    1    1    0    0    0  0.23887656272E+00  0.14972448229E+02  0.23855890914E+02  0.28166199588E+02  0.00000000000E+00 0. -1.
</event>
<event>
 5    1  0.1692178E-003  0.9118800E+02  0.7818608E-02  0.1130116E+00
         25   -1    0    0    0    0  0.00000000000E+00  0.00000000000E+00  0.99999998245E-14  0.12500000000E+03  0.12500000000E+03 0.  0.
        -11    1    3    3    0    0  0.31072357199E+02  0.27397100496E+02  0.92618936629E+01  0.42448500233E+02  0.51100000000E-03 0. -1.
         23    2    1    0    0    0 -0.34980890489E+00  0.37915478108E+01 -0.28081219868E+02  0.96661808273E+02  0.92414566321E+02 0.  0.
         11    1    3    3    0    0 -0.31422166104E+02 -0.23605552686E+02 -0.37343113531E+02  0.54213308041E+02  0.51100000000E-03 0.  1.
         22    1    1    0    0    0  0.34980890489E+00 -0.37915478108E+01  0.28081219868E+02  0.28338191727E+02  0.00000000000E+00 0.  1.
</event>
<event>
 5    1  0.1692178E-003  0.9118800E+02  0.7818608E-02  0.1130116E+00
         25   -1    0    0    0    0  0.00000000000E+00  0.00000000000E+00  0.99999998245E-14  0.12500000000E+03  0.12500000000E+03 0.  0.
        -11    1    3    3    0    0 -0.14427590006E+02  0.86060087591E+01  0.44483896683E+02  0.47550350204E+02  0.51100000000E-03 0.  1.
         23    2    1    0    0    0  0.16599087316E+02 -0.16436416607E+02  0.19189766280E+02  0.94768681464E+02  0.89817427963E+02 0.  0.
         11    1    3    3    0    0  0.31026677322E+02 -0.25042425366E+02 -0.25294130403E+02  0.47218331260E+02  0.51100000000E-03 0. -1.
         22    1    1    0    0    0 -0.16599087316E+02  0.16436416607E+02 -0.19189766280E+02  0.30231318536E+02  0.00000000000E+00 0.  1.
</event>
<event>
 5    1  0.1692178E-003  0.9118800E+02  0.7818608E-02  0.1130116E+00
         25   -1    0    0    0    0  0.00000000000E+00  0.00000000000E+00  0.99999998245E-14  0.12500000000E+03  0.12500000000E+03 0.  0.
        -11    1    3    3    0    0 -0.21263486757E+02 -0.23003660110E+02 -0.14415247654E+02  0.34483381689E+02  0.51100000000E-03 0.  1.
         23    2    1    0    0    0  0.18624890434E+02  0.22260122466E+02 -0.42017231557E+01  0.95673321474E+02  0.91067724077E+02 0.  0.
         11    1    3    3    0    0  0.39888377191E+02  0.45263782576E+02  0.10213524498E+02  0.61189939785E+02  0.51100000000E-03 0. -1.
         22    1    1    0    0    0 -0.18624890434E+02 -0.22260122466E+02  0.42017231557E+01  0.29326678526E+02  0.00000000000E+00 0. -1.
</event>
<event>
 5    1  0.1692178E-003  0.9118800E+02  0.7818608E-02  0.1130116E+00
         25   -1    0    0    0    0  0.00000000000E+00  0.00000000000E+00  0.99999998245E-14  0.12500000000E+03  0.12500000000E+03 0.  0.
        -11    1    3    3    0    0  0.30765412714E+02  0.10750694079E+02 -0.10770012529E+02  0.34323187683E+02  0.51100000000E-03 0.  1.
         23    2    1    0    0    0 -0.24880348326E+02  0.97782160089E+01  0.13514839226E+02  0.95045098558E+02  0.90201300653E+02 0.  0.
         11    1    3    3    0    0 -0.55645761039E+02 -0.97247806992E+00  0.24284851755E+02  0.60721910874E+02  0.51100000000E-03 0. -1.
         22    1    1    0    0    0  0.24880348326E+02 -0.97782160089E+01 -0.13514839226E+02  0.29954901442E+02  0.00000000000E+00 0. -1.
</event>
<event>
 5    1  0.1692178E-003  0.9118800E+02  0.7818608E-02  0.1130116E+00
         25   -1    0    0    0    0  0.00000000000E+00  0.00000000000E+00  0.99999998245E-14  0.12500000000E+03  0.12500000000E+03 0.  0.
        -11    1    3    3    0    0  0.80568747802E+01 -0.40912182863E+02 -0.29228885926E+01  0.41800277700E+02  0.51100000000E-03 0. -1.
         23    2    1    0    0    0  0.26773830131E+02  0.10069213373E+02  0.19618078780E+01  0.96328136998E+02  0.91962134868E+02 0.  0.
         11    1    3    3    0    0  0.18716955351E+02  0.50981396236E+02  0.48846964706E+01  0.54527859298E+02  0.51100000000E-03 0.  1.
         22    1    1    0    0    0 -0.26773830131E+02 -0.10069213373E+02 -0.19618078780E+01  0.28671863002E+02  0.00000000000E+00 0.  1.
</event>
<event>
 5    1  0.1692178E-003  0.9118800E+02  0.7818608E-02  0.1130116E+00
         25   -1    0    0    0    0  0.00000000000E+00  0.00000000000E+00  0.99999998245E-14  0.12500000000E+03  0.12500000000E+03 0.  0.
        -11    1    3    3    0    0  0.28910734545E+02 -0.84751824484E+01 -0.15752594429E+02  0.33997110480E+02  0.51100000000E-03 0.  1.
         23    2    1    0    0    0 -0.12900771909E+02  0.15776117326E+02  0.21764158452E+02  0.95183991098E+02  0.90393571533E+02 0.  0.
         11    1    3    3    0    0 -0.41811506454E+02  0.24251299774E+02  0.37516752881E+02  0.61186880618E+02  0.51100000000E-03 0. -1.
         22    1    1    0    0    0  0.12900771909E+02 -0.15776117326E+02 -0.21764158452E+02  0.29816008902E+02  0.00000000000E+00 0. -1.
</event>
<event>
 5    1  0.1692178E-003  0.9118800E+02  0.7818608E-02  0.1130116E+00
         25   -1    0    0    0    0  0.00000000000E+00  0.00000000000E+00  0.99999998245E-14  0.12500000000E+03  0.12500000000E+03 0.  0.
        -11    1    3    3    0    0  0.14468801622E+02 -0.32392270218E+02 -0.13651592885E+02  0.38012779151E+02  0.51100000000E-03 0.  1.
         23    2    1    0    0    0  0.80150206528E+01  0.24931080921E+02 -0.13139940397E+02  0.95700556565E+02  0.91105099426E+02 0.  0.
         11    1    3    3    0    0 -0.64537809691E+01  0.57323351138E+02  0.51165248718E+00  0.57687777415E+02  0.51100000000E-03 0. -1.
         22    1    1    0    0    0 -0.80150206528E+01 -0.24931080921E+02  0.13139940397E+02  0.29299443435E+02  0.00000000000E+00 0. -1.
</event>
<event>
 5    1  0.1692178E-003  0.9118800E+02  0.7818608E-02  0.1130116E+00
         25   -1    0    0    0    0  0.00000000000E+00  0.00000000000E+00  0.99999998245E-14  0.12500000000E+03  0.12500000000E+03 0.  0.
        -11    1    3    3    0    0 -0.25199450351E+02  0.22566077771E+02 -0.26662480083E+02  0.43071196970E+02  0.51100000000E-03 0.  1.
         23    2    1    0    0    0  0.19593392823E+02  0.11629188193E+02 -0.27626390296E+02  0.89189994399E+02  0.81685363437E+02 0.  0.
         11    1    3    3    0    0  0.44792843174E+02 -0.10936889578E+02 -0.96391021284E+00  0.46118797430E+02  0.51100000000E-03 0. -1.
         22    1    1    0    0    0 -0.19593392823E+02 -0.11629188193E+02  0.27626390296E+02  0.35810005601E+02  0.00000000000E+00 0.  1.
</event>
<event>
 5    1  0.1692178E-003  0.9118800E+02  0.7818608E-02  0.1130116E+00
         25   -1    0    0    0    0  0.00000000000E+00  0.00000000000E+00  0.99999998245E-14  0.12500000000E+03  0.12500000000E+03 0.  0.
        -11    1    3    3    0    0 -0.19099346531E+02 -0.28267785640E+02 -0.51174566182E+01  0.34496972409E+02  0.51100000000E-03 0. -1.
         23    2    1    0    0    0 -0.29364409797E+01  0.18787551032E+02 -0.29498616331E+02  0.89903516917E+02  0.82770038234E+02 0.  0.
         11    1    3    3    0    0  0.16162905552E+02  0.47055336671E+02 -0.24381159712E+02  0.55406544508E+02  0.51100000000E-03 0.  1.
         22    1    1    0    0    0  0.29364409797E+01 -0.18787551032E+02  0.29498616331E+02  0.35096483083E+02  0.00000000000E+00 0.  1.
</event>
<event>
 5    1  0.1692178E-003  0.9118800E+02  0.7818608E-02  0.1130116E+00
         25   -1    0    0    0    0  0.00000000000E+00  0.00000000000E+00  0.99999998245E-14  0.12500000000E+03  0.12500000000E+03 0.  0.
        -11    1    3    3    0    0 -0.30073362768E+02  0.38712979573E+02  0.36406731652E+02  0.61061870635E+02  0.51100000000E-03 0.  1.
         23    2    1    0    0    0 -0.10315666300E+02  0.12205309737E+02  0.23560973336E+02  0.96530682805E+02  0.92237035411E+02 0.  0.
         11    1    3    3    0    0  0.19757696468E+02 -0.26507669836E+02 -0.12845758316E+02  0.35468812171E+02  0.51100000000E-03 0. -1.
         22    1    1    0    0    0  0.10315666300E+02 -0.12205309737E+02 -0.23560973336E+02  0.28469317195E+02  0.00000000000E+00 0. -1.
</event>
<event>
 5    1  0.1692178E-003  0.9118800E+02  0.7818608E-02  0.1130116E+00
         25   -1    0    0    0    0  0.00000000000E+00  0.00000000000E+00  0.99999998245E-14  0.12500000000E+03  0.12500000000E+03 0.  0.
        -11    1    3    3    0    0 -0.46705338854E+02  0.26115287193E+02 -0.26699866910E+02  0.59802004949E+02  0.51100000000E-03 0. -1.
         23    2    1    0    0    0 -0.15840066916E+02  0.88150640744E+01 -0.23487422089E+02  0.95330620652E+02  0.90596110087E+02 0.  0.
         11    1    3    3    0    0  0.30865271939E+02 -0.17300223118E+02  0.32124448203E+01  0.35528615703E+02  0.51100000000E-03 0.  1.
         22    1    1    0    0    0  0.15840066916E+02 -0.88150640744E+01  0.23487422089E+02  0.29669379348E+02  0.00000000000E+00 0. -1.
</event>
<event>
 5    1  0.1692178E-003  0.9118800E+02  0.7818608E-02  0.1130116E+00
         25   -1    0    0    0    0  0.00000000000E+00  0.00000000000E+00  0.99999998245E-14  0.12500000000E+03  0.12500000000E+03 0.  0.
        -11    1    3    3    0    0  0.26093794381E+02  0.44267825196E+02 -0.11065327448E+02  0.52563941296E+02  0.51100000000E-03 0.  1.
         23    2    1    0    0    0  0.10293732127E+02  0.18087244722E+02  0.19987239786E+02  0.96145206689E+02  0.91713148852E+02 0.  0.
         11    1    3    3    0    0 -0.15800062255E+02 -0.26180580474E+02  0.31052567234E+02  0.43581265393E+02  0.51100000000E-03 0. -1.
         22    1    1    0    0    0 -0.10293732127E+02 -0.18087244722E+02 -0.19987239786E+02  0.28854793311E+02  0.00000000000E+00 0.  1.
</event>
<event>
 5    1  0.1692178E-003  0.9118800E+02  0.7818608E-02  0.1130116E+00
         25   -1    0    0    0    0  0.00000000000E+00  0.00000000000E+00  0.99999998245E-14  0.12500000000E+03  0.12500000000E+03 0.  0.
        -11    1    3    3    0    0  0.22959731755E+01  0.10003015697E+02 -0.40458379973E+02  0.41739817036E+02  0.51100000000E-03 0. -1.
         23    2    1    0    0    0 -0.22066743507E+02  0.16398699061E+02  0.80113678048E+01  0.96363650477E+02  0.92010394083E+02 0.  0.
         11    1    3    3    0    0 -0.24362716683E+02  0.63956833639E+01  0.48469747778E+02  0.54623833441E+02  0.51100000000E-03 0.  1.
         22    1    1    0    0    0  0.22066743507E+02 -0.16398699061E+02 -0.80113678048E+01  0.28636349523E+02  0.00000000000E+00 0.  1.
</event>
<event>
 5    1  0.1692178E-003  0.9118800E+02  0.7818608E-02  0.1130116E+00
         25   -1    0    0    0    0  0.00000000000E+00  0.00000000000E+00  0.99999998245E-14  0.12500000000E+03  0.12500000000E+03 0.  0.
        -11    1    3    3    0    0 -0.21836414451E+02 -0.39829073454E+02  0.22231647012E+02  0.50571041292E+02  0.51100000000E-03 0. -1.
         23    2    1    0    0    0 -0.28554881611E+02  0.57851929438E+00  0.17056501866E+01  0.96388373151E+02  0.92043974749E+02 0.  0.
         11    1    3    3    0    0 -0.67184671601E+01  0.40407592748E+02 -0.20525996825E+02  0.45817331858E+02  0.51100000000E-03 0.  1.
         22    1    1    0    0    0  0.28554881611E+02 -0.57851929438E+00 -0.17056501866E+01  0.28611626849E+02  0.00000000000E+00 0. -1.
</event>
<event>
 5    1  0.1692178E-003  0.9118800E+02  0.7818608E-02  0.1130116E+00
         25   -1    0    0    0    0  0.00000000000E+00  0.00000000000E+00  0.99999998245E-14  0.12500000000E+03  0.12500000000E+03 0.  0.
        -11    1    3    3    0    0  0.42971706568E+02  0.20616337809E+02  0.20687206603E+01  0.47706189907E+02  0.51100000000E-03 0.  1.
         23    2    1    0    0    0  0.40092230922E+01  0.16295551696E+02 -0.24673601301E+02  0.95160337200E+02  0.90360856017E+02 0.  0.
         11    1    3    3    0    0 -0.38962483476E+02 -0.43207861128E+01 -0.26742321961E+02  0.47454147293E+02  0.51100000000E-03 0. -1.
         22    1    1    0    0    0 -0.40092230922E+01 -0.16295551696E+02  0.24673601301E+02  0.29839662800E+02  0.00000000000E+00 0. -1.
</event>
<event>
 5    1  0.1692178E-003  0.9118800E+02  0.7818608E-02  0.1130116E+00
         25   -1    0    0    0    0  0.00000000000E+00  0.00000000000E+00  0.99999998245E-14  0.12500000000E+03  0.12500000000E+03 0.  0.
        -11    1    3    3    0    0 -0.15772077814E+02 -0.12063220018E+01 -0.31748832606E+02  0.35471143532E+02  0.51100000000E-03 0.  1.
         23    2    1    0    0    0 -0.57963129863E+01 -0.22246397524E+02  0.21459488347E+02  0.93551485136E+02  0.88107157961E+02 0.  0.
         11    1    3    3    0    0  0.99757648275E+01 -0.21040075523E+02  0.53208320953E+02  0.58080341604E+02  0.51100000000E-03 0. -1.
         22    1    1    0    0    0  0.57963129863E+01  0.22246397524E+02 -0.21459488347E+02  0.31448514864E+02  0.00000000000E+00 0. -1.
</event>
<event>
 5    1  0.1692178E-003  0.9118800E+02  0.7818608E-02  0.1130116E+00
         25   -1    0    0    0    0  0.00000000000E+00  0.00000000000E+00  0.99999998245E-14  0.12500000000E+03  0.12500000000E+03 0.  0.
        -11    1    3    3    0    0 -0.29540809727E+02 -0.68986335595E+01 -0.16819495134E+02  0.34686395044E+02  0.51100000000E-03 0. -1.
         23    2    1    0    0    0  0.15435851377E+02  0.16722190856E+02  0.17753622215E+02  0.96136731361E+02  0.91701596717E+02 0.  0.
         11    1    3    3    0    0  0.44976661104E+02  0.23620824415E+02  0.34573117349E+02  0.61450336318E+02  0.51100000000E-03 0.  1.
         22    1    1    0    0    0 -0.15435851377E+02 -0.16722190856E+02 -0.17753622215E+02  0.28863268639E+02  0.00000000000E+00 0.  1.
</event>
<event>
 5    1  0.1692178E-003  0.9118800E+02  0.7818608E-02  0.1130116E+00
         25   -1    0    0    0    0  0.00000000000E+00  0.00000000000E+00  0.99999998245E-14  0.12500000000E+03  0.12500000000E+03 0.  0.
        -11    1    3    3    0    0 -0.21789523064E+02 -0.61434363753E+01  0.34726147771E+02  0.41453955965E+02  0.51100000000E-03 0. -1.
         23    2    1    0    0    0 -0.10537351162E+02  0.24121967341E+02 -0.10191341310E+02  0.96772911669E+02  0.92564722856E+02 0.  0.
         11    1    3    3    0    0  0.11252171902E+02  0.30265403717E+02 -0.44917489081E+02  0.55318955704E+02  0.51100000000E-03 0.  1.
         22    1    1    0    0    0  0.10537351162E+02 -0.24121967341E+02  0.10191341310E+02  0.28227088331E+02  0.00000000000E+00 0.  1.
</event>
<event>
 5    1  0.1692178E-003  0.9118800E+02  0.7818608E-02  0.1130116E+00
         25   -1    0    0    0    0  0.00000000000E+00  0.00000000000E+00  0.99999998245E-14  0.12500000000E+03  0.12500000000E+03 0.  0.
        -11    1    3    3    0    0  0.24857095007E+02  0.62271187512E+01  0.28544167414E+02  0.38359114611E+02  0.51100000000E-03 0.  1.
         23    2    1    0    0    0  0.10994199575E+02 -0.51552575131E+01 -0.26283920145E+02  0.96046700318E+02  0.91578791646E+02 0.  0.
         11    1    3    3    0    0 -0.13862895431E+02 -0.11382376264E+02 -0.54828087558E+02  0.57687585707E+02  0.51100000000E-03 0. -1.
         22    1    1    0    0    0 -0.10994199575E+02  0.51552575131E+01  0.26283920145E+02  0.28953299682E+02  0.00000000000E+00 0. -1.
</event>
<event>
 5    1  0.1692178E-003  0.9118800E+02  0.7818608E-02  0.1130116E+00
         25   -1    0    0    0    0  0.00000000000E+00  0.00000000000E+00  0.99999998245E-14  0.12500000000E+03  0.12500000000E+03 0.  0.
        -11    1    3    3    0    0 -0.34108047342E+02  0.15184077836E+02 -0.39295200330E+02  0.54203578134E+02  0.51100000000E-03 0.  1.
         23    2    1    0    0    0  0.46355271009E+01  0.16258285044E+02 -0.23485228352E+02  0.96062552034E+02  0.91600425809E+02 0.  0.
         11    1    3    3    0    0  0.38743574443E+02  0.10742072079E+01  0.15809971979E+02  0.41858973900E+02  0.51100000000E-03 0. -1.
         22    1    1    0    0    0 -0.46355271009E+01 -0.16258285044E+02  0.23485228352E+02  0.28937447966E+02  0.00000000000E+00 0.  1.
</event>
<event>
 5    1  0.1692178E-003  0.9118800E+02  0.7818608E-02  0.1130116E+00
         25   -1    0    0    0    0  0.00000000000E+00  0.00000000000E+00  0.99999998245E-14  0.12500000000E+03  0.12500000000E+03 0.  0.
        -11    1    3    3    0    0  0.29983461013E+02 -0.10859317677E+02 -0.17309402446E+02  0.36284268327E+02  0.51100000000E-03 0.  1.
         23    2    1    0    0    0 -0.75690157721E+01  0.12511158123E+01  0.27768385119E+02  0.96191346740E+02  0.91776013669E+02 0.  0.
         11    1    3    3    0    0 -0.37552476786E+02  0.12110433489E+02  0.45077787565E+02  0.59907078413E+02  0.51100000000E-03 0. -1.
         22    1    1    0    0    0  0.75690157721E+01 -0.12511158123E+01 -0.27768385119E+02  0.28808653260E+02  0.00000000000E+00 0. -1.
</event>
<event>
 5    1  0.1692178E-003  0.9118800E+02  0.7818608E-02  0.1130116E+00
         25   -1    0    0    0    0  0.00000000000E+00  0.00000000000E+00  0.99999998245E-14  0.12500000000E+03  0.12500000000E+03 0.  0.
        -11    1    3    3    0    0 -0.49263884772E+01 -0.13625727718E+02  0.33825201587E+02  0.36797744794E+02  0.51100000000E-03 0. -1.
         23    2    1    0    0    0 -0.96554416713E+01  0.24145014541E+02 -0.11991550866E+02  0.96364243101E+02  0.92011199184E+02 0.  0.
         11    1    3    3    0    0 -0.47290531942E+01  0.37770742259E+02 -0.45816752453E+02  0.59566498306E+02  0.51100000000E-03 0.  1.
         22    1    1    0    0    0  0.96554416713E+01 -0.24145014541E+02  0.11991550866E+02  0.28635756899E+02  0.00000000000E+00 0.  1.
</event>
<event>
 5    1  0.1692178E-003  0.9118800E+02  0.7818608E-02  0.1130116E+00
         25   -1    0    0    0    0  0.00000000000E+00  0.00000000000E+00  0.99999998245E-14  0.12500000000E+03  0.12500000000E+03 0.  0.
        -11    1    3    3    0    0  0.29663288661E+02 -0.46711113230E+02 -0.15584619563E+02  0.57486686812E+02  0.51100000000E-03 0.  1.
         23    2    1    0    0    0 -0.16835391043E-01 -0.21401324557E+02 -0.18649170208E+02  0.96613233265E+02  0.92348840362E+02 0.  0.
         11    1    3    3    0    0 -0.29680124052E+02  0.25309788673E+02 -0.30645506457E+01  0.39126546454E+02  0.51100000000E-03 0. -1.
         22    1    1    0    0    0  0.16835391043E-01  0.21401324557E+02  0.18649170208E+02  0.28386766735E+02  0.00000000000E+00 0.  1.
</event>
<event>
 5    1  0.1692178E-003  0.9118800E+02  0.7818608E-02  0.1130116E+00
         25   -1    0    0    0    0  0.00000000000E+00  0.00000000000E+00  0.99999998245E-14  0.12500000000E+03  0.12500000000E+03 0.  0.
        -11    1    3    3    0    0  0.32436923011E+02  0.44739353085E+02 -0.27858951288E+02  0.61886063504E+02  0.51100000000E-03 0.  1.
         23    2    1    0    0    0  0.17875957926E+02  0.23547800148E+02 -0.80052039546E+01  0.94371058557E+02  0.89262336061E+02 0.  0.
         11    1    3    3    0    0 -0.14560965084E+02 -0.21191552938E+02  0.19853747334E+02  0.32484995052E+02  0.51100000000E-03 0. -1.
         22    1    1    0    0    0 -0.17875957926E+02 -0.23547800148E+02  0.80052039546E+01  0.30628941443E+02  0.00000000000E+00 0.  1.
</event>
<event>
 5    1  0.1692178E-003  0.9118800E+02  0.7818608E-02  0.1130116E+00
         25   -1    0    0    0    0  0.00000000000E+00  0.00000000000E+00  0.99999998245E-14  0.12500000000E+03  0.12500000000E+03 0.  0.
        -11    1    3    3    0    0  0.16896540368E+02  0.10778098809E+02  0.24256853311E+02  0.31465146165E+02  0.51100000000E-03 0. -1.
         23    2    1    0    0    0 -0.13024571980E+02 -0.16661596121E+02 -0.22992532050E+02  0.93760525122E+02  0.88403231165E+02 0.  0.
         11    1    3    3    0    0 -0.29921112349E+02 -0.27439694930E+02 -0.47249385362E+02  0.62295378957E+02  0.51100000000E-03 0.  1.
         22    1    1    0    0    0  0.13024571980E+02  0.16661596121E+02  0.22992532050E+02  0.31239474878E+02  0.00000000000E+00 0.  1.
</event>
<event>
 5    1  0.1692178E-003  0.9118800E+02  0.7818608E-02  0.1130116E+00
         25   -1    0    0    0    0  0.00000000000E+00  0.00000000000E+00  0.99999998245E-14  0.12500000000E+03  0.12500000000E+03 0.  0.
        -11    1    3    3    0    0 -0.27974762889E+02 -0.43647725031E+02  0.23003942907E+02  0.56717657291E+02  0.51100000000E-03 0. -1.
         23    2    1    0    0    0 -0.26383698888E+02 -0.66015873629E+01  0.90463304954E+01  0.96337888805E+02  0.91975389106E+02 0.  0.
         11    1    3    3    0    0  0.15910640014E+01  0.37046137668E+02 -0.13957612411E+02  0.39620231514E+02  0.51100000000E-03 0.  1.
         22    1    1    0    0    0  0.26383698888E+02  0.66015873629E+01 -0.90463304954E+01  0.28662111195E+02  0.00000000000E+00 0. -1.
</event>
<event>
 5    1  0.1692178E-003  0.9118800E+02  0.7818608E-02  0.1130116E+00
         25   -1    0    0    0    0  0.00000000000E+00  0.00000000000E+00  0.99999998245E-14  0.12500000000E+03  0.12500000000E+03 0.  0.
        -11    1    3    3    0    0  0.25459897327E+02 -0.14786649184E+02  0.21085305046E+02  0.36213829611E+02  0.51100000000E-03 0.  1.
         23    2    1    0    0    0 -0.84709434921E+01 -0.77406149536E+01 -0.27102261992E+02  0.95568611848E+02  0.90923885541E+02 0.  0.
         11    1    3    3    0    0 -0.33930840819E+02  0.70460342301E+01 -0.48187567038E+02  0.59354782236E+02  0.51100000000E-03 0. -1.
         22    1    1    0    0    0  0.84709434921E+01  0.77406149536E+01  0.27102261992E+02  0.29431388152E+02  0.00000000000E+00 0. -1.
</event>
<event>
 5    1  0.1692178E-003  0.9118800E+02  0.7818608E-02  0.1130116E+00
         25   -1    0    0    0    0  0.00000000000E+00  0.00000000000E+00  0.99999998245E-14  0.12500000000E+03  0.12500000000E+03 0.  0.
        -11    1    3    3    0    0 -0.59598357904E+01  0.34672350576E+02  0.21558618777E+02  0.41260944984E+02  0.51100000000E-03 0. -1.
         23    2    1    0    0    0 -0.20090335043E+02 -0.17020856889E+02  0.13357338208E+02  0.95474593731E+02  0.90794539663E+02 0.  0.
         11    1    3    3    0    0 -0.14130499252E+02 -0.51693207466E+02 -0.82012805690E+01  0.54213648747E+02  0.51100000000E-03 0.  1.
         22    1    1    0    0    0  0.20090335043E+02  0.17020856889E+02 -0.13357338208E+02  0.29525406269E+02  0.00000000000E+00 0. -1.
</event>
<event>
 5    1  0.1692178E-003  0.9118800E+02  0.7818608E-02  0.1130116E+00
         25   -1    0    0    0    0  0.00000000000E+00  0.00000000000E+00  0.99999998245E-14  0.12500000000E+03  0.12500000000E+03 0.  0.
        -11    1    3    3    0    0 -0.15801823711E+02 -0.23181026288E+02  0.20179632109E+02  0.34558286483E+02  0.51100000000E-03 0. -1.
         23    2    1    0    0    0  0.14754515620E+02  0.20797661905E+02 -0.11767904879E+02  0.96915804140E+02  0.92757485061E+02 0.  0.
         11    1    3    3    0    0  0.30556339331E+02  0.43978688192E+02 -0.31947536988E+02  0.62357517656E+02  0.51100000000E-03 0.  1.
         22    1    1    0    0    0 -0.14754515620E+02 -0.20797661905E+02  0.11767904879E+02  0.28084195860E+02  0.00000000000E+00 0.  1.
</event>
<event>
 5    1  0.1692178E-003  0.9118800E+02  0.7818608E-02  0.1130116E+00
         25   -1    0    0    0    0  0.00000000000E+00  0.00000000000E+00  0.99999998245E-14  0.12500000000E+03  0.12500000000E+03 0.  0.
        -11    1    3    3    0    0  0.73891256772E+01  0.52677943017E+02  0.60061841271E+01  0.53531664525E+02  0.51100000000E-03 0. -1.
         23    2    1    0    0    0 -0.96896076985E+01  0.17524781712E+02  0.21541439475E+02  0.95588436185E+02  0.90951135486E+02 0.  0.
         11    1    3    3    0    0 -0.17078733376E+02 -0.35153161305E+02  0.15535255348E+02  0.42056771660E+02  0.51100000000E-03 0.  1.
         22    1    1    0    0    0  0.96896076985E+01 -0.17524781712E+02 -0.21541439475E+02  0.29411563815E+02  0.00000000000E+00 0. -1.
</event>
<event>
 5    1  0.1692178E-003  0.9118800E+02  0.7818608E-02  0.1130116E+00
         25   -1    0    0    0    0  0.00000000000E+00  0.00000000000E+00  0.99999998245E-14  0.12500000000E+03  0.12500000000E+03 0.  0.
        -11    1    3    3    0    0 -0.36214685939E+02  0.30378415779E+02  0.10198398398E+02  0.48356581280E+02  0.51100000000E-03 0.  1.
         23    2    1    0    0    0 -0.15722749856E+02  0.54908076876E+01 -0.24278882685E+02  0.95558227354E+02  0.90909608065E+02 0.  0.
         11    1    3    3    0    0  0.20491936083E+02 -0.24887608091E+02 -0.34477281084E+02  0.47201646074E+02  0.51100000000E-03 0. -1.
         22    1    1    0    0    0  0.15722749856E+02 -0.54908076876E+01  0.24278882685E+02  0.29441772646E+02  0.00000000000E+00 0.  1.
</event>
<event>
 5    1  0.1692178E-003  0.9118800E+02  0.7818608E-02  0.1130116E+00
         25   -1    0    0    0    0  0.00000000000E+00  0.00000000000E+00  0.99999998245E-14  0.12500000000E+03  0.12500000000E+03 0.  0.
        -11    1    3    3    0    0  0.20020524042E+02  0.22048036520E+02 -0.17183488645E+02  0.34383274707E+02  0.51100000000E-03 0.  1.
         23    2    1    0    0    0 -0.26695817454E+02 -0.53978953593E+01  0.11201662553E+02  0.95550361839E+02  0.90898792400E+02 0.  0.
         11    1    3    3    0    0 -0.46716341496E+02 -0.27445931879E+02  0.28385151198E+02  0.61167087132E+02  0.51100000000E-03 0. -1.
         22    1    1    0    0    0  0.26695817454E+02  0.53978953593E+01 -0.11201662553E+02  0.29449638161E+02  0.00000000000E+00 0. -1.
</event>
<event>
 5    1  0.1692178E-003  0.9118800E+02  0.7818608E-02  0.1130116E+00
         25   -1    0    0    0    0  0.00000000000E+00  0.00000000000E+00  0.99999998245E-14  0.12500000000E+03  0.12500000000E+03 0.  0.
        -11    1    3    3    0    0 -0.92730121544E+00  0.45338017371E+02  0.53814570023E+01  0.45665695947E+02  0.51100000000E-03 0. -1.
         23    2    1    0    0    0 -0.55054825563E+01  0.14276992616E+00  0.28036226987E+02  0.96427972682E+02  0.92097737054E+02 0.  0.
         11    1    3    3    0    0 -0.45781813408E+01 -0.45195247444E+02  0.22654769984E+02  0.50762276734E+02  0.51100000000E-03 0.  1.
         22    1    1    0    0    0  0.55054825563E+01 -0.14276992616E+00 -0.28036226987E+02  0.28572027318E+02  0.00000000000E+00 0. -1.
</event>
<event>
 5    1  0.1692178E-003  0.9118800E+02  0.7818608E-02  0.1130116E+00
         25   -1    0    0    0    0  0.00000000000E+00  0.00000000000E+00  0.99999998245E-14  0.12500000000E+03  0.12500000000E+03 0.  0.
        -11    1    3    3    0    0 -0.26227900654E+02 -0.24243562014E+02  0.23010059676E+02  0.42486655769E+02  0.51100000000E-03 0.  1.
         23    2    1    0    0    0  0.92845256174E+01  0.15565096724E+02  0.22851904705E+02  0.95833508942E+02  0.91287333379E+02 0.  0.
         11    1    3    3    0    0  0.35512426271E+02  0.39808658738E+02 -0.15815497107E+00  0.53346853173E+02  0.51100000000E-03 0. -1.
         22    1    1    0    0    0 -0.92845256174E+01 -0.15565096724E+02 -0.22851904705E+02  0.29166491058E+02  0.00000000000E+00 0. -1.
</event>
<event>
 5    1  0.1692178E-003  0.9118800E+02  0.7818608E-02  0.1130116E+00
         25   -1    0    0    0    0  0.00000000000E+00  0.00000000000E+00  0.99999998245E-14  0.12500000000E+03  0.12500000000E+03 0.  0.
        -11    1    3    3    0    0  0.26301150546E+02  0.20912909613E+02  0.64769171344E+01  0.34220618994E+02  0.51100000000E-03 0. -1.
         23    2    1    0    0    0 -0.14387739111E+02 -0.25189044932E+02  0.67163912481E+00  0.95983692164E+02  0.91492748571E+02 0.  0.
         11    1    3    3    0    0 -0.40688889657E+02 -0.46101954545E+02 -0.58052780096E+01  0.61763073170E+02  0.51100000000E-03 0.  1.
         22    1    1    0    0    0  0.14387739111E+02  0.25189044932E+02 -0.67163912481E+00  0.29016307836E+02  0.00000000000E+00 0.  1.
</event>
<event>
 5    1  0.1692178E-003  0.9118800E+02  0.7818608E-02  0.1130116E+00
         25   -1    0    0    0    0  0.00000000000E+00  0.00000000000E+00  0.99999998245E-14  0.12500000000E+03  0.12500000000E+03 0.  0.
        -11    1    3    3    0    0  0.24549724218E+02  0.17806772912E+02 -0.23419309532E+02  0.38317544022E+02  0.51100000000E-03 0. -1.
         23    2    1    0    0    0 -0.23728323934E+01 -0.27142630558E+02  0.40131968369E+01  0.97459875163E+02  0.93487800224E+02 0.  0.
         11    1    3    3    0    0 -0.26922556611E+02 -0.44949403470E+02  0.27432506369E+02  0.59142331140E+02  0.51100000000E-03 0.  1.
         22    1    1    0    0    0  0.23728323934E+01  0.27142630558E+02 -0.40131968369E+01  0.27540124837E+02  0.00000000000E+00 0.  1.
</event>
<event>
 5    1  0.1692178E-003  0.9118800E+02  0.7818608E-02  0.1130116E+00
         25   -1    0    0    0    0  0.00000000000E+00  0.00000000000E+00  0.99999998245E-14  0.12500000000E+03  0.12500000000E+03 0.  0.
        -11    1    3    3    0    0 -0.47791646888E+02 -0.46376945398E+01  0.14418830899E+02  0.50134343594E+02  0.51100000000E-03 0.  1.
         23    2    1    0    0    0 -0.12737313459E+02 -0.28028793144E+02  0.16488776719E+01  0.94168665341E+02  0.88978459951E+02 0.  0.
         11    1    3    3    0    0  0.35054333428E+02 -0.23391098604E+02 -0.12769953227E+02  0.44034321747E+02  0.51100000000E-03 0. -1.
         22    1    1    0    0    0  0.12737313459E+02  0.28028793144E+02 -0.16488776719E+01  0.30831334659E+02  0.00000000000E+00 0.  1.
</event>
<event>
 5    1  0.1692178E-003  0.9118800E+02  0.7818608E-02  0.1130116E+00
         25   -1    0    0    0    0  0.00000000000E+00  0.00000000000E+00  0.99999998245E-14  0.12500000000E+03  0.12500000000E+03 0.  0.
        -11    1    3    3    0    0  0.15677031286E+02  0.31787577599E+01  0.32852378530E+02  0.36539739821E+02  0.51100000000E-03 0.  1.
         23    2    1    0    0    0  0.10958310509E+02  0.98661440381E+01 -0.25543291263E+02  0.95506185463E+02  0.90838022688E+02 0.  0.
         11    1    3    3    0    0 -0.47187207768E+01  0.66873862781E+01 -0.58395669792E+02  0.58966445643E+02  0.51100000000E-03 0. -1.
         22    1    1    0    0    0 -0.10958310509E+02 -0.98661440381E+01  0.25543291263E+02  0.29493814537E+02  0.00000000000E+00 0. -1.
</event>
<event>
 5    1  0.1692178E-003  0.9118800E+02  0.7818608E-02  0.1130116E+00
         25   -1    0    0    0    0  0.00000000000E+00  0.00000000000E+00  0.99999998245E-14  0.12500000000E+03  0.12500000000E+03 0.  0.
        -11    1    3    3    0    0 -0.90025020957E+01 -0.97740647292E+01 -0.59308301943E+02  0.60778713913E+02  0.51100000000E-03 0. -1.
         23    2    1    0    0    0  0.93128755292E+00 -0.13505458144E+02 -0.26802978961E+02  0.94972273190E+02  0.90100323515E+02 0.  0.
         11    1    3    3    0    0  0.99337896486E+01 -0.37313934148E+01  0.32505322982E+02  0.34193559277E+02  0.51100000000E-03 0.  1.
         22    1    1    0    0    0 -0.93128755292E+00  0.13505458144E+02  0.26802978961E+02  0.30027726810E+02  0.00000000000E+00 0. -1.
</event>
<event>
 5    1  0.1692178E-003  0.9118800E+02  0.7818608E-02  0.1130116E+00
         25   -1    0    0    0    0  0.00000000000E+00  0.00000000000E+00  0.99999998245E-14  0.12500000000E+03  0.12500000000E+03 0.  0.
        -11    1    3    3    0    0  0.13048484401E+02  0.21673917291E+02  0.46564055889E+02  0.52992763063E+02  0.51100000000E-03 0.  1.
         23    2    1    0    0    0 -0.11996970294E+02 -0.50725196512E+01  0.28108490350E+02  0.94020248845E+02  0.88769714494E+02 0.  0.
         11    1    3    3    0    0 -0.25045454696E+02 -0.26746436942E+02 -0.18455565540E+02  0.41027485783E+02  0.51100000000E-03 0. -1.
         22    1    1    0    0    0  0.11996970294E+02  0.50725196512E+01 -0.28108490350E+02  0.30979751155E+02  0.00000000000E+00 0. -1.
</event>
<event>
 5    1  0.1692178E-003  0.9118800E+02  0.7818608E-02  0.1130116E+00
         25   -1    0    0    0    0  0.00000000000E+00  0.00000000000E+00  0.99999998245E-14  0.12500000000E+03  0.12500000000E+03 0.  0.
        -11    1    3    3    0    0  0.17796027467E+02  0.33545537911E+02 -0.11111313789E+02  0.39565932338E+02  0.51100000000E-03 0.  1.
         23    2    1    0    0    0 -0.26134273161E+02 -0.11540078750E+01  0.61095436137E+01  0.98136297891E+02  0.94387893677E+02 0.  0.
         11    1    3    3    0    0 -0.43930300628E+02 -0.34699545786E+02  0.17220857403E+02  0.58570365553E+02  0.51100000000E-03 0. -1.
         22    1    1    0    0    0  0.26134273161E+02  0.11540078750E+01 -0.61095436137E+01  0.26863702109E+02  0.00000000000E+00 0. -1.
</event>
<event>
 5    1  0.1692178E-003  0.9118800E+02  0.7818608E-02  0.1130116E+00
         25   -1    0    0    0    0  0.00000000000E+00  0.00000000000E+00  0.99999998245E-14  0.12500000000E+03  0.12500000000E+03 0.  0.
        -11    1    3    3    0    0  0.36151324113E+02 -0.12597867181E+02 -0.28313634848E+02  0.47616031031E+02  0.51100000000E-03 0. -1.
         23    2    1    0    0    0  0.52659309839E+01  0.23501696025E+02 -0.13548171923E+02  0.97366456839E+02  0.93362809564E+02 0.  0.
         11    1    3    3    0    0 -0.30885393129E+02  0.36099563206E+02  0.14765462925E+02  0.49750425808E+02  0.51100000000E-03 0.  1.
         22    1    1    0    0    0 -0.52659309839E+01 -0.23501696025E+02  0.13548171923E+02  0.27633543161E+02  0.00000000000E+00 0. -1.
</event>
<event>
 5    1  0.1692178E-003  0.9118800E+02  0.7818608E-02  0.1130116E+00
         25   -1    0    0    0    0  0.00000000000E+00  0.00000000000E+00  0.99999998245E-14  0.12500000000E+03  0.12500000000E+03 0.  0.
        -11    1    3    3    0    0  0.28417841346E+02  0.36729026160E+02  0.10209512618E+02  0.47548177858E+02  0.51100000000E-03 0.  1.
         23    2    1    0    0    0  0.12857079935E+02  0.51907700650E+01 -0.24429033923E+02  0.96910388100E+02  0.92750186118E+02 0.  0.
         11    1    3    3    0    0 -0.15560761412E+02 -0.31538256095E+02 -0.34638546540E+02  0.49362210242E+02  0.51100000000E-03 0. -1.
         22    1    1    0    0    0 -0.12857079935E+02 -0.51907700650E+01  0.24429033923E+02  0.28089611900E+02  0.00000000000E+00 0.  1.
</event>
<event>
 5    1  0.1692178E-003  0.9118800E+02  0.7818608E-02  0.1130116E+00
         25   -1    0    0    0    0  0.00000000000E+00  0.00000000000E+00  0.99999998245E-14  0.12500000000E+03  0.12500000000E+03 0.  0.
        -11    1    3    3    0    0 -0.13767828943E+02 -0.46005997461E+02  0.33244540213E+02  0.58406372687E+02  0.51100000000E-03 0.  1.
         23    2    1    0    0    0  0.33022494801E+01 -0.30570550204E+02  0.30681343631E+02  0.81562594019E+02  0.69033676599E+02 0.  0.
         11    1    3    3    0    0  0.17070078423E+02  0.15435447258E+02 -0.25631965822E+01  0.23156221332E+02  0.51100000000E-03 0. -1.
         22    1    1    0    0    0 -0.33022494801E+01  0.30570550204E+02 -0.30681343631E+02  0.43437405981E+02  0.00000000000E+00 0.  1.
</event>
<event>
 5    1  0.1692178E-003  0.9118800E+02  0.7818608E-02  0.1130116E+00
         25   -1    0    0    0    0  0.00000000000E+00  0.00000000000E+00  0.99999998245E-14  0.12500000000E+03  0.12500000000E+03 0.  0.
        -11    1    3    3    0    0 -0.45125388402E+02  0.13778357030E+02  0.40437323549E+02  0.62139527975E+02  0.51100000000E-03 0.  1.
         23    2    1    0    0    0 -0.18019316528E+02  0.53537361205E+01  0.22342515253E+02  0.95801605414E+02  0.91243637331E+02 0.  0.
         11    1    3    3    0    0  0.27106071875E+02 -0.84246209098E+01 -0.18094808296E+02  0.33662077438E+02  0.51100000000E-03 0. -1.
         22    1    1    0    0    0  0.18019316528E+02 -0.53537361205E+01 -0.22342515253E+02  0.29198394586E+02  0.00000000000E+00 0.  1.
</event>
<event>
 5    1  0.1692178E-003  0.9118800E+02  0.7818608E-02  0.1130116E+00
         25   -1    0    0    0    0  0.00000000000E+00  0.00000000000E+00  0.99999998245E-14  0.12500000000E+03  0.12500000000E+03 0.  0.
        -11    1    3    3    0    0  0.24914753433E+02  0.23583943821E+01 -0.48883596262E+02  0.54917328290E+02  0.51100000000E-03 0. -1.
         23    2    1    0    0    0  0.22203424363E+02  0.16147629571E+02 -0.10823216509E+02  0.95489323800E+02  0.90814816797E+02 0.  0.
         11    1    3    3    0    0 -0.27113290710E+01  0.13789235189E+02  0.38060379753E+02  0.40571995510E+02  0.51100000000E-03 0.  1.
         22    1    1    0    0    0 -0.22203424363E+02 -0.16147629571E+02  0.10823216509E+02  0.29510676200E+02  0.00000000000E+00 0.  1.
</event>
<event>
 5    1  0.1692178E-003  0.9118800E+02  0.7818608E-02  0.1130116E+00
         25   -1    0    0    0    0  0.00000000000E+00  0.00000000000E+00  0.99999998245E-14  0.12500000000E+03  0.12500000000E+03 0.  0.
        -11    1    3    3    0    0 -0.10970942358E+02 -0.51707469009E+02 -0.13035483960E+02  0.54442150673E+02  0.51100000000E-03 0.  1.
         23    2    1    0    0    0 -0.73784721255E+01 -0.24786851873E+02  0.16308275849E+02  0.94425668644E+02  0.89338777477E+02 0.  0.
         11    1    3    3    0    0  0.35924702325E+01  0.26920617136E+02  0.29343759809E+02  0.39983517971E+02  0.51100000000E-03 0. -1.
         22    1    1    0    0    0  0.73784721255E+01  0.24786851873E+02 -0.16308275849E+02  0.30574331356E+02  0.00000000000E+00 0. -1.
</event>
<event>
 5    1  0.1692178E-003  0.9118800E+02  0.7818608E-02  0.1130116E+00
         25   -1    0    0    0    0  0.00000000000E+00  0.00000000000E+00  0.99999998245E-14  0.12500000000E+03  0.12500000000E+03 0.  0.
        -11    1    3    3    0    0  0.20932965188E+02  0.94087877831E+01  0.41762152983E+02  0.47652825112E+02  0.51100000000E-03 0.  1.
         23    2    1    0    0    0 -0.21148482455E+02  0.79304233287E+01  0.18793107055E+02  0.95617508664E+02  0.90991082893E+02 0.  0.
         11    1    3    3    0    0 -0.42081447643E+02 -0.14783644544E+01 -0.22969045928E+02  0.47964683552E+02  0.51100000000E-03 0. -1.
         22    1    1    0    0    0  0.21148482455E+02 -0.79304233287E+01 -0.18793107055E+02  0.29382491336E+02  0.00000000000E+00 0.  1.
</event>
<event>
 5    1  0.1692178E-003  0.9118800E+02  0.7818608E-02  0.1130116E+00
         25   -1    0    0    0    0  0.00000000000E+00  0.00000000000E+00  0.99999998245E-14  0.12500000000E+03  0.12500000000E+03 0.  0.
        -11    1    3    3    0    0 -0.32894613160E+02 -0.22163965826E+02 -0.24708025087E+02  0.46730968961E+02  0.51100000000E-03 0. -1.
         23    2    1    0    0    0 -0.70111951200E+01  0.18961059864E+02 -0.21589381117E+02  0.95423319571E+02  0.90723921282E+02 0.  0.
         11    1    3    3    0    0  0.25883418040E+02  0.41125025690E+02  0.31186439697E+01  0.48692350610E+02  0.51100000000E-03 0.  1.
         22    1    1    0    0    0  0.70111951200E+01 -0.18961059864E+02  0.21589381117E+02  0.29576680429E+02  0.00000000000E+00 0.  1.
</event>
<event>
 5    1  0.1692178E-003  0.9118800E+02  0.7818608E-02  0.1130116E+00
         25   -1    0    0    0    0  0.00000000000E+00  0.00000000000E+00  0.99999998245E-14  0.12500000000E+03  0.12500000000E+03 0.  0.
        -11    1    3    3    0    0 -0.44006492037E+02 -0.31975014773E+01 -0.29774764333E+02  0.53229051733E+02  0.51100000000E-03 0.  1.
         23    2    1    0    0    0 -0.25432161301E+01 -0.33818071412E+00 -0.30098789117E+02  0.94792063612E+02  0.89849963289E+02 0.  0.
         11    1    3    3    0    0  0.41463275907E+02  0.28593207632E+01 -0.32402478447E+00  0.41563011879E+02  0.51100000000E-03 0. -1.
         22    1    1    0    0    0  0.25432161301E+01  0.33818071412E+00  0.30098789117E+02  0.30207936388E+02  0.00000000000E+00 0. -1.
</event>
<event>
 5    1  0.1692178E-003  0.9118800E+02  0.7818608E-02  0.1130116E+00
         25   -1    0    0    0    0  0.00000000000E+00  0.00000000000E+00  0.99999998245E-14  0.12500000000E+03  0.12500000000E+03 0.  0.
        -11    1    3    3    0    0  0.94400684551E+01  0.45359028888E+02 -0.44320668002E+01  0.46542449553E+02  0.51100000000E-03 0. -1.
         23    2    1    0    0    0 -0.26073773099E+02  0.10158879619E+02 -0.51329231307E+01  0.96550195456E+02  0.92263475244E+02 0.  0.
         11    1    3    3    0    0 -0.35513841554E+02 -0.35200149269E+02 -0.70085633053E+00  0.50007745903E+02  0.51100000000E-03 0.  1.
         22    1    1    0    0    0  0.26073773099E+02 -0.10158879619E+02  0.51329231307E+01  0.28449804544E+02  0.00000000000E+00 0.  1.
</event>
<event>
 5    1  0.1692178E-003  0.9118800E+02  0.7818608E-02  0.1130116E+00
         25   -1    0    0    0    0  0.00000000000E+00  0.00000000000E+00  0.99999998245E-14  0.12500000000E+03  0.12500000000E+03 0.  0.
        -11    1    3    3    0    0  0.44702232648E+02  0.42332974446E+01  0.32115849256E+02  0.55205418073E+02  0.51100000000E-03 0. -1.
         23    2    1    0    0    0  0.28944743981E+02 -0.17777423655E+02  0.11837101467E+02  0.89028456148E+02  0.81437792437E+02 0.  0.
         11    1    3    3    0    0 -0.15757488667E+02 -0.22010721100E+02 -0.20278747790E+02  0.33823038075E+02  0.51100000000E-03 0.  1.
         22    1    1    0    0    0 -0.28944743981E+02  0.17777423655E+02 -0.11837101467E+02  0.35971543852E+02  0.00000000000E+00 0. -1.
</event>
<event>
 5    1  0.1692178E-003  0.9118800E+02  0.7818608E-02  0.1130116E+00
         25   -1    0    0    0    0  0.00000000000E+00  0.00000000000E+00  0.99999998245E-14  0.12500000000E+03  0.12500000000E+03 0.  0.
        -11    1    3    3    0    0  0.23314114357E+02  0.22783037256E+02  0.13662519978E+02  0.35345143475E+02  0.51100000000E-03 0. -1.
         23    2    1    0    0    0 -0.27150811683E+02  0.21145076907E+01 -0.11542711971E+02  0.95421766154E+02  0.90721780948E+02 0.  0.
         11    1    3    3    0    0 -0.50464926040E+02 -0.20668529565E+02 -0.25205231949E+02  0.60076622679E+02  0.51100000000E-03 0.  1.
         22    1    1    0    0    0  0.27150811683E+02 -0.21145076907E+01  0.11542711971E+02  0.29578233846E+02  0.00000000000E+00 0.  1.
</event>
<event>
 5    1  0.1692178E-003  0.9118800E+02  0.7818608E-02  0.1130116E+00
         25   -1    0    0    0    0  0.00000000000E+00  0.00000000000E+00  0.99999998245E-14  0.12500000000E+03  0.12500000000E+03 0.  0.
        -11    1    3    3    0    0 -0.25129448489E+02  0.49871920605E+02  0.66525159410E+01  0.56240142379E+02  0.51100000000E-03 0.  1.
         23    2    1    0    0    0 -0.27130759613E+02  0.11136082136E+02 -0.43297909727E+00  0.95669505402E+02  0.91062485967E+02 0.  0.
         11    1    3    3    0    0 -0.20013111237E+01 -0.38735838470E+02 -0.70854950382E+01  0.39429363023E+02  0.51100000000E-03 0. -1.
         22    1    1    0    0    0  0.27130759613E+02 -0.11136082136E+02  0.43297909727E+00  0.29330494598E+02  0.00000000000E+00 0.  1.
</event>
<event>
 5    1  0.1692178E-003  0.9118800E+02  0.7818608E-02  0.1130116E+00
         25   -1    0    0    0    0  0.00000000000E+00  0.00000000000E+00  0.99999998245E-14  0.12500000000E+03  0.12500000000E+03 0.  0.
        -11    1    3    3    0    0  0.52248745517E+02 -0.10929694748E+01  0.18536931376E+02  0.55450372546E+02  0.51100000000E-03 0.  1.
         23    2    1    0    0    0  0.20691000705E+02 -0.20808055026E+02  0.40652662133E+01  0.95375364078E+02  0.90657823818E+02 0.  0.
         11    1    3    3    0    0 -0.31557744812E+02 -0.19715085551E+02 -0.14471665163E+02  0.39924991531E+02  0.51100000000E-03 0. -1.
         22    1    1    0    0    0 -0.20691000705E+02  0.20808055026E+02 -0.40652662133E+01  0.29624635922E+02  0.00000000000E+00 0.  1.
</event>
<event>
 5    1  0.1692178E-003  0.9118800E+02  0.7818608E-02  0.1130116E+00
         25   -1    0    0    0    0  0.00000000000E+00  0.00000000000E+00  0.99999998245E-14  0.12500000000E+03  0.12500000000E+03 0.  0.
        -11    1    3    3    0    0  0.36193326809E+02  0.40602852145E+02 -0.20452485920E+01  0.54430979688E+02  0.51100000000E-03 0. -1.
         23    2    1    0    0    0  0.13944958909E+02  0.13788593282E+02  0.21048201951E+02  0.96231719046E+02  0.91830984758E+02 0.  0.
         11    1    3    3    0    0 -0.22248367900E+02 -0.26814258863E+02  0.23093450543E+02  0.41800739358E+02  0.51100000000E-03 0.  1.
         22    1    1    0    0    0 -0.13944958909E+02 -0.13788593282E+02 -0.21048201951E+02  0.28768280954E+02  0.00000000000E+00 0. -1.
</event>
<event>
 5    1  0.1692178E-003  0.9118800E+02  0.7818608E-02  0.1130116E+00
         25   -1    0    0    0    0  0.00000000000E+00  0.00000000000E+00  0.99999998245E-14  0.12500000000E+03  0.12500000000E+03 0.  0.
        -11    1    3    3    0    0  0.66260065752E+01  0.26628328753E+02  0.17159617042E+02  0.32363935370E+02  0.51100000000E-03 0.  1.
         23    2    1    0    0    0 -0.62090154333E+00 -0.21971721356E+02 -0.21016790060E+02  0.94588694167E+02  0.89566587195E+02 0.  0.
         11    1    3    3    0    0 -0.72469081185E+01 -0.48600050109E+02 -0.38176407102E+02  0.62224758797E+02  0.51100000000E-03 0. -1.
         22    1    1    0    0    0  0.62090154333E+00  0.21971721356E+02  0.21016790060E+02  0.30411305833E+02  0.00000000000E+00 0. -1.
</event>
<event>
 5    1  0.1692178E-003  0.9118800E+02  0.7818608E-02  0.1130116E+00
         25   -1    0    0    0    0  0.00000000000E+00  0.00000000000E+00  0.99999998245E-14  0.12500000000E+03  0.12500000000E+03 0.  0.
        -11    1    3    3    0    0  0.11860604710E+01  0.26716639122E+02  0.20768620687E+02  0.33860318234E+02  0.51100000000E-03 0. -1.
         23    2    1    0    0    0 -0.17222875576E+02 -0.19556762927E+02 -0.14774312667E+02  0.95043786387E+02  0.90199482242E+02 0.  0.
         11    1    3    3    0    0 -0.18408936047E+02 -0.46273402049E+02 -0.35542933354E+02  0.61183468153E+02  0.51100000000E-03 0.  1.
         22    1    1    0    0    0  0.17222875576E+02  0.19556762927E+02  0.14774312667E+02  0.29956213613E+02  0.00000000000E+00 0.  1.
</event>
<event>
 5    1  0.1692178E-003  0.9118800E+02  0.7818608E-02  0.1130116E+00
         25   -1    0    0    0    0  0.00000000000E+00  0.00000000000E+00  0.99999998245E-14  0.12500000000E+03  0.12500000000E+03 0.  0.
        -11    1    3    3    0    0 -0.30754901066E+02  0.11165391234E+02  0.12943113602E+02  0.35185992824E+02  0.51100000000E-03 0. -1.
         23    2    1    0    0    0  0.22829840493E+02  0.21420177789E+01 -0.16273904672E+02  0.96881859408E+02  0.92711729851E+02 0.  0.
         11    1    3    3    0    0  0.53584741559E+02 -0.90233734554E+01 -0.29217018274E+02  0.61695866584E+02  0.51100000000E-03 0.  1.
         22    1    1    0    0    0 -0.22829840493E+02 -0.21420177789E+01  0.16273904672E+02  0.28118140592E+02  0.00000000000E+00 0.  1.
</event>
<event>
 5    1  0.1692178E-003  0.9118800E+02  0.7818608E-02  0.1130116E+00
         25   -1    0    0    0    0  0.00000000000E+00  0.00000000000E+00  0.99999998245E-14  0.12500000000E+03  0.12500000000E+03 0.  0.
        -11    1    3    3    0    0  0.59630803590E+02  0.83877682930E+01  0.13219962376E+02  0.61651883988E+02  0.51100000000E-03 0.  1.
         23    2    1    0    0    0  0.31040786826E+02 -0.19619293815E+01  0.28948054123E+01  0.93762850449E+02  0.88406519060E+02 0.  0.
         11    1    3    3    0    0 -0.28590016764E+02 -0.10349697674E+02 -0.10325156964E+02  0.32110966461E+02  0.51100000000E-03 0. -1.
         22    1    1    0    0    0 -0.31040786826E+02  0.19619293815E+01 -0.28948054123E+01  0.31237149551E+02  0.00000000000E+00 0.  1.
</event>
<event>
 5    1  0.1692178E-003  0.9118800E+02  0.7818608E-02  0.1130116E+00
         25   -1    0    0    0    0  0.00000000000E+00  0.00000000000E+00  0.99999998245E-14  0.12500000000E+03  0.12500000000E+03 0.  0.
        -11    1    3    3    0    0 -0.41182821159E+02  0.42596997206E+01 -0.24796961697E+02  0.48260326460E+02  0.51100000000E-03 0.  1.
         23    2    1    0    0    0 -0.13286486787E+02 -0.26796959917E+02 -0.42474663436E+01  0.94789922835E+02  0.89846984974E+02 0.  0.
         11    1    3    3    0    0  0.27896334372E+02 -0.31056659638E+02  0.20549495354E+02  0.46529596375E+02  0.51100000000E-03 0. -1.
         22    1    1    0    0    0  0.13286486787E+02  0.26796959917E+02  0.42474663436E+01  0.30210077165E+02  0.00000000000E+00 0.  1.
</event>
<event>
 5    1  0.1692178E-003  0.9118800E+02  0.7818608E-02  0.1130116E+00
         25   -1    0    0    0    0  0.00000000000E+00  0.00000000000E+00  0.99999998245E-14  0.12500000000E+03  0.12500000000E+03 0.  0.
        -11    1    3    3    0    0  0.47303750407E+02  0.91724690052E+01  0.12524240603E+02  0.49785897533E+02  0.51100000000E-03 0.  1.
         23    2    1    0    0    0  0.32513243856E+01  0.11289306178E+02  0.26468776274E+02  0.96041138460E+02  0.91571199703E+02 0.  0.
         11    1    3    3    0    0 -0.44052426021E+02  0.21168371724E+01  0.13944535671E+02  0.46255240928E+02  0.51100000000E-03 0. -1.
         22    1    1    0    0    0 -0.32513243856E+01 -0.11289306178E+02 -0.26468776274E+02  0.28958861540E+02  0.00000000000E+00 0.  1.
</event>
<event>
 5    1  0.1692178E-003  0.9118800E+02  0.7818608E-02  0.1130116E+00
         25   -1    0    0    0    0  0.00000000000E+00  0.00000000000E+00  0.99999998245E-14  0.12500000000E+03  0.12500000000E+03 0.  0.
        -11    1    3    3    0    0 -0.68921569150E+01 -0.32813915691E+02  0.31584926863E+02  0.46063678697E+02  0.51100000000E-03 0. -1.
         23    2    1    0    0    0 -0.15228095713E+02  0.14685283017E+02  0.20489690427E+02  0.95548686785E+02  0.90896488910E+02 0.  0.
         11    1    3    3    0    0 -0.83359387981E+01  0.47499198708E+02 -0.11095236436E+02  0.49485008087E+02  0.51100000000E-03 0.  1.
         22    1    1    0    0    0  0.15228095713E+02 -0.14685283017E+02 -0.20489690427E+02  0.29451313215E+02  0.00000000000E+00 0. -1.
</event>
<event>
 5    1  0.1692178E-003  0.9118800E+02  0.7818608E-02  0.1130116E+00
         25   -1    0    0    0    0  0.00000000000E+00  0.00000000000E+00  0.99999998245E-14  0.12500000000E+03  0.12500000000E+03 0.  0.
        -11    1    3    3    0    0 -0.36698934881E+02 -0.28337507729E+02  0.19522398862E+02  0.50308550201E+02  0.51100000000E-03 0. -1.
         23    2    1    0    0    0 -0.23633790257E+02  0.11866622103E+02 -0.32995893538E+01  0.98349295470E+02  0.94669550899E+02 0.  0.
         11    1    3    3    0    0  0.13065144624E+02  0.40204129832E+02 -0.22821988216E+02  0.48040745269E+02  0.51100000000E-03 0.  1.
         22    1    1    0    0    0  0.23633790257E+02 -0.11866622103E+02  0.32995893538E+01  0.26650704530E+02  0.00000000000E+00 0.  1.
</event>
<event>
 5    1  0.1692178E-003  0.9118800E+02  0.7818608E-02  0.1130116E+00
         25   -1    0    0    0    0  0.00000000000E+00  0.00000000000E+00  0.99999998245E-14  0.12500000000E+03  0.12500000000E+03 0.  0.
        -11    1    3    3    0    0 -0.98126370808E+01  0.25767518527E+02  0.21746829677E+02  0.35116626529E+02  0.51100000000E-03 0.  1.
         23    2    1    0    0    0  0.27918405730E+01 -0.38558246134E+01 -0.29217376848E+02  0.95397350336E+02  0.90688133645E+02 0.  0.
         11    1    3    3    0    0  0.12604477654E+02 -0.29623343141E+02 -0.50964206525E+02  0.60280723807E+02  0.51100000000E-03 0. -1.
         22    1    1    0    0    0 -0.27918405730E+01  0.38558246134E+01  0.29217376848E+02  0.29602649664E+02  0.00000000000E+00 0. -1.
</event>
<event>
 5    1  0.1692178E-003  0.9118800E+02  0.7818608E-02  0.1130116E+00
         25   -1    0    0    0    0  0.00000000000E+00  0.00000000000E+00  0.99999998245E-14  0.12500000000E+03  0.12500000000E+03 0.  0.
        -11    1    3    3    0    0  0.28155170757E+01  0.25821802741E+02  0.24138378593E+02  0.35459187167E+02  0.51100000000E-03 0.  1.
         23    2    1    0    0    0  0.26675651120E+02 -0.86378696841E+01 -0.15340697362E+02  0.93038458252E+02  0.87376281467E+02 0.  0.
         11    1    3    3    0    0  0.23860134044E+02 -0.34459672425E+02 -0.39479075954E+02  0.57579271085E+02  0.51100000000E-03 0. -1.
         22    1    1    0    0    0 -0.26675651120E+02  0.86378696841E+01  0.15340697362E+02  0.31961541748E+02  0.00000000000E+00 0. -1.
</event>
<event>
 5    1  0.1692178E-003  0.9118800E+02  0.7818608E-02  0.1130116E+00
         25   -1    0    0    0    0  0.00000000000E+00  0.00000000000E+00  0.99999998245E-14  0.12500000000E+03  0.12500000000E+03 0.  0.
        -11    1    3    3    0    0  0.21481441663E+02 -0.72521342412E+01 -0.56907442286E+02  0.61257675232E+02  0.51100000000E-03 0. -1.
         23    2    1    0    0    0  0.16723896749E+02 -0.57859613300E+01 -0.20870694618E+02  0.97636667512E+02  0.93723886380E+02 0.  0.
         11    1    3    3    0    0 -0.47575449147E+01  0.14661729112E+01  0.36036747668E+02  0.36378992281E+02  0.51100000000E-03 0.  1.
         22    1    1    0    0    0 -0.16723896749E+02  0.57859613300E+01  0.20870694618E+02  0.27363332488E+02  0.00000000000E+00 0. -1.
</event>
<event>
 5    1  0.1692178E-003  0.9118800E+02  0.7818608E-02  0.1130116E+00
         25   -1    0    0    0    0  0.00000000000E+00  0.00000000000E+00  0.99999998245E-14  0.12500000000E+03  0.12500000000E+03 0.  0.
        -11    1    3    3    0    0  0.15622883091E+02 -0.53651049282E+02 -0.11166179283E+02  0.56984148016E+02  0.51100000000E-03 0.  1.
         23    2    1    0    0    0  0.98020304305E+01 -0.16181531694E+02 -0.21574245024E+02  0.96305578645E+02  0.91931467198E+02 0.  0.
         11    1    3    3    0    0 -0.58208526605E+01  0.37469517588E+02 -0.10408065742E+02  0.39321430629E+02  0.51100000000E-03 0. -1.
         22    1    1    0    0    0 -0.98020304305E+01  0.16181531694E+02  0.21574245024E+02  0.28694421355E+02  0.00000000000E+00 0.  1.
</event>
<event>
 5    1  0.1692178E-003  0.9118800E+02  0.7818608E-02  0.1130116E+00
         25   -1    0    0    0    0  0.00000000000E+00  0.00000000000E+00  0.99999998245E-14  0.12500000000E+03  0.12500000000E+03 0.  0.
        -11    1    3    3    0    0 -0.42190613869E+02  0.69374688640E+01  0.15358332711E+02  0.45431869396E+02  0.51100000000E-03 0. -1.
         23    2    1    0    0    0  0.46987203544E+01  0.21047474009E+02  0.21216635733E+02  0.94747400658E+02  0.89787806325E+02 0.  0.
         11    1    3    3    0    0  0.46889334224E+02  0.14110005145E+02  0.58583030214E+01  0.49315531262E+02  0.51100000000E-03 0.  1.
         22    1    1    0    0    0 -0.46987203544E+01 -0.21047474009E+02 -0.21216635733E+02  0.30252599342E+02  0.00000000000E+00 0.  1.
</event>
<event>
 5    1  0.1692178E-003  0.9118800E+02  0.7818608E-02  0.1130116E+00
         25   -1    0    0    0    0  0.00000000000E+00  0.00000000000E+00  0.99999998245E-14  0.12500000000E+03  0.12500000000E+03 0.  0.
        -11    1    3    3    0    0 -0.36283905552E+02  0.13570748482E+02 -0.12002528797E+02  0.40555489323E+02  0.51100000000E-03 0.  1.
         23    2    1    0    0    0  0.21655397247E+02  0.13566233801E+02 -0.55244061776E+01  0.98855822960E+02  0.95336014915E+02 0.  0.
         11    1    3    3    0    0  0.57939302799E+02 -0.45146804118E-02  0.64781226194E+01  0.58300333637E+02  0.51100000000E-03 0. -1.
         22    1    1    0    0    0 -0.21655397247E+02 -0.13566233801E+02  0.55244061776E+01  0.26144177040E+02  0.00000000000E+00 0. -1.
</event>
<event>
 5    1  0.1692178E-003  0.9118800E+02  0.7818608E-02  0.1130116E+00
         25   -1    0    0    0    0  0.00000000000E+00  0.00000000000E+00  0.99999998245E-14  0.12500000000E+03  0.12500000000E+03 0.  0.
        -11    1    3    3    0    0  0.97898230066E+01 -0.23770736507E+02 -0.35943011974E+02  0.44190368392E+02  0.51100000000E-03 0. -1.
         23    2    1    0    0    0  0.25489691746E+02  0.13803560276E+02 -0.44425809259E+01  0.95674257266E+02  0.91069008541E+02 0.  0.
         11    1    3    3    0    0  0.15699868739E+02  0.37574296783E+02  0.31500431048E+02  0.51483888875E+02  0.51100000000E-03 0.  1.
         22    1    1    0    0    0 -0.25489691746E+02 -0.13803560276E+02  0.44425809259E+01  0.29325742734E+02  0.00000000000E+00 0.  1.
</event>
<event>
 5    1  0.1692178E-003  0.9118800E+02  0.7818608E-02  0.1130116E+00
         25   -1    0    0    0    0  0.00000000000E+00  0.00000000000E+00  0.99999998245E-14  0.12500000000E+03  0.12500000000E+03 0.  0.
        -11    1    3    3    0    0 -0.24889936830E+02  0.21998489054E+02  0.18837891351E+02  0.38187807307E+02  0.51100000000E-03 0. -1.
         23    2    1    0    0    0  0.24672736672E+02  0.71612664634E+01 -0.10015666610E+02  0.97425713973E+02  0.93442113060E+02 0.  0.
         11    1    3    3    0    0  0.49562673502E+02 -0.14837222591E+02 -0.28853557961E+02  0.59237906666E+02  0.51100000000E-03 0.  1.
         22    1    1    0    0    0 -0.24672736672E+02 -0.71612664634E+01  0.10015666610E+02  0.27574286027E+02  0.00000000000E+00 0.  1.
</event>
<event>
 5    1  0.1692178E-003  0.9118800E+02  0.7818608E-02  0.1130116E+00
         25   -1    0    0    0    0  0.00000000000E+00  0.00000000000E+00  0.99999998245E-14  0.12500000000E+03  0.12500000000E+03 0.  0.
        -11    1    3    3    0    0 -0.33344246147E+02  0.26627466391E+02 -0.42240450025E+01  0.42880103474E+02  0.51100000000E-03 0. -1.
         23    2    1    0    0    0 -0.13395618765E+02 -0.22623814696E+02 -0.11099440627E+02  0.96460953489E+02  0.92142489506E+02 0.  0.
         11    1    3    3    0    0  0.19948627382E+02 -0.49251281087E+02 -0.68753956243E+01  0.53580850015E+02  0.51100000000E-03 0.  1.
         22    1    1    0    0    0  0.13395618765E+02  0.22623814696E+02  0.11099440627E+02  0.28539046511E+02  0.00000000000E+00 0.  1.
</event>
<event>
 5    1  0.1692178E-003  0.9118800E+02  0.7818608E-02  0.1130116E+00
         25   -1    0    0    0    0  0.00000000000E+00  0.00000000000E+00  0.99999998245E-14  0.12500000000E+03  0.12500000000E+03 0.  0.
        -11    1    3    3    0    0 -0.23962480444E+02  0.37394137413E+02 -0.97882507140E+01  0.45478916370E+02  0.51100000000E-03 0. -1.
         23    2    1    0    0    0 -0.26234081274E+02 -0.50844659091E+01  0.14636849148E+02  0.94531718675E+02  0.89487036317E+02 0.  0.
         11    1    3    3    0    0 -0.22716008306E+01 -0.42478603322E+02  0.24425099862E+02  0.49052802306E+02  0.51100000000E-03 0.  1.
         22    1    1    0    0    0  0.26234081274E+02  0.50844659091E+01 -0.14636849148E+02  0.30468281325E+02  0.00000000000E+00 0.  1.
</event>
<event>
 5    1  0.1692178E-003  0.9118800E+02  0.7818608E-02  0.1130116E+00
         25   -1    0    0    0    0  0.00000000000E+00  0.00000000000E+00  0.99999998245E-14  0.12500000000E+03  0.12500000000E+03 0.  0.
        -11    1    3    3    0    0  0.26294672595E+02 -0.19450611584E+01 -0.22698571813E+02  0.34791065411E+02  0.51100000000E-03 0. -1.
         23    2    1    0    0    0 -0.31552958314E+01  0.40466171709E+01  0.29518353970E+02  0.95038954901E+02  0.90192786437E+02 0.  0.
         11    1    3    3    0    0 -0.29449968427E+02  0.59916783294E+01  0.52216925783E+02  0.60247889490E+02  0.51100000000E-03 0.  1.
         22    1    1    0    0    0  0.31552958314E+01 -0.40466171709E+01 -0.29518353970E+02  0.29961045099E+02  0.00000000000E+00 0.  1.
</event>
<event>
 5    1  0.1692178E-003  0.9118800E+02  0.7818608E-02  0.1130116E+00
         25   -1    0    0    0    0  0.00000000000E+00  0.00000000000E+00  0.99999998245E-14  0.12500000000E+03  0.12500000000E+03 0.  0.
        -11    1    3    3    0    0  0.18894152772E+02  0.39126016302E+02  0.32216553812E+02  0.54090114627E+02  0.51100000000E-03 0. -1.
         23    2    1    0    0    0 -0.94751656916E+01  0.14329404769E+02  0.28196222279E+02  0.91982768790E+02  0.85852735528E+02 0.  0.
         11    1    3    3    0    0 -0.28369318464E+02 -0.24796611533E+02 -0.40203315325E+01  0.37892654163E+02  0.51100000000E-03 0.  1.
         22    1    1    0    0    0  0.94751656916E+01 -0.14329404769E+02 -0.28196222279E+02  0.33017231210E+02  0.00000000000E+00 0. -1.
</event>
<event>
 5    1  0.1692178E-003  0.9118800E+02  0.7818608E-02  0.1130116E+00
         25   -1    0    0    0    0  0.00000000000E+00  0.00000000000E+00  0.99999998245E-14  0.12500000000E+03  0.12500000000E+03 0.  0.
        -11    1    3    3    0    0 -0.58249575518E+02 -0.12988911204E+02 -0.14978599811E+02  0.61531157269E+02  0.51100000000E-03 0.  1.
         23    2    1    0    0    0 -0.24826587449E+02  0.19919339743E+01 -0.81889869669E+01  0.98781938423E+02  0.95239091794E+02 0.  0.
         11    1    3    3    0    0  0.33422988070E+02  0.14980845178E+02  0.67896128445E+01  0.37250781154E+02  0.51100000000E-03 0. -1.
         22    1    1    0    0    0  0.24826587449E+02 -0.19919339743E+01  0.81889869669E+01  0.26218061577E+02  0.00000000000E+00 0.  1.
</event>
<event>
 5    1  0.1692178E-003  0.9118800E+02  0.7818608E-02  0.1130116E+00
         25   -1    0    0    0    0  0.00000000000E+00  0.00000000000E+00  0.99999998245E-14  0.12500000000E+03  0.12500000000E+03 0.  0.
        -11    1    3    3    0    0  0.26855285673E+02 -0.99957739235E+01  0.43944389448E+02  0.52461712030E+02  0.51100000000E-03 0.  1.
         23    2    1    0    0    0 -0.33651665378E+00  0.17285740146E+02  0.22749375918E+02  0.96426512980E+02  0.92095755846E+02 0.  0.
         11    1    3    3    0    0 -0.27191802327E+02  0.27281514069E+02 -0.21195013530E+02  0.43964800949E+02  0.51100000000E-03 0. -1.
         22    1    1    0    0    0  0.33651665378E+00 -0.17285740146E+02 -0.22749375918E+02  0.28573487020E+02  0.00000000000E+00 0.  1.
</event>
<event>
 5    1  0.1692178E-003  0.9118800E+02  0.7818608E-02  0.1130116E+00
         25   -1    0    0    0    0  0.00000000000E+00  0.00000000000E+00  0.99999998245E-14  0.12500000000E+03  0.12500000000E+03 0.  0.
        -11    1    3    3    0    0  0.20867350353E+02  0.32494995158E+02 -0.25553812551E+01  0.38702725934E+02  0.51100000000E-03 0.  1.
         23    2    1    0    0    0 -0.23178425204E+02 -0.33488939657E+00 -0.17868278386E+02  0.95731810471E+02  0.91147971001E+02 0.  0.
         11    1    3    3    0    0 -0.44045775557E+02 -0.32829884555E+02 -0.15312897131E+02  0.57029084537E+02  0.51100000000E-03 0. -1.
         22    1    1    0    0    0  0.23178425204E+02  0.33488939657E+00  0.17868278386E+02  0.29268189529E+02  0.00000000000E+00 0. -1.
</event>
<event>
 5    1  0.1692178E-003  0.9118800E+02  0.7818608E-02  0.1130116E+00
         25   -1    0    0    0    0  0.00000000000E+00  0.00000000000E+00  0.99999998245E-14  0.12500000000E+03  0.12500000000E+03 0.  0.
        -11    1    3    3    0    0  0.24122516963E+02  0.84975898763E+01  0.21720096296E+02  0.33553948228E+02  0.51100000000E-03 0. -1.
         23    2    1    0    0    0 -0.25338111229E+02  0.16991082647E+01 -0.14978706435E+02  0.95516640354E+02  0.90852408270E+02 0.  0.
         11    1    3    3    0    0 -0.49460628192E+02 -0.67984816116E+01 -0.36698802731E+02  0.61962692126E+02  0.51100000000E-03 0.  1.
         22    1    1    0    0    0  0.25338111229E+02 -0.16991082647E+01  0.14978706435E+02  0.29483359646E+02  0.00000000000E+00 0.  1.
</event>
<event>
 5    1  0.1692178E-003  0.9118800E+02  0.7818608E-02  0.1130116E+00
         25   -1    0    0    0    0  0.00000000000E+00  0.00000000000E+00  0.99999998245E-14  0.12500000000E+03  0.12500000000E+03 0.  0.
        -11    1    3    3    0    0 -0.45298851607E+01 -0.57209725645E+02 -0.14000965524E+02  0.59071986625E+02  0.51100000000E-03 0.  1.
         23    2    1    0    0    0  0.11438930018E+02 -0.31241130661E+02 -0.25655971116E+01  0.91631756812E+02  0.85340138288E+02 0.  0.
         11    1    3    3    0    0  0.15968815179E+02  0.25968594984E+02  0.11435368413E+02  0.32559770187E+02  0.51100000000E-03 0. -1.
         22    1    1    0    0    0 -0.11438930018E+02  0.31241130661E+02  0.25655971116E+01  0.33368243188E+02  0.00000000000E+00 0.  1.
</event>
<event>
 5    1  0.1692178E-003  0.9118800E+02  0.7818608E-02  0.1130116E+00
         25   -1    0    0    0    0  0.00000000000E+00  0.00000000000E+00  0.99999998245E-14  0.12500000000E+03  0.12500000000E+03 0.  0.
        -11    1    3    3    0    0 -0.68982975629E+01  0.53512071518E+02 -0.28236606075E+02  0.60896914785E+02  0.51100000000E-03 0.  1.
         23    2    1    0    0    0 -0.29952246305E+00  0.19187131865E+02 -0.20927490627E+02  0.96606416097E+02  0.92339612433E+02 0.  0.
         11    1    3    3    0    0  0.65987750998E+01 -0.34324939653E+02  0.73091154481E+01  0.35709501312E+02  0.51100000000E-03 0. -1.
         22    1    1    0    0    0  0.29952246305E+00 -0.19187131865E+02  0.20927490627E+02  0.28393583903E+02  0.00000000000E+00 0.  1.
</event>
<event>
 5    1  0.1692178E-003  0.9118800E+02  0.7818608E-02  0.1130116E+00
         25   -1    0    0    0    0  0.00000000000E+00  0.00000000000E+00  0.99999998245E-14  0.12500000000E+03  0.12500000000E+03 0.  0.
        -11    1    3    3    0    0  0.42972713459E+02  0.20368874881E+02 -0.36694388560E+02  0.60066823771E+02  0.51100000000E-03 0. -1.
         23    2    1    0    0    0  0.27242816040E+02  0.11514089283E+00 -0.13721152212E+02  0.94496650983E+02  0.89438038584E+02 0.  0.
         11    1    3    3    0    0 -0.15729897419E+02 -0.20253733988E+02  0.22973236347E+02  0.34429827212E+02  0.51100000000E-03 0.  1.
         22    1    1    0    0    0 -0.27242816040E+02 -0.11514089283E+00  0.13721152212E+02  0.30503349017E+02  0.00000000000E+00 0. -1.
</event>
<event>
 5    1  0.1692178E-003  0.9118800E+02  0.7818608E-02  0.1130116E+00
         25   -1    0    0    0    0  0.00000000000E+00  0.00000000000E+00  0.99999998245E-14  0.12500000000E+03  0.12500000000E+03 0.  0.
        -11    1    3    3    0    0  0.89385920785E+01  0.37070426225E+02  0.44490385909E+02  0.58596154887E+02  0.51100000000E-03 0.  1.
         23    2    1    0    0    0 -0.10817000072E+02  0.13996766072E+02  0.23787798653E+02  0.95355838420E+02  0.90630897629E+02 0.  0.
         11    1    3    3    0    0 -0.19755592151E+02 -0.23073660153E+02 -0.20702587257E+02  0.36759683533E+02  0.51100000000E-03 0. -1.
         22    1    1    0    0    0  0.10817000072E+02 -0.13996766072E+02 -0.23787798653E+02  0.29644161580E+02  0.00000000000E+00 0.  1.
</event>
<event>
 5    1  0.1692178E-003  0.9118800E+02  0.7818608E-02  0.1130116E+00
         25   -1    0    0    0    0  0.00000000000E+00  0.00000000000E+00  0.99999998245E-14  0.12500000000E+03  0.12500000000E+03 0.  0.
        -11    1    3    3    0    0  0.41220398565E+02  0.31531339181E+02 -0.17935358045E+02  0.54909231254E+02  0.51100000000E-03 0. -1.
         23    2    1    0    0    0  0.26608376647E+02  0.22232585985E+01  0.84812288437E+01  0.96984293168E+02  0.92849735013E+02 0.  0.
         11    1    3    3    0    0 -0.14612021918E+02 -0.29308080583E+02  0.26416586889E+02  0.42075061914E+02  0.51100000000E-03 0.  1.
         22    1    1    0    0    0 -0.26608376647E+02 -0.22232585985E+01 -0.84812288437E+01  0.28015706832E+02  0.00000000000E+00 0. -1.
</event>
<event>
 5    1  0.1692178E-003  0.9118800E+02  0.7818608E-02  0.1130116E+00
         25   -1    0    0    0    0  0.00000000000E+00  0.00000000000E+00  0.99999998245E-14  0.12500000000E+03  0.12500000000E+03 0.  0.
        -11    1    3    3    0    0 -0.47015996426E+02 -0.78301628922E+01 -0.11984703903E+02  0.49147212522E+02  0.51100000000E-03 0.  1.
         23    2    1    0    0    0 -0.75636778352E+01 -0.28400236280E+02  0.13002498000E+01  0.95581072544E+02  0.90941014597E+02 0.  0.
         11    1    3    3    0    0  0.39452318591E+02 -0.20570073387E+02  0.13284953703E+02  0.46433860021E+02  0.51100000000E-03 0. -1.
         22    1    1    0    0    0  0.75636778352E+01  0.28400236280E+02 -0.13002498000E+01  0.29418927456E+02  0.00000000000E+00 0.  1.
</event>
<event>
 5    1  0.1692178E-003  0.9118800E+02  0.7818608E-02  0.1130116E+00
         25   -1    0    0    0    0  0.00000000000E+00  0.00000000000E+00  0.99999998245E-14  0.12500000000E+03  0.12500000000E+03 0.  0.
        -11    1    3    3    0    0 -0.29678347331E+01  0.35585702412E+02  0.13429038746E+02  0.38150876020E+02  0.51100000000E-03 0.  1.
         23    2    1    0    0    0 -0.66430901518E+01 -0.81295202126E+00 -0.29613254287E+02  0.94639888551E+02  0.89638006101E+02 0.  0.
         11    1    3    3    0    0 -0.36752554187E+01 -0.36398654433E+02 -0.43042293033E+02  0.56489012531E+02  0.51100000000E-03 0. -1.
         22    1    1    0    0    0  0.66430901518E+01  0.81295202126E+00  0.29613254287E+02  0.30360111449E+02  0.00000000000E+00 0. -1.
</event>
<event>
 5    1  0.1692178E-003  0.9118800E+02  0.7818608E-02  0.1130116E+00
         25   -1    0    0    0    0  0.00000000000E+00  0.00000000000E+00  0.99999998245E-14  0.12500000000E+03  0.12500000000E+03 0.  0.
        -11    1    3    3    0    0  0.39469412690E+01 -0.27674861804E+02  0.49050277218E+02  0.56457116617E+02  0.51100000000E-03 0.  1.
         23    2    1    0    0    0 -0.11012186958E+02 -0.23788400956E+02  0.12876276539E+02  0.95794610443E+02  0.91234054009E+02 0.  0.
         11    1    3    3    0    0 -0.14959128227E+02  0.38864608486E+01 -0.36174000678E+02  0.39337493827E+02  0.51100000000E-03 0. -1.
         22    1    1    0    0    0  0.11012186958E+02  0.23788400956E+02 -0.12876276539E+02  0.29205389557E+02  0.00000000000E+00 0.  1.
</event>
<event>
 5    1  0.1692178E-003  0.9118800E+02  0.7818608E-02  0.1130116E+00
         25   -1    0    0    0    0  0.00000000000E+00  0.00000000000E+00  0.99999998245E-14  0.12500000000E+03  0.12500000000E+03 0.  0.
        -11    1    3    3    0    0  0.22822089297E+02 -0.48420352258E+02  0.26676539067E+02  0.59808160058E+02  0.51100000000E-03 0.  1.
         23    2    1    0    0    0  0.21393979346E+02 -0.15245376905E+02  0.12315049447E+02  0.95986480529E+02  0.91496558034E+02 0.  0.
         11    1    3    3    0    0 -0.14281099506E+01  0.33174975353E+02 -0.14361489620E+02  0.36178320471E+02  0.51100000000E-03 0. -1.
         22    1    1    0    0    0 -0.21393979346E+02  0.15245376905E+02 -0.12315049447E+02  0.29013519471E+02  0.00000000000E+00 0.  1.
</event>
<event>
 5    1  0.1692178E-003  0.9118800E+02  0.7818608E-02  0.1130116E+00
         25   -1    0    0    0    0  0.00000000000E+00  0.00000000000E+00  0.99999998245E-14  0.12500000000E+03  0.12500000000E+03 0.  0.
        -11    1    3    3    0    0  0.64472571505E+01  0.75126586555E+01  0.38105055602E+02  0.39370070199E+02  0.51100000000E-03 0. -1.
         23    2    1    0    0    0 -0.23615211565E+02  0.51789308406E+01 -0.12123412287E+02  0.97954174677E+02  0.94146394882E+02 0.  0.
         11    1    3    3    0    0 -0.30062468716E+02 -0.23337278149E+01 -0.50228467888E+02  0.58584104478E+02  0.51100000000E-03 0.  1.
         22    1    1    0    0    0  0.23615211565E+02 -0.51789308406E+01  0.12123412287E+02  0.27045825323E+02  0.00000000000E+00 0.  1.
</event>
<event>
 5    1  0.1692178E-003  0.9118800E+02  0.7818608E-02  0.1130116E+00
         25   -1    0    0    0    0  0.00000000000E+00  0.00000000000E+00  0.99999998245E-14  0.12500000000E+03  0.12500000000E+03 0.  0.
        -11    1    3    3    0    0 -0.30775935056E+01  0.36390452527E+02  0.37837560379E+02  0.52587237926E+02  0.51100000000E-03 0.  1.
         23    2    1    0    0    0 -0.18563284112E+02  0.18622056034E+02 -0.17368275959E+01  0.98648661171E+02  0.95064006295E+02 0.  0.
         11    1    3    3    0    0 -0.15485690607E+02 -0.17768396493E+02 -0.39574387975E+02  0.46061423245E+02  0.51100000000E-03 0. -1.
         22    1    1    0    0    0  0.18563284112E+02 -0.18622056034E+02  0.17368275959E+01  0.26351338829E+02  0.00000000000E+00 0.  1.
</event>
<event>
 5    1  0.1692178E-003  0.9118800E+02  0.7818608E-02  0.1130116E+00
         25   -1    0    0    0    0  0.00000000000E+00  0.00000000000E+00  0.99999998245E-14  0.12500000000E+03  0.12500000000E+03 0.  0.
        -11    1    3    3    0    0 -0.46908513298E+01  0.67638357489E+00 -0.56117238927E+02  0.56317014179E+02  0.51100000000E-03 0.  1.
         23    2    1    0    0    0 -0.16996765602E+02  0.12684323335E+02 -0.22474339133E+02  0.94098899391E+02  0.88880396307E+02 0.  0.
         11    1    3    3    0    0 -0.12305914272E+02  0.12007939761E+02  0.33642899794E+02  0.37781885212E+02  0.51100000000E-03 0. -1.
         22    1    1    0    0    0  0.16996765602E+02 -0.12684323335E+02  0.22474339133E+02  0.30901100609E+02  0.00000000000E+00 0.  1.
</event>
<event>
 5    1  0.1692178E-003  0.9118800E+02  0.7818608E-02  0.1130116E+00
         25   -1    0    0    0    0  0.00000000000E+00  0.00000000000E+00  0.99999998245E-14  0.12500000000E+03  0.12500000000E+03 0.  0.
        -11    1    3    3    0    0  0.30654380681E+02 -0.17565391554E+02  0.22461742780E+02  0.41866023508E+02  0.51100000000E-03 0.  1.
         23    2    1    0    0    0 -0.17291181917E+02  0.77266407324E+01  0.21859919172E+02  0.96076963934E+02  0.91620090501E+02 0.  0.
         11    1    3    3    0    0 -0.47945562597E+02  0.25292032286E+02 -0.60182360868E+00  0.54210940426E+02  0.51100000000E-03 0. -1.
         22    1    1    0    0    0  0.17291181917E+02 -0.77266407324E+01 -0.21859919172E+02  0.28923036066E+02  0.00000000000E+00 0. -1.
</event>
<event>
 5    1  0.1692178E-003  0.9118800E+02  0.7818608E-02  0.1130116E+00
         25   -1    0    0    0    0  0.00000000000E+00  0.00000000000E+00  0.99999998245E-14  0.12500000000E+03  0.12500000000E+03 0.  0.
        -11    1    3    3    0    0 -0.10522823077E+02 -0.58972065349E+02 -0.14186653891E+02  0.61560502321E+02  0.51100000000E-03 0.  1.
         23    2    1    0    0    0 -0.12905182351E+02 -0.28730885387E+02 -0.69789303375E+01  0.92739916688E+02  0.86948140705E+02 0.  0.
         11    1    3    3    0    0 -0.23823592736E+01  0.30241179962E+02  0.72077235532E+01  0.31179414368E+02  0.51100000000E-03 0. -1.
         22    1    1    0    0    0  0.12905182351E+02  0.28730885387E+02  0.69789303375E+01  0.32260083312E+02  0.00000000000E+00 0.  1.
</event>
<event>
 4    1  0.1692178E-003  0.9118800E+02  0.7818608E-02  0.1130116E+00
         25   -1    0    0    0    0  0.00000000000E+00  0.00000000000E+00  0.99999998245E-14  0.12500000000E+03  0.12500000000E+03 0.  0.
        -11    1    1    0    0    0 -0.64460095085E+01  0.15206813220E+02 -0.70588493402E+01  0.17961780568E+02  0.51100000000E-03 0.  1.
         11    1    1    0    0    0  0.11664423358E+02  0.15264984857E+02  0.50321914061E+02  0.53864399838E+02  0.51100000000E-03 0. -1.
         22    1    1    0    0    0 -0.52184138491E+01 -0.30471798077E+02 -0.43263064720E+02  0.53173819594E+02  0.00000000000E+00 0.  1.
</event>
<event>
 5    1  0.1692178E-003  0.9118800E+02  0.7818608E-02  0.1130116E+00
         25   -1    0    0    0    0  0.00000000000E+00  0.00000000000E+00  0.99999998245E-14  0.12500000000E+03  0.12500000000E+03 0.  0.
        -11    1    3    3    0    0 -0.15352268841E+02  0.50848248523E+02  0.27482416843E+02  0.59804011339E+02  0.51100000000E-03 0. -1.
         23    2    1    0    0    0 -0.17803756426E+02  0.20676014909E+02  0.56268665655E+01  0.97140837006E+02  0.93060245280E+02 0.  0.
         11    1    3    3    0    0 -0.24514875852E+01 -0.30172233615E+02 -0.21855550278E+02  0.37336825667E+02  0.51100000000E-03 0.  1.
         22    1    1    0    0    0  0.17803756426E+02 -0.20676014909E+02 -0.56268665655E+01  0.27859162994E+02  0.00000000000E+00 0. -1.
</event>
<event>
 5    1  0.1692178E-003  0.9118800E+02  0.7818608E-02  0.1130116E+00
         25   -1    0    0    0    0  0.00000000000E+00  0.00000000000E+00  0.99999998245E-14  0.12500000000E+03  0.12500000000E+03 0.  0.
        -11    1    3    3    0    0  0.32972170941E+02 -0.28119521684E+02 -0.29080213490E+02  0.52187454175E+02  0.51100000000E-03 0.  1.
         23    2    1    0    0    0  0.15557484460E+02 -0.22229835220E+02  0.10561102359E+02  0.95884063133E+02  0.91356531147E+02 0.  0.
         11    1    3    3    0    0 -0.17414686482E+02  0.58896864650E+01  0.39641315849E+02  0.43696608958E+02  0.51100000000E-03 0. -1.
         22    1    1    0    0    0 -0.15557484460E+02  0.22229835220E+02 -0.10561102359E+02  0.29115936867E+02  0.00000000000E+00 0.  1.
</event>
<event>
 5    1  0.1692178E-003  0.9118800E+02  0.7818608E-02  0.1130116E+00
         25   -1    0    0    0    0  0.00000000000E+00  0.00000000000E+00  0.99999998245E-14  0.12500000000E+03  0.12500000000E+03 0.  0.
        -11    1    3    3    0    0 -0.28563328025E+02 -0.57043059303E+01  0.33226622086E+02  0.44186097695E+02  0.51100000000E-03 0.  1.
         23    2    1    0    0    0 -0.22454368743E+02  0.13968830748E+02 -0.13541314755E+02  0.95289831481E+02  0.90539813730E+02 0.  0.
         11    1    3    3    0    0  0.61089592818E+01  0.19673136679E+02 -0.46767936841E+02  0.51103733786E+02  0.51100000000E-03 0. -1.
         22    1    1    0    0    0  0.22454368743E+02 -0.13968830748E+02  0.13541314755E+02  0.29710168519E+02  0.00000000000E+00 0.  1.
</event>
<event>
 5    1  0.1692178E-003  0.9118800E+02  0.7818608E-02  0.1130116E+00
         25   -1    0    0    0    0  0.00000000000E+00  0.00000000000E+00  0.99999998245E-14  0.12500000000E+03  0.12500000000E+03 0.  0.
        -11    1    3    3    0    0  0.41642994765E+02 -0.11375089552E+02  0.26177183544E+02  0.50485409911E+02  0.51100000000E-03 0.  1.
         23    2    1    0    0    0  0.17016830547E+02  0.22266789868E+02  0.91644186414E+01  0.95514935612E+02  0.90850062758E+02 0.  0.
         11    1    3    3    0    0 -0.24626164218E+02  0.33641879420E+02 -0.17012764903E+02  0.45029525701E+02  0.51100000000E-03 0. -1.
         22    1    1    0    0    0 -0.17016830547E+02 -0.22266789868E+02 -0.91644186414E+01  0.29485064388E+02  0.00000000000E+00 0.  1.
</event>
<event>
 5    1  0.1692178E-003  0.9118800E+02  0.7818608E-02  0.1130116E+00
         25   -1    0    0    0    0  0.00000000000E+00  0.00000000000E+00  0.99999998245E-14  0.12500000000E+03  0.12500000000E+03 0.  0.
        -11    1    3    3    0    0  0.14867612477E+02  0.33905564025E+02 -0.23959976738E+02  0.44098907675E+02  0.51100000000E-03 0.  1.
         23    2    1    0    0    0  0.10805762050E+01  0.21579500185E+02  0.22318785639E+02  0.93936023024E+02  0.88651033587E+02 0.  0.
         11    1    3    3    0    0 -0.13787036272E+02 -0.12326063840E+02  0.46278762377E+02  0.49837115349E+02  0.51100000000E-03 0. -1.
         22    1    1    0    0    0 -0.10805762050E+01 -0.21579500185E+02 -0.22318785639E+02  0.31063976976E+02  0.00000000000E+00 0.  1.
</event>
<event>
 5    1  0.1692178E-003  0.9118800E+02  0.7818608E-02  0.1130116E+00
         25   -1    0    0    0    0  0.00000000000E+00  0.00000000000E+00  0.99999998245E-14  0.12500000000E+03  0.12500000000E+03 0.  0.
        -11    1    3    3    0    0 -0.18949842503E+02 -0.76037832288E+01 -0.34502195960E+02  0.40091340419E+02  0.51100000000E-03 0.  1.
         23    2    1    0    0    0  0.27163649172E+01 -0.28993306386E+02  0.10172628850E+02  0.94154046760E+02  0.88957920895E+02 0.  0.
         11    1    3    3    0    0  0.21666207421E+02 -0.21389523157E+02  0.44674824809E+02  0.54062706341E+02  0.51100000000E-03 0. -1.
         22    1    1    0    0    0 -0.27163649172E+01  0.28993306386E+02 -0.10172628850E+02  0.30845953240E+02  0.00000000000E+00 0. -1.
</event>
<event>
 5    1  0.1692178E-003  0.9118800E+02  0.7818608E-02  0.1130116E+00
         25   -1    0    0    0    0  0.00000000000E+00  0.00000000000E+00  0.99999998245E-14  0.12500000000E+03  0.12500000000E+03 0.  0.
        -11    1    3    3    0    0 -0.29499009534E+01  0.60939828943E+01  0.33457856224E+02  0.34136002791E+02  0.51100000000E-03 0. -1.
         23    2    1    0    0    0  0.13022431358E+02 -0.13745433626E+02 -0.22485263006E+02  0.95604290849E+02  0.90972922962E+02 0.  0.
         11    1    3    3    0    0  0.15972332311E+02 -0.19839416520E+02 -0.55943119230E+02  0.61468288058E+02  0.51100000000E-03 0.  1.
         22    1    1    0    0    0 -0.13022431358E+02  0.13745433626E+02  0.22485263006E+02  0.29395709151E+02  0.00000000000E+00 0.  1.
</event>
<event>
 5    1  0.1692178E-003  0.9118800E+02  0.7818608E-02  0.1130116E+00
         25   -1    0    0    0    0  0.00000000000E+00  0.00000000000E+00  0.99999998245E-14  0.12500000000E+03  0.12500000000E+03 0.  0.
        -11    1    3    3    0    0 -0.52684694587E+01  0.34991348294E+02  0.35536638847E+01  0.35563742114E+02  0.51100000000E-03 0.  1.
         23    2    1    0    0    0  0.21590246889E+02 -0.15098308996E+02 -0.14151790821E+02  0.95093965848E+02  0.90268995020E+02 0.  0.
         11    1    3    3    0    0  0.26858716348E+02 -0.50089657290E+02 -0.17705454706E+02  0.59530223734E+02  0.51100000000E-03 0. -1.
         22    1    1    0    0    0 -0.21590246889E+02  0.15098308996E+02  0.14151790821E+02  0.29906034152E+02  0.00000000000E+00 0. -1.
</event>
<event>
 5    1  0.1692178E-003  0.9118800E+02  0.7818608E-02  0.1130116E+00
         25   -1    0    0    0    0  0.00000000000E+00  0.00000000000E+00  0.99999998245E-14  0.12500000000E+03  0.12500000000E+03 0.  0.
        -11    1    3    3    0    0 -0.26812093109E+02  0.11530149796E+02  0.26448618939E+02  0.39387334706E+02  0.51100000000E-03 0. -1.
         23    2    1    0    0    0 -0.31023177586E+01 -0.22713625723E+02 -0.14563568995E+02  0.97840642297E+02  0.93995534864E+02 0.  0.
         11    1    3    3    0    0  0.23709775351E+02 -0.34243775519E+02 -0.41012187933E+02  0.58453307591E+02  0.51100000000E-03 0.  1.
         22    1    1    0    0    0  0.31023177586E+01  0.22713625723E+02  0.14563568995E+02  0.27159357703E+02  0.00000000000E+00 0.  1.
</event>
<event>
 5    1  0.1692178E-003  0.9118800E+02  0.7818608E-02  0.1130116E+00
         25   -1    0    0    0    0  0.00000000000E+00  0.00000000000E+00  0.99999998245E-14  0.12500000000E+03  0.12500000000E+03 0.  0.
        -11    1    3    3    0    0 -0.34294168581E+02 -0.22279314819E+02  0.77671394635E+01  0.41626750092E+02  0.51100000000E-03 0. -1.
         23    2    1    0    0    0  0.22798732916E+02 -0.57538655493E+01  0.76806276592E+00  0.10147386322E+03  0.98708995564E+02 0.  0.
         11    1    3    3    0    0  0.57092901498E+02  0.16525449270E+02 -0.69990766976E+01  0.59847113129E+02  0.51100000000E-03 0.  1.
         22    1    1    0    0    0 -0.22798732916E+02  0.57538655493E+01 -0.76806276592E+00  0.23526136779E+02  0.00000000000E+00 0.  1.
</event>
<event>
 5    1  0.1692178E-003  0.9118800E+02  0.7818608E-02  0.1130116E+00
         25   -1    0    0    0    0  0.00000000000E+00  0.00000000000E+00  0.99999998245E-14  0.12500000000E+03  0.12500000000E+03 0.  0.
        -11    1    3    3    0    0  0.27006253110E+02 -0.30582077704E+01  0.20313902084E+02  0.33931474474E+02  0.51100000000E-03 0.  1.
         23    2    1    0    0    0 -0.17854417157E+02  0.34421096106E+01 -0.22354894809E+02  0.96183864720E+02  0.91765822505E+02 0.  0.
         11    1    3    3    0    0 -0.44860670267E+02  0.65003173811E+01 -0.42668796893E+02  0.62252390246E+02  0.51100000000E-03 0. -1.
         22    1    1    0    0    0  0.17854417157E+02 -0.34421096106E+01  0.22354894809E+02  0.28816135280E+02  0.00000000000E+00 0. -1.
</event>
<event>
 5    1  0.1692178E-003  0.9118800E+02  0.7818608E-02  0.1130116E+00
         25   -1    0    0    0    0  0.00000000000E+00  0.00000000000E+00  0.99999998245E-14  0.12500000000E+03  0.12500000000E+03 0.  0.
        -11    1    3    3    0    0 -0.14609642414E+02 -0.28632126984E+01  0.28465609152E+02  0.32123675741E+02  0.51100000000E-03 0.  1.
         23    2    1    0    0    0 -0.18459630753E+02  0.39012902665E+02  0.26773415506E+02  0.74210430994E+02  0.54107372405E+02 0.  0.
         11    1    3    3    0    0 -0.38499883392E+01  0.41876115364E+02 -0.16921936466E+01  0.42086755254E+02  0.51100000000E-03 0. -1.
         22    1    1    0    0    0  0.18459630753E+02 -0.39012902665E+02 -0.26773415506E+02  0.50789569006E+02  0.00000000000E+00 0. -1.
</event>
<event>
 5    1  0.1692178E-003  0.9118800E+02  0.7818608E-02  0.1130116E+00
         25   -1    0    0    0    0  0.00000000000E+00  0.00000000000E+00  0.99999998245E-14  0.12500000000E+03  0.12500000000E+03 0.  0.
        -11    1    3    3    0    0  0.49530879021E+02  0.19353223620E+02 -0.30159762058E+02  0.61134822227E+02  0.51100000000E-03 0.  1.
         23    2    1    0    0    0  0.18968616359E+02  0.17265170576E+02 -0.14408266955E+02  0.95580743071E+02  0.90940561730E+02 0.  0.
         11    1    3    3    0    0 -0.30562262662E+02 -0.20880530440E+01  0.15751495104E+02  0.34445920844E+02  0.51100000000E-03 0. -1.
         22    1    1    0    0    0 -0.18968616359E+02 -0.17265170576E+02  0.14408266955E+02  0.29419256929E+02  0.00000000000E+00 0.  1.
</event>
<event>
 5    1  0.1692178E-003  0.9118800E+02  0.7818608E-02  0.1130116E+00
         25   -1    0    0    0    0  0.00000000000E+00  0.00000000000E+00  0.99999998245E-14  0.12500000000E+03  0.12500000000E+03 0.  0.
        -11    1    3    3    0    0 -0.24191425564E+02  0.35009538190E+02 -0.35968163406E+02  0.55718952019E+02  0.51100000000E-03 0. -1.
         23    2    1    0    0    0  0.66044165773E+01  0.10976019709E+02 -0.25970720850E+02  0.96041932585E+02  0.91572283723E+02 0.  0.
         11    1    3    3    0    0  0.30795842141E+02 -0.24033518481E+02  0.99974425561E+01  0.40322980565E+02  0.51100000000E-03 0.  1.
         22    1    1    0    0    0 -0.66044165773E+01 -0.10976019709E+02  0.25970720850E+02  0.28958067415E+02  0.00000000000E+00 0. -1.
</event>
<event>
 5    1  0.1692178E-003  0.9118800E+02  0.7818608E-02  0.1130116E+00
         25   -1    0    0    0    0  0.00000000000E+00  0.00000000000E+00  0.99999998245E-14  0.12500000000E+03  0.12500000000E+03 0.  0.
        -11    1    3    3    0    0 -0.12254383389E+02 -0.47754794724E+02  0.32494866040E+02  0.59047494871E+02  0.51100000000E-03 0.  1.
         23    2    1    0    0    0 -0.19074733320E+02 -0.16209291483E+02  0.15986996137E+02  0.95298642673E+02  0.90551977715E+02 0.  0.
         11    1    3    3    0    0 -0.68203499311E+01  0.31545503241E+02 -0.16507869903E+02  0.36251147801E+02  0.51100000000E-03 0. -1.
         22    1    1    0    0    0  0.19074733320E+02  0.16209291483E+02 -0.15986996137E+02  0.29701357327E+02  0.00000000000E+00 0.  1.
</event>
<event>
 5    1  0.1692178E-003  0.9118800E+02  0.7818608E-02  0.1130116E+00
         25   -1    0    0    0    0  0.00000000000E+00  0.00000000000E+00  0.99999998245E-14  0.12500000000E+03  0.12500000000E+03 0.  0.
        -11    1    3    3    0    0 -0.12478008843E+02 -0.19923132322E+02 -0.13585609850E+02  0.27151440136E+02  0.51100000000E-03 0.  1.
         23    2    1    0    0    0  0.18144071962E+02  0.31452304694E+01  0.32832921951E+02  0.87355603526E+02  0.78828300004E+02 0.  0.
         11    1    3    3    0    0  0.30622080804E+02  0.23068362791E+02  0.46418531801E+02  0.60204163390E+02  0.51100000000E-03 0. -1.
         22    1    1    0    0    0 -0.18144071962E+02 -0.31452304694E+01 -0.32832921951E+02  0.37644396474E+02  0.00000000000E+00 0. -1.
</event>
<event>
 5    1  0.1692178E-003  0.9118800E+02  0.7818608E-02  0.1130116E+00
         25   -1    0    0    0    0  0.00000000000E+00  0.00000000000E+00  0.99999998245E-14  0.12500000000E+03  0.12500000000E+03 0.  0.
        -11    1    3    3    0    0 -0.12845466789E+01  0.21047920204E+02  0.49933812224E+02  0.54203787770E+02  0.51100000000E-03 0.  1.
         23    2    1    0    0    0 -0.18585704246E+02 -0.46126875346E+01  0.21155669645E+02  0.96464624643E+02  0.92147469639E+02 0.  0.
         11    1    3    3    0    0 -0.17301157567E+02 -0.25660607739E+02 -0.28778142579E+02  0.42260836874E+02  0.51100000000E-03 0. -1.
         22    1    1    0    0    0  0.18585704246E+02  0.46126875346E+01 -0.21155669645E+02  0.28535375357E+02  0.00000000000E+00 0.  1.
</event>
<event>
 5    1  0.1692178E-003  0.9118800E+02  0.7818608E-02  0.1130116E+00
         25   -1    0    0    0    0  0.00000000000E+00  0.00000000000E+00  0.99999998245E-14  0.12500000000E+03  0.12500000000E+03 0.  0.
        -11    1    3    3    0    0 -0.28890146708E+02  0.29017778130E+02 -0.43466866260E+01  0.41177247471E+02  0.51100000000E-03 0.  1.
         23    2    1    0    0    0  0.69912435334E+01  0.53190088215E+01  0.28428637926E+02  0.95245054271E+02  0.90477972832E+02 0.  0.
         11    1    3    3    0    0  0.35881390241E+02 -0.23698769309E+02  0.32775324552E+02  0.54067806800E+02  0.51100000000E-03 0. -1.
         22    1    1    0    0    0 -0.69912435334E+01 -0.53190088215E+01 -0.28428637926E+02  0.29754945729E+02  0.00000000000E+00 0.  1.
</event>
<event>
 5    1  0.1692178E-003  0.9118800E+02  0.7818608E-02  0.1130116E+00
         25   -1    0    0    0    0  0.00000000000E+00  0.00000000000E+00  0.99999998245E-14  0.12500000000E+03  0.12500000000E+03 0.  0.
        -11    1    3    3    0    0  0.39474729119E+02  0.94419420258E+01  0.24895927123E+02  0.47615246464E+02  0.51100000000E-03 0.  1.
         23    2    1    0    0    0 -0.50357120893E+01  0.24495554376E+02  0.15636664463E+02  0.95506003052E+02  0.90837771676E+02 0.  0.
         11    1    3    3    0    0 -0.44510441208E+02  0.15053612350E+02 -0.92592626593E+01  0.47890756588E+02  0.51100000000E-03 0. -1.
         22    1    1    0    0    0  0.50357120893E+01 -0.24495554376E+02 -0.15636664463E+02  0.29493996948E+02  0.00000000000E+00 0.  1.
</event>
<event>
 5    1  0.1692178E-003  0.9118800E+02  0.7818608E-02  0.1130116E+00
         25   -1    0    0    0    0  0.00000000000E+00  0.00000000000E+00  0.99999998245E-14  0.12500000000E+03  0.12500000000E+03 0.  0.
        -11    1    3    3    0    0  0.25747577224E+02  0.11859373782E+02 -0.50382743691E+02  0.57810062632E+02  0.51100000000E-03 0.  1.
         23    2    1    0    0    0  0.10820447006E+02  0.18208162689E+02 -0.95131855488E+01  0.10178104306E+03  0.99097228851E+02 0.  0.
         11    1    3    3    0    0 -0.14927130217E+02  0.63487889068E+01  0.40869558142E+02  0.43970980432E+02  0.51100000000E-03 0. -1.
         22    1    1    0    0    0 -0.10820447006E+02 -0.18208162689E+02  0.95131855488E+01  0.23218956936E+02  0.00000000000E+00 0.  1.
</event>
<event>
 5    1  0.1692178E-003  0.9118800E+02  0.7818608E-02  0.1130116E+00
         25   -1    0    0    0    0  0.00000000000E+00  0.00000000000E+00  0.99999998245E-14  0.12500000000E+03  0.12500000000E+03 0.  0.
        -11    1    3    3    0    0 -0.83692000703E+00  0.36293486327E+02  0.49143302742E+01  0.36634249374E+02  0.51100000000E-03 0. -1.
         23    2    1    0    0    0 -0.22540046616E+02 -0.18583586243E+02  0.19733309985E+01  0.95720358363E+02  0.91132264269E+02 0.  0.
         11    1    3    3    0    0 -0.21703126609E+02 -0.54877072571E+02 -0.29409992757E+01  0.59086108990E+02  0.51100000000E-03 0.  1.
         22    1    1    0    0    0  0.22540046616E+02  0.18583586243E+02 -0.19733309985E+01  0.29279641637E+02  0.00000000000E+00 0.  1.
</event>
<event>
 5    1  0.1692178E-003  0.9118800E+02  0.7818608E-02  0.1130116E+00
         25   -1    0    0    0    0  0.00000000000E+00  0.00000000000E+00  0.99999998245E-14  0.12500000000E+03  0.12500000000E+03 0.  0.
        -11    1    3    3    0    0 -0.42050863334E+02 -0.23596639196E+02 -0.85095564743E+01  0.48964160772E+02  0.51100000000E-03 0.  1.
         23    2    1    0    0    0 -0.14532283194E+02  0.16359466822E+02 -0.15780301835E+02  0.98021539415E+02  0.94235793910E+02 0.  0.
         11    1    3    3    0    0  0.27518580139E+02  0.39956106018E+02 -0.72707453602E+01  0.49057378643E+02  0.51100000000E-03 0. -1.
         22    1    1    0    0    0  0.14532283194E+02 -0.16359466822E+02  0.15780301835E+02  0.26978460585E+02  0.00000000000E+00 0. -1.
</event>
<event>
 5    1  0.1692178E-003  0.9118800E+02  0.7818608E-02  0.1130116E+00
         25   -1    0    0    0    0  0.00000000000E+00  0.00000000000E+00  0.99999998245E-14  0.12500000000E+03  0.12500000000E+03 0.  0.
        -11    1    3    3    0    0  0.62956839747E+01  0.27272108779E+02 -0.27017522815E+02  0.38901800644E+02  0.51100000000E-03 0. -1.
         23    2    1    0    0    0 -0.25744098714E+02 -0.13464494757E+02 -0.37697656776E+01  0.95703884713E+02  0.91109665668E+02 0.  0.
         11    1    3    3    0    0 -0.32039782689E+02 -0.40736603536E+02  0.23247757138E+02  0.56802084069E+02  0.51100000000E-03 0.  1.
         22    1    1    0    0    0  0.25744098714E+02  0.13464494757E+02  0.37697656776E+01  0.29296115287E+02  0.00000000000E+00 0.  1.
</event>
<event>
 5    1  0.1692178E-003  0.9118800E+02  0.7818608E-02  0.1130116E+00
         25   -1    0    0    0    0  0.00000000000E+00  0.00000000000E+00  0.99999998245E-14  0.12500000000E+03  0.12500000000E+03 0.  0.
        -11    1    3    3    0    0  0.22074391693E+02 -0.10762168925E+02 -0.31648284802E+02  0.40058918854E+02  0.51100000000E-03 0. -1.
         23    2    1    0    0    0 -0.24366333349E+01 -0.24177800485E+02  0.16429518232E+02  0.95666873886E+02  0.91058873656E+02 0.  0.
         11    1    3    3    0    0 -0.24511025028E+02 -0.13415631559E+02  0.48077803034E+02  0.55607955032E+02  0.51100000000E-03 0.  1.
         22    1    1    0    0    0  0.24366333349E+01  0.24177800485E+02 -0.16429518232E+02  0.29333126114E+02  0.00000000000E+00 0.  1.
</event>
<event>
 5    1  0.1692178E-003  0.9118800E+02  0.7818608E-02  0.1130116E+00
         25   -1    0    0    0    0  0.00000000000E+00  0.00000000000E+00  0.99999998245E-14  0.12500000000E+03  0.12500000000E+03 0.  0.
        -11    1    3    3    0    0 -0.35614149338E+01  0.36471064307E+02 -0.22679629311E+02  0.43095101740E+02  0.51100000000E-03 0.  1.
         23    2    1    0    0    0 -0.11644625797E+02  0.13087124107E+02  0.23621252171E+02  0.95591945296E+02  0.90955958156E+02 0.  0.
         11    1    3    3    0    0 -0.80832108636E+01 -0.23383940200E+02  0.46300881481E+02  0.52496843556E+02  0.51100000000E-03 0. -1.
         22    1    1    0    0    0  0.11644625797E+02 -0.13087124107E+02 -0.23621252171E+02  0.29408054704E+02  0.00000000000E+00 0. -1.
</event>
<event>
 5    1  0.1692178E-003  0.9118800E+02  0.7818608E-02  0.1130116E+00
         25   -1    0    0    0    0  0.00000000000E+00  0.00000000000E+00  0.99999998245E-14  0.12500000000E+03  0.12500000000E+03 0.  0.
        -11    1    3    3    0    0 -0.18822470058E+02 -0.35271704488E+02  0.24087516836E+02  0.46675335930E+02  0.51100000000E-03 0.  1.
         23    2    1    0    0    0 -0.22318723947E+02  0.10482296400E+02  0.20905400349E+02  0.92672925586E+02  0.86851778315E+02 0.  0.
         11    1    3    3    0    0 -0.34962538885E+01  0.45754000888E+02 -0.31821164874E+01  0.45997589656E+02  0.51100000000E-03 0. -1.
         22    1    1    0    0    0  0.22318723947E+02 -0.10482296400E+02 -0.20905400349E+02  0.32327074414E+02  0.00000000000E+00 0.  1.
</event>
<event>
 5    1  0.1692178E-003  0.9118800E+02  0.7818608E-02  0.1130116E+00
         25   -1    0    0    0    0  0.00000000000E+00  0.00000000000E+00  0.99999998245E-14  0.12500000000E+03  0.12500000000E+03 0.  0.
        -11    1    3    3    0    0  0.67095625567E+01 -0.42601019090E+02  0.11601533237E+02  0.44659384579E+02  0.51100000000E-03 0.  1.
         23    2    1    0    0    0 -0.23791134175E+02 -0.29471793817E+01  0.17900056261E+02  0.95081511639E+02  0.90251747406E+02 0.  0.
         11    1    3    3    0    0 -0.30500696732E+02  0.39653839708E+02  0.62985230241E+01  0.50422127060E+02  0.51100000000E-03 0. -1.
         22    1    1    0    0    0  0.23791134175E+02  0.29471793817E+01 -0.17900056261E+02  0.29918488361E+02  0.00000000000E+00 0. -1.
</event>
<event>
 5    1  0.1692178E-003  0.9118800E+02  0.7818608E-02  0.1130116E+00
         25   -1    0    0    0    0  0.00000000000E+00  0.00000000000E+00  0.99999998245E-14  0.12500000000E+03  0.12500000000E+03 0.  0.
        -11    1    3    3    0    0 -0.10888985834E+02 -0.29955605458E+02 -0.49898265645E+02  0.59209333939E+02  0.51100000000E-03 0.  1.
         23    2    1    0    0    0  0.54407478057E+01 -0.76932567275E+01 -0.30827026017E+02  0.92765027240E+02  0.86984233112E+02 0.  0.
         11    1    3    3    0    0  0.16329733640E+02  0.22262348730E+02  0.19071239628E+02  0.33555693301E+02  0.51100000000E-03 0. -1.
         22    1    1    0    0    0 -0.54407478057E+01  0.76932567275E+01  0.30827026017E+02  0.32234972760E+02  0.00000000000E+00 0.  1.
</event>
<event>
 5    1  0.1692178E-003  0.9118800E+02  0.7818608E-02  0.1130116E+00
         25   -1    0    0    0    0  0.00000000000E+00  0.00000000000E+00  0.99999998245E-14  0.12500000000E+03  0.12500000000E+03 0.  0.
        -11    1    3    3    0    0 -0.74178179898E+01 -0.21825412540E+02 -0.57597685303E+02  0.62039229595E+02  0.51100000000E-03 0.  1.
         23    2    1    0    0    0 -0.60391936483E+01 -0.55085252294E+01 -0.27596635314E+02  0.96218235100E+02  0.91812628625E+02 0.  0.
         11    1    3    3    0    0  0.13786243416E+01  0.16316887311E+02  0.30001049989E+02  0.34179005505E+02  0.51100000000E-03 0. -1.
         22    1    1    0    0    0  0.60391936483E+01  0.55085252294E+01  0.27596635314E+02  0.28781764900E+02  0.00000000000E+00 0.  1.
</event>
<event>
 5    1  0.1692178E-003  0.9118800E+02  0.7818608E-02  0.1130116E+00
         25   -1    0    0    0    0  0.00000000000E+00  0.00000000000E+00  0.99999998245E-14  0.12500000000E+03  0.12500000000E+03 0.  0.
        -11    1    3    3    0    0 -0.33506850437E+02 -0.20318239396E+02 -0.32102827780E+01  0.39317245506E+02  0.51100000000E-03 0. -1.
         23    2    1    0    0    0  0.10910730934E+02  0.38552891979E+01 -0.27312768876E+02  0.95336981813E+02  0.90604886475E+02 0.  0.
         11    1    3    3    0    0  0.44417581371E+02  0.24173528594E+02 -0.24102486098E+02  0.56019736307E+02  0.51100000000E-03 0.  1.
         22    1    1    0    0    0 -0.10910730934E+02 -0.38552891979E+01  0.27312768876E+02  0.29663018187E+02  0.00000000000E+00 0.  1.
</event>
<event>
 5    1  0.1692178E-003  0.9118800E+02  0.7818608E-02  0.1130116E+00
         25   -1    0    0    0    0  0.00000000000E+00  0.00000000000E+00  0.99999998245E-14  0.12500000000E+03  0.12500000000E+03 0.  0.
        -11    1    3    3    0    0  0.14722035921E+02 -0.53074290484E+02  0.27101271766E+02  0.61384831869E+02  0.51100000000E-03 0.  1.
         23    2    1    0    0    0 -0.20370075969E+01 -0.17676258279E+02  0.12808136992E+02  0.10307631692E+03  0.10071781982E+03 0.  0.
         11    1    3    3    0    0 -0.16759043518E+02  0.35398032204E+02 -0.14293134774E+02  0.41691485048E+02  0.51100000000E-03 0. -1.
         22    1    1    0    0    0  0.20370075969E+01  0.17676258279E+02 -0.12808136992E+02  0.21923683083E+02  0.00000000000E+00 0.  1.
</event>
<event>
 5    1  0.1692178E-003  0.9118800E+02  0.7818608E-02  0.1130116E+00
         25   -1    0    0    0    0  0.00000000000E+00  0.00000000000E+00  0.99999998245E-14  0.12500000000E+03  0.12500000000E+03 0.  0.
        -11    1    3    3    0    0 -0.39893929583E+02  0.15882409174E+02 -0.34557708145E+02  0.55118161537E+02  0.51100000000E-03 0. -1.
         23    2    1    0    0    0 -0.14606095770E+02  0.20075936301E+02  0.23586217184E+01  0.10006118791E+03  0.96903544712E+02 0.  0.
         11    1    3    3    0    0  0.25287833813E+02  0.41935271275E+01  0.36916329864E+02  0.44943026373E+02  0.51100000000E-03 0.  1.
         22    1    1    0    0    0  0.14606095770E+02 -0.20075936301E+02 -0.23586217184E+01  0.24938812089E+02  0.00000000000E+00 0. -1.
</event>
<event>
 5    1  0.1692178E-003  0.9118800E+02  0.7818608E-02  0.1130116E+00
         25   -1    0    0    0    0  0.00000000000E+00  0.00000000000E+00  0.99999998245E-14  0.12500000000E+03  0.12500000000E+03 0.  0.
        -11    1    3    3    0    0 -0.16863727269E+02  0.54761944135E+01  0.42036654380E+02  0.45622958194E+02  0.51100000000E-03 0.  1.
         23    2    1    0    0    0 -0.47740711218E+01  0.27530117742E+02 -0.26838018333E+01  0.96930409154E+02  0.92777164693E+02 0.  0.
         11    1    3    3    0    0  0.12089656147E+02  0.22053923329E+02 -0.44720456213E+02  0.51307450961E+02  0.51100000000E-03 0. -1.
         22    1    1    0    0    0  0.47740711218E+01 -0.27530117742E+02  0.26838018333E+01  0.28069590846E+02  0.00000000000E+00 0. -1.
</event>
<event>
 5    1  0.1692178E-003  0.9118800E+02  0.7818608E-02  0.1130116E+00
         25   -1    0    0    0    0  0.00000000000E+00  0.00000000000E+00  0.99999998245E-14  0.12500000000E+03  0.12500000000E+03 0.  0.
        -11    1    3    3    0    0 -0.17990959737E+02  0.10875893243E+02  0.26849326207E+02  0.34100527915E+02  0.51100000000E-03 0.  1.
         23    2    1    0    0    0  0.11683811346E+02  0.61570261416E+01 -0.26534921462E+02  0.95360120184E+02  0.90636802934E+02 0.  0.
         11    1    3    3    0    0  0.29674771083E+02 -0.47188671012E+01 -0.53384247669E+02  0.61259592269E+02  0.51100000000E-03 0. -1.
         22    1    1    0    0    0 -0.11683811346E+02 -0.61570261416E+01  0.26534921462E+02  0.29639879816E+02  0.00000000000E+00 0. -1.
</event>
<event>
 5    1  0.1692178E-003  0.9118800E+02  0.7818608E-02  0.1130116E+00
         25   -1    0    0    0    0  0.00000000000E+00  0.00000000000E+00  0.99999998245E-14  0.12500000000E+03  0.12500000000E+03 0.  0.
        -11    1    3    3    0    0 -0.23344410892E+02 -0.27177489559E+02 -0.13131895356E+02  0.38157884304E+02  0.51100000000E-03 0.  1.
         23    2    1    0    0    0  0.58401294462E+01  0.20284175948E+02 -0.21926518360E+02  0.94564377561E+02  0.89532644272E+02 0.  0.
         11    1    3    3    0    0  0.29184540338E+02  0.47461665508E+02 -0.87946230040E+01  0.56406493257E+02  0.51100000000E-03 0. -1.
         22    1    1    0    0    0 -0.58401294462E+01 -0.20284175948E+02  0.21926518360E+02  0.30435622439E+02  0.00000000000E+00 0. -1.
</event>
<event>
 5    1  0.1692178E-003  0.9118800E+02  0.7818608E-02  0.1130116E+00
         25   -1    0    0    0    0  0.00000000000E+00  0.00000000000E+00  0.99999998245E-14  0.12500000000E+03  0.12500000000E+03 0.  0.
        -11    1    3    3    0    0  0.49292863496E+02  0.91700333407E+01  0.29498348268E+02  0.58172402855E+02  0.51100000000E-03 0.  1.
         23    2    1    0    0    0  0.19666415419E+02  0.20010907627E+02  0.10246017855E+02  0.95130530614E+02  0.90319613892E+02 0.  0.
         11    1    3    3    0    0 -0.29626448077E+02  0.10840874286E+02 -0.19252330413E+02  0.36958127760E+02  0.51100000000E-03 0. -1.
         22    1    1    0    0    0 -0.19666415419E+02 -0.20010907627E+02 -0.10246017855E+02  0.29869469386E+02  0.00000000000E+00 0.  1.
</event>
<event>
 5    1  0.1692178E-003  0.9118800E+02  0.7818608E-02  0.1130116E+00
         25   -1    0    0    0    0  0.00000000000E+00  0.00000000000E+00  0.99999998245E-14  0.12500000000E+03  0.12500000000E+03 0.  0.
        -11    1    3    3    0    0 -0.27554752904E+02  0.35390049835E+02 -0.11961288326E+02  0.46419742067E+02  0.51100000000E-03 0. -1.
         23    2    1    0    0    0 -0.33590406589E+01 -0.28126473338E+01 -0.29688010662E+02  0.94990466244E+02  0.90125559976E+02 0.  0.
         11    1    3    3    0    0  0.24195712245E+02 -0.38202697169E+02 -0.17726722336E+02  0.48570724177E+02  0.51100000000E-03 0.  1.
         22    1    1    0    0    0  0.33590406589E+01  0.28126473338E+01  0.29688010662E+02  0.30009533756E+02  0.00000000000E+00 0.  1.
</event>
<event>
 5    1  0.1692178E-003  0.9118800E+02  0.7818608E-02  0.1130116E+00
         25   -1    0    0    0    0  0.00000000000E+00  0.00000000000E+00  0.99999998245E-14  0.12500000000E+03  0.12500000000E+03 0.  0.
        -11    1    3    3    0    0  0.18025518885E+02  0.27746099815E+02 -0.12717011227E+02  0.35446971109E+02  0.51100000000E-03 0. -1.
         23    2    1    0    0    0 -0.23752494829E+00 -0.28956181324E+02 -0.63281385387E+01  0.95359450202E+02  0.90635878935E+02 0.  0.
         11    1    3    3    0    0 -0.18263043833E+02 -0.56702281139E+02  0.63888726887E+01  0.59912479092E+02  0.51100000000E-03 0.  1.
         22    1    1    0    0    0  0.23752494829E+00  0.28956181324E+02  0.63281385387E+01  0.29640549798E+02  0.00000000000E+00 0.  1.
</event>
<event>
 5    1  0.1692178E-003  0.9118800E+02  0.7818608E-02  0.1130116E+00
         25   -1    0    0    0    0  0.00000000000E+00  0.00000000000E+00  0.99999998245E-14  0.12500000000E+03  0.12500000000E+03 0.  0.
        -11    1    3    3    0    0  0.29803147314E+02 -0.21367019936E+02 -0.10492549718E+02  0.38142767736E+02  0.51100000000E-03 0. -1.
         23    2    1    0    0    0  0.11542756694E+00  0.98780023686E+01  0.27613520889E+02  0.95672627287E+02  0.91066771228E+02 0.  0.
         11    1    3    3    0    0 -0.29687719747E+02  0.31245022305E+02  0.38106070607E+02  0.57529859551E+02  0.51100000000E-03 0.  1.
         22    1    1    0    0    0 -0.11542756694E+00 -0.98780023686E+01 -0.27613520889E+02  0.29327372713E+02  0.00000000000E+00 0.  1.
</event>
<event>
 5    1  0.1692178E-003  0.9118800E+02  0.7818608E-02  0.1130116E+00
         25   -1    0    0    0    0  0.00000000000E+00  0.00000000000E+00  0.99999998245E-14  0.12500000000E+03  0.12500000000E+03 0.  0.
        -11    1    3    3    0    0  0.31864145856E+02  0.47857539022E+02  0.23905904616E+02  0.62266845978E+02  0.51100000000E-03 0.  1.
         23    2    1    0    0    0  0.19679838777E+02  0.22848252424E+02  0.13352965235E+02  0.92020606833E+02  0.85907809355E+02 0.  0.
         11    1    3    3    0    0 -0.12184307078E+02 -0.25009286598E+02 -0.10552939382E+02  0.29753760854E+02  0.51100000000E-03 0. -1.
         22    1    1    0    0    0 -0.19679838777E+02 -0.22848252424E+02 -0.13352965235E+02  0.32979393167E+02  0.00000000000E+00 0.  1.
</event>
<event>
 5    1  0.1692178E-003  0.9118800E+02  0.7818608E-02  0.1130116E+00
         25   -1    0    0    0    0  0.00000000000E+00  0.00000000000E+00  0.99999998245E-14  0.12500000000E+03  0.12500000000E+03 0.  0.
        -11    1    3    3    0    0 -0.40094523176E+02 -0.32171302497E+02 -0.25822978180E+02  0.57527295221E+02  0.51100000000E-03 0. -1.
         23    2    1    0    0    0 -0.50516260711E+01 -0.26306534154E+02 -0.11909456530E+02  0.95684682843E+02  0.91083317412E+02 0.  0.
         11    1    3    3    0    0  0.35042897105E+02  0.58647683437E+01  0.13913521650E+02  0.38157387623E+02  0.51100000000E-03 0.  1.
         22    1    1    0    0    0  0.50516260711E+01  0.26306534154E+02  0.11909456530E+02  0.29315317157E+02  0.00000000000E+00 0. -1.
</event>
<event>
 5    1  0.1692178E-003  0.9118800E+02  0.7818608E-02  0.1130116E+00
         25   -1    0    0    0    0  0.00000000000E+00  0.00000000000E+00  0.99999998245E-14  0.12500000000E+03  0.12500000000E+03 0.  0.
        -11    1    3    3    0    0  0.80723119867E+01 -0.22920934995E+02 -0.23806416013E+02  0.34018773134E+02  0.51100000000E-03 0. -1.
         23    2    1    0    0    0  0.44100724252E+01  0.13189845256E+02  0.25921111834E+02  0.95583596491E+02  0.90944483740E+02 0.  0.
         11    1    3    3    0    0 -0.36622395615E+01  0.36110780252E+02  0.49727527847E+02  0.61564823357E+02  0.51100000000E-03 0.  1.
         22    1    1    0    0    0 -0.44100724252E+01 -0.13189845256E+02 -0.25921111834E+02  0.29416403509E+02  0.00000000000E+00 0.  1.
</event>
<event>
 5    1  0.1692178E-003  0.9118800E+02  0.7818608E-02  0.1130116E+00
         25   -1    0    0    0    0  0.00000000000E+00  0.00000000000E+00  0.99999998245E-14  0.12500000000E+03  0.12500000000E+03 0.  0.
        -11    1    3    3    0    0  0.23596023597E+02 -0.44948415627E+02  0.16822195745E+01  0.50793328892E+02  0.51100000000E-03 0.  1.
         23    2    1    0    0    0 -0.14862603337E+02 -0.25349968487E+02 -0.69293684618E+01  0.94808378190E+02  0.89872657396E+02 0.  0.
         11    1    3    3    0    0 -0.38458626934E+02  0.19598447140E+02 -0.86115880363E+01  0.44015049298E+02  0.51100000000E-03 0. -1.
         22    1    1    0    0    0  0.14862603337E+02  0.25349968487E+02  0.69293684618E+01  0.30191621810E+02  0.00000000000E+00 0.  1.
</event>
<event>
 5    1  0.1692178E-003  0.9118800E+02  0.7818608E-02  0.1130116E+00
         25   -1    0    0    0    0  0.00000000000E+00  0.00000000000E+00  0.99999998245E-14  0.12500000000E+03  0.12500000000E+03 0.  0.
        -11    1    3    3    0    0 -0.50110038974E+02  0.38083714040E+01  0.21112264246E+02  0.54509149696E+02  0.51100000000E-03 0.  1.
         23    2    1    0    0    0 -0.21225959933E+02  0.21482377383E+02 -0.70597252167E+00  0.94791850267E+02  0.89849666481E+02 0.  0.
         11    1    3    3    0    0  0.28884079041E+02  0.17674005979E+02 -0.21818236767E+02  0.40282700571E+02  0.51100000000E-03 0. -1.
         22    1    1    0    0    0  0.21225959933E+02 -0.21482377383E+02  0.70597252167E+00  0.30208149733E+02  0.00000000000E+00 0.  1.
</event>
<event>
 5    1  0.1692178E-003  0.9118800E+02  0.7818608E-02  0.1130116E+00
         25   -1    0    0    0    0  0.00000000000E+00  0.00000000000E+00  0.99999998245E-14  0.12500000000E+03  0.12500000000E+03 0.  0.
        -11    1    3    3    0    0 -0.16071764313E+02  0.23494028198E+02 -0.35650558810E+02  0.45620536086E+02  0.51100000000E-03 0.  1.
         23    2    1    0    0    0 -0.21377251798E+02 -0.17969450166E+02 -0.72805619173E+01  0.96140086356E+02  0.91706169853E+02 0.  0.
         11    1    3    3    0    0 -0.53054874847E+01 -0.41463478364E+02  0.28369996892E+02  0.50519550270E+02  0.51100000000E-03 0. -1.
         22    1    1    0    0    0  0.21377251798E+02  0.17969450166E+02  0.72805619173E+01  0.28859913644E+02  0.00000000000E+00 0.  1.
</event>
<event>
 5    1  0.1692178E-003  0.9118800E+02  0.7818608E-02  0.1130116E+00
         25   -1    0    0    0    0  0.00000000000E+00  0.00000000000E+00  0.99999998245E-14  0.12500000000E+03  0.12500000000E+03 0.  0.
        -11    1    3    3    0    0 -0.37409946270E+02  0.46515987630E+00 -0.21391741513E+02  0.43096717495E+02  0.51100000000E-03 0.  1.
         23    2    1    0    0    0 -0.14847525832E+02  0.21107777872E+02  0.18417034282E+02  0.93295513539E+02  0.87743252645E+02 0.  0.
         11    1    3    3    0    0  0.22562420438E+02  0.20642617996E+02  0.39808775795E+02  0.50198796044E+02  0.51100000000E-03 0. -1.
         22    1    1    0    0    0  0.14847525832E+02 -0.21107777872E+02 -0.18417034282E+02  0.31704486461E+02  0.00000000000E+00 0. -1.
</event>
<event>
 5    1  0.1692178E-003  0.9118800E+02  0.7818608E-02  0.1130116E+00
         25   -1    0    0    0    0  0.00000000000E+00  0.00000000000E+00  0.99999998245E-14  0.12500000000E+03  0.12500000000E+03 0.  0.
        -11    1    3    3    0    0 -0.38343744224E+02  0.22299596149E+02 -0.23701451742E+02  0.50291883287E+02  0.51100000000E-03 0. -1.
         23    2    1    0    0    0 -0.10537244317E+02  0.23278442144E+02  0.12986376518E+02  0.96337038507E+02  0.91974233494E+02 0.  0.
         11    1    3    3    0    0  0.27806499908E+02  0.97884599509E+00  0.36687828260E+02  0.46045155221E+02  0.51100000000E-03 0.  1.
         22    1    1    0    0    0  0.10537244317E+02 -0.23278442144E+02 -0.12986376518E+02  0.28662961493E+02  0.00000000000E+00 0. -1.
</event>
<event>
 5    1  0.1692178E-003  0.9118800E+02  0.7818608E-02  0.1130116E+00
         25   -1    0    0    0    0  0.00000000000E+00  0.00000000000E+00  0.99999998245E-14  0.12500000000E+03  0.12500000000E+03 0.  0.
        -11    1    3    3    0    0  0.52433085084E+02 -0.28187651236E+02 -0.12364005100E+02  0.60800005888E+02  0.51100000000E-03 0. -1.
         23    2    1    0    0    0  0.20812404371E+02 -0.13526445542E+02 -0.15404560653E+02  0.95786623037E+02  0.91223109787E+02 0.  0.
         11    1    3    3    0    0 -0.31620680713E+02  0.14661205694E+02 -0.30405555535E+01  0.34986617149E+02  0.51100000000E-03 0.  1.
         22    1    1    0    0    0 -0.20812404371E+02  0.13526445542E+02  0.15404560653E+02  0.29213376963E+02  0.00000000000E+00 0. -1.
</event>
<event>
 5    1  0.1692178E-003  0.9118800E+02  0.7818608E-02  0.1130116E+00
         25   -1    0    0    0    0  0.00000000000E+00  0.00000000000E+00  0.99999998245E-14  0.12500000000E+03  0.12500000000E+03 0.  0.
        -11    1    3    3    0    0  0.21473556582E+02  0.28655266502E+02 -0.11272239224E+01  0.35826087766E+02  0.51100000000E-03 0. -1.
         23    2    1    0    0    0 -0.23766655962E+02 -0.10693175073E+02  0.10502989523E+02  0.96901766645E+02  0.92738566202E+02 0.  0.
         11    1    3    3    0    0 -0.45240212544E+02 -0.39348441575E+02  0.11630213445E+02  0.61075678879E+02  0.51100000000E-03 0.  1.
         22    1    1    0    0    0  0.23766655962E+02  0.10693175073E+02 -0.10502989523E+02  0.28098233355E+02  0.00000000000E+00 0.  1.
</event>
<event>
 5    1  0.1692178E-003  0.9118800E+02  0.7818608E-02  0.1130116E+00
         25   -1    0    0    0    0  0.00000000000E+00  0.00000000000E+00  0.99999998245E-14  0.12500000000E+03  0.12500000000E+03 0.  0.
        -11    1    3    3    0    0 -0.30685960754E+02  0.30982600760E+02  0.31704626941E+02  0.53914127156E+02  0.51100000000E-03 0.  1.
         23    2    1    0    0    0  0.55134269378E+01  0.11497311167E+02  0.26806545434E+02  0.95315375718E+02  0.90575073445E+02 0.  0.
         11    1    3    3    0    0  0.36199387692E+02 -0.19485289592E+02 -0.48980815076E+01  0.41401248562E+02  0.51100000000E-03 0. -1.
         22    1    1    0    0    0 -0.55134269378E+01 -0.11497311167E+02 -0.26806545434E+02  0.29684624282E+02  0.00000000000E+00 0.  1.
</event>
<event>
 5    1  0.1692178E-003  0.9118800E+02  0.7818608E-02  0.1130116E+00
         25   -1    0    0    0    0  0.00000000000E+00  0.00000000000E+00  0.99999998245E-14  0.12500000000E+03  0.12500000000E+03 0.  0.
        -11    1    3    3    0    0  0.17954439014E+02 -0.50725385806E+02 -0.21284588857E+02  0.57865882595E+02  0.51100000000E-03 0.  1.
         23    2    1    0    0    0  0.77503677048E+01 -0.14665776493E+02 -0.24427256542E+02  0.95472994363E+02  0.90792337732E+02 0.  0.
         11    1    3    3    0    0 -0.10204071309E+02  0.36059609313E+02 -0.31426676848E+01  0.37607111768E+02  0.51100000000E-03 0. -1.
         22    1    1    0    0    0 -0.77503677048E+01  0.14665776493E+02  0.24427256542E+02  0.29527005637E+02  0.00000000000E+00 0.  1.
</event>
<event>
 5    1  0.1692178E-003  0.9118800E+02  0.7818608E-02  0.1130116E+00
         25   -1    0    0    0    0  0.00000000000E+00  0.00000000000E+00  0.99999998245E-14  0.12500000000E+03  0.12500000000E+03 0.  0.
        -11    1    3    3    0    0 -0.34767759380E+01 -0.20516704988E+02 -0.34826367207E+02  0.40569680891E+02  0.51100000000E-03 0.  1.
         23    2    1    0    0    0 -0.15998373852E+02  0.24049738200E+02 -0.48741150206E+01  0.95706743598E+02  0.91113587897E+02 0.  0.
         11    1    3    3    0    0 -0.12521597914E+02  0.44566443188E+02  0.29952252186E+02  0.55137062707E+02  0.51100000000E-03 0. -1.
         22    1    1    0    0    0  0.15998373852E+02 -0.24049738200E+02  0.48741150206E+01  0.29293256402E+02  0.00000000000E+00 0. -1.
</event>
<event>
 5    1  0.1692178E-003  0.9118800E+02  0.7818608E-02  0.1130116E+00
         25   -1    0    0    0    0  0.00000000000E+00  0.00000000000E+00  0.99999998245E-14  0.12500000000E+03  0.12500000000E+03 0.  0.
        -11    1    3    3    0    0 -0.38660879232E+02 -0.90183923050E+00  0.38983904829E+01  0.38867394377E+02  0.51100000000E-03 0. -1.
         23    2    1    0    0    0  0.40376039070E+01 -0.66340164667E+01 -0.30204514035E+02  0.93813062223E+02  0.88477486152E+02 0.  0.
         11    1    3    3    0    0  0.42698483139E+02 -0.57321772362E+01 -0.34102904518E+02  0.54945667846E+02  0.51100000000E-03 0.  1.
         22    1    1    0    0    0 -0.40376039070E+01  0.66340164667E+01  0.30204514035E+02  0.31186937777E+02  0.00000000000E+00 0.  1.
</event>
<event>
 5    1  0.1692178E-003  0.9118800E+02  0.7818608E-02  0.1130116E+00
         25   -1    0    0    0    0  0.00000000000E+00  0.00000000000E+00  0.99999998245E-14  0.12500000000E+03  0.12500000000E+03 0.  0.
        -11    1    3    3    0    0 -0.11738483955E+02 -0.65940883072E+01  0.57995185559E+02  0.59537513842E+02  0.51100000000E-03 0. -1.
         23    2    1    0    0    0  0.79256565857E+01 -0.49831387419E+01  0.28316820002E+02  0.95175681079E+02  0.90382079362E+02 0.  0.
         11    1    3    3    0    0  0.19664140541E+02  0.16109495652E+01 -0.29678365556E+02  0.35638167238E+02  0.51100000000E-03 0.  1.
         22    1    1    0    0    0 -0.79256565857E+01  0.49831387419E+01 -0.28316820002E+02  0.29824318921E+02  0.00000000000E+00 0.  1.
</event>
<event>
 5    1  0.1692178E-003  0.9118800E+02  0.7818608E-02  0.1130116E+00
         25   -1    0    0    0    0  0.00000000000E+00  0.00000000000E+00  0.99999998245E-14  0.12500000000E+03  0.12500000000E+03 0.  0.
        -11    1    3    3    0    0 -0.40217410507E+02 -0.32355580650E+02  0.28725249902E+02  0.59071682634E+02  0.51100000000E-03 0.  1.
         23    2    1    0    0    0 -0.12776378294E+02 -0.25512192322E+02  0.49030840996E+01  0.96049213602E+02  0.91582222077E+02 0.  0.
         11    1    3    3    0    0  0.27441032213E+02  0.68433883278E+01 -0.23822165802E+02  0.36977530968E+02  0.51100000000E-03 0. -1.
         22    1    1    0    0    0  0.12776378294E+02  0.25512192322E+02 -0.49030840996E+01  0.28950786398E+02  0.00000000000E+00 0.  1.
</event>
<event>
 5    1  0.1692178E-003  0.9118800E+02  0.7818608E-02  0.1130116E+00
         25   -1    0    0    0    0  0.00000000000E+00  0.00000000000E+00  0.99999998245E-14  0.12500000000E+03  0.12500000000E+03 0.  0.
        -11    1    3    3    0    0 -0.33230709892E+02 -0.14082510756E+02  0.42863040463E+02  0.56034252267E+02  0.51100000000E-03 0.  1.
         23    2    1    0    0    0 -0.54820001231E+01  0.84087926862E+01  0.28935967912E+02  0.94372392212E+02  0.89264203649E+02 0.  0.
         11    1    3    3    0    0  0.27748709769E+02  0.22491303442E+02 -0.13927072550E+02  0.38338139945E+02  0.51100000000E-03 0. -1.
         22    1    1    0    0    0  0.54820001231E+01 -0.84087926862E+01 -0.28935967912E+02  0.30627607788E+02  0.00000000000E+00 0.  1.
</event>
<event>
 5    1  0.1692178E-003  0.9118800E+02  0.7818608E-02  0.1130116E+00
         25   -1    0    0    0    0  0.00000000000E+00  0.00000000000E+00  0.99999998245E-14  0.12500000000E+03  0.12500000000E+03 0.  0.
        -11    1    3    3    0    0  0.25168750714E+02  0.17301010494E+02  0.18774470744E+02  0.35850686584E+02  0.51100000000E-03 0. -1.
         23    2    1    0    0    0 -0.25003531069E+02  0.63930850872E+01 -0.12867667052E+02  0.96162091646E+02  0.91736159237E+02 0.  0.
         11    1    3    3    0    0 -0.50172281783E+02 -0.10907925406E+02 -0.31642137796E+02  0.60311405062E+02  0.51100000000E-03 0.  1.
         22    1    1    0    0    0  0.25003531069E+02 -0.63930850872E+01  0.12867667052E+02  0.28837908354E+02  0.00000000000E+00 0.  1.
</event>
<event>
 5    1  0.1692178E-003  0.9118800E+02  0.7818608E-02  0.1130116E+00
         25   -1    0    0    0    0  0.00000000000E+00  0.00000000000E+00  0.99999998245E-14  0.12500000000E+03  0.12500000000E+03 0.  0.
        -11    1    3    3    0    0  0.66614948168E+01  0.45308986332E+01 -0.41183418202E+02  0.41964014235E+02  0.51100000000E-03 0.  1.
         23    2    1    0    0    0 -0.12968507755E+02 -0.26182885965E+02 -0.16535685836E+01  0.95734662143E+02  0.91151881690E+02 0.  0.
         11    1    3    3    0    0 -0.19630002572E+02 -0.30713784598E+02  0.39529849619E+02  0.53770647908E+02  0.51100000000E-03 0. -1.
         22    1    1    0    0    0  0.12968507755E+02  0.26182885965E+02  0.16535685836E+01  0.29265337857E+02  0.00000000000E+00 0. -1.
</event>
<event>
 5    1  0.1692178E-003  0.9118800E+02  0.7818608E-02  0.1130116E+00
         25   -1    0    0    0    0  0.00000000000E+00  0.00000000000E+00  0.99999998245E-14  0.12500000000E+03  0.12500000000E+03 0.  0.
        -11    1    3    3    0    0 -0.30148812601E+02  0.95907550246E+01 -0.19495511423E+02  0.37161922032E+02  0.51100000000E-03 0.  1.
         23    2    1    0    0    0  0.14166826764E+02 -0.15902969975E+02  0.15099863815E+02  0.98892351277E+02  0.95383897065E+02 0.  0.
         11    1    3    3    0    0  0.44315639365E+02 -0.25493724999E+02  0.34595375238E+02  0.61730429245E+02  0.51100000000E-03 0. -1.
         22    1    1    0    0    0 -0.14166826764E+02  0.15902969975E+02 -0.15099863815E+02  0.26107648723E+02  0.00000000000E+00 0. -1.
</event>
<event>
 5    1  0.1692178E-003  0.9118800E+02  0.7818608E-02  0.1130116E+00
         25   -1    0    0    0    0  0.00000000000E+00  0.00000000000E+00  0.99999998245E-14  0.12500000000E+03  0.12500000000E+03 0.  0.
        -11    1    3    3    0    0 -0.70971877571E+00 -0.30406267366E+02  0.12347881392E+02  0.32825523164E+02  0.51100000000E-03 0. -1.
         23    2    1    0    0    0 -0.40079130666E+01  0.23369903327E+02 -0.18515065707E+02  0.94916393055E+02  0.90022765253E+02 0.  0.
         11    1    3    3    0    0 -0.32981942909E+01  0.53776170693E+02 -0.30862947099E+02  0.62090869891E+02  0.51100000000E-03 0.  1.
         22    1    1    0    0    0  0.40079130666E+01 -0.23369903327E+02  0.18515065707E+02  0.30083606945E+02  0.00000000000E+00 0.  1.
</event>
<event>
 5    1  0.1692178E-003  0.9118800E+02  0.7818608E-02  0.1130116E+00
         25   -1    0    0    0    0  0.00000000000E+00  0.00000000000E+00  0.99999998245E-14  0.12500000000E+03  0.12500000000E+03 0.  0.
        -11    1    3    3    0    0  0.63243913497E+01 -0.26380823201E+02  0.33747268639E+02  0.43299236709E+02  0.51100000000E-03 0.  1.
         23    2    1    0    0    0  0.23012419383E+02  0.16432530197E+02  0.10137753104E+02  0.94960467172E+02  0.90083943036E+02 0.  0.
         11    1    3    3    0    0  0.16688028033E+02  0.42813353398E+02 -0.23609515536E+02  0.51661230463E+02  0.51100000000E-03 0. -1.
         22    1    1    0    0    0 -0.23012419383E+02 -0.16432530197E+02 -0.10137753104E+02  0.30039532828E+02  0.00000000000E+00 0. -1.
</event>
<event>
 5    1  0.1692178E-003  0.9118800E+02  0.7818608E-02  0.1130116E+00
         25   -1    0    0    0    0  0.00000000000E+00  0.00000000000E+00  0.99999998245E-14  0.12500000000E+03  0.12500000000E+03 0.  0.
        -11    1    3    3    0    0 -0.61409514759E+02 -0.11798189307E+01  0.95987740042E+01  0.62166365008E+02  0.51100000000E-03 0. -1.
         23    2    1    0    0    0 -0.30067360645E+02 -0.33708295201E+01  0.10553044964E+01  0.94725880106E+02  0.89757841030E+02 0.  0.
         11    1    3    3    0    0  0.31342154114E+02 -0.21910105894E+01 -0.85434695078E+01  0.32559515098E+02  0.51100000000E-03 0.  1.
         22    1    1    0    0    0  0.30067360645E+02  0.33708295201E+01 -0.10553044964E+01  0.30274119894E+02  0.00000000000E+00 0. -1.
</event>
<event>
 5    1  0.1692178E-003  0.9118800E+02  0.7818608E-02  0.1130116E+00
         25   -1    0    0    0    0  0.00000000000E+00  0.00000000000E+00  0.99999998245E-14  0.12500000000E+03  0.12500000000E+03 0.  0.
        -11    1    3    3    0    0  0.21553105735E+02 -0.40042641596E+02  0.71310255571E+01  0.46030436002E+02  0.51100000000E-03 0. -1.
         23    2    1    0    0    0  0.61656438449E+01  0.21281606011E+01  0.28511151292E+02  0.95752265394E+02  0.91176018494E+02 0.  0.
         11    1    3    3    0    0 -0.15387461890E+02  0.42170802197E+02  0.21380125735E+02  0.49721829392E+02  0.51100000000E-03 0.  1.
         22    1    1    0    0    0 -0.61656438449E+01 -0.21281606011E+01 -0.28511151292E+02  0.29247734606E+02  0.00000000000E+00 0. -1.
</event>
<event>
 5    1  0.1692178E-003  0.9118800E+02  0.7818608E-02  0.1130116E+00
         25   -1    0    0    0    0  0.00000000000E+00  0.00000000000E+00  0.99999998245E-14  0.12500000000E+03  0.12500000000E+03 0.  0.
        -11    1    3    3    0    0 -0.21542917945E+02 -0.26163911945E+02 -0.79616619490E+01  0.34814302565E+02  0.51100000000E-03 0.  1.
         23    2    1    0    0    0  0.25825887079E+02  0.12417785889E+02 -0.72234089118E+00  0.96334696475E+02  0.91971050439E+02 0.  0.
         11    1    3    3    0    0  0.47368805025E+02  0.38581697833E+02  0.72393210578E+01  0.61520393910E+02  0.51100000000E-03 0. -1.
         22    1    1    0    0    0 -0.25825887079E+02 -0.12417785889E+02  0.72234089118E+00  0.28665303525E+02  0.00000000000E+00 0. -1.
</event>
<event>
 5    1  0.1692178E-003  0.9118800E+02  0.7818608E-02  0.1130116E+00
         25   -1    0    0    0    0  0.00000000000E+00  0.00000000000E+00  0.99999998245E-14  0.12500000000E+03  0.12500000000E+03 0.  0.
        -11    1    3    3    0    0  0.53759975126E+01 -0.51784434435E+02  0.30251042800E+01  0.52150553738E+02  0.51100000000E-03 0.  1.
         23    2    1    0    0    0 -0.21064161538E+02 -0.16083366020E+02  0.90763546010E+01  0.96986542936E+02  0.92852763739E+02 0.  0.
         11    1    3    3    0    0 -0.26440159051E+02  0.35701068416E+02  0.60512503210E+01  0.44835989198E+02  0.51100000000E-03 0. -1.
         22    1    1    0    0    0  0.21064161538E+02  0.16083366020E+02 -0.90763546010E+01  0.28013457064E+02  0.00000000000E+00 0.  1.
</event>
<event>
 5    1  0.1692178E-003  0.9118800E+02  0.7818608E-02  0.1130116E+00
         25   -1    0    0    0    0  0.00000000000E+00  0.00000000000E+00  0.99999998245E-14  0.12500000000E+03  0.12500000000E+03 0.  0.
        -11    1    3    3    0    0 -0.59750027702E+02 -0.16423840501E+02  0.20491113425E+01  0.62000058103E+02  0.51100000000E-03 0.  1.
         23    2    1    0    0    0 -0.26654827849E+02 -0.85515963661E+01  0.63682471043E+01  0.96291739530E+02  0.91912648109E+02 0.  0.
         11    1    3    3    0    0  0.33095199854E+02  0.78722441345E+01  0.43191357619E+01  0.34291681427E+02  0.51100000000E-03 0. -1.
         22    1    1    0    0    0  0.26654827849E+02  0.85515963661E+01 -0.63682471043E+01  0.28708260470E+02  0.00000000000E+00 0.  1.
</event>
<event>
 5    1  0.1692178E-003  0.9118800E+02  0.7818608E-02  0.1130116E+00
         25   -1    0    0    0    0  0.00000000000E+00  0.00000000000E+00  0.99999998245E-14  0.12500000000E+03  0.12500000000E+03 0.  0.
        -11    1    3    3    0    0  0.39415085605E+02  0.10164172765E+02  0.29723717047E+00  0.40705622848E+02  0.51100000000E-03 0.  1.
         23    2    1    0    0    0 -0.39156602125E+01  0.24267493647E+02 -0.22515736733E+02  0.91665302710E+02  0.85389259731E+02 0.  0.
         11    1    3    3    0    0 -0.43330745818E+02  0.14103320881E+02 -0.22812973903E+02  0.50959679862E+02  0.51100000000E-03 0. -1.
         22    1    1    0    0    0  0.39156602125E+01 -0.24267493647E+02  0.22515736733E+02  0.33334697290E+02  0.00000000000E+00 0.  1.
</event>
<event>
 5    1  0.1692178E-003  0.9118800E+02  0.7818608E-02  0.1130116E+00
         25   -1    0    0    0    0  0.00000000000E+00  0.00000000000E+00  0.99999998245E-14  0.12500000000E+03  0.12500000000E+03 0.  0.
        -11    1    3    3    0    0  0.48447254344E+01  0.41602027569E+02  0.34006729127E+02  0.53950511476E+02  0.51100000000E-03 0. -1.
         23    2    1    0    0    0  0.14080961579E+02  0.26172448025E+02 -0.30339754370E+01  0.95125671195E+02  0.90312888331E+02 0.  0.
         11    1    3    3    0    0  0.92362361443E+01 -0.15429579544E+02 -0.37040704564E+02  0.41175159718E+02  0.51100000000E-03 0.  1.
         22    1    1    0    0    0 -0.14080961579E+02 -0.26172448025E+02  0.30339754370E+01  0.29874328805E+02  0.00000000000E+00 0.  1.
</event>
<event>
 5    1  0.1692178E-003  0.9118800E+02  0.7818608E-02  0.1130116E+00
         25   -1    0    0    0    0  0.00000000000E+00  0.00000000000E+00  0.99999998245E-14  0.12500000000E+03  0.12500000000E+03 0.  0.
        -11    1    3    3    0    0  0.31374435931E+02  0.14467559401E+00  0.48462031190E+02  0.57731660537E+02  0.51100000000E-03 0.  1.
         23    2    1    0    0    0  0.21441907001E+02  0.13880267930E+02  0.14650359408E+02  0.95554283089E+02  0.90904184569E+02 0.  0.
         11    1    3    3    0    0 -0.99325289300E+01  0.13735592336E+02 -0.33811671782E+02  0.37822622552E+02  0.51100000000E-03 0. -1.
         22    1    1    0    0    0 -0.21441907001E+02 -0.13880267930E+02 -0.14650359408E+02  0.29445716911E+02  0.00000000000E+00 0.  1.
</event>
<event>
 5    1  0.1692178E-003  0.9118800E+02  0.7818608E-02  0.1130116E+00
         25   -1    0    0    0    0  0.00000000000E+00  0.00000000000E+00  0.99999998245E-14  0.12500000000E+03  0.12500000000E+03 0.  0.
        -11    1    3    3    0    0  0.35274778418E+02 -0.24083399520E+02  0.36868541286E+02  0.56423483247E+02  0.51100000000E-03 0. -1.
         23    2    1    0    0    0  0.27744842225E+02 -0.83211883064E+01  0.13529142071E+01  0.96002606638E+02  0.91518586416E+02 0.  0.
         11    1    3    3    0    0 -0.75299361935E+01  0.15762211213E+02 -0.35515627079E+02  0.39579123392E+02  0.51100000000E-03 0.  1.
         22    1    1    0    0    0 -0.27744842225E+02  0.83211883064E+01 -0.13529142071E+01  0.28997393362E+02  0.00000000000E+00 0. -1.
</event>
<event>
 5    1  0.1692178E-003  0.9118800E+02  0.7818608E-02  0.1130116E+00
         25   -1    0    0    0    0  0.00000000000E+00  0.00000000000E+00  0.99999998245E-14  0.12500000000E+03  0.12500000000E+03 0.  0.
        -11    1    3    3    0    0  0.98086124940E+01  0.24968305031E+02  0.51886706512E+02  0.58411090113E+02  0.51100000000E-03 0.  1.
         23    2    1    0    0    0  0.10389762182E+02  0.23934818690E+02  0.15843155804E+02  0.94474137363E+02  0.89406567660E+02 0.  0.
         11    1    3    3    0    0  0.58114968834E+00 -0.10334863411E+01 -0.36043550709E+02  0.36063047250E+02  0.51100000000E-03 0. -1.
         22    1    1    0    0    0 -0.10389762182E+02 -0.23934818690E+02 -0.15843155804E+02  0.30525862637E+02  0.00000000000E+00 0.  1.
</event>
<event>
 5    1  0.1692178E-003  0.9118800E+02  0.7818608E-02  0.1130116E+00
         25   -1    0    0    0    0  0.00000000000E+00  0.00000000000E+00  0.99999998245E-14  0.12500000000E+03  0.12500000000E+03 0.  0.
        -11    1    3    3    0    0  0.15704170769E+02  0.16509515829E+02 -0.19007182099E+02  0.29672513612E+02  0.51100000000E-03 0.  1.
         23    2    1    0    0    0 -0.48550821498E+01 -0.58808829438E+01  0.33662446759E+02  0.90484540729E+02  0.83642902761E+02 0.  0.
         11    1    3    3    0    0 -0.20559252918E+02 -0.22390398773E+02  0.52669628858E+02  0.60812027117E+02  0.51100000000E-03 0. -1.
         22    1    1    0    0    0  0.48550821498E+01  0.58808829438E+01 -0.33662446759E+02  0.34515459271E+02  0.00000000000E+00 0. -1.
</event>
<event>
 5    1  0.1692178E-003  0.9118800E+02  0.7818608E-02  0.1130116E+00
         25   -1    0    0    0    0  0.00000000000E+00  0.00000000000E+00  0.99999998245E-14  0.12500000000E+03  0.12500000000E+03 0.  0.
        -11    1    3    3    0    0 -0.24417465558E+02  0.30314520467E+02  0.72045161945E+01  0.39586460176E+02  0.51100000000E-03 0. -1.
         23    2    1    0    0    0  0.13852729189E+02 -0.74964252789E+01  0.24305122142E+02  0.96037378222E+02  0.91566066615E+02 0.  0.
         11    1    3    3    0    0  0.38270194747E+02 -0.37810945746E+02  0.17100605948E+02  0.56450918046E+02  0.51100000000E-03 0.  1.
         22    1    1    0    0    0 -0.13852729189E+02  0.74964252789E+01 -0.24305122142E+02  0.28962621778E+02  0.00000000000E+00 0.  1.
</event>
<event>
 5    1  0.1692178E-003  0.9118800E+02  0.7818608E-02  0.1130116E+00
         25   -1    0    0    0    0  0.00000000000E+00  0.00000000000E+00  0.99999998245E-14  0.12500000000E+03  0.12500000000E+03 0.  0.
        -11    1    3    3    0    0 -0.16940886430E+02 -0.47716151974E+02 -0.32171399056E+02  0.59990196780E+02  0.51100000000E-03 0. -1.
         23    2    1    0    0    0 -0.17910362844E+02 -0.22715050624E+02 -0.75250612142E+01  0.95110517430E+02  0.90291911916E+02 0.  0.
         11    1    3    3    0    0 -0.96947641391E+00  0.25001101350E+02  0.24646337842E+02  0.35120320649E+02  0.51100000000E-03 0.  1.
         22    1    1    0    0    0  0.17910362844E+02  0.22715050624E+02  0.75250612142E+01  0.29889482570E+02  0.00000000000E+00 0. -1.
</event>
<event>
 5    1  0.1692178E-003  0.9118800E+02  0.7818608E-02  0.1130116E+00
         25   -1    0    0    0    0  0.00000000000E+00  0.00000000000E+00  0.99999998245E-14  0.12500000000E+03  0.12500000000E+03 0.  0.
        -11    1    3    3    0    0  0.94598051865E+01  0.32197962549E+02  0.14266121024E+01  0.33589163860E+02  0.51100000000E-03 0. -1.
         23    2    1    0    0    0 -0.36220513587E+02  0.59557345205E+01  0.99800562414E+01  0.86960574390E+02  0.78199383613E+02 0.  0.
         11    1    3    3    0    0 -0.45680318773E+02 -0.26242228028E+02  0.85534441390E+01  0.53371410530E+02  0.51100000000E-03 0.  1.
         22    1    1    0    0    0  0.36220513587E+02 -0.59557345205E+01 -0.99800562414E+01  0.38039425610E+02  0.00000000000E+00 0.  1.
</event>
<event>
 5    1  0.1692178E-003  0.9118800E+02  0.7818608E-02  0.1130116E+00
         25   -1    0    0    0    0  0.00000000000E+00  0.00000000000E+00  0.99999998245E-14  0.12500000000E+03  0.12500000000E+03 0.  0.
        -11    1    3    3    0    0  0.32844291674E+02  0.24622384831E+00  0.17933972773E+02  0.37422393048E+02  0.51100000000E-03 0.  1.
         23    2    1    0    0    0 -0.14712331174E+02  0.26521340879E+02 -0.10472528827E+00  0.94671050497E+02  0.89681450837E+02 0.  0.
         11    1    3    3    0    0 -0.47556622848E+02  0.26275117031E+02 -0.18038698061E+02  0.57248657449E+02  0.51100000000E-03 0. -1.
         22    1    1    0    0    0  0.14712331174E+02 -0.26521340879E+02  0.10472528827E+00  0.30328949503E+02  0.00000000000E+00 0. -1.
</event>
<event>
 5    1  0.1692178E-003  0.9118800E+02  0.7818608E-02  0.1130116E+00
         25   -1    0    0    0    0  0.00000000000E+00  0.00000000000E+00  0.99999998245E-14  0.12500000000E+03  0.12500000000E+03 0.  0.
        -11    1    3    3    0    0 -0.48664326578E+02  0.87229340337E+01 -0.35615544412E+02  0.60932530421E+02  0.51100000000E-03 0.  1.
         23    2    1    0    0    0 -0.25076524937E+02 -0.40982649722E+01 -0.11161412061E+02  0.97247432589E+02  0.93203316181E+02 0.  0.
         11    1    3    3    0    0  0.23587801641E+02 -0.12821199006E+02  0.24454132351E+02  0.36314902168E+02  0.51100000000E-03 0. -1.
         22    1    1    0    0    0  0.25076524937E+02  0.40982649722E+01  0.11161412061E+02  0.27752567411E+02  0.00000000000E+00 0.  1.
</event>
<event>
 5    1  0.1692178E-003  0.9118800E+02  0.7818608E-02  0.1130116E+00
         25   -1    0    0    0    0  0.00000000000E+00  0.00000000000E+00  0.99999998245E-14  0.12500000000E+03  0.12500000000E+03 0.  0.
        -11    1    3    3    0    0 -0.28766964229E+02 -0.41024759205E+02  0.93645161724E+01  0.50973162176E+02  0.51100000000E-03 0.  1.
         23    2    1    0    0    0  0.72204963357E+01 -0.15847675688E+02  0.22250404327E+02  0.96744648564E+02  0.92526548304E+02 0.  0.
         11    1    3    3    0    0  0.35987460565E+02  0.25177083518E+02  0.12885888155E+02  0.45771486388E+02  0.51100000000E-03 0. -1.
         22    1    1    0    0    0 -0.72204963357E+01  0.15847675688E+02 -0.22250404327E+02  0.28255351436E+02  0.00000000000E+00 0.  1.
</event>
<event>
 5    1  0.1692178E-003  0.9118800E+02  0.7818608E-02  0.1130116E+00
         25   -1    0    0    0    0  0.00000000000E+00  0.00000000000E+00  0.99999998245E-14  0.12500000000E+03  0.12500000000E+03 0.  0.
        -11    1    3    3    0    0  0.16991545220E+02 -0.28993647137E+02 -0.34916676196E+02  0.48461515248E+02  0.51100000000E-03 0.  1.
         23    2    1    0    0    0 -0.14416873541E+02 -0.25185500276E+02  0.53133055889E+00  0.95975217848E+02  0.91481169986E+02 0.  0.
         11    1    3    3    0    0 -0.31408418761E+02  0.38081468616E+01  0.35448006755E+02  0.47513702600E+02  0.51100000000E-03 0. -1.
         22    1    1    0    0    0  0.14416873541E+02  0.25185500276E+02 -0.53133055889E+00  0.29024782152E+02  0.00000000000E+00 0.  1.
</event>
<event>
 5    1  0.1692178E-003  0.9118800E+02  0.7818608E-02  0.1130116E+00
         25   -1    0    0    0    0  0.00000000000E+00  0.00000000000E+00  0.99999998245E-14  0.12500000000E+03  0.12500000000E+03 0.  0.
        -11    1    3    3    0    0  0.32784760241E+02 -0.12812631170E+02 -0.19544818679E+02  0.40261693444E+02  0.51100000000E-03 0. -1.
         23    2    1    0    0    0  0.83768710104E+01  0.26498592704E+02  0.10342451862E+02  0.95346775997E+02  0.90618397687E+02 0.  0.
         11    1    3    3    0    0 -0.24407889230E+02  0.39311223874E+02  0.29887270541E+02  0.55085082553E+02  0.51100000000E-03 0.  1.
         22    1    1    0    0    0 -0.83768710104E+01 -0.26498592704E+02 -0.10342451862E+02  0.29653224003E+02  0.00000000000E+00 0.  1.
</event>
<event>
 5    1  0.1692178E-003  0.9118800E+02  0.7818608E-02  0.1130116E+00
         25   -1    0    0    0    0  0.00000000000E+00  0.00000000000E+00  0.99999998245E-14  0.12500000000E+03  0.12500000000E+03 0.  0.
        -11    1    3    3    0    0  0.33840310123E+02 -0.27944410551E+02  0.38406299712E+02  0.58318955135E+02  0.51100000000E-03 0.  1.
         23    2    1    0    0    0  0.16307560746E+02 -0.23286500125E+02  0.52832305499E+01  0.96084430654E+02  0.91630277002E+02 0.  0.
         11    1    3    3    0    0 -0.17532749377E+02  0.46579104256E+01 -0.33123069162E+02  0.37765475519E+02  0.51100000000E-03 0. -1.
         22    1    1    0    0    0 -0.16307560746E+02  0.23286500125E+02 -0.52832305499E+01  0.28915569346E+02  0.00000000000E+00 0.  1.
</event>
<event>
 5    1  0.1692178E-003  0.9118800E+02  0.7818608E-02  0.1130116E+00
         25   -1    0    0    0    0  0.00000000000E+00  0.00000000000E+00  0.99999998245E-14  0.12500000000E+03  0.12500000000E+03 0.  0.
        -11    1    3    3    0    0  0.19512984358E+01 -0.28961408518E+02  0.14373658893E+02  0.32390937300E+02  0.51100000000E-03 0.  1.
         23    2    1    0    0    0 -0.19098965484E+02  0.18567677223E+02 -0.17277060135E+02  0.93250575959E+02  0.87679210705E+02 0.  0.
         11    1    3    3    0    0 -0.21050263920E+02  0.47529085741E+02 -0.31650719028E+02  0.60859638659E+02  0.51100000000E-03 0. -1.
         22    1    1    0    0    0  0.19098965484E+02 -0.18567677223E+02  0.17277060135E+02  0.31749424041E+02  0.00000000000E+00 0. -1.
</event>
<event>
 5    1  0.1692178E-003  0.9118800E+02  0.7818608E-02  0.1130116E+00
         25   -1    0    0    0    0  0.00000000000E+00  0.00000000000E+00  0.99999998245E-14  0.12500000000E+03  0.12500000000E+03 0.  0.
        -11    1    3    3    0    0  0.20115923731E+02 -0.27258705979E+02 -0.24751412500E+02  0.41956165938E+02  0.51100000000E-03 0. -1.
         23    2    1    0    0    0  0.24007509971E+02  0.15721556167E+02  0.69121317853E+01  0.95482116791E+02  0.90804896331E+02 0.  0.
         11    1    3    3    0    0  0.38915862399E+01  0.42980262146E+02  0.31663544286E+02  0.53525950852E+02  0.51100000000E-03 0.  1.
         22    1    1    0    0    0 -0.24007509971E+02 -0.15721556167E+02 -0.69121317853E+01  0.29517883209E+02  0.00000000000E+00 0.  1.
</event>
<event>
 5    1  0.1692178E-003  0.9118800E+02  0.7818608E-02  0.1130116E+00
         25   -1    0    0    0    0  0.00000000000E+00  0.00000000000E+00  0.99999998245E-14  0.12500000000E+03  0.12500000000E+03 0.  0.
        -11    1    3    3    0    0 -0.26690801973E+02 -0.52464594569E+02  0.15507977025E+02  0.60872242812E+02  0.51100000000E-03 0. -1.
         23    2    1    0    0    0 -0.58695631137E+01 -0.25815749820E+02  0.14738424155E+02  0.94699408315E+02  0.89720967887E+02 0.  0.
         11    1    3    3    0    0  0.20821238860E+02  0.26648844749E+02 -0.76955287083E+00  0.33827165503E+02  0.51100000000E-03 0.  1.
         22    1    1    0    0    0  0.58695631137E+01  0.25815749820E+02 -0.14738424155E+02  0.30300591685E+02  0.00000000000E+00 0. -1.
</event>
<event>
 5    1  0.1692178E-003  0.9118800E+02  0.7818608E-02  0.1130116E+00
         25   -1    0    0    0    0  0.00000000000E+00  0.00000000000E+00  0.99999998245E-14  0.12500000000E+03  0.12500000000E+03 0.  0.
        -11    1    3    3    0    0 -0.10144839613E+02 -0.32641452220E+02  0.16245272767E+02  0.37845621429E+02  0.51100000000E-03 0.  1.
         23    2    1    0    0    0  0.28986472070E+02  0.43990247115E+01 -0.40094916156E+01  0.95408734321E+02  0.90703823405E+02 0.  0.
         11    1    3    3    0    0  0.39131311683E+02  0.37040476932E+02 -0.20254764383E+02  0.57563112892E+02  0.51100000000E-03 0. -1.
         22    1    1    0    0    0 -0.28986472070E+02 -0.43990247115E+01  0.40094916156E+01  0.29591265679E+02  0.00000000000E+00 0. -1.
</event>
<event>
 5    1  0.1692178E-003  0.9118800E+02  0.7818608E-02  0.1130116E+00
         25   -1    0    0    0    0  0.00000000000E+00  0.00000000000E+00  0.99999998245E-14  0.12500000000E+03  0.12500000000E+03 0.  0.
        -11    1    3    3    0    0 -0.15157722131E+02  0.11940961664E+02 -0.52510440003E+02  0.55943627119E+02  0.51100000000E-03 0.  1.
         23    2    1    0    0    0  0.53540269628E+01 -0.10840928601E+02 -0.25408455340E+02  0.96861397682E+02  0.92684137912E+02 0.  0.
         11    1    3    3    0    0  0.20511749094E+02 -0.22781890265E+02  0.27101984663E+02  0.40917770563E+02  0.51100000000E-03 0. -1.
         22    1    1    0    0    0 -0.53540269628E+01  0.10840928601E+02  0.25408455340E+02  0.28138602318E+02  0.00000000000E+00 0. -1.
</event>
<event>
 5    1  0.1692178E-003  0.9118800E+02  0.7818608E-02  0.1130116E+00
         25   -1    0    0    0    0  0.00000000000E+00  0.00000000000E+00  0.99999998245E-14  0.12500000000E+03  0.12500000000E+03 0.  0.
        -11    1    3    3    0    0  0.20758312999E+02  0.22707912019E+02 -0.12322493907E+02  0.33142128526E+02  0.51100000000E-03 0. -1.
         23    2    1    0    0    0 -0.25443553111E+02 -0.17082559304E+01  0.18209963995E+02  0.93664791018E+02  0.88267761695E+02 0.  0.
         11    1    3    3    0    0 -0.46201866110E+02 -0.24416167950E+02  0.30532457903E+02  0.60522662493E+02  0.51100000000E-03 0.  1.
         22    1    1    0    0    0  0.25443553111E+02  0.17082559304E+01 -0.18209963995E+02  0.31335208982E+02  0.00000000000E+00 0.  1.
</event>
<event>
 5    1  0.1692178E-003  0.9118800E+02  0.7818608E-02  0.1130116E+00
         25   -1    0    0    0    0  0.00000000000E+00  0.00000000000E+00  0.99999998245E-14  0.12500000000E+03  0.12500000000E+03 0.  0.
        -11    1    3    3    0    0  0.38444211464E+02  0.14304606913E+02 -0.11477116951E+02  0.42594640365E+02  0.51100000000E-03 0.  1.
         23    2    1    0    0    0  0.78873735440E+00 -0.21776412110E+02 -0.19981441789E+02  0.95434948893E+02  0.90739942822E+02 0.  0.
         11    1    3    3    0    0 -0.37655474110E+02 -0.36081019023E+02 -0.85043248380E+01  0.52840308528E+02  0.51100000000E-03 0. -1.
         22    1    1    0    0    0 -0.78873735440E+00  0.21776412110E+02  0.19981441789E+02  0.29565051107E+02  0.00000000000E+00 0. -1.
</event>
<event>
 5    1  0.1692178E-003  0.9118800E+02  0.7818608E-02  0.1130116E+00
         25   -1    0    0    0    0  0.00000000000E+00  0.00000000000E+00  0.99999998245E-14  0.12500000000E+03  0.12500000000E+03 0.  0.
        -11    1    3    3    0    0  0.95677833421E+00  0.58527285776E+02  0.11218925060E+01  0.58545855944E+02  0.51100000000E-03 0.  1.
         23    2    1    0    0    0 -0.86299082686E+01  0.24274781807E+02  0.13126147611E+02  0.96085711152E+02  0.91632023813E+02 0.  0.
         11    1    3    3    0    0 -0.95866866028E+01 -0.34252503970E+02  0.12004255105E+02  0.37539855209E+02  0.51100000000E-03 0. -1.
         22    1    1    0    0    0  0.86299082686E+01 -0.24274781807E+02 -0.13126147611E+02  0.28914288848E+02  0.00000000000E+00 0.  1.
</event>
<event>
 5    1  0.1692178E-003  0.9118800E+02  0.7818608E-02  0.1130116E+00
         25   -1    0    0    0    0  0.00000000000E+00  0.00000000000E+00  0.99999998245E-14  0.12500000000E+03  0.12500000000E+03 0.  0.
        -11    1    3    3    0    0 -0.23383519376E+02  0.34176657685E+02 -0.13151849563E+02  0.43448867144E+02  0.51100000000E-03 0.  1.
         23    2    1    0    0    0 -0.27649335468E+02 -0.13920537547E+02  0.17858702895E+01  0.93992638776E+02  0.88730827190E+02 0.  0.
         11    1    3    3    0    0 -0.42658160915E+01 -0.48097195232E+02  0.14937719853E+02  0.50543771631E+02  0.51100000000E-03 0. -1.
         22    1    1    0    0    0  0.27649335468E+02  0.13920537547E+02 -0.17858702895E+01  0.31007361224E+02  0.00000000000E+00 0.  1.
</event>
<event>
 5    1  0.1692178E-003  0.9118800E+02  0.7818608E-02  0.1130116E+00
         25   -1    0    0    0    0  0.00000000000E+00  0.00000000000E+00  0.99999998245E-14  0.12500000000E+03  0.12500000000E+03 0.  0.
        -11    1    3    3    0    0  0.13512797631E+02 -0.44576370101E+02  0.24862363183E+02  0.52799484604E+02  0.51100000000E-03 0. -1.
         23    2    1    0    0    0  0.19895109625E+02 -0.20810531008E+02 -0.91591189913E+01  0.94787700377E+02  0.89843892916E+02 0.  0.
         11    1    3    3    0    0  0.63823119947E+01  0.23765839093E+02 -0.34021482174E+02  0.41988215773E+02  0.51100000000E-03 0.  1.
         22    1    1    0    0    0 -0.19895109625E+02  0.20810531008E+02  0.91591189913E+01  0.30212299623E+02  0.00000000000E+00 0. -1.
</event>
<event>
 5    1  0.1692178E-003  0.9118800E+02  0.7818608E-02  0.1130116E+00
         25   -1    0    0    0    0  0.00000000000E+00  0.00000000000E+00  0.99999998245E-14  0.12500000000E+03  0.12500000000E+03 0.  0.
        -11    1    3    3    0    0 -0.25354923075E+02 -0.48934786494E+00 -0.42401990057E+02  0.49406885619E+02  0.51100000000E-03 0. -1.
         23    2    1    0    0    0 -0.19283611102E+02  0.21213636277E+02 -0.12754828545E+01  0.96303260155E+02  0.91928314674E+02 0.  0.
         11    1    3    3    0    0  0.60713119731E+01  0.21702984142E+02  0.41126507202E+02  0.46896374536E+02  0.51100000000E-03 0.  1.
         22    1    1    0    0    0  0.19283611102E+02 -0.21213636277E+02  0.12754828545E+01  0.28696739845E+02  0.00000000000E+00 0. -1.
</event>
<event>
 5    1  0.1692178E-003  0.9118800E+02  0.7818608E-02  0.1130116E+00
         25   -1    0    0    0    0  0.00000000000E+00  0.00000000000E+00  0.99999998245E-14  0.12500000000E+03  0.12500000000E+03 0.  0.
        -11    1    3    3    0    0 -0.30544378893E+02  0.42562960669E+02 -0.33375325056E+02  0.62116640490E+02  0.51100000000E-03 0.  1.
         23    2    1    0    0    0 -0.13688080536E+02  0.23276216894E+02 -0.12119043497E+02  0.95402415015E+02  0.90695114277E+02 0.  0.
         11    1    3    3    0    0  0.16856298357E+02 -0.19286743775E+02  0.21256281559E+02  0.33285774525E+02  0.51100000000E-03 0. -1.
         22    1    1    0    0    0  0.13688080536E+02 -0.23276216894E+02  0.12119043497E+02  0.29597584985E+02  0.00000000000E+00 0.  1.
</event>
<event>
 5    1  0.1692178E-003  0.9118800E+02  0.7818608E-02  0.1130116E+00
         25   -1    0    0    0    0  0.00000000000E+00  0.00000000000E+00  0.99999998245E-14  0.12500000000E+03  0.12500000000E+03 0.  0.
        -11    1    3    3    0    0  0.18996365652E+02 -0.25934972423E+02  0.51777292055E+02  0.60945653457E+02  0.51100000000E-03 0. -1.
         23    2    1    0    0    0  0.17388291068E+02 -0.13727468267E+02  0.19519156537E+02  0.95473850181E+02  0.90793515986E+02 0.  0.
         11    1    3    3    0    0 -0.16080745845E+01  0.12207504156E+02 -0.32258135518E+02  0.34528196723E+02  0.51100000000E-03 0.  1.
         22    1    1    0    0    0 -0.17388291068E+02  0.13727468267E+02 -0.19519156537E+02  0.29526149819E+02  0.00000000000E+00 0. -1.
</event>
<event>
 5    1  0.1692178E-003  0.9118800E+02  0.7818608E-02  0.1130116E+00
         25   -1    0    0    0    0  0.00000000000E+00  0.00000000000E+00  0.99999998245E-14  0.12500000000E+03  0.12500000000E+03 0.  0.
        -11    1    3    3    0    0 -0.22261907024E+02  0.31505344804E+02 -0.15824687696E+02  0.41696522594E+02  0.51100000000E-03 0.  1.
         23    2    1    0    0    0 -0.18246844744E+02 -0.21516574201E+02 -0.15863212383E+01  0.96743554301E+02  0.92525069982E+02 0.  0.
         11    1    3    3    0    0  0.40150622798E+01 -0.53021919005E+02  0.14238366457E+02  0.55047031706E+02  0.51100000000E-03 0. -1.
         22    1    1    0    0    0  0.18246844744E+02  0.21516574201E+02  0.15863212383E+01  0.28256445699E+02  0.00000000000E+00 0. -1.
</event>
<event>
 5    1  0.1692178E-003  0.9118800E+02  0.7818608E-02  0.1130116E+00
         25   -1    0    0    0    0  0.00000000000E+00  0.00000000000E+00  0.99999998245E-14  0.12500000000E+03  0.12500000000E+03 0.  0.
        -11    1    3    3    0    0  0.53450368782E+00  0.17970481955E+02  0.24842712856E+02  0.30665686006E+02  0.51100000000E-03 0. -1.
         23    2    1    0    0    0 -0.16691560156E+02 -0.14195368153E+02 -0.24562557809E+02  0.92084412454E+02  0.86000599494E+02 0.  0.
         11    1    3    3    0    0 -0.17226063844E+02 -0.32165850108E+02 -0.49405270665E+02  0.61418726448E+02  0.51100000000E-03 0.  1.
         22    1    1    0    0    0  0.16691560156E+02  0.14195368153E+02  0.24562557809E+02  0.32915587546E+02  0.00000000000E+00 0.  1.
</event>
<event>
 5    1  0.1692178E-003  0.9118800E+02  0.7818608E-02  0.1130116E+00
         25   -1    0    0    0    0  0.00000000000E+00  0.00000000000E+00  0.99999998245E-14  0.12500000000E+03  0.12500000000E+03 0.  0.
        -11    1    3    3    0    0  0.44594170145E+02 -0.81463915921E+01 -0.60439058057E+01  0.45733275682E+02  0.51100000000E-03 0. -1.
         23    2    1    0    0    0 -0.34478067404E+01 -0.20530990803E+02  0.14707005914E+02  0.99510688953E+02  0.96190811610E+02 0.  0.
         11    1    3    3    0    0 -0.48041976886E+02 -0.12384599211E+02  0.20750911720E+02  0.53777413271E+02  0.51100000000E-03 0.  1.
         22    1    1    0    0    0  0.34478067404E+01  0.20530990803E+02 -0.14707005914E+02  0.25489311047E+02  0.00000000000E+00 0.  1.
</event>
<event>
 5    1  0.1692178E-003  0.9118800E+02  0.7818608E-02  0.1130116E+00
         25   -1    0    0    0    0  0.00000000000E+00  0.00000000000E+00  0.99999998245E-14  0.12500000000E+03  0.12500000000E+03 0.  0.
        -11    1    3    3    0    0  0.31072327804E+02 -0.14056826169E+02  0.12938003091E+02  0.36475688360E+02  0.51100000000E-03 0.  1.
         23    2    1    0    0    0 -0.25032968448E+02  0.14577058507E+01  0.16803947011E+02  0.94814787548E+02  0.89881571453E+02 0.  0.
         11    1    3    3    0    0 -0.56105296252E+02  0.15514532020E+02  0.38659439194E+01  0.58339099187E+02  0.51100000000E-03 0. -1.
         22    1    1    0    0    0  0.25032968448E+02 -0.14577058507E+01 -0.16803947011E+02  0.30185212452E+02  0.00000000000E+00 0. -1.
</event>
<event>
 5    1  0.1692178E-003  0.9118800E+02  0.7818608E-02  0.1130116E+00
         25   -1    0    0    0    0  0.00000000000E+00  0.00000000000E+00  0.99999998245E-14  0.12500000000E+03  0.12500000000E+03 0.  0.
        -11    1    3    3    0    0 -0.17702229652E+02 -0.18607233769E+02  0.30805431869E+02  0.40107015797E+02  0.51100000000E-03 0.  1.
         23    2    1    0    0    0  0.28589861538E+02 -0.23850559954E+00  0.58341485444E+01  0.95819966468E+02  0.91268787748E+02 0.  0.
         11    1    3    3    0    0  0.46292091191E+02  0.18368728169E+02 -0.24971283325E+02  0.55712950671E+02  0.51100000000E-03 0. -1.
         22    1    1    0    0    0 -0.28589861538E+02  0.23850559954E+00 -0.58341485444E+01  0.29180033532E+02  0.00000000000E+00 0. -1.
</event>
<event>
 5    1  0.1692178E-003  0.9118800E+02  0.7818608E-02  0.1130116E+00
         25   -1    0    0    0    0  0.00000000000E+00  0.00000000000E+00  0.99999998245E-14  0.12500000000E+03  0.12500000000E+03 0.  0.
        -11    1    3    3    0    0 -0.24825554053E+02 -0.16498285216E+02 -0.49481753384E+02  0.57766300447E+02  0.51100000000E-03 0.  1.
         23    2    1    0    0    0  0.43524090731E+01 -0.15711997621E+01 -0.27227132955E+02  0.97382452998E+02  0.93384223773E+02 0.  0.
         11    1    3    3    0    0  0.29177963126E+02  0.14927085454E+02  0.22254620428E+02  0.39616152552E+02  0.51100000000E-03 0. -1.
         22    1    1    0    0    0 -0.43524090731E+01  0.15711997621E+01  0.27227132955E+02  0.27617547002E+02  0.00000000000E+00 0.  1.
</event>
<event>
 5    1  0.1692178E-003  0.9118800E+02  0.7818608E-02  0.1130116E+00
         25   -1    0    0    0    0  0.00000000000E+00  0.00000000000E+00  0.99999998245E-14  0.12500000000E+03  0.12500000000E+03 0.  0.
        -11    1    3    3    0    0 -0.30358713835E+02 -0.24771614541E+02  0.25300594336E+02  0.46641231402E+02  0.51100000000E-03 0. -1.
         23    2    1    0    0    0  0.17559554141E+02 -0.51792437341E+01  0.18701808425E+02  0.98829020926E+02  0.95300866898E+02 0.  0.
         11    1    3    3    0    0  0.47918267976E+02  0.19592370807E+02 -0.65987859106E+01  0.52187789524E+02  0.51100000000E-03 0.  1.
         22    1    1    0    0    0 -0.17559554141E+02  0.51792437341E+01 -0.18701808425E+02  0.26170979074E+02  0.00000000000E+00 0.  1.
</event>
<event>
 5    1  0.1692178E-003  0.9118800E+02  0.7818608E-02  0.1130116E+00
         25   -1    0    0    0    0  0.00000000000E+00  0.00000000000E+00  0.99999998245E-14  0.12500000000E+03  0.12500000000E+03 0.  0.
        -11    1    3    3    0    0  0.42256244415E+02 -0.15591342274E+02 -0.39815299243E+02  0.60116039457E+02  0.51100000000E-03 0. -1.
         23    2    1    0    0    0  0.10245885977E+02 -0.13783782193E+02 -0.22927552402E+02  0.96353124252E+02  0.91996092650E+02 0.  0.
         11    1    3    3    0    0 -0.32010358438E+02  0.18075600813E+01  0.16887746841E+02  0.36237084794E+02  0.51100000000E-03 0.  1.
         22    1    1    0    0    0 -0.10245885977E+02  0.13783782193E+02  0.22927552402E+02  0.28646875748E+02  0.00000000000E+00 0. -1.
</event>
<event>
 5    1  0.1692178E-003  0.9118800E+02  0.7818608E-02  0.1130116E+00
         25   -1    0    0    0    0  0.00000000000E+00  0.00000000000E+00  0.99999998245E-14  0.12500000000E+03  0.12500000000E+03 0.  0.
        -11    1    3    3    0    0 -0.10811185423E+02 -0.37679676467E+02 -0.48475417167E+02  0.62341846449E+02  0.51100000000E-03 0.  1.
         23    2    1    0    0    0 -0.45489424278E+01 -0.20413464638E+02 -0.21239821426E+02  0.95191738897E+02  0.90404284878E+02 0.  0.
         11    1    3    3    0    0  0.62622429950E+01  0.17266211829E+02  0.27235595741E+02  0.32849892448E+02  0.51100000000E-03 0. -1.
         22    1    1    0    0    0  0.45489424278E+01  0.20413464638E+02  0.21239821426E+02  0.29808261103E+02  0.00000000000E+00 0.  1.
</event>
<event>
 5    1  0.1692178E-003  0.9118800E+02  0.7818608E-02  0.1130116E+00
         25   -1    0    0    0    0  0.00000000000E+00  0.00000000000E+00  0.99999998245E-14  0.12500000000E+03  0.12500000000E+03 0.  0.
        -11    1    3    3    0    0  0.23878460874E+02 -0.20954181221E+02 -0.15439131675E+02  0.35321741060E+02  0.51100000000E-03 0. -1.
         23    2    1    0    0    0 -0.21783387230E+02  0.17906361501E+02 -0.22709683501E+01  0.96710230848E+02  0.92480039533E+02 0.  0.
         11    1    3    3    0    0 -0.45661848103E+02  0.38860542722E+02  0.13168163325E+02  0.61388489789E+02  0.51100000000E-03 0.  1.
         22    1    1    0    0    0  0.21783387230E+02 -0.17906361501E+02  0.22709683501E+01  0.28289769152E+02  0.00000000000E+00 0.  1.
</event>
<event>
 5    1  0.1692178E-003  0.9118800E+02  0.7818608E-02  0.1130116E+00
         25   -1    0    0    0    0  0.00000000000E+00  0.00000000000E+00  0.99999998245E-14  0.12500000000E+03  0.12500000000E+03 0.  0.
        -11    1    3    3    0    0  0.20106832259E+02 -0.15068052675E+02 -0.39204937872E+02  0.46565631841E+02  0.51100000000E-03 0.  1.
         23    2    1    0    0    0  0.16339794439E+02 -0.76082116807E+01  0.15085695764E+02  0.10149570286E+03  0.98736648290E+02 0.  0.
         11    1    3    3    0    0 -0.37670378206E+01  0.74598409941E+01  0.54290633636E+02  0.54930071021E+02  0.51100000000E-03 0. -1.
         22    1    1    0    0    0 -0.16339794439E+02  0.76082116807E+01 -0.15085695764E+02  0.23504297138E+02  0.00000000000E+00 0. -1.
</event>
<event>
 5    1  0.1692178E-003  0.9118800E+02  0.7818608E-02  0.1130116E+00
         25   -1    0    0    0    0  0.00000000000E+00  0.00000000000E+00  0.99999998245E-14  0.12500000000E+03  0.12500000000E+03 0.  0.
        -11    1    3    3    0    0 -0.25575554928E+02 -0.14650897846E+02 -0.24557719257E+02  0.38364559074E+02  0.51100000000E-03 0. -1.
         23    2    1    0    0    0  0.33468135894E+01  0.29791388595E+02 -0.70674578642E+01  0.94199400066E+02  0.89021626679E+02 0.  0.
         11    1    3    3    0    0  0.28922368518E+02  0.44442286441E+02  0.17490261393E+02  0.55834840992E+02  0.51100000000E-03 0.  1.
         22    1    1    0    0    0 -0.33468135894E+01 -0.29791388595E+02  0.70674578642E+01  0.30800599934E+02  0.00000000000E+00 0.  1.
</event>
<event>
 5    1  0.1692178E-003  0.9118800E+02  0.7818608E-02  0.1130116E+00
         25   -1    0    0    0    0  0.00000000000E+00  0.00000000000E+00  0.99999998245E-14  0.12500000000E+03  0.12500000000E+03 0.  0.
        -11    1    3    3    0    0  0.94617223894E+01 -0.20771296582E+01 -0.30975876040E+02  0.32455254657E+02  0.51100000000E-03 0.  1.
         23    2    1    0    0    0 -0.54009406733E+01  0.14522574322E+02  0.26613510882E+02  0.94204638555E+02  0.89028982016E+02 0.  0.
         11    1    3    3    0    0 -0.14862663063E+02  0.16599703980E+02  0.57589386921E+02  0.61749383898E+02  0.51100000000E-03 0. -1.
         22    1    1    0    0    0  0.54009406733E+01 -0.14522574322E+02 -0.26613510882E+02  0.30795361445E+02  0.00000000000E+00 0. -1.
</event>
<event>
 5    1  0.1692178E-003  0.9118800E+02  0.7818608E-02  0.1130116E+00
         25   -1    0    0    0    0  0.00000000000E+00  0.00000000000E+00  0.99999998245E-14  0.12500000000E+03  0.12500000000E+03 0.  0.
        -11    1    3    3    0    0 -0.22218684407E+02  0.34520355662E+02 -0.36477376394E+02  0.54917427841E+02  0.51100000000E-03 0. -1.
         23    2    1    0    0    0  0.10135921211E+02  0.23614354922E+02 -0.15751078946E+02  0.94859144917E+02  0.89943238930E+02 0.  0.
         11    1    3    3    0    0  0.32354605618E+02 -0.10906000740E+02  0.20726297448E+02  0.39941717076E+02  0.51100000000E-03 0.  1.
         22    1    1    0    0    0 -0.10135921211E+02 -0.23614354922E+02  0.15751078946E+02  0.30140855083E+02  0.00000000000E+00 0. -1.
</event>
<event>
 5    1  0.1692178E-003  0.9118800E+02  0.7818608E-02  0.1130116E+00
         25   -1    0    0    0    0  0.00000000000E+00  0.00000000000E+00  0.99999998245E-14  0.12500000000E+03  0.12500000000E+03 0.  0.
        -11    1    3    3    0    0 -0.12103833825E+02 -0.17879029532E+02 -0.25373085572E+02  0.33316001591E+02  0.51100000000E-03 0. -1.
         23    2    1    0    0    0  0.12349948937E+02 -0.23705716800E+01  0.28149274546E+02  0.94169454978E+02  0.88979569254E+02 0.  0.
         11    1    3    3    0    0  0.24453782762E+02  0.15508457852E+02  0.53522360119E+02  0.60853453388E+02  0.51100000000E-03 0.  1.
         22    1    1    0    0    0 -0.12349948937E+02  0.23705716800E+01 -0.28149274546E+02  0.30830545022E+02  0.00000000000E+00 0.  1.
</event>
<event>
 5    1  0.1692178E-003  0.9118800E+02  0.7818608E-02  0.1130116E+00
         25   -1    0    0    0    0  0.00000000000E+00  0.00000000000E+00  0.99999998245E-14  0.12500000000E+03  0.12500000000E+03 0.  0.
        -11    1    3    3    0    0 -0.29315987038E+02 -0.38469814099E+02  0.36720745050E+02  0.60726985847E+02  0.51100000000E-03 0.  1.
         23    2    1    0    0    0 -0.24251309364E+02 -0.14888707864E+02  0.17261740600E+02  0.91716861382E+02  0.85464702336E+02 0.  0.
         11    1    3    3    0    0  0.50646776735E+01  0.23581106235E+02 -0.19459004450E+02  0.30989875535E+02  0.51100000000E-03 0. -1.
         22    1    1    0    0    0  0.24251309364E+02  0.14888707864E+02 -0.17261740600E+02  0.33283138618E+02  0.00000000000E+00 0.  1.
</event>
<event>
 5    1  0.1692178E-003  0.9118800E+02  0.7818608E-02  0.1130116E+00
         25   -1    0    0    0    0  0.00000000000E+00  0.00000000000E+00  0.99999998245E-14  0.12500000000E+03  0.12500000000E+03 0.  0.
        -11    1    3    3    0    0 -0.14252006527E+02  0.54288216891E+02 -0.26732169465E+02  0.62168634115E+02  0.51100000000E-03 0.  1.
         23    2    1    0    0    0 -0.91195177895E+01  0.28148022782E+02 -0.93824620937E+01  0.93959584633E+02  0.88684249775E+02 0.  0.
         11    1    3    3    0    0  0.51324887374E+01 -0.26140194109E+02  0.17349707371E+02  0.31790950517E+02  0.51100000000E-03 0. -1.
         22    1    1    0    0    0  0.91195177895E+01 -0.28148022782E+02  0.93824620937E+01  0.31040415367E+02  0.00000000000E+00 0.  1.
</event>
<event>
 5    1  0.1692178E-003  0.9118800E+02  0.7818608E-02  0.1130116E+00
         25   -1    0    0    0    0  0.00000000000E+00  0.00000000000E+00  0.99999998245E-14  0.12500000000E+03  0.12500000000E+03 0.  0.
        -11    1    3    3    0    0 -0.47252085553E+02  0.36479471762E+02  0.67209508445E+01  0.60072311673E+02  0.51100000000E-03 0.  1.
         23    2    1    0    0    0 -0.19936686831E+02  0.30577753722E+02  0.17627087036E+01  0.88454444231E+02  0.80551915296E+02 0.  0.
         11    1    3    3    0    0  0.27315398722E+02 -0.59017180399E+01 -0.49582421410E+01  0.28382132559E+02  0.51100000000E-03 0. -1.
         22    1    1    0    0    0  0.19936686831E+02 -0.30577753722E+02 -0.17627087036E+01  0.36545555769E+02  0.00000000000E+00 0.  1.
</event>
<event>
 5    1  0.1692178E-003  0.9118800E+02  0.7818608E-02  0.1130116E+00
         25   -1    0    0    0    0  0.00000000000E+00  0.00000000000E+00  0.99999998245E-14  0.12500000000E+03  0.12500000000E+03 0.  0.
        -11    1    3    3    0    0  0.27814281245E+01 -0.33093162266E+02 -0.22616867073E+02  0.40179800990E+02  0.51100000000E-03 0.  1.
         23    2    1    0    0    0 -0.63349308071E+01  0.21539362311E+02 -0.18830609711E+02  0.95696973891E+02  0.91100183714E+02 0.  0.
         11    1    3    3    0    0 -0.91163589316E+01  0.54632524577E+02  0.37862573625E+01  0.55517172900E+02  0.51100000000E-03 0. -1.
         22    1    1    0    0    0  0.63349308071E+01 -0.21539362311E+02  0.18830609711E+02  0.29303026109E+02  0.00000000000E+00 0. -1.
</event>
<event>
 5    1  0.1692178E-003  0.9118800E+02  0.7818608E-02  0.1130116E+00
         25   -1    0    0    0    0  0.00000000000E+00  0.00000000000E+00  0.99999998245E-14  0.12500000000E+03  0.12500000000E+03 0.  0.
        -11    1    3    3    0    0 -0.14685683233E+02  0.48845039018E+02  0.33089190809E+01  0.51112191055E+02  0.51100000000E-03 0. -1.
         23    2    1    0    0    0 -0.27667238987E+02  0.69075053852E+01  0.83112175448E+01  0.95297035824E+02  0.90549759557E+02 0.  0.
         11    1    3    3    0    0 -0.12981555753E+02 -0.41937533633E+02  0.50022984640E+01  0.44184844768E+02  0.51100000000E-03 0.  1.
         22    1    1    0    0    0  0.27667238987E+02 -0.69075053852E+01 -0.83112175448E+01  0.29702964176E+02  0.00000000000E+00 0. -1.
</event>
<event>
 5    1  0.1692178E-003  0.9118800E+02  0.7818608E-02  0.1130116E+00
         25   -1    0    0    0    0  0.00000000000E+00  0.00000000000E+00  0.99999998245E-14  0.12500000000E+03  0.12500000000E+03 0.  0.
        -11    1    3    3    0    0 -0.47287664594E+02  0.36057350231E+02 -0.72941263168E+01  0.59912102345E+02  0.51100000000E-03 0.  1.
         23    2    1    0    0    0 -0.25556476716E+02  0.96268787005E+01 -0.13253510867E+02  0.94644344086E+02  0.89644219120E+02 0.  0.
         11    1    3    3    0    0  0.21731187877E+02 -0.26430471531E+02 -0.59593845497E+01  0.34732241741E+02  0.51100000000E-03 0. -1.
         22    1    1    0    0    0  0.25556476716E+02 -0.96268787005E+01  0.13253510867E+02  0.30355655914E+02  0.00000000000E+00 0.  1.
</event>
<event>
 4    1  0.1692178E-003  0.9118800E+02  0.7818608E-02  0.1130116E+00
         25   -1    0    0    0    0  0.00000000000E+00  0.00000000000E+00  0.99999998245E-14  0.12500000000E+03  0.12500000000E+03 0.  0.
        -11    1    1    0    0    0 -0.73686639123E+01  0.14151881726E+02 -0.10086361906E+02  0.18876113503E+02  0.51100000000E-03 0. -1.
         11    1    1    0    0    0  0.78158473554E+01  0.17121056860E+02  0.51151851263E+02  0.54504402995E+02  0.51100000000E-03 0.  1.
         22    1    1    0    0    0 -0.44718344309E+00 -0.31272938586E+02 -0.41065489358E+02  0.51619483502E+02  0.00000000000E+00 0.  1.
</event>
<event>
 5    1  0.1692178E-003  0.9118800E+02  0.7818608E-02  0.1130116E+00
         25   -1    0    0    0    0  0.00000000000E+00  0.00000000000E+00  0.99999998245E-14  0.12500000000E+03  0.12500000000E+03 0.  0.
        -11    1    3    3    0    0 -0.72728326553E+01  0.13441460684E+02  0.51734162646E+02  0.53944328201E+02  0.51100000000E-03 0. -1.
         23    2    1    0    0    0 -0.16025751165E+02 -0.13089424025E+02  0.20028736558E+02  0.96202291587E+02  0.91790919468E+02 0.  0.
         11    1    3    3    0    0 -0.87529185099E+01 -0.26530884709E+02 -0.31705426088E+02  0.42257963386E+02  0.51100000000E-03 0.  1.
         22    1    1    0    0    0  0.16025751165E+02  0.13089424025E+02 -0.20028736558E+02  0.28797708413E+02  0.00000000000E+00 0. -1.
</event>
<event>
 5    1  0.1692178E-003  0.9118800E+02  0.7818608E-02  0.1130116E+00
         25   -1    0    0    0    0  0.00000000000E+00  0.00000000000E+00  0.99999998245E-14  0.12500000000E+03  0.12500000000E+03 0.  0.
        -11    1    3    3    0    0 -0.27792964415E+02  0.98198913073E+01  0.13631492191E+02  0.32476094529E+02  0.51100000000E-03 0.  1.
         23    2    1    0    0    0  0.16846624681E+02 -0.27184177007E+02 -0.32181802170E+01  0.92857428127E+02  0.87116915876E+02 0.  0.
         11    1    3    3    0    0  0.44639589096E+02 -0.37004068314E+02 -0.16849672408E+02  0.60381333598E+02  0.51100000000E-03 0. -1.
         22    1    1    0    0    0 -0.16846624681E+02  0.27184177007E+02  0.32181802170E+01  0.32142571873E+02  0.00000000000E+00 0. -1.
</event>
<event>
 5    1  0.1692178E-003  0.9118800E+02  0.7818608E-02  0.1130116E+00
         25   -1    0    0    0    0  0.00000000000E+00  0.00000000000E+00  0.99999998245E-14  0.12500000000E+03  0.12500000000E+03 0.  0.
        -11    1    3    3    0    0  0.15266816443E+02 -0.44590845445E+02  0.90066210162E+01  0.47984772629E+02  0.51100000000E-03 0. -1.
         23    2    1    0    0    0  0.13488118847E+02  0.52517586490E+00  0.25576308206E+02  0.96080236842E+02  0.91624555717E+02 0.  0.
         11    1    3    3    0    0 -0.17786975965E+01  0.45116021310E+02  0.16569687189E+02  0.48095464213E+02  0.51100000000E-03 0.  1.
         22    1    1    0    0    0 -0.13488118847E+02 -0.52517586490E+00 -0.25576308206E+02  0.28919763158E+02  0.00000000000E+00 0. -1.
</event>
<event>
 5    1  0.1692178E-003  0.9118800E+02  0.7818608E-02  0.1130116E+00
         25   -1    0    0    0    0  0.00000000000E+00  0.00000000000E+00  0.99999998245E-14  0.12500000000E+03  0.12500000000E+03 0.  0.
        -11    1    3    3    0    0 -0.30145268346E+02 -0.42383110130E+02 -0.11090924108E+02  0.53179637323E+02  0.51100000000E-03 0.  1.
         23    2    1    0    0    0 -0.29277571916E+02 -0.12047496043E+01 -0.55918150198E+00  0.95692316317E+02  0.91093792759E+02 0.  0.
         11    1    3    3    0    0  0.86769642979E+00  0.41178360526E+02  0.10531742606E+02  0.42512678994E+02  0.51100000000E-03 0. -1.
         22    1    1    0    0    0  0.29277571916E+02  0.12047496043E+01  0.55918150198E+00  0.29307683683E+02  0.00000000000E+00 0.  1.
</event>
<event>
 5    1  0.1692178E-003  0.9118800E+02  0.7818608E-02  0.1130116E+00
         25   -1    0    0    0    0  0.00000000000E+00  0.00000000000E+00  0.99999998245E-14  0.12500000000E+03  0.12500000000E+03 0.  0.
        -11    1    3    3    0    0  0.69828094250E+01 -0.30152672818E+02  0.29936395704E+02  0.43059622543E+02  0.51100000000E-03 0. -1.
         23    2    1    0    0    0 -0.15106709971E+02  0.16113684394E+02  0.19833035462E+02  0.95314771240E+02  0.90574239218E+02 0.  0.
         11    1    3    3    0    0 -0.22089519396E+02  0.46266357212E+02 -0.10103360243E+02  0.52255148697E+02  0.51100000000E-03 0.  1.
         22    1    1    0    0    0  0.15106709971E+02 -0.16113684394E+02 -0.19833035462E+02  0.29685228760E+02  0.00000000000E+00 0.  1.
</event>
<event>
 5    1  0.1692178E-003  0.9118800E+02  0.7818608E-02  0.1130116E+00
         25   -1    0    0    0    0  0.00000000000E+00  0.00000000000E+00  0.99999998245E-14  0.12500000000E+03  0.12500000000E+03 0.  0.
        -11    1    3    3    0    0  0.29475472983E+01  0.40357143139E+02  0.11157091432E+02  0.41974608121E+02  0.51100000000E-03 0. -1.
         23    2    1    0    0    0  0.83597549857E+01 -0.11182337069E+02  0.25659118129E+02  0.95788349774E+02  0.91225475848E+02 0.  0.
         11    1    3    3    0    0  0.54122076873E+01 -0.51539480208E+02  0.14502026697E+02  0.53813741654E+02  0.51100000000E-03 0.  1.
         22    1    1    0    0    0 -0.83597549857E+01  0.11182337069E+02 -0.25659118129E+02  0.29211650226E+02  0.00000000000E+00 0.  1.
</event>
<event>
 5    1  0.1692178E-003  0.9118800E+02  0.7818608E-02  0.1130116E+00
         25   -1    0    0    0    0  0.00000000000E+00  0.00000000000E+00  0.99999998245E-14  0.12500000000E+03  0.12500000000E+03 0.  0.
        -11    1    3    3    0    0  0.11388595723E+02 -0.46005159549E+02 -0.29498301230E+02  0.55824050313E+02  0.51100000000E-03 0.  1.
         23    2    1    0    0    0  0.21043330169E+02 -0.70991607166E+01 -0.13667298373E+02  0.98922905218E+02  0.95423929412E+02 0.  0.
         11    1    3    3    0    0  0.96547344456E+01  0.38905998832E+02  0.15831002857E+02  0.43098854905E+02  0.51100000000E-03 0. -1.
         22    1    1    0    0    0 -0.21043330169E+02  0.70991607166E+01  0.13667298373E+02  0.26077094782E+02  0.00000000000E+00 0.  1.
</event>
<event>
 5    1  0.1692178E-003  0.9118800E+02  0.7818608E-02  0.1130116E+00
         25   -1    0    0    0    0  0.00000000000E+00  0.00000000000E+00  0.99999998245E-14  0.12500000000E+03  0.12500000000E+03 0.  0.
        -11    1    3    3    0    0  0.40655348804E+02  0.47498598607E+01 -0.32636570224E+01  0.41061782870E+02  0.51100000000E-03 0.  1.
         23    2    1    0    0    0 -0.30141814281E+01 -0.28608476920E+02 -0.35473482425E+01  0.96015281252E+02  0.91535896308E+02 0.  0.
         11    1    3    3    0    0 -0.43669530232E+02 -0.33358336781E+02 -0.28369122012E+00  0.54953498382E+02  0.51100000000E-03 0. -1.
         22    1    1    0    0    0  0.30141814281E+01  0.28608476920E+02  0.35473482425E+01  0.28984718748E+02  0.00000000000E+00 0. -1.
</event>
<event>
 5    1  0.1692178E-003  0.9118800E+02  0.7818608E-02  0.1130116E+00
         25   -1    0    0    0    0  0.00000000000E+00  0.00000000000E+00  0.99999998245E-14  0.12500000000E+03  0.12500000000E+03 0.  0.
        -11    1    3    3    0    0  0.22493012209E+02  0.21471178416E+02  0.46883980726E+02  0.56258819307E+02  0.51100000000E-03 0. -1.
         23    2    1    0    0    0  0.17477143174E+02 -0.87071139609E+01  0.20914658884E+02  0.96387287383E+02  0.92042500215E+02 0.  0.
         11    1    3    3    0    0 -0.50158690350E+01 -0.30178292377E+02 -0.25969321842E+02  0.40128468076E+02  0.51100000000E-03 0.  1.
         22    1    1    0    0    0 -0.17477143174E+02  0.87071139609E+01 -0.20914658884E+02  0.28612712617E+02  0.00000000000E+00 0. -1.
</event>
<event>
 5    1  0.1692178E-003  0.9118800E+02  0.7818608E-02  0.1130116E+00
         25   -1    0    0    0    0  0.00000000000E+00  0.00000000000E+00  0.99999998245E-14  0.12500000000E+03  0.12500000000E+03 0.  0.
        -11    1    3    3    0    0 -0.22768930024E+02  0.12307614038E+02  0.24207719474E+02  0.35438894172E+02  0.51100000000E-03 0.  1.
         23    2    1    0    0    0  0.30542026999E+02  0.27822211747E+01  0.11176418148E+01  0.94311153637E+02  0.89178407752E+02 0.  0.
         11    1    3    3    0    0  0.53310957023E+02 -0.95253928636E+01 -0.23090077659E+02  0.58872259465E+02  0.51100000000E-03 0. -1.
         22    1    1    0    0    0 -0.30542026999E+02 -0.27822211747E+01 -0.11176418148E+01  0.30688846363E+02  0.00000000000E+00 0. -1.
</event>
<event>
 5    1  0.1692178E-003  0.9118800E+02  0.7818608E-02  0.1130116E+00
         25   -1    0    0    0    0  0.00000000000E+00  0.00000000000E+00  0.99999998245E-14  0.12500000000E+03  0.12500000000E+03 0.  0.
        -11    1    3    3    0    0 -0.37220877208E+02 -0.46860216565E+02 -0.11218096072E+02  0.60886117272E+02  0.51100000000E-03 0. -1.
         23    2    1    0    0    0 -0.22004984645E+02 -0.15338172936E+02  0.15190863661E+01  0.98133915030E+02  0.94384737947E+02 0.  0.
         11    1    3    3    0    0  0.15215892563E+02  0.31522043629E+02  0.12737182439E+02  0.37247797758E+02  0.51100000000E-03 0.  1.
         22    1    1    0    0    0  0.22004984645E+02  0.15338172936E+02 -0.15190863661E+01  0.26866084970E+02  0.00000000000E+00 0. -1.
</event>
<event>
 5    1  0.1692178E-003  0.9118800E+02  0.7818608E-02  0.1130116E+00
         25   -1    0    0    0    0  0.00000000000E+00  0.00000000000E+00  0.99999998245E-14  0.12500000000E+03  0.12500000000E+03 0.  0.
        -11    1    3    3    0    0  0.25835744162E+02 -0.35168461982E+02  0.32948580469E+02  0.54680118414E+02  0.51100000000E-03 0.  1.
         23    2    1    0    0    0 -0.23662094734E+01 -0.27120102944E+02  0.14206226501E+01  0.97739825759E+02  0.93861368197E+02 0.  0.
         11    1    3    3    0    0 -0.28201953636E+02  0.80483590389E+01 -0.31527957819E+02  0.43059707344E+02  0.51100000000E-03 0. -1.
         22    1    1    0    0    0  0.23662094734E+01  0.27120102944E+02 -0.14206226501E+01  0.27260174241E+02  0.00000000000E+00 0.  1.
</event>
<event>
 5    1  0.1692178E-003  0.9118800E+02  0.7818608E-02  0.1130116E+00
         25   -1    0    0    0    0  0.00000000000E+00  0.00000000000E+00  0.99999998245E-14  0.12500000000E+03  0.12500000000E+03 0.  0.
        -11    1    3    3    0    0 -0.24169025023E+02  0.38724109232E+01  0.30391941033E+02  0.39023165132E+02  0.51100000000E-03 0. -1.
         23    2    1    0    0    0  0.63593705359E+01 -0.28829298035E+02 -0.36687925374E+01  0.95250545257E+02  0.90485558595E+02 0.  0.
         11    1    3    3    0    0  0.30528395559E+02 -0.32701708958E+02 -0.34060733570E+02  0.56227380125E+02  0.51100000000E-03 0.  1.
         22    1    1    0    0    0 -0.63593705359E+01  0.28829298035E+02  0.36687925374E+01  0.29749454743E+02  0.00000000000E+00 0.  1.
</event>
<event>
 5    1  0.1692178E-003  0.9118800E+02  0.7818608E-02  0.1130116E+00
         25   -1    0    0    0    0  0.00000000000E+00  0.00000000000E+00  0.99999998245E-14  0.12500000000E+03  0.12500000000E+03 0.  0.
        -11    1    3    3    0    0  0.11420297421E+02  0.38754937439E+02 -0.39285182469E+02  0.56353295653E+02  0.51100000000E-03 0.  1.
         23    2    1    0    0    0 -0.12900838240E+02  0.12883056631E+02 -0.23614749542E+02  0.95166107002E+02  0.90368837275E+02 0.  0.
         11    1    3    3    0    0 -0.24321135661E+02 -0.25871880808E+02  0.15670432927E+02  0.38812811349E+02  0.51100000000E-03 0. -1.
         22    1    1    0    0    0  0.12900838240E+02 -0.12883056631E+02  0.23614749542E+02  0.29833892998E+02  0.00000000000E+00 0.  1.
</event>
<event>
 5    1  0.1692178E-003  0.9118800E+02  0.7818608E-02  0.1130116E+00
         25   -1    0    0    0    0  0.00000000000E+00  0.00000000000E+00  0.99999998245E-14  0.12500000000E+03  0.12500000000E+03 0.  0.
        -11    1    3    3    0    0 -0.46266219765E+02  0.25880479543E+02 -0.24796978606E+02  0.58525656434E+02  0.51100000000E-03 0.  1.
         23    2    1    0    0    0 -0.10583869303E+02  0.68118496771E+01 -0.22707541114E+02  0.99037488394E+02  0.95573909088E+02 0.  0.
         11    1    3    3    0    0  0.35682350462E+02 -0.19068629866E+02  0.20894374912E+01  0.40511831960E+02  0.51100000000E-03 0. -1.
         22    1    1    0    0    0  0.10583869303E+02 -0.68118496771E+01  0.22707541114E+02  0.25962511606E+02  0.00000000000E+00 0.  1.
</event>
<event>
 5    1  0.1692178E-003  0.9118800E+02  0.7818608E-02  0.1130116E+00
         25   -1    0    0    0    0  0.00000000000E+00  0.00000000000E+00  0.99999998245E-14  0.12500000000E+03  0.12500000000E+03 0.  0.
        -11    1    3    3    0    0  0.24872348058E+02  0.11447550680E+02 -0.47049888985E+02  0.54436864056E+02  0.51100000000E-03 0. -1.
         23    2    1    0    0    0 -0.86734354873E+01  0.15361039754E+02 -0.23524493615E+02  0.95596057657E+02  0.90961609563E+02 0.  0.
         11    1    3    3    0    0 -0.33545783545E+02  0.39134890732E+01  0.23525395369E+02  0.41159193601E+02  0.51100000000E-03 0.  1.
         22    1    1    0    0    0  0.86734354873E+01 -0.15361039754E+02  0.23524493615E+02  0.29403942343E+02  0.00000000000E+00 0. -1.
</event>
<event>
 5    1  0.1692178E-003  0.9118800E+02  0.7818608E-02  0.1130116E+00
         25   -1    0    0    0    0  0.00000000000E+00  0.00000000000E+00  0.99999998245E-14  0.12500000000E+03  0.12500000000E+03 0.  0.
        -11    1    3    3    0    0 -0.12249437294E+02  0.26671750746E+02 -0.22629704439E+02  0.37061226709E+02  0.51100000000E-03 0. -1.
         23    2    1    0    0    0  0.24803165810E+02  0.58192700038E+00  0.15037802077E+02  0.95988430505E+02  0.91499221999E+02 0.  0.
         11    1    3    3    0    0  0.37052603104E+02 -0.26089823745E+02  0.37667506516E+02  0.58927203797E+02  0.51100000000E-03 0.  1.
         22    1    1    0    0    0 -0.24803165810E+02 -0.58192700038E+00 -0.15037802077E+02  0.29011569495E+02  0.00000000000E+00 0.  1.
</event>
<event>
 5    1  0.1692178E-003  0.9118800E+02  0.7818608E-02  0.1130116E+00
         25   -1    0    0    0    0  0.00000000000E+00  0.00000000000E+00  0.99999998245E-14  0.12500000000E+03  0.12500000000E+03 0.  0.
        -11    1    3    3    0    0  0.38494431475E+01 -0.71038543719E+01  0.49529958870E+02  0.50184656873E+02  0.51100000000E-03 0.  1.
         23    2    1    0    0    0 -0.94444403643E+01  0.21897217328E+02  0.17262858475E+02  0.95560369173E+02  0.90912553001E+02 0.  0.
         11    1    3    3    0    0 -0.13293883512E+02  0.29001071700E+02 -0.32267100395E+02  0.45375712300E+02  0.51100000000E-03 0. -1.
         22    1    1    0    0    0  0.94444403643E+01 -0.21897217328E+02 -0.17262858475E+02  0.29439630827E+02  0.00000000000E+00 0.  1.
</event>
<event>
 5    1  0.1692178E-003  0.9118800E+02  0.7818608E-02  0.1130116E+00
         25   -1    0    0    0    0  0.00000000000E+00  0.00000000000E+00  0.99999998245E-14  0.12500000000E+03  0.12500000000E+03 0.  0.
        -11    1    3    3    0    0 -0.42415502445E+02  0.20795271907E+02  0.26062279148E+02  0.53951465003E+02  0.51100000000E-03 0. -1.
         23    2    1    0    0    0 -0.28586772137E+02 -0.87432620237E+01  0.99056165150E+00  0.95089644195E+02  0.90263010412E+02 0.  0.
         11    1    3    3    0    0  0.13828730309E+02 -0.29538533930E+02 -0.25071717497E+02  0.41138179191E+02  0.51100000000E-03 0.  1.
         22    1    1    0    0    0  0.28586772137E+02  0.87432620237E+01 -0.99056165150E+00  0.29910355805E+02  0.00000000000E+00 0. -1.
</event>
<event>
 5    1  0.1692178E-003  0.9118800E+02  0.7818608E-02  0.1130116E+00
         25   -1    0    0    0    0  0.00000000000E+00  0.00000000000E+00  0.99999998245E-14  0.12500000000E+03  0.12500000000E+03 0.  0.
        -11    1    3    3    0    0  0.30788833844E+01 -0.45203899499E+02 -0.38922815064E+02  0.59731545984E+02  0.51100000000E-03 0.  1.
         23    2    1    0    0    0 -0.97950889199E+01 -0.26941485833E+02 -0.14357126359E+02  0.92938894231E+02  0.87233729473E+02 0.  0.
         11    1    3    3    0    0 -0.12873972304E+02  0.18262413667E+02  0.24565688705E+02  0.33207348248E+02  0.51100000000E-03 0. -1.
         22    1    1    0    0    0  0.97950889199E+01  0.26941485833E+02  0.14357126359E+02  0.32061105769E+02  0.00000000000E+00 0.  1.
</event>
<event>
 5    1  0.1692178E-003  0.9118800E+02  0.7818608E-02  0.1130116E+00
         25   -1    0    0    0    0  0.00000000000E+00  0.00000000000E+00  0.99999998245E-14  0.12500000000E+03  0.12500000000E+03 0.  0.
        -11    1    3    3    0    0  0.21655283748E+02 -0.14968073518E+02 -0.28252183850E+02  0.38615805464E+02  0.51100000000E-03 0.  1.
         23    2    1    0    0    0 -0.87533916181E+01  0.27703245209E+02 -0.73292529410E+01  0.95036528762E+02  0.90189423940E+02 0.  0.
         11    1    3    3    0    0 -0.30408675367E+02  0.42671318727E+02  0.20922930909E+02  0.56420723299E+02  0.51100000000E-03 0. -1.
         22    1    1    0    0    0  0.87533916181E+01 -0.27703245209E+02  0.73292529410E+01  0.29963471238E+02  0.00000000000E+00 0. -1.
</event>
<event>
 5    1  0.1692178E-003  0.9118800E+02  0.7818608E-02  0.1130116E+00
         25   -1    0    0    0    0  0.00000000000E+00  0.00000000000E+00  0.99999998245E-14  0.12500000000E+03  0.12500000000E+03 0.  0.
        -11    1    3    3    0    0  0.11989667792E+01 -0.38256049055E+02 -0.31693371181E+02  0.49693385755E+02  0.51100000000E-03 0. -1.
         23    2    1    0    0    0  0.22534621020E+01 -0.25531064663E+02  0.13061037730E+02  0.96233629689E+02  0.91833585481E+02 0.  0.
         11    1    3    3    0    0  0.10544953229E+01  0.12724984392E+02  0.44754408912E+02  0.46540243934E+02  0.51100000000E-03 0.  1.
         22    1    1    0    0    0 -0.22534621020E+01  0.25531064663E+02 -0.13061037730E+02  0.28766370311E+02  0.00000000000E+00 0.  1.
</event>
<event>
 5    1  0.1692178E-003  0.9118800E+02  0.7818608E-02  0.1130116E+00
         25   -1    0    0    0    0  0.00000000000E+00  0.00000000000E+00  0.99999998245E-14  0.12500000000E+03  0.12500000000E+03 0.  0.
        -11    1    3    3    0    0  0.44318039761E+02 -0.46137074356E+01 -0.22847349118E+01  0.44616084078E+02  0.51100000000E-03 0.  1.
         23    2    1    0    0    0  0.29630754104E+00 -0.71090770703E+01 -0.28305479764E+02  0.95813925245E+02  0.91260513428E+02 0.  0.
         11    1    3    3    0    0 -0.44021732220E+02 -0.24953696346E+01 -0.26020744852E+02  0.51197841167E+02  0.51100000000E-03 0. -1.
         22    1    1    0    0    0 -0.29630754104E+00  0.71090770703E+01  0.28305479764E+02  0.29186074755E+02  0.00000000000E+00 0.  1.
</event>
<event>
 5    1  0.1692178E-003  0.9118800E+02  0.7818608E-02  0.1130116E+00
         25   -1    0    0    0    0  0.00000000000E+00  0.00000000000E+00  0.99999998245E-14  0.12500000000E+03  0.12500000000E+03 0.  0.
        -11    1    3    3    0    0 -0.38217113904E+02 -0.21768775040E+02 -0.97476797964E+01  0.45049357638E+02  0.51100000000E-03 0. -1.
         23    2    1    0    0    0 -0.15895300668E+02  0.23667533950E+02 -0.63826581067E+01  0.95784403633E+02  0.91220068560E+02 0.  0.
         11    1    3    3    0    0  0.22321813237E+02  0.45436308990E+02  0.33650216897E+01  0.50735045995E+02  0.51100000000E-03 0.  1.
         22    1    1    0    0    0  0.15895300668E+02 -0.23667533950E+02  0.63826581067E+01  0.29215596367E+02  0.00000000000E+00 0.  1.
</event>
<event>
 5    1  0.1692178E-003  0.9118800E+02  0.7818608E-02  0.1130116E+00
         25   -1    0    0    0    0  0.00000000000E+00  0.00000000000E+00  0.99999998245E-14  0.12500000000E+03  0.12500000000E+03 0.  0.
        -11    1    3    3    0    0  0.27034845395E+02  0.25793954645E+02 -0.43503501037E+02  0.57347759891E+02  0.51100000000E-03 0.  1.
         23    2    1    0    0    0  0.27226235708E+02  0.46134579789E+01 -0.13013953389E+02  0.94472718953E+02  0.89404584548E+02 0.  0.
         11    1    3    3    0    0  0.19139031290E+00 -0.21180496666E+02  0.30489547649E+02  0.37124959062E+02  0.51100000000E-03 0. -1.
         22    1    1    0    0    0 -0.27226235708E+02 -0.46134579789E+01  0.13013953389E+02  0.30527281047E+02  0.00000000000E+00 0.  1.
</event>
<event>
 5    1  0.1692178E-003  0.9118800E+02  0.7818608E-02  0.1130116E+00
         25   -1    0    0    0    0  0.00000000000E+00  0.00000000000E+00  0.99999998245E-14  0.12500000000E+03  0.12500000000E+03 0.  0.
        -11    1    3    3    0    0  0.71691839586E+01 -0.27004313802E+02 -0.74528032509E+01  0.28916680984E+02  0.51100000000E-03 0.  1.
         23    2    1    0    0    0 -0.78026255406E+01  0.30599613151E+02 -0.16906109926E+02  0.89180538207E+02  0.81670891704E+02 0.  0.
         11    1    3    3    0    0 -0.14971809499E+02  0.57603926953E+02 -0.94533066756E+01  0.60263857223E+02  0.51100000000E-03 0. -1.
         22    1    1    0    0    0  0.78026255406E+01 -0.30599613151E+02  0.16906109926E+02  0.35819461793E+02  0.00000000000E+00 0. -1.
</event>
<event>
 5    1  0.1692178E-003  0.9118800E+02  0.7818608E-02  0.1130116E+00
         25   -1    0    0    0    0  0.00000000000E+00  0.00000000000E+00  0.99999998245E-14  0.12500000000E+03  0.12500000000E+03 0.  0.
        -11    1    3    3    0    0 -0.12231517460E+02  0.46783544038E+01 -0.59365877239E+02  0.60793127900E+02  0.51100000000E-03 0.  1.
         23    2    1    0    0    0  0.67134795188E+00 -0.59612982167E+01 -0.28265832252E+02  0.96104584146E+02  0.91657765828E+02 0.  0.
         11    1    3    3    0    0  0.12902865412E+02 -0.10639652621E+02  0.31100044987E+02  0.35311456246E+02  0.51100000000E-03 0. -1.
         22    1    1    0    0    0 -0.67134795188E+00  0.59612982167E+01  0.28265832252E+02  0.28895415854E+02  0.00000000000E+00 0.  1.
</event>
<event>
 5    1  0.1692178E-003  0.9118800E+02  0.7818608E-02  0.1130116E+00
         25   -1    0    0    0    0  0.00000000000E+00  0.00000000000E+00  0.99999998245E-14  0.12500000000E+03  0.12500000000E+03 0.  0.
        -11    1    3    3    0    0 -0.38245256993E+02 -0.47539405814E+02  0.90023491885E+01  0.61674444292E+02  0.51100000000E-03 0.  1.
         23    2    1    0    0    0 -0.17485821258E+02 -0.28632528135E+02 -0.87228168820E+00  0.91439063067E+02  0.85057426288E+02 0.  0.
         11    1    3    3    0    0  0.20759435734E+02  0.18906877679E+02 -0.98746308767E+01  0.29764618774E+02  0.51100000000E-03 0. -1.
         22    1    1    0    0    0  0.17485821258E+02  0.28632528135E+02  0.87228168820E+00  0.33560936933E+02  0.00000000000E+00 0.  1.
</event>
<event>
 5    1  0.1692178E-003  0.9118800E+02  0.7818608E-02  0.1130116E+00
         25   -1    0    0    0    0  0.00000000000E+00  0.00000000000E+00  0.99999998245E-14  0.12500000000E+03  0.12500000000E+03 0.  0.
        -11    1    3    3    0    0  0.15513545630E+02 -0.29394288276E+02  0.25422526972E+02  0.41844941859E+02  0.51100000000E-03 0. -1.
         23    2    1    0    0    0  0.12643590844E+02  0.22915667239E+02  0.13406128118E+02  0.95594006299E+02  0.90958790530E+02 0.  0.
         11    1    3    3    0    0 -0.28699547866E+01  0.52309955515E+02 -0.12016398854E+02  0.53749064440E+02  0.51100000000E-03 0.  1.
         22    1    1    0    0    0 -0.12643590844E+02 -0.22915667239E+02 -0.13406128118E+02  0.29405993701E+02  0.00000000000E+00 0.  1.
</event>
<event>
 5    1  0.1692178E-003  0.9118800E+02  0.7818608E-02  0.1130116E+00
         25   -1    0    0    0    0  0.00000000000E+00  0.00000000000E+00  0.99999998245E-14  0.12500000000E+03  0.12500000000E+03 0.  0.
        -11    1    3    3    0    0  0.58524010478E+01 -0.26359074956E+02 -0.55333481212E+02  0.61569843055E+02  0.51100000000E-03 0.  1.
         23    2    1    0    0    0 -0.19093563627E+01 -0.14204464318E+02 -0.15717770308E+02  0.10372887517E+03  0.10152447385E+03 0.  0.
         11    1    3    3    0    0 -0.77617574105E+01  0.12154610638E+02  0.39615710903E+02  0.42159032110E+02  0.51100000000E-03 0. -1.
         22    1    1    0    0    0  0.19093563627E+01  0.14204464318E+02  0.15717770308E+02  0.21271124835E+02  0.00000000000E+00 0.  1.
</event>
<event>
 5    1  0.1692178E-003  0.9118800E+02  0.7818608E-02  0.1130116E+00
         25   -1    0    0    0    0  0.00000000000E+00  0.00000000000E+00  0.99999998245E-14  0.12500000000E+03  0.12500000000E+03 0.  0.
        -11    1    3    3    0    0  0.23843953059E+01 -0.11308205377E+02  0.58443633021E+02  0.59575322834E+02  0.51100000000E-03 0.  1.
         23    2    1    0    0    0 -0.94399617592E+01 -0.13262516678E+02  0.24390503520E+02  0.95675882134E+02  0.91071238783E+02 0.  0.
         11    1    3    3    0    0 -0.11824357065E+02 -0.19543113016E+01 -0.34053129501E+02  0.36100559299E+02  0.51100000000E-03 0. -1.
         22    1    1    0    0    0  0.94399617592E+01  0.13262516678E+02 -0.24390503520E+02  0.29324117866E+02  0.00000000000E+00 0.  1.
</event>
<event>
 5    1  0.1692178E-003  0.9118800E+02  0.7818608E-02  0.1130116E+00
         25   -1    0    0    0    0  0.00000000000E+00  0.00000000000E+00  0.99999998245E-14  0.12500000000E+03  0.12500000000E+03 0.  0.
        -11    1    3    3    0    0 -0.59870312728E+01 -0.11955779096E+02 -0.32333667689E+02  0.34989302133E+02  0.51100000000E-03 0. -1.
         23    2    1    0    0    0 -0.10701526178E+02  0.16755536787E+02  0.21210671936E+02  0.95928307935E+02  0.91417049743E+02 0.  0.
         11    1    3    3    0    0 -0.47144949047E+01  0.28711315883E+02  0.53544339625E+02  0.60939005802E+02  0.51100000000E-03 0.  1.
         22    1    1    0    0    0  0.10701526178E+02 -0.16755536787E+02 -0.21210671936E+02  0.29071692065E+02  0.00000000000E+00 0.  1.
</event>
<event>
 5    1  0.1692178E-003  0.9118800E+02  0.7818608E-02  0.1130116E+00
         25   -1    0    0    0    0  0.00000000000E+00  0.00000000000E+00  0.99999998245E-14  0.12500000000E+03  0.12500000000E+03 0.  0.
        -11    1    3    3    0    0 -0.15356459483E+02 -0.13459438749E+02  0.31012159444E+02  0.37131272170E+02  0.51100000000E-03 0. -1.
         23    2    1    0    0    0  0.29826931202E+02 -0.82028436963E+01 -0.29876386150E+01  0.93921736630E+02  0.88630887153E+02 0.  0.
         11    1    3    3    0    0  0.45183390685E+02  0.52565950522E+01 -0.33999798059E+02  0.56790464460E+02  0.51100000000E-03 0.  1.
         22    1    1    0    0    0 -0.29826931202E+02  0.82028436963E+01  0.29876386150E+01  0.31078263370E+02  0.00000000000E+00 0.  1.
</event>
<event>
 5    1  0.1692178E-003  0.9118800E+02  0.7818608E-02  0.1130116E+00
         25   -1    0    0    0    0  0.00000000000E+00  0.00000000000E+00  0.99999998245E-14  0.12500000000E+03  0.12500000000E+03 0.  0.
        -11    1    3    3    0    0  0.39247944376E+02  0.25750518713E+02  0.34018604192E+02  0.57972025867E+02  0.51100000000E-03 0. -1.
         23    2    1    0    0    0  0.13355414787E+02  0.24137659070E+02  0.48805764211E+01  0.96985473130E+02  0.92851323537E+02 0.  0.
         11    1    3    3    0    0 -0.25892529588E+02 -0.16128596424E+01 -0.29138027771E+02  0.39013447263E+02  0.51100000000E-03 0.  1.
         22    1    1    0    0    0 -0.13355414787E+02 -0.24137659070E+02 -0.48805764211E+01  0.28014526870E+02  0.00000000000E+00 0. -1.
</event>
<event>
 5    1  0.1692178E-003  0.9118800E+02  0.7818608E-02  0.1130116E+00
         25   -1    0    0    0    0  0.00000000000E+00  0.00000000000E+00  0.99999998245E-14  0.12500000000E+03  0.12500000000E+03 0.  0.
        -11    1    3    3    0    0  0.21932610014E+02 -0.20017921766E+01 -0.39302910909E+02  0.45052917332E+02  0.51100000000E-03 0.  1.
         23    2    1    0    0    0  0.24936953689E+01  0.29866318506E+02 -0.74676385648E+01  0.94113415154E+02  0.88900808705E+02 0.  0.
         11    1    3    3    0    0 -0.19438914645E+02  0.31868110683E+02  0.31835272344E+02  0.49060497822E+02  0.51100000000E-03 0. -1.
         22    1    1    0    0    0 -0.24936953689E+01 -0.29866318506E+02  0.74676385648E+01  0.30886584846E+02  0.00000000000E+00 0. -1.
</event>
<event>
 5    1  0.1692178E-003  0.9118800E+02  0.7818608E-02  0.1130116E+00
         25   -1    0    0    0    0  0.00000000000E+00  0.00000000000E+00  0.99999998245E-14  0.12500000000E+03  0.12500000000E+03 0.  0.
        -11    1    3    3    0    0 -0.44768573078E+02 -0.64936955849E+01  0.23951257682E+02  0.51186482225E+02  0.51100000000E-03 0. -1.
         23    2    1    0    0    0 -0.65161681478E+01  0.63819425135E+01  0.31463759926E+02  0.92240912311E+02  0.86227768599E+02 0.  0.
         11    1    3    3    0    0  0.38252404930E+02  0.12875638098E+02  0.75125022442E+01  0.41054430085E+02  0.51100000000E-03 0.  1.
         22    1    1    0    0    0  0.65161681478E+01 -0.63819425135E+01 -0.31463759926E+02  0.32759087689E+02  0.00000000000E+00 0. -1.
</event>
<event>
 5    1  0.1692178E-003  0.9118800E+02  0.7818608E-02  0.1130116E+00
         25   -1    0    0    0    0  0.00000000000E+00  0.00000000000E+00  0.99999998245E-14  0.12500000000E+03  0.12500000000E+03 0.  0.
        -11    1    3    3    0    0  0.35653640630E+02 -0.10960462084E+02  0.42290892946E+01  0.37539299618E+02  0.51100000000E-03 0. -1.
         23    2    1    0    0    0 -0.18423035781E+02 -0.16156196737E+01  0.22952845102E+02  0.95523711689E+02  0.90862136901E+02 0.  0.
         11    1    3    3    0    0 -0.54076676412E+02  0.93448424106E+01  0.18723755807E+02  0.57984412071E+02  0.51100000000E-03 0.  1.
         22    1    1    0    0    0  0.18423035781E+02  0.16156196737E+01 -0.22952845102E+02  0.29476288311E+02  0.00000000000E+00 0.  1.
</event>
<event>
 5    1  0.1692178E-003  0.9118800E+02  0.7818608E-02  0.1130116E+00
         25   -1    0    0    0    0  0.00000000000E+00  0.00000000000E+00  0.99999998245E-14  0.12500000000E+03  0.12500000000E+03 0.  0.
        -11    1    3    3    0    0 -0.11196746123E+02  0.52879485957E+02 -0.83235343225E+01  0.54689015192E+02  0.51100000000E-03 0. -1.
         23    2    1    0    0    0 -0.98168034781E+01  0.86137703239E+01 -0.20566350078E+02  0.10063729438E+03  0.97643861017E+02 0.  0.
         11    1    3    3    0    0  0.13799426445E+01 -0.44265715633E+02 -0.12242815755E+02  0.45948279185E+02  0.51100000000E-03 0.  1.
         22    1    1    0    0    0  0.98168034781E+01 -0.86137703239E+01  0.20566350078E+02  0.24362705623E+02  0.00000000000E+00 0. -1.
</event>
<event>
 5    1  0.1692178E-003  0.9118800E+02  0.7818608E-02  0.1130116E+00
         25   -1    0    0    0    0  0.00000000000E+00  0.00000000000E+00  0.99999998245E-14  0.12500000000E+03  0.12500000000E+03 0.  0.
        -11    1    3    3    0    0 -0.54651830102E+02  0.23560938319E+02 -0.17322166472E+02  0.61983851119E+02  0.51100000000E-03 0.  1.
         23    2    1    0    0    0 -0.28236122550E+02  0.61621930372E+01 -0.96374437985E+01  0.94534748275E+02  0.89491268115E+02 0.  0.
         11    1    3    3    0    0  0.26415707552E+02 -0.17398745282E+02  0.76847226733E+01  0.32550897157E+02  0.51100000000E-03 0. -1.
         22    1    1    0    0    0  0.28236122550E+02 -0.61621930372E+01  0.96374437985E+01  0.30465251725E+02  0.00000000000E+00 0.  1.
</event>
<event>
 5    1  0.1692178E-003  0.9118800E+02  0.7818608E-02  0.1130116E+00
         25   -1    0    0    0    0  0.00000000000E+00  0.00000000000E+00  0.99999998245E-14  0.12500000000E+03  0.12500000000E+03 0.  0.
        -11    1    3    3    0    0  0.80749284654E+01 -0.19459250330E+02  0.52243403876E+02  0.56331519968E+02  0.51100000000E-03 0.  1.
         23    2    1    0    0    0 -0.93106598922E+00  0.93918514027E+01  0.29126403693E+02  0.94382665878E+02  0.89278589088E+02 0.  0.
         11    1    3    3    0    0 -0.90059944546E+01  0.28851101733E+02 -0.23117000183E+02  0.38051145909E+02  0.51100000000E-03 0. -1.
         22    1    1    0    0    0  0.93106598922E+00 -0.93918514027E+01 -0.29126403693E+02  0.30617334122E+02  0.00000000000E+00 0.  1.
</event>
<event>
 5    1  0.1692178E-003  0.9118800E+02  0.7818608E-02  0.1130116E+00
         25   -1    0    0    0    0  0.00000000000E+00  0.00000000000E+00  0.99999998245E-14  0.12500000000E+03  0.12500000000E+03 0.  0.
        -11    1    3    3    0    0  0.47241398785E+01 -0.35809218149E+02  0.22454102892E+02  0.42530040430E+02  0.51100000000E-03 0.  1.
         23    2    1    0    0    0 -0.41947123583E+01 -0.33756658073E+02 -0.19716779657E+02  0.85682586860E+02  0.76129144977E+02 0.  0.
         11    1    3    3    0    0 -0.89188522368E+01  0.20525600760E+01 -0.42170882550E+02  0.43152546430E+02  0.51100000000E-03 0. -1.
         22    1    1    0    0    0  0.41947123583E+01  0.33756658073E+02  0.19716779657E+02  0.39317413140E+02  0.00000000000E+00 0.  1.
</event>
<event>
 5    1  0.1692178E-003  0.9118800E+02  0.7818608E-02  0.1130116E+00
         25   -1    0    0    0    0  0.00000000000E+00  0.00000000000E+00  0.99999998245E-14  0.12500000000E+03  0.12500000000E+03 0.  0.
        -11    1    3    3    0    0 -0.45120102231E+02 -0.17960442449E+02  0.29884138044E+02  0.57021599638E+02  0.51100000000E-03 0.  1.
         23    2    1    0    0    0 -0.90889200479E+01 -0.12531676877E+02  0.27381502686E+02  0.93545301109E+02  0.88098384078E+02 0.  0.
         11    1    3    3    0    0  0.36031182183E+02  0.54287655720E+01 -0.25026353581E+01  0.36523701471E+02  0.51100000000E-03 0. -1.
         22    1    1    0    0    0  0.90889200479E+01  0.12531676877E+02 -0.27381502686E+02  0.31454698891E+02  0.00000000000E+00 0.  1.
</event>
<event>
 5    1  0.1692178E-003  0.9118800E+02  0.7818608E-02  0.1130116E+00
         25   -1    0    0    0    0  0.00000000000E+00  0.00000000000E+00  0.99999998245E-14  0.12500000000E+03  0.12500000000E+03 0.  0.
        -11    1    3    3    0    0 -0.58456444986E+02 -0.18149566412E+02 -0.41995962147E+01  0.61353071072E+02  0.51100000000E-03 0. -1.
         23    2    1    0    0    0 -0.26925145536E+02 -0.80400438864E+01  0.65130057503E+01  0.96155156236E+02  0.91726708537E+02 0.  0.
         11    1    3    3    0    0  0.31531299449E+02  0.10109522525E+02  0.10712601965E+02  0.34802085164E+02  0.51100000000E-03 0.  1.
         22    1    1    0    0    0  0.26925145536E+02  0.80400438864E+01 -0.65130057503E+01  0.28844843764E+02  0.00000000000E+00 0. -1.
</event>
<event>
 5    1  0.1692178E-003  0.9118800E+02  0.7818608E-02  0.1130116E+00
         25   -1    0    0    0    0  0.00000000000E+00  0.00000000000E+00  0.99999998245E-14  0.12500000000E+03  0.12500000000E+03 0.  0.
        -11    1    3    3    0    0  0.12223039008E+02  0.55123026690E+02 -0.25181050548E+02  0.61822617714E+02  0.51100000000E-03 0. -1.
         23    2    1    0    0    0  0.69660577587E+01  0.28372505224E+02 -0.59501389496E+01  0.95185084825E+02  0.90395083972E+02 0.  0.
         11    1    3    3    0    0 -0.52569812492E+01 -0.26750521466E+02  0.19230911599E+02  0.33362467111E+02  0.51100000000E-03 0.  1.
         22    1    1    0    0    0 -0.69660577587E+01 -0.28372505224E+02  0.59501389496E+01  0.29814915175E+02  0.00000000000E+00 0. -1.
</event>
<event>
 5    1  0.1692178E-003  0.9118800E+02  0.7818608E-02  0.1130116E+00
         25   -1    0    0    0    0  0.00000000000E+00  0.00000000000E+00  0.99999998245E-14  0.12500000000E+03  0.12500000000E+03 0.  0.
        -11    1    3    3    0    0 -0.37376156786E+02 -0.19151951469E+02 -0.34360302894E+02  0.54262369617E+02  0.51100000000E-03 0.  1.
         23    2    1    0    0    0 -0.14094151803E+02 -0.64972465185E+01 -0.40641946982E+02  0.81495664793E+02  0.68912380587E+02 0.  0.
         11    1    3    3    0    0  0.23282004983E+02  0.12654704951E+02 -0.62816440878E+01  0.27233295176E+02  0.51100000000E-03 0. -1.
         22    1    1    0    0    0  0.14094151803E+02  0.64972465185E+01  0.40641946982E+02  0.43504335207E+02  0.00000000000E+00 0.  1.
</event>
<event>
 5    1  0.1692178E-003  0.9118800E+02  0.7818608E-02  0.1130116E+00
         25   -1    0    0    0    0  0.00000000000E+00  0.00000000000E+00  0.99999998245E-14  0.12500000000E+03  0.12500000000E+03 0.  0.
        -11    1    3    3    0    0  0.50719106020E+02 -0.10517511629E+02 -0.28058098074E+02  0.58909274602E+02  0.51100000000E-03 0. -1.
         23    2    1    0    0    0  0.12937136961E+02 -0.89461529638E+01 -0.23108358476E+02  0.97046477914E+02  0.92933414219E+02 0.  0.
         11    1    3    3    0    0 -0.37781969060E+02  0.15713586656E+01  0.49497395983E+01  0.38137203312E+02  0.51100000000E-03 0.  1.
         22    1    1    0    0    0 -0.12937136961E+02  0.89461529638E+01  0.23108358476E+02  0.27953522086E+02  0.00000000000E+00 0. -1.
</event>
<event>
 5    1  0.1692178E-003  0.9118800E+02  0.7818608E-02  0.1130116E+00
         25   -1    0    0    0    0  0.00000000000E+00  0.00000000000E+00  0.99999998245E-14  0.12500000000E+03  0.12500000000E+03 0.  0.
        -11    1    3    3    0    0  0.74747129632E+01 -0.26205350083E+02  0.18228623487E+02  0.32785277509E+02  0.51100000000E-03 0.  1.
         23    2    1    0    0    0  0.25597659413E+01  0.25838380823E+02 -0.15274742471E+02  0.94875390745E+02  0.89965813986E+02 0.  0.
         11    1    3    3    0    0 -0.49149470219E+01  0.52043730906E+02 -0.33503365958E+02  0.62090113236E+02  0.51100000000E-03 0. -1.
         22    1    1    0    0    0 -0.25597659413E+01 -0.25838380823E+02  0.15274742471E+02  0.30124609255E+02  0.00000000000E+00 0. -1.
</event>
<event>
 5    1  0.1692178E-003  0.9118800E+02  0.7818608E-02  0.1130116E+00
         25   -1    0    0    0    0  0.00000000000E+00  0.00000000000E+00  0.99999998245E-14  0.12500000000E+03  0.12500000000E+03 0.  0.
        -11    1    3    3    0    0  0.31575334923E+02 -0.65805229426E+01  0.24114934675E+02  0.40272014257E+02  0.51100000000E-03 0. -1.
         23    2    1    0    0    0  0.69088910068E+01 -0.53796573735E+01 -0.26770671780E+02  0.96833666267E+02  0.92646729930E+02 0.  0.
         11    1    3    3    0    0 -0.24666443916E+02  0.12008655690E+01 -0.50885606455E+02  0.56561652010E+02  0.51100000000E-03 0.  1.
         22    1    1    0    0    0 -0.69088910068E+01  0.53796573735E+01  0.26770671780E+02  0.28166333733E+02  0.00000000000E+00 0.  1.
</event>
<event>
 5    1  0.1692178E-003  0.9118800E+02  0.7818608E-02  0.1130116E+00
         25   -1    0    0    0    0  0.00000000000E+00  0.00000000000E+00  0.99999998245E-14  0.12500000000E+03  0.12500000000E+03 0.  0.
        -11    1    3    3    0    0 -0.27606489815E+02  0.24308764208E+01  0.10609939383E+02  0.29674875805E+02  0.51100000000E-03 0. -1.
         23    2    1    0    0    0  0.21899932731E+02  0.40088499555E+01 -0.25631494439E+02  0.91049279260E+02  0.84482659849E+02 0.  0.
         11    1    3    3    0    0  0.49506422546E+02  0.15779735348E+01 -0.36241433822E+02  0.61374403455E+02  0.51100000000E-03 0.  1.
         22    1    1    0    0    0 -0.21899932731E+02 -0.40088499555E+01  0.25631494439E+02  0.33950720740E+02  0.00000000000E+00 0.  1.
</event>
<event>
 5    1  0.1692178E-003  0.9118800E+02  0.7818608E-02  0.1130116E+00
         25   -1    0    0    0    0  0.00000000000E+00  0.00000000000E+00  0.99999998245E-14  0.12500000000E+03  0.12500000000E+03 0.  0.
        -11    1    3    3    0    0 -0.14795404832E+02 -0.39197280860E+02 -0.23888201738E+02  0.48228383899E+02  0.51100000000E-03 0. -1.
         23    2    1    0    0    0  0.47879978750E+01  0.21046966146E+01 -0.30181099505E+02  0.94369077082E+02  0.89259561228E+02 0.  0.
         11    1    3    3    0    0  0.19583402707E+02  0.41301977474E+02 -0.62928977666E+01  0.46140693183E+02  0.51100000000E-03 0.  1.
         22    1    1    0    0    0 -0.47879978750E+01 -0.21046966146E+01  0.30181099505E+02  0.30630922918E+02  0.00000000000E+00 0. -1.
</event>
<event>
 5    1  0.1692178E-003  0.9118800E+02  0.7818608E-02  0.1130116E+00
         25   -1    0    0    0    0  0.00000000000E+00  0.00000000000E+00  0.99999998245E-14  0.12500000000E+03  0.12500000000E+03 0.  0.
        -11    1    3    3    0    0  0.36857003961E+02  0.36651480070E+02  0.58010408476E+01  0.52301260095E+02  0.51100000000E-03 0. -1.
         23    2    1    0    0    0  0.30114122925E+02  0.35207854664E+01 -0.14131304178E+02  0.91549288683E+02  0.85219259389E+02 0.  0.
         11    1    3    3    0    0 -0.67428810365E+01 -0.33130694604E+02 -0.19932345025E+02  0.39248028589E+02  0.51100000000E-03 0.  1.
         22    1    1    0    0    0 -0.30114122925E+02 -0.35207854664E+01  0.14131304178E+02  0.33450711317E+02  0.00000000000E+00 0. -1.
</event>
<event>
 5    1  0.1692178E-003  0.9118800E+02  0.7818608E-02  0.1130116E+00
         25   -1    0    0    0    0  0.00000000000E+00  0.00000000000E+00  0.99999998245E-14  0.12500000000E+03  0.12500000000E+03 0.  0.
        -11    1    3    3    0    0  0.15056920208E+02 -0.58806124035E+02 -0.93700007108E+01  0.61422048026E+02  0.51100000000E-03 0.  1.
         23    2    1    0    0    0 -0.62291015218E+00 -0.30601841905E+02 -0.41320453118E+01  0.94114169211E+02  0.88901868950E+02 0.  0.
         11    1    3    3    0    0 -0.15679830360E+02  0.28204282129E+02  0.52379553990E+01  0.32692121185E+02  0.51100000000E-03 0. -1.
         22    1    1    0    0    0  0.62291015218E+00  0.30601841905E+02  0.41320453118E+01  0.30885830789E+02  0.00000000000E+00 0.  1.
</event>
<event>
 5    1  0.1692178E-003  0.9118800E+02  0.7818608E-02  0.1130116E+00
         25   -1    0    0    0    0  0.00000000000E+00  0.00000000000E+00  0.99999998245E-14  0.12500000000E+03  0.12500000000E+03 0.  0.
        -11    1    3    3    0    0 -0.31476700302E+02  0.21708619580E+02 -0.20290071191E+02  0.43286647077E+02  0.51100000000E-03 0.  1.
         23    2    1    0    0    0  0.20594991014E+02  0.49245699206E+01 -0.16550098670E+02  0.98124159367E+02  0.94371816988E+02 0.  0.
         11    1    3    3    0    0  0.52071691316E+02 -0.16784049659E+02  0.37399725209E+01  0.54837512290E+02  0.51100000000E-03 0. -1.
         22    1    1    0    0    0 -0.20594991014E+02 -0.49245699206E+01  0.16550098670E+02  0.26875840633E+02  0.00000000000E+00 0. -1.
</event>
<event>
 5    1  0.1692178E-003  0.9118800E+02  0.7818608E-02  0.1130116E+00
         25   -1    0    0    0    0  0.00000000000E+00  0.00000000000E+00  0.99999998245E-14  0.12500000000E+03  0.12500000000E+03 0.  0.
        -11    1    3    3    0    0  0.50007108177E+02  0.27077364091E+02  0.98339427973E+01  0.57711358896E+02  0.51100000000E-03 0. -1.
         23    2    1    0    0    0  0.28009162104E+02  0.11748018944E+01 -0.76677302166E+01  0.95936493537E+02  0.91428241721E+02 0.  0.
         11    1    3    3    0    0 -0.21997946073E+02 -0.25902562197E+02 -0.17501673014E+02  0.38225134641E+02  0.51100000000E-03 0.  1.
         22    1    1    0    0    0 -0.28009162104E+02 -0.11748018944E+01  0.76677302166E+01  0.29063506463E+02  0.00000000000E+00 0. -1.
</event>
<event>
 5    1  0.1692178E-003  0.9118800E+02  0.7818608E-02  0.1130116E+00
         25   -1    0    0    0    0  0.00000000000E+00  0.00000000000E+00  0.99999998245E-14  0.12500000000E+03  0.12500000000E+03 0.  0.
        -11    1    3    3    0    0  0.79646131699E+01  0.23361112824E+02 -0.45924784063E+02  0.52136958550E+02  0.51100000000E-03 0.  1.
         23    2    1    0    0    0 -0.20959127159E+02  0.14191068058E+02 -0.14456723812E+02  0.95850929908E+02  0.91311184840E+02 0.  0.
         11    1    3    3    0    0 -0.28923740329E+02 -0.91700447665E+01  0.31468060251E+02  0.43713971358E+02  0.51100000000E-03 0. -1.
         22    1    1    0    0    0  0.20959127159E+02 -0.14191068058E+02  0.14456723812E+02  0.29149070092E+02  0.00000000000E+00 0.  1.
</event>
<event>
 5    1  0.1692178E-003  0.9118800E+02  0.7818608E-02  0.1130116E+00
         25   -1    0    0    0    0  0.00000000000E+00  0.00000000000E+00  0.99999998245E-14  0.12500000000E+03  0.12500000000E+03 0.  0.
        -11    1    3    3    0    0  0.67506383125E+01 -0.30921222938E+02 -0.53647143829E+02  0.62287311604E+02  0.51100000000E-03 0. -1.
         23    2    1    0    0    0  0.32375479482E+01 -0.11207192556E+02 -0.26724076342E+02  0.95840796683E+02  0.91297311959E+02 0.  0.
         11    1    3    3    0    0 -0.35130903642E+01  0.19714030382E+02  0.26923067486E+02  0.33553485079E+02  0.51100000000E-03 0.  1.
         22    1    1    0    0    0 -0.32375479482E+01  0.11207192556E+02  0.26724076342E+02  0.29159203317E+02  0.00000000000E+00 0. -1.
</event>
<event>
 5    1  0.1692178E-003  0.9118800E+02  0.7818608E-02  0.1130116E+00
         25   -1    0    0    0    0  0.00000000000E+00  0.00000000000E+00  0.99999998245E-14  0.12500000000E+03  0.12500000000E+03 0.  0.
        -11    1    3    3    0    0 -0.24979007495E+02  0.25807080034E+02  0.65429651899E+01  0.36507075876E+02  0.51100000000E-03 0.  1.
         23    2    1    0    0    0  0.22437340469E+02 -0.95835175788E+01  0.15125015780E+02  0.96293830648E+02  0.91915491959E+02 0.  0.
         11    1    3    3    0    0  0.47416347964E+02 -0.35390597613E+02  0.85820505902E+01  0.59786754772E+02  0.51100000000E-03 0. -1.
         22    1    1    0    0    0 -0.22437340469E+02  0.95835175788E+01 -0.15125015780E+02  0.28706169352E+02  0.00000000000E+00 0. -1.
</event>
<event>
 5    1  0.1692178E-003  0.9118800E+02  0.7818608E-02  0.1130116E+00
         25   -1    0    0    0    0  0.00000000000E+00  0.00000000000E+00  0.99999998245E-14  0.12500000000E+03  0.12500000000E+03 0.  0.
        -11    1    3    3    0    0  0.68957644346E+01 -0.23729697022E+02 -0.23170369112E+02  0.33875006907E+02  0.51100000000E-03 0.  1.
         23    2    1    0    0    0 -0.12341330875E+02  0.18397094678E+02  0.18472630488E+02  0.96155596427E+02  0.91727308402E+02 0.  0.
         11    1    3    3    0    0 -0.19237095309E+02  0.42126791701E+02  0.41642999600E+02  0.62280589519E+02  0.51100000000E-03 0. -1.
         22    1    1    0    0    0  0.12341330875E+02 -0.18397094678E+02 -0.18472630488E+02  0.28844403573E+02  0.00000000000E+00 0. -1.
</event>
<event>
 5    1  0.1692178E-003  0.9118800E+02  0.7818608E-02  0.1130116E+00
         25   -1    0    0    0    0  0.00000000000E+00  0.00000000000E+00  0.99999998245E-14  0.12500000000E+03  0.12500000000E+03 0.  0.
        -11    1    3    3    0    0  0.31030567387E+02 -0.40972840597E+02 -0.13797381389E+02  0.53216891232E+02  0.51100000000E-03 0. -1.
         23    2    1    0    0    0 -0.49004745743E+01 -0.19963400585E+02 -0.21175232921E+02  0.95488264991E+02  0.90813359413E+02 0.  0.
         11    1    3    3    0    0 -0.35931041961E+02  0.21009440012E+02 -0.73778515311E+01  0.42271373759E+02  0.51100000000E-03 0.  1.
         22    1    1    0    0    0  0.49004745743E+01  0.19963400585E+02  0.21175232921E+02  0.29511735009E+02  0.00000000000E+00 0. -1.
</event>
<event>
 5    1  0.1692178E-003  0.9118800E+02  0.7818608E-02  0.1130116E+00
         25   -1    0    0    0    0  0.00000000000E+00  0.00000000000E+00  0.99999998245E-14  0.12500000000E+03  0.12500000000E+03 0.  0.
        -11    1    3    3    0    0  0.76564126707E+01 -0.59330078082E+02  0.82559455958E+01  0.60389067373E+02  0.51100000000E-03 0. -1.
         23    2    1    0    0    0 -0.78204108989E+01 -0.25792654453E+02  0.10131873875E+01  0.98028785733E+02  0.94245405370E+02 0.  0.
         11    1    3    3    0    0 -0.15476823570E+02  0.33537423630E+02 -0.72427582083E+01  0.37639718360E+02  0.51100000000E-03 0.  1.
         22    1    1    0    0    0  0.78204108989E+01  0.25792654453E+02 -0.10131873875E+01  0.26971214267E+02  0.00000000000E+00 0. -1.
</event>
<event>
 5    1  0.1692178E-003  0.9118800E+02  0.7818608E-02  0.1130116E+00
         25   -1    0    0    0    0  0.00000000000E+00  0.00000000000E+00  0.99999998245E-14  0.12500000000E+03  0.12500000000E+03 0.  0.
        -11    1    3    3    0    0  0.54139661265E+02  0.75626459176E+01 -0.24229242751E+02  0.59794253401E+02  0.51100000000E-03 0. -1.
         23    2    1    0    0    0  0.30797733549E+02 -0.87833913732E+01 -0.13545378561E+02  0.90227516107E+02  0.83257906692E+02 0.  0.
         11    1    3    3    0    0 -0.23341927717E+02 -0.16346037291E+02  0.10683864190E+02  0.30433262706E+02  0.51100000000E-03 0.  1.
         22    1    1    0    0    0 -0.30797733549E+02  0.87833913732E+01  0.13545378561E+02  0.34772483893E+02  0.00000000000E+00 0. -1.
</event>
<event>
 5    1  0.1692178E-003  0.9118800E+02  0.7818608E-02  0.1130116E+00
         25   -1    0    0    0    0  0.00000000000E+00  0.00000000000E+00  0.99999998245E-14  0.12500000000E+03  0.12500000000E+03 0.  0.
        -11    1    3    3    0    0  0.10038618714E+02  0.38309163059E+02  0.19994961934E+01  0.39653043076E+02  0.51100000000E-03 0.  1.
         23    2    1    0    0    0 -0.70012713465E+01 -0.70225453981E+01 -0.27093783548E+02  0.96148534677E+02  0.91717684605E+02 0.  0.
         11    1    3    3    0    0 -0.17039890061E+02 -0.45331708457E+02 -0.29093279741E+02  0.56495491601E+02  0.51100000000E-03 0. -1.
         22    1    1    0    0    0  0.70012713465E+01  0.70225453981E+01  0.27093783548E+02  0.28851465323E+02  0.00000000000E+00 0. -1.
</event>
<event>
 5    1  0.1692178E-003  0.9118800E+02  0.7818608E-02  0.1130116E+00
         25   -1    0    0    0    0  0.00000000000E+00  0.00000000000E+00  0.99999998245E-14  0.12500000000E+03  0.12500000000E+03 0.  0.
        -11    1    3    3    0    0 -0.41613778670E+01  0.19381229579E+02  0.33412215119E+02  0.38850035330E+02  0.51100000000E-03 0.  1.
         23    2    1    0    0    0 -0.26274915498E+02 -0.65550033751E+01 -0.11791955963E+02  0.95463759902E+02  0.90779623130E+02 0.  0.
         11    1    3    3    0    0 -0.22113537631E+02 -0.25936232954E+02 -0.45204171082E+02  0.56613724572E+02  0.51100000000E-03 0. -1.
         22    1    1    0    0    0  0.26274915498E+02  0.65550033751E+01  0.11791955963E+02  0.29536240098E+02  0.00000000000E+00 0. -1.
</event>
<event>
 5    1  0.1692178E-003  0.9118800E+02  0.7818608E-02  0.1130116E+00
         25   -1    0    0    0    0  0.00000000000E+00  0.00000000000E+00  0.99999998245E-14  0.12500000000E+03  0.12500000000E+03 0.  0.
        -11    1    3    3    0    0  0.14605222257E+02  0.20788854426E+02 -0.26251573171E+02  0.36532644029E+02  0.51100000000E-03 0.  1.
         23    2    1    0    0    0 -0.30219935806E+02 -0.21577391952E+01  0.26384994040E+01  0.94588455520E+02  0.89566254136E+02 0.  0.
         11    1    3    3    0    0 -0.44825158063E+02 -0.22946593621E+02  0.28890072575E+02  0.58055811491E+02  0.51100000000E-03 0. -1.
         22    1    1    0    0    0  0.30219935806E+02  0.21577391952E+01 -0.26384994040E+01  0.30411544480E+02  0.00000000000E+00 0. -1.
</event>
<event>
 5    1  0.1692178E-003  0.9118800E+02  0.7818608E-02  0.1130116E+00
         25   -1    0    0    0    0  0.00000000000E+00  0.00000000000E+00  0.99999998245E-14  0.12500000000E+03  0.12500000000E+03 0.  0.
        -11    1    3    3    0    0 -0.15257426477E+02  0.33092467280E+02  0.16296821550E+02  0.39918502555E+02  0.51100000000E-03 0. -1.
         23    2    1    0    0    0 -0.16568076138E+02 -0.22321292265E+02  0.87380313339E+01  0.95860775115E+02  0.91324661395E+02 0.  0.
         11    1    3    3    0    0 -0.13106496611E+01 -0.55413759545E+02 -0.75587902158E+01  0.55942272560E+02  0.51100000000E-03 0.  1.
         22    1    1    0    0    0  0.16568076138E+02  0.22321292265E+02 -0.87380313339E+01  0.29139224885E+02  0.00000000000E+00 0.  1.
</event>
<event>
 5    1  0.1692178E-003  0.9118800E+02  0.7818608E-02  0.1130116E+00
         25   -1    0    0    0    0  0.00000000000E+00  0.00000000000E+00  0.99999998245E-14  0.12500000000E+03  0.12500000000E+03 0.  0.
        -11    1    3    3    0    0  0.13798249776E+02  0.32094906439E+02  0.16540436568E+02  0.38653082132E+02  0.51100000000E-03 0.  1.
         23    2    1    0    0    0  0.15176278452E+02 -0.24076426772E+02  0.35935314601E+01  0.96313640487E+02  0.91942428301E+02 0.  0.
         11    1    3    3    0    0  0.13780286756E+01 -0.56171333211E+02 -0.12946905107E+02  0.57660558355E+02  0.51100000000E-03 0. -1.
         22    1    1    0    0    0 -0.15176278452E+02  0.24076426772E+02 -0.35935314601E+01  0.28686359513E+02  0.00000000000E+00 0. -1.
</event>
<event>
 5    1  0.1692178E-003  0.9118800E+02  0.7818608E-02  0.1130116E+00
         25   -1    0    0    0    0  0.00000000000E+00  0.00000000000E+00  0.99999998245E-14  0.12500000000E+03  0.12500000000E+03 0.  0.
        -11    1    3    3    0    0  0.27653951271E+02  0.26914506817E+02  0.15367833024E+02  0.41536754690E+02  0.51100000000E-03 0.  1.
         23    2    1    0    0    0 -0.33318943979E+01  0.93573587811E+01 -0.26615722167E+02  0.96591227585E+02  0.92319049477E+02 0.  0.
         11    1    3    3    0    0 -0.30985845669E+02 -0.17557148035E+02 -0.41983555191E+02  0.55054472895E+02  0.51100000000E-03 0. -1.
         22    1    1    0    0    0  0.33318943979E+01 -0.93573587811E+01  0.26615722167E+02  0.28408772415E+02  0.00000000000E+00 0. -1.
</event>
<event>
 5    1  0.1692178E-003  0.9118800E+02  0.7818608E-02  0.1130116E+00
         25   -1    0    0    0    0  0.00000000000E+00  0.00000000000E+00  0.99999998245E-14  0.12500000000E+03  0.12500000000E+03 0.  0.
        -11    1    3    3    0    0  0.82116458008E+01 -0.27432566438E+02 -0.27806970268E+02  0.39914964911E+02  0.51100000000E-03 0. -1.
         23    2    1    0    0    0 -0.29225285254E+02 -0.96143735232E+01  0.62922118187E+01  0.93597047814E+02  0.88171775266E+02 0.  0.
         11    1    3    3    0    0 -0.37436931055E+02  0.17818192915E+02  0.34099182086E+02  0.53682082903E+02  0.51100000000E-03 0.  1.
         22    1    1    0    0    0  0.29225285254E+02  0.96143735232E+01 -0.62922118187E+01  0.31402952186E+02  0.00000000000E+00 0.  1.
</event>
<event>
 5    1  0.1692178E-003  0.9118800E+02  0.7818608E-02  0.1130116E+00
         25   -1    0    0    0    0  0.00000000000E+00  0.00000000000E+00  0.99999998245E-14  0.12500000000E+03  0.12500000000E+03 0.  0.
        -11    1    3    3    0    0 -0.30247851634E+01 -0.21487702502E+02  0.48624488723E+02  0.53246704949E+02  0.51100000000E-03 0.  1.
         23    2    1    0    0    0  0.21446628523E+02 -0.16251500342E+02  0.18825943132E+02  0.92159700471E+02  0.86109959457E+02 0.  0.
         11    1    3    3    0    0  0.24471413686E+02  0.52362021600E+01 -0.29798545591E+02  0.38912995522E+02  0.51100000000E-03 0. -1.
         22    1    1    0    0    0 -0.21446628523E+02  0.16251500342E+02 -0.18825943132E+02  0.32840299529E+02  0.00000000000E+00 0. -1.
</event>
<event>
 5    1  0.1692178E-003  0.9118800E+02  0.7818608E-02  0.1130116E+00
         25   -1    0    0    0    0  0.00000000000E+00  0.00000000000E+00  0.99999998245E-14  0.12500000000E+03  0.12500000000E+03 0.  0.
        -11    1    3    3    0    0 -0.36437496820E+02  0.36900089509E+02  0.29888426367E+02  0.59855039982E+02  0.51100000000E-03 0.  1.
         23    2    1    0    0    0 -0.21511342922E+02  0.15817397388E+02  0.14704547238E+01  0.98258830027E+02  0.94550026477E+02 0.  0.
         11    1    3    3    0    0  0.14926153898E+02 -0.21082692121E+02 -0.28417971643E+02  0.38403790045E+02  0.51100000000E-03 0. -1.
         22    1    1    0    0    0  0.21511342922E+02 -0.15817397388E+02 -0.14704547238E+01  0.26741169973E+02  0.00000000000E+00 0.  1.
</event>
<event>
 5    1  0.1692178E-003  0.9118800E+02  0.7818608E-02  0.1130116E+00
         25   -1    0    0    0    0  0.00000000000E+00  0.00000000000E+00  0.99999998245E-14  0.12500000000E+03  0.12500000000E+03 0.  0.
        -11    1    3    3    0    0 -0.35667392214E+02 -0.18052013187E+02 -0.30096120817E+02  0.50038130820E+02  0.51100000000E-03 0. -1.
         23    2    1    0    0    0  0.35555826181E+01  0.71851671085E+01 -0.27059865898E+02  0.96777577416E+02  0.92571023295E+02 0.  0.
         11    1    3    3    0    0  0.39222974832E+02  0.25237180295E+02  0.30362549199E+01  0.46739446596E+02  0.51100000000E-03 0.  1.
         22    1    1    0    0    0 -0.35555826181E+01 -0.71851671085E+01  0.27059865898E+02  0.28222422584E+02  0.00000000000E+00 0. -1.
</event>
<event>
 5    1  0.1692178E-003  0.9118800E+02  0.7818608E-02  0.1130116E+00
         25   -1    0    0    0    0  0.00000000000E+00  0.00000000000E+00  0.99999998245E-14  0.12500000000E+03  0.12500000000E+03 0.  0.
        -11    1    3    3    0    0 -0.31929589455E+02 -0.31546396795E+02 -0.17741675106E+02  0.48264281507E+02  0.51100000000E-03 0. -1.
         23    2    1    0    0    0  0.13111153048E+02 -0.17616367752E+02 -0.19767630174E+02  0.95453461290E+02  0.90765441235E+02 0.  0.
         11    1    3    3    0    0  0.45040742504E+02  0.13930029043E+02 -0.20259550688E+01  0.47189179783E+02  0.51100000000E-03 0.  1.
         22    1    1    0    0    0 -0.13111153048E+02  0.17616367752E+02  0.19767630174E+02  0.29546538710E+02  0.00000000000E+00 0.  1.
</event>
<event>
 5    1  0.1692178E-003  0.9118800E+02  0.7818608E-02  0.1130116E+00
         25   -1    0    0    0    0  0.00000000000E+00  0.00000000000E+00  0.99999998245E-14  0.12500000000E+03  0.12500000000E+03 0.  0.
        -11    1    3    3    0    0 -0.83705460443E+01 -0.45724280090E+02  0.18930978041E+01  0.46522678882E+02  0.51100000000E-03 0.  1.
         23    2    1    0    0    0 -0.24521407849E+02  0.21706965940E+01  0.11262730869E+02  0.97928604150E+02  0.94112438272E+02 0.  0.
         11    1    3    3    0    0 -0.16150861805E+02  0.47894976684E+02  0.93696330651E+01  0.51405925268E+02  0.51100000000E-03 0. -1.
         22    1    1    0    0    0  0.24521407849E+02 -0.21706965940E+01 -0.11262730869E+02  0.27071395850E+02  0.00000000000E+00 0.  1.
</event>
<event>
 5    1  0.1692178E-003  0.9118800E+02  0.7818608E-02  0.1130116E+00
         25   -1    0    0    0    0  0.00000000000E+00  0.00000000000E+00  0.99999998245E-14  0.12500000000E+03  0.12500000000E+03 0.  0.
        -11    1    3    3    0    0 -0.41757483306E+02 -0.93149023324E+01 -0.20388057983E+02  0.47393329974E+02  0.51100000000E-03 0. -1.
         23    2    1    0    0    0 -0.92432063407E+01  0.25365768748E+02 -0.10986432208E+02  0.95852774055E+02  0.91313709342E+02 0.  0.
         11    1    3    3    0    0  0.32514276965E+02  0.34680671080E+02  0.94016257747E+01  0.48459444081E+02  0.51100000000E-03 0.  1.
         22    1    1    0    0    0  0.92432063407E+01 -0.25365768748E+02  0.10986432208E+02  0.29147225945E+02  0.00000000000E+00 0.  1.
</event>
<event>
 5    1  0.1692178E-003  0.9118800E+02  0.7818608E-02  0.1130116E+00
         25   -1    0    0    0    0  0.00000000000E+00  0.00000000000E+00  0.99999998245E-14  0.12500000000E+03  0.12500000000E+03 0.  0.
        -11    1    3    3    0    0 -0.52351281830E+02 -0.19996764949E+02  0.25671462407E+02  0.61640500485E+02  0.51100000000E-03 0. -1.
         23    2    1    0    0    0 -0.27540036941E+02 -0.88234568987E+01  0.53787824588E+01  0.95585066257E+02  0.90946503859E+02 0.  0.
         11    1    3    3    0    0  0.24811244888E+02  0.11173308050E+02 -0.20292679949E+02  0.33944565772E+02  0.51100000000E-03 0.  1.
         22    1    1    0    0    0  0.27540036941E+02  0.88234568987E+01 -0.53787824588E+01  0.29414933743E+02  0.00000000000E+00 0. -1.
</event>
<event>
 5    1  0.1692178E-003  0.9118800E+02  0.7818608E-02  0.1130116E+00
         25   -1    0    0    0    0  0.00000000000E+00  0.00000000000E+00  0.99999998245E-14  0.12500000000E+03  0.12500000000E+03 0.  0.
        -11    1    3    3    0    0  0.25458304945E+01 -0.58511427118E+02 -0.12990800740E+02  0.59990243044E+02  0.51100000000E-03 0.  1.
         23    2    1    0    0    0  0.91683144214E+00 -0.24428962994E+02 -0.18221266545E+02  0.94510176003E+02  0.89456939366E+02 0.  0.
         11    1    3    3    0    0 -0.16289990523E+01  0.34082464124E+02 -0.52304658048E+01  0.34519932959E+02  0.51100000000E-03 0. -1.
         22    1    1    0    0    0 -0.91683144214E+00  0.24428962994E+02  0.18221266545E+02  0.30489823997E+02  0.00000000000E+00 0.  1.
</event>
<event>
 5    1  0.1692178E-003  0.9118800E+02  0.7818608E-02  0.1130116E+00
         25   -1    0    0    0    0  0.00000000000E+00  0.00000000000E+00  0.99999998245E-14  0.12500000000E+03  0.12500000000E+03 0.  0.
        -11    1    3    3    0    0 -0.24720739904E+02  0.14441397973E+02 -0.19423347646E+01  0.28695672521E+02  0.51100000000E-03 0. -1.
         23    2    1    0    0    0  0.28143355378E+02 -0.18707362326E+02 -0.27087441361E+01  0.91097918177E+02  0.84554595051E+02 0.  0.
         11    1    3    3    0    0  0.52864095282E+02 -0.33148760299E+02 -0.76640937147E+00  0.62402245656E+02  0.51100000000E-03 0.  1.
         22    1    1    0    0    0 -0.28143355378E+02  0.18707362326E+02  0.27087441361E+01  0.33902081823E+02  0.00000000000E+00 0.  1.
</event>
<event>
 5    1  0.1692178E-003  0.9118800E+02  0.7818608E-02  0.1130116E+00
         25   -1    0    0    0    0  0.00000000000E+00  0.00000000000E+00  0.99999998245E-14  0.12500000000E+03  0.12500000000E+03 0.  0.
        -11    1    3    3    0    0  0.20660392613E+02  0.11595937448E+02 -0.26986468429E+02  0.35910821026E+02  0.51100000000E-03 0. -1.
         23    2    1    0    0    0 -0.15012956387E+02 -0.81955844051E+01  0.20360162270E+02  0.98408785833E+02  0.94748068361E+02 0.  0.
         11    1    3    3    0    0 -0.35673349000E+02 -0.19791521854E+02  0.47346630699E+02  0.62497964807E+02  0.51100000000E-03 0.  1.
         22    1    1    0    0    0  0.15012956387E+02  0.81955844051E+01 -0.20360162270E+02  0.26591214167E+02  0.00000000000E+00 0.  1.
</event>
<event>
 5    1  0.1692178E-003  0.9118800E+02  0.7818608E-02  0.1130116E+00
         25   -1    0    0    0    0  0.00000000000E+00  0.00000000000E+00  0.99999998245E-14  0.12500000000E+03  0.12500000000E+03 0.  0.
        -11    1    3    3    0    0 -0.48469799122E+02  0.15861669203E+02  0.11369148072E+02  0.52251043100E+02  0.51100000000E-03 0. -1.
         23    2    1    0    0    0 -0.22111501064E+02 -0.18301752281E+02  0.48188220928E+01  0.95895126487E+02  0.91371667500E+02 0.  0.
         11    1    3    3    0    0  0.26358298059E+02 -0.34163421484E+02 -0.65503259794E+01  0.43644083387E+02  0.51100000000E-03 0.  1.
         22    1    1    0    0    0  0.22111501064E+02  0.18301752281E+02 -0.48188220928E+01  0.29104873513E+02  0.00000000000E+00 0. -1.
</event>
<event>
 5    1  0.1692178E-003  0.9118800E+02  0.7818608E-02  0.1130116E+00
         25   -1    0    0    0    0  0.00000000000E+00  0.00000000000E+00  0.99999998245E-14  0.12500000000E+03  0.12500000000E+03 0.  0.
        -11    1    3    3    0    0 -0.13305531194E+02  0.40418739732E+02 -0.23627318565E+02  0.48671982338E+02  0.51100000000E-03 0.  1.
         23    2    1    0    0    0 -0.27111056470E+02  0.22903096056E+01  0.36574797355E+01  0.97547640192E+02  0.93605074905E+02 0.  0.
         11    1    3    3    0    0 -0.13805525277E+02 -0.38128430126E+02  0.27284798301E+02  0.48875657854E+02  0.51100000000E-03 0. -1.
         22    1    1    0    0    0  0.27111056470E+02 -0.22903096056E+01 -0.36574797355E+01  0.27452359808E+02  0.00000000000E+00 0. -1.
</event>
<event>
 5    1  0.1692178E-003  0.9118800E+02  0.7818608E-02  0.1130116E+00
         25   -1    0    0    0    0  0.00000000000E+00  0.00000000000E+00  0.99999998245E-14  0.12500000000E+03  0.12500000000E+03 0.  0.
        -11    1    3    3    0    0  0.33871866249E+02  0.20541222622E+02 -0.10365186157E+02  0.40947310465E+02  0.51100000000E-03 0. -1.
         23    2    1    0    0    0 -0.16167702926E+02  0.21167146892E+02  0.12030697487E+02  0.95773635062E+02  0.91205311060E+02 0.  0.
         11    1    3    3    0    0 -0.50039569175E+02  0.62592426961E+00  0.22395883644E+02  0.54826324597E+02  0.51100000000E-03 0.  1.
         22    1    1    0    0    0  0.16167702926E+02 -0.21167146892E+02 -0.12030697487E+02  0.29226364938E+02  0.00000000000E+00 0.  1.
</event>
<event>
 5    1  0.1692178E-003  0.9118800E+02  0.7818608E-02  0.1130116E+00
         25   -1    0    0    0    0  0.00000000000E+00  0.00000000000E+00  0.99999998245E-14  0.12500000000E+03  0.12500000000E+03 0.  0.
        -11    1    3    3    0    0  0.99694240977E+01  0.21621926741E+02  0.55341804562E+02  0.60246265156E+02  0.51100000000E-03 0.  1.
         23    2    1    0    0    0 -0.34626229378E+01 -0.36037848966E+01  0.94646555103E+01  0.11429688236E+03  0.11379464219E+03 0.  0.
         11    1    3    3    0    0 -0.13432047035E+02 -0.25225711637E+02 -0.45877149052E+02  0.54050617208E+02  0.51100000000E-03 0. -1.
         22    1    1    0    0    0  0.34626229378E+01  0.36037848966E+01 -0.94646555103E+01  0.10703117635E+02  0.00000000000E+00 0.  1.
</event>
<event>
 5    1  0.1692178E-003  0.9118800E+02  0.7818608E-02  0.1130116E+00
         25   -1    0    0    0    0  0.00000000000E+00  0.00000000000E+00  0.99999998245E-14  0.12500000000E+03  0.12500000000E+03 0.  0.
        -11    1    3    3    0    0  0.46974912503E+02  0.99176062723E+01 -0.32189439500E+02  0.57802779643E+02  0.51100000000E-03 0.  1.
         23    2    1    0    0    0  0.29156346456E+02 -0.26470800866E+01 -0.11929158102E+01  0.95699443354E+02  0.91103572040E+02 0.  0.
         11    1    3    3    0    0 -0.17818566047E+02 -0.12564686359E+02  0.30996523690E+02  0.37896663711E+02  0.51100000000E-03 0. -1.
         22    1    1    0    0    0 -0.29156346456E+02  0.26470800866E+01  0.11929158102E+01  0.29300556646E+02  0.00000000000E+00 0.  1.
</event>
<event>
 5    1  0.1692178E-003  0.9118800E+02  0.7818608E-02  0.1130116E+00
         25   -1    0    0    0    0  0.00000000000E+00  0.00000000000E+00  0.99999998245E-14  0.12500000000E+03  0.12500000000E+03 0.  0.
        -11    1    3    3    0    0  0.31828076122E+02  0.33696287418E+02  0.13647158507E+02  0.48318848817E+02  0.51100000000E-03 0.  1.
         23    2    1    0    0    0  0.27269708039E+02 -0.11811265981E+02  0.49911969310E+01  0.94866048593E+02  0.89952832909E+02 0.  0.
         11    1    3    3    0    0 -0.45583680838E+01 -0.45507553399E+02 -0.86559615757E+01  0.46547199776E+02  0.51100000000E-03 0. -1.
         22    1    1    0    0    0 -0.27269708039E+02  0.11811265981E+02 -0.49911969310E+01  0.30133951407E+02  0.00000000000E+00 0. -1.
</event>
<event>
 5    1  0.1692178E-003  0.9118800E+02  0.7818608E-02  0.1130116E+00
         25   -1    0    0    0    0  0.00000000000E+00  0.00000000000E+00  0.99999998245E-14  0.12500000000E+03  0.12500000000E+03 0.  0.
        -11    1    3    3    0    0 -0.50151402105E+01  0.54511390566E+01 -0.44269529403E+02  0.44884939370E+02  0.51100000000E-03 0.  1.
         23    2    1    0    0    0 -0.35802479095E+01 -0.30133180670E+02 -0.26628320735E+02  0.84628051601E+02  0.74377502649E+02 0.  0.
         11    1    3    3    0    0  0.14348923011E+01 -0.35584319726E+02  0.17641208668E+02  0.39743112231E+02  0.51100000000E-03 0. -1.
         22    1    1    0    0    0  0.35802479095E+01  0.30133180670E+02  0.26628320735E+02  0.40371948399E+02  0.00000000000E+00 0.  1.
</event>
<event>
 5    1  0.1692178E-003  0.9118800E+02  0.7818608E-02  0.1130116E+00
         25   -1    0    0    0    0  0.00000000000E+00  0.00000000000E+00  0.99999998245E-14  0.12500000000E+03  0.12500000000E+03 0.  0.
        -11    1    3    3    0    0  0.30508674027E+02  0.30933521263E+02  0.10063841673E+02  0.44597565383E+02  0.51100000000E-03 0.  1.
         23    2    1    0    0    0  0.12341996377E+02 -0.11323892910E+02  0.26675138098E+02  0.93502088676E+02  0.88037049980E+02 0.  0.
         11    1    3    3    0    0 -0.18166677650E+02 -0.42257414173E+02  0.16611296424E+02  0.48904523293E+02  0.51100000000E-03 0. -1.
         22    1    1    0    0    0 -0.12341996377E+02  0.11323892910E+02 -0.26675138098E+02  0.31497911324E+02  0.00000000000E+00 0.  1.
</event>
<event>
 5    1  0.1692178E-003  0.9118800E+02  0.7818608E-02  0.1130116E+00
         25   -1    0    0    0    0  0.00000000000E+00  0.00000000000E+00  0.99999998245E-14  0.12500000000E+03  0.12500000000E+03 0.  0.
        -11    1    3    3    0    0 -0.63876978223E+00 -0.82384529322E+01  0.36294841233E+02  0.37223589751E+02  0.51100000000E-03 0.  1.
         23    2    1    0    0    0 -0.11440195636E+02  0.26378585917E+02 -0.86509681034E+01  0.94974225733E+02  0.90103032320E+02 0.  0.
         11    1    3    3    0    0 -0.10801425854E+02  0.34617038850E+02 -0.44945809336E+02  0.57750635982E+02  0.51100000000E-03 0. -1.
         22    1    1    0    0    0  0.11440195636E+02 -0.26378585917E+02  0.86509681034E+01  0.30025774267E+02  0.00000000000E+00 0. -1.
</event>
<event>
 5    1  0.1692178E-003  0.9118800E+02  0.7818608E-02  0.1130116E+00
         25   -1    0    0    0    0  0.00000000000E+00  0.00000000000E+00  0.99999998245E-14  0.12500000000E+03  0.12500000000E+03 0.  0.
        -11    1    3    3    0    0 -0.40747358695E+02  0.25927196459E+02 -0.36374583390E+02  0.60462195411E+02  0.51100000000E-03 0.  1.
         23    2    1    0    0    0 -0.34448064006E+02  0.11986112797E+02 -0.18139595137E+02  0.84264500427E+02  0.73763982449E+02 0.  0.
         11    1    3    3    0    0  0.62992946891E+01 -0.13941083662E+02  0.18234988253E+02  0.23802305016E+02  0.51100000000E-03 0. -1.
         22    1    1    0    0    0  0.34448064006E+02 -0.11986112797E+02  0.18139595137E+02  0.40735499573E+02  0.00000000000E+00 0.  1.
</event>
<event>
 5    1  0.1692178E-003  0.9118800E+02  0.7818608E-02  0.1130116E+00
         25   -1    0    0    0    0  0.00000000000E+00  0.00000000000E+00  0.99999998245E-14  0.12500000000E+03  0.12500000000E+03 0.  0.
        -11    1    3    3    0    0 -0.17720782733E+02  0.34305369838E+02  0.73790601138E+01  0.39310750042E+02  0.51100000000E-03 0. -1.
         23    2    1    0    0    0  0.16176425317E+02  0.15700365221E+01 -0.24064326155E+02  0.95961516155E+02  0.91462446057E+02 0.  0.
         11    1    3    3    0    0  0.33897208050E+02 -0.32735333316E+02 -0.31443386269E+02  0.56650766113E+02  0.51100000000E-03 0.  1.
         22    1    1    0    0    0 -0.16176425317E+02 -0.15700365221E+01  0.24064326155E+02  0.29038483845E+02  0.00000000000E+00 0.  1.
</event>
<event>
 5    1  0.1692178E-003  0.9118800E+02  0.7818608E-02  0.1130116E+00
         25   -1    0    0    0    0  0.00000000000E+00  0.00000000000E+00  0.99999998245E-14  0.12500000000E+03  0.12500000000E+03 0.  0.
        -11    1    3    3    0    0  0.34003610289E+02  0.99019531959E+01 -0.24636804350E+02  0.43142395838E+02  0.51100000000E-03 0.  1.
         23    2    1    0    0    0 -0.16908710032E+02 -0.34962350867E+01 -0.23548826469E+02  0.95799394479E+02  0.91240608392E+02 0.  0.
         11    1    3    3    0    0 -0.50912320321E+02 -0.13398188283E+02  0.10879778815E+01  0.52656998641E+02  0.51100000000E-03 0. -1.
         22    1    1    0    0    0  0.16908710032E+02  0.34962350867E+01  0.23548826469E+02  0.29200605521E+02  0.00000000000E+00 0.  1.
</event>
<event>
 5    1  0.1692178E-003  0.9118800E+02  0.7818608E-02  0.1130116E+00
         25   -1    0    0    0    0  0.00000000000E+00  0.00000000000E+00  0.99999998245E-14  0.12500000000E+03  0.12500000000E+03 0.  0.
        -11    1    3    3    0    0 -0.28340420055E+02  0.61702027139E+01 -0.47488688828E+02  0.55645542295E+02  0.51100000000E-03 0.  1.
         23    2    1    0    0    0  0.63664983820E+01  0.42331103122E+00 -0.28840710821E+02  0.95461921279E+02  0.90777091381E+02 0.  0.
         11    1    3    3    0    0  0.34706918437E+02 -0.57468916827E+01  0.18647978006E+02  0.39816378984E+02  0.51100000000E-03 0. -1.
         22    1    1    0    0    0 -0.63664983820E+01 -0.42331103122E+00  0.28840710821E+02  0.29538078721E+02  0.00000000000E+00 0.  1.
</event>
<event>
 5    1  0.1692178E-003  0.9118800E+02  0.7818608E-02  0.1130116E+00
         25   -1    0    0    0    0  0.00000000000E+00  0.00000000000E+00  0.99999998245E-14  0.12500000000E+03  0.12500000000E+03 0.  0.
        -11    1    3    3    0    0  0.65119568059E+01 -0.24330971285E+02  0.27829307131E+02  0.37534944795E+02  0.51100000000E-03 0.  1.
         23    2    1    0    0    0  0.10500249693E+02  0.27604272158E+02  0.27732189098E+01  0.95336186555E+02  0.90603789317E+02 0.  0.
         11    1    3    3    0    0  0.39882928867E+01  0.51935243444E+02 -0.25056088221E+02  0.57801241759E+02  0.51100000000E-03 0. -1.
         22    1    1    0    0    0 -0.10500249693E+02 -0.27604272158E+02 -0.27732189098E+01  0.29663813445E+02  0.00000000000E+00 0. -1.
</event>
<event>
 5    1  0.1692178E-003  0.9118800E+02  0.7818608E-02  0.1130116E+00
         25   -1    0    0    0    0  0.00000000000E+00  0.00000000000E+00  0.99999998245E-14  0.12500000000E+03  0.12500000000E+03 0.  0.
        -11    1    3    3    0    0 -0.55969729865E+02  0.11438685497E+02 -0.23202796470E+02  0.61658932454E+02  0.51100000000E-03 0. -1.
         23    2    1    0    0    0 -0.26270493866E+02  0.10458011327E+02 -0.56689084301E+01  0.96161737714E+02  0.91735676966E+02 0.  0.
         11    1    3    3    0    0  0.29699235999E+02 -0.98067416969E+00  0.17533888040E+02  0.34502805260E+02  0.51100000000E-03 0.  1.
         22    1    1    0    0    0  0.26270493866E+02 -0.10458011327E+02  0.56689084301E+01  0.28838262286E+02  0.00000000000E+00 0. -1.
</event>
<event>
 5    1  0.1692178E-003  0.9118800E+02  0.7818608E-02  0.1130116E+00
         25   -1    0    0    0    0  0.00000000000E+00  0.00000000000E+00  0.99999998245E-14  0.12500000000E+03  0.12500000000E+03 0.  0.
        -11    1    3    3    0    0 -0.13529031957E+02  0.25327631649E+02 -0.13399703582E+02  0.31687153343E+02  0.51100000000E-03 0.  1.
         23    2    1    0    0    0 -0.16925241481E+02 -0.30962228861E+02  0.27056933829E+00  0.89712656334E+02  0.82481295356E+02 0.  0.
         11    1    3    3    0    0 -0.33962095242E+01 -0.56289860510E+02  0.13670272920E+02  0.58025502991E+02  0.51100000000E-03 0. -1.
         22    1    1    0    0    0  0.16925241481E+02  0.30962228861E+02 -0.27056933829E+00  0.35287343666E+02  0.00000000000E+00 0. -1.
</event>
<event>
 5    1  0.1692178E-003  0.9118800E+02  0.7818608E-02  0.1130116E+00
         25   -1    0    0    0    0  0.00000000000E+00  0.00000000000E+00  0.99999998245E-14  0.12500000000E+03  0.12500000000E+03 0.  0.
        -11    1    3    3    0    0  0.12550607161E+02 -0.18249276227E+02  0.35054823356E+02  0.41465581676E+02  0.51100000000E-03 0.  1.
         23    2    1    0    0    0  0.18653499485E+02 -0.13820181000E+02 -0.18355018458E+02  0.95405116177E+02  0.90698837061E+02 0.  0.
         11    1    3    3    0    0  0.61028923237E+01  0.44290952274E+01 -0.53409841814E+02  0.53939534501E+02  0.51100000000E-03 0. -1.
         22    1    1    0    0    0 -0.18653499485E+02  0.13820181000E+02  0.18355018458E+02  0.29594883823E+02  0.00000000000E+00 0.  1.
</event>
<event>
 5    1  0.1692178E-003  0.9118800E+02  0.7818608E-02  0.1130116E+00
         25   -1    0    0    0    0  0.00000000000E+00  0.00000000000E+00  0.99999998245E-14  0.12500000000E+03  0.12500000000E+03 0.  0.
        -11    1    3    3    0    0  0.21919717772E+02 -0.38931558194E+02  0.34998360663E+02  0.56754079148E+02  0.51100000000E-03 0. -1.
         23    2    1    0    0    0  0.24354247738E+02 -0.57140642456E+01  0.18251642476E+02  0.94033851286E+02  0.88788866540E+02 0.  0.
         11    1    3    3    0    0  0.24345299667E+01  0.33217493949E+02 -0.16746718186E+02  0.37279772138E+02  0.51100000000E-03 0.  1.
         22    1    1    0    0    0 -0.24354247738E+02  0.57140642456E+01 -0.18251642476E+02  0.30966148714E+02  0.00000000000E+00 0. -1.
</event>
<event>
 5    1  0.1692178E-003  0.9118800E+02  0.7818608E-02  0.1130116E+00
         25   -1    0    0    0    0  0.00000000000E+00  0.00000000000E+00  0.99999998245E-14  0.12500000000E+03  0.12500000000E+03 0.  0.
        -11    1    3    3    0    0  0.38359071460E+02  0.15427092669E+02  0.68348726644E+01  0.41906193290E+02  0.51100000000E-03 0. -1.
         23    2    1    0    0    0 -0.14595074084E+02  0.10887628413E+02 -0.16940086799E+02  0.10012987373E+03  0.96992104999E+02 0.  0.
         11    1    3    3    0    0 -0.52954145544E+02 -0.45394642562E+01 -0.23774959463E+02  0.58223680438E+02  0.51100000000E-03 0.  1.
         22    1    1    0    0    0  0.14595074084E+02 -0.10887628413E+02  0.16940086799E+02  0.24870126271E+02  0.00000000000E+00 0.  1.
</event>
<event>
 5    1  0.1692178E-003  0.9118800E+02  0.7818608E-02  0.1130116E+00
         25   -1    0    0    0    0  0.00000000000E+00  0.00000000000E+00  0.99999998245E-14  0.12500000000E+03  0.12500000000E+03 0.  0.
        -11    1    3    3    0    0 -0.14349557854E+02  0.32276775455E+02  0.18959238868E+02  0.40089310085E+02  0.51100000000E-03 0.  1.
         23    2    1    0    0    0 -0.23034272459E+02 -0.19360241268E+02  0.33748721093E+01  0.94721519004E+02  0.89751767398E+02 0.  0.
         11    1    3    3    0    0 -0.86847146051E+01 -0.51637016723E+02 -0.15584366759E+02  0.54632208919E+02  0.51100000000E-03 0. -1.
         22    1    1    0    0    0  0.23034272459E+02  0.19360241268E+02 -0.33748721093E+01  0.30278480996E+02  0.00000000000E+00 0. -1.
</event>
<event>
 5    1  0.1692178E-003  0.9118800E+02  0.7818608E-02  0.1130116E+00
         25   -1    0    0    0    0  0.00000000000E+00  0.00000000000E+00  0.99999998245E-14  0.12500000000E+03  0.12500000000E+03 0.  0.
        -11    1    3    3    0    0  0.88788151524E+01 -0.26879109705E+02 -0.32109787851E+02  0.42806055333E+02  0.51100000000E-03 0. -1.
         23    2    1    0    0    0 -0.19576815871E+02 -0.21043232301E+02  0.10521786964E+02  0.94393181377E+02  0.89293310747E+02 0.  0.
         11    1    3    3    0    0 -0.28455631023E+02  0.58358774035E+01  0.42631574815E+02  0.51587126044E+02  0.51100000000E-03 0.  1.
         22    1    1    0    0    0  0.19576815871E+02  0.21043232301E+02 -0.10521786964E+02  0.30606818623E+02  0.00000000000E+00 0.  1.
</event>
<event>
 5    1  0.1692178E-003  0.9118800E+02  0.7818608E-02  0.1130116E+00
         25   -1    0    0    0    0  0.00000000000E+00  0.00000000000E+00  0.99999998245E-14  0.12500000000E+03  0.12500000000E+03 0.  0.
        -11    1    3    3    0    0 -0.57211046407E+02 -0.17604180042E+02 -0.12118524475E+02  0.61072658544E+02  0.51100000000E-03 0. -1.
         23    2    1    0    0    0 -0.28741376875E+02 -0.66916323500E+01  0.34184507761E+01  0.95292585204E+02  0.90543615462E+02 0.  0.
         11    1    3    3    0    0  0.28469669532E+02  0.10912547692E+02  0.15536975251E+02  0.34219926660E+02  0.51100000000E-03 0.  1.
         22    1    1    0    0    0  0.28741376875E+02  0.66916323500E+01 -0.34184507761E+01  0.29707414796E+02  0.00000000000E+00 0. -1.
</event>
<event>
 5    1  0.1692178E-003  0.9118800E+02  0.7818608E-02  0.1130116E+00
         25   -1    0    0    0    0  0.00000000000E+00  0.00000000000E+00  0.99999998245E-14  0.12500000000E+03  0.12500000000E+03 0.  0.
        -11    1    3    3    0    0  0.21274820014E+02 -0.71868293360E+00 -0.28963026939E+02  0.35944281903E+02  0.51100000000E-03 0. -1.
         23    2    1    0    0    0  0.14002246329E+02 -0.34775897199E+02  0.79340213938E+01  0.86680623390E+02  0.77750600304E+02 0.  0.
         11    1    3    3    0    0 -0.72725736847E+01 -0.34057214266E+02  0.36897048333E+02  0.50736341487E+02  0.51100000000E-03 0.  1.
         22    1    1    0    0    0 -0.14002246329E+02  0.34775897199E+02 -0.79340213938E+01  0.38319376610E+02  0.00000000000E+00 0.  1.
</event>
<event>
 5    1  0.1692178E-003  0.9118800E+02  0.7818608E-02  0.1130116E+00
         25   -1    0    0    0    0  0.00000000000E+00  0.00000000000E+00  0.99999998245E-14  0.12500000000E+03  0.12500000000E+03 0.  0.
        -11    1    3    3    0    0 -0.85360510040E+01  0.29364394908E+02  0.30600439204E+02  0.43261053325E+02  0.51100000000E-03 0. -1.
         23    2    1    0    0    0 -0.10667058609E+02 -0.21443667269E+02  0.16101763199E+02  0.96140274024E+02  0.91706425652E+02 0.  0.
         11    1    3    3    0    0 -0.21310076046E+01 -0.50808062177E+02 -0.14498676005E+02  0.52879220699E+02  0.51100000000E-03 0.  1.
         22    1    1    0    0    0  0.10667058609E+02  0.21443667269E+02 -0.16101763199E+02  0.28859725976E+02  0.00000000000E+00 0. -1.
</event>
<event>
 5    1  0.1692178E-003  0.9118800E+02  0.7818608E-02  0.1130116E+00
         25   -1    0    0    0    0  0.00000000000E+00  0.00000000000E+00  0.99999998245E-14  0.12500000000E+03  0.12500000000E+03 0.  0.
        -11    1    3    3    0    0 -0.16767584839E+02  0.21213958040E+02  0.35708204823E+02  0.44791291665E+02  0.51100000000E-03 0.  1.
         23    2    1    0    0    0 -0.24006118838E+02 -0.18035751619E+02  0.64231749905E+01  0.94294312333E+02  0.89154798431E+02 0.  0.
         11    1    3    3    0    0 -0.72385339986E+01 -0.39249709659E+02 -0.29285029832E+02  0.49503020669E+02  0.51100000000E-03 0. -1.
         22    1    1    0    0    0  0.24006118838E+02  0.18035751619E+02 -0.64231749905E+01  0.30705687667E+02  0.00000000000E+00 0. -1.
</event>
<event>
 5    1  0.1692178E-003  0.9118800E+02  0.7818608E-02  0.1130116E+00
         25   -1    0    0    0    0  0.00000000000E+00  0.00000000000E+00  0.99999998245E-14  0.12500000000E+03  0.12500000000E+03 0.  0.
        -11    1    3    3    0    0  0.27677908702E+02  0.39850760407E+02  0.38990519630E+02  0.62244761678E+02  0.51100000000E-03 0.  1.
         23    2    1    0    0    0  0.94861791792E+01  0.20470253017E+02  0.19002617728E+02  0.95502231703E+02  0.90832581851E+02 0.  0.
         11    1    3    3    0    0 -0.18191729523E+02 -0.19380507390E+02 -0.19987901902E+02  0.33257470024E+02  0.51100000000E-03 0. -1.
         22    1    1    0    0    0 -0.94861791792E+01 -0.20470253017E+02 -0.19002617728E+02  0.29497768297E+02  0.00000000000E+00 0.  1.
</event>
<event>
 5    1  0.1692178E-003  0.9118800E+02  0.7818608E-02  0.1130116E+00
         25   -1    0    0    0    0  0.00000000000E+00  0.00000000000E+00  0.99999998245E-14  0.12500000000E+03  0.12500000000E+03 0.  0.
        -11    1    3    3    0    0 -0.29265807612E+02 -0.14069839597E+02 -0.14709096529E+02  0.35648357640E+02  0.51100000000E-03 0. -1.
         23    2    1    0    0    0  0.22489498557E+02  0.14021796455E+02 -0.15020591591E+02  0.94536801007E+02  0.89494135292E+02 0.  0.
         11    1    3    3    0    0  0.51755306169E+02  0.28091636052E+02 -0.31149506227E+00  0.58888443367E+02  0.51100000000E-03 0.  1.
         22    1    1    0    0    0 -0.22489498557E+02 -0.14021796455E+02  0.15020591591E+02  0.30463198993E+02  0.00000000000E+00 0.  1.
</event>
<event>
 5    1  0.1692178E-003  0.9118800E+02  0.7818608E-02  0.1130116E+00
         25   -1    0    0    0    0  0.00000000000E+00  0.00000000000E+00  0.99999998245E-14  0.12500000000E+03  0.12500000000E+03 0.  0.
        -11    1    3    3    0    0 -0.15565047524E+02 -0.23839279340E+02 -0.19843412283E+02  0.34703644696E+02  0.51100000000E-03 0. -1.
         23    2    1    0    0    0  0.28914857566E+02  0.10434279233E+02  0.17195541675E-02  0.94260071989E+02  0.89106778627E+02 0.  0.
         11    1    3    3    0    0  0.44479905090E+02  0.34273558573E+02  0.19845131837E+02  0.59556427293E+02  0.51100000000E-03 0.  1.
         22    1    1    0    0    0 -0.28914857566E+02 -0.10434279233E+02 -0.17195541675E-02  0.30739928011E+02  0.00000000000E+00 0.  1.
</event>
<event>
 5    1  0.1692178E-003  0.9118800E+02  0.7818608E-02  0.1130116E+00
         25   -1    0    0    0    0  0.00000000000E+00  0.00000000000E+00  0.99999998245E-14  0.12500000000E+03  0.12500000000E+03 0.  0.
        -11    1    3    3    0    0 -0.11143671657E+02  0.41437786585E+02  0.23777408640E+02  0.49057484006E+02  0.51100000000E-03 0.  1.
         23    2    1    0    0    0  0.78198351754E+01  0.21342131315E+02 -0.15794676201E+02  0.97321340576E+02  0.93302385521E+02 0.  0.
         11    1    3    3    0    0  0.18963506832E+02 -0.20095655270E+02 -0.39572084841E+02  0.48263856570E+02  0.51100000000E-03 0. -1.
         22    1    1    0    0    0 -0.78198351754E+01 -0.21342131315E+02  0.15794676201E+02  0.27678659424E+02  0.00000000000E+00 0.  1.
</event>
<event>
 5    1  0.1692178E-003  0.9118800E+02  0.7818608E-02  0.1130116E+00
         25   -1    0    0    0    0  0.00000000000E+00  0.00000000000E+00  0.99999998245E-14  0.12500000000E+03  0.12500000000E+03 0.  0.
        -11    1    3    3    0    0 -0.13917746472E+02  0.27016796182E+02  0.38900605480E+02  0.49364643722E+02  0.51100000000E-03 0.  1.
         23    2    1    0    0    0  0.20011580011E+02  0.19940238113E+02  0.84163730374E+01  0.95522690665E+02  0.90860732256E+02 0.  0.
         11    1    3    3    0    0  0.33929326484E+02 -0.70765580693E+01 -0.30484232442E+02  0.46158046943E+02  0.51100000000E-03 0. -1.
         22    1    1    0    0    0 -0.20011580011E+02 -0.19940238113E+02 -0.84163730374E+01  0.29477309335E+02  0.00000000000E+00 0.  1.
</event>
<event>
 5    1  0.1692178E-003  0.9118800E+02  0.7818608E-02  0.1130116E+00
         25   -1    0    0    0    0  0.00000000000E+00  0.00000000000E+00  0.99999998245E-14  0.12500000000E+03  0.12500000000E+03 0.  0.
        -11    1    3    3    0    0  0.32368085322E+02  0.35351704345E+02  0.24962389870E+02  0.54042176637E+02  0.51100000000E-03 0.  1.
         23    2    1    0    0    0  0.15417866141E+02 -0.48092461357E+01  0.21964908215E+02  0.97736532912E+02  0.93856982841E+02 0.  0.
         11    1    3    3    0    0 -0.16950219181E+02 -0.40160950480E+02 -0.29974816546E+01  0.43694356275E+02  0.51100000000E-03 0. -1.
         22    1    1    0    0    0 -0.15417866141E+02  0.48092461357E+01 -0.21964908215E+02  0.27263467088E+02  0.00000000000E+00 0. -1.
</event>
<event>
 5    1  0.1692178E-003  0.9118800E+02  0.7818608E-02  0.1130116E+00
         25   -1    0    0    0    0  0.00000000000E+00  0.00000000000E+00  0.99999998245E-14  0.12500000000E+03  0.12500000000E+03 0.  0.
        -11    1    3    3    0    0  0.80702615762E+01 -0.14850489586E+02  0.51025122749E+02  0.53751551742E+02  0.51100000000E-03 0.  1.
         23    2    1    0    0    0  0.24018123028E+02 -0.11640414599E+02  0.12586425074E+02  0.95490889848E+02  0.90816972323E+02 0.  0.
         11    1    3    3    0    0  0.15947861452E+02  0.32100749863E+01 -0.38438697675E+02  0.41739338106E+02  0.51100000000E-03 0. -1.
         22    1    1    0    0    0 -0.24018123028E+02  0.11640414599E+02 -0.12586425074E+02  0.29509110152E+02  0.00000000000E+00 0.  1.
</event>
<event>
 5    1  0.1692178E-003  0.9118800E+02  0.7818608E-02  0.1130116E+00
         25   -1    0    0    0    0  0.00000000000E+00  0.00000000000E+00  0.99999998245E-14  0.12500000000E+03  0.12500000000E+03 0.  0.
        -11    1    3    3    0    0 -0.55276252471E+02  0.14225779156E+02 -0.18483006320E+02  0.59995486520E+02  0.51100000000E-03 0.  1.
         23    2    1    0    0    0 -0.32329858211E+02  0.13754904086E+02  0.62562636740E+00  0.89860157560E+02  0.82704530649E+02 0.  0.
         11    1    3    3    0    0  0.22946394260E+02 -0.47087506941E+00  0.19108632688E+02  0.29864671040E+02  0.51100000000E-03 0. -1.
         22    1    1    0    0    0  0.32329858211E+02 -0.13754904086E+02 -0.62562636740E+00  0.35139842440E+02  0.00000000000E+00 0.  1.
</event>
<event>
 5    1  0.1692178E-003  0.9118800E+02  0.7818608E-02  0.1130116E+00
         25   -1    0    0    0    0  0.00000000000E+00  0.00000000000E+00  0.99999998245E-14  0.12500000000E+03  0.12500000000E+03 0.  0.
        -11    1    3    3    0    0 -0.35707120871E+02  0.13246176235E+02 -0.38128644355E+02  0.53891123447E+02  0.51100000000E-03 0.  1.
         23    2    1    0    0    0 -0.41917854454E+01  0.14312355228E+02 -0.36618972095E+02  0.85460605788E+02  0.75763787174E+02 0.  0.
         11    1    3    3    0    0  0.31515335426E+02  0.10661789929E+01  0.15096722601E+01  0.31569482341E+02  0.51100000000E-03 0. -1.
         22    1    1    0    0    0  0.41917854454E+01 -0.14312355228E+02  0.36618972095E+02  0.39539394212E+02  0.00000000000E+00 0.  1.
</event>
<event>
 5    1  0.1692178E-003  0.9118800E+02  0.7818608E-02  0.1130116E+00
         25   -1    0    0    0    0  0.00000000000E+00  0.00000000000E+00  0.99999998245E-14  0.12500000000E+03  0.12500000000E+03 0.  0.
        -11    1    3    3    0    0 -0.53149413576E+02 -0.14372048038E+02 -0.11988329294E+02  0.56348344854E+02  0.51100000000E-03 0. -1.
         23    2    1    0    0    0 -0.18725247098E+02 -0.21261505540E+02  0.63634634922E+01  0.95962435290E+02  0.91463702213E+02 0.  0.
         11    1    3    3    0    0  0.34424166478E+02 -0.68894575015E+01  0.18351792786E+02  0.39614090436E+02  0.51100000000E-03 0.  1.
         22    1    1    0    0    0  0.18725247098E+02  0.21261505540E+02 -0.63634634922E+01  0.29037564710E+02  0.00000000000E+00 0. -1.
</event>
<event>
 5    1  0.1692178E-003  0.9118800E+02  0.7818608E-02  0.1130116E+00
         25   -1    0    0    0    0  0.00000000000E+00  0.00000000000E+00  0.99999998245E-14  0.12500000000E+03  0.12500000000E+03 0.  0.
        -11    1    3    3    0    0  0.43667760745E+02 -0.95844729572E+01  0.24922844270E+02  0.51184798692E+02  0.51100000000E-03 0.  1.
         23    2    1    0    0    0  0.74707523025E+01  0.13289548701E+02  0.26933859335E+02  0.94050734688E+02  0.88812632390E+02 0.  0.
         11    1    3    3    0    0 -0.36197008443E+02  0.22874021658E+02  0.20110150658E+01  0.42865935997E+02  0.51100000000E-03 0. -1.
         22    1    1    0    0    0 -0.74707523025E+01 -0.13289548701E+02 -0.26933859335E+02  0.30949265312E+02  0.00000000000E+00 0.  1.
</event>
<event>
 5    1  0.1692178E-003  0.9118800E+02  0.7818608E-02  0.1130116E+00
         25   -1    0    0    0    0  0.00000000000E+00  0.00000000000E+00  0.99999998245E-14  0.12500000000E+03  0.12500000000E+03 0.  0.
        -11    1    3    3    0    0  0.49395968586E+02 -0.12531463104E+02 -0.18290440220E+02  0.54143692927E+02  0.51100000000E-03 0. -1.
         23    2    1    0    0    0  0.19300384442E+02  0.16207786254E+02 -0.14485026806E+02  0.95930889651E+02  0.91420579810E+02 0.  0.
         11    1    3    3    0    0 -0.30095584143E+02  0.28739249358E+02  0.38054134132E+01  0.41787196725E+02  0.51100000000E-03 0.  1.
         22    1    1    0    0    0 -0.19300384442E+02 -0.16207786254E+02  0.14485026806E+02  0.29069110349E+02  0.00000000000E+00 0. -1.
</event>
<event>
 5    1  0.1692178E-003  0.9118800E+02  0.7818608E-02  0.1130116E+00
         25   -1    0    0    0    0  0.00000000000E+00  0.00000000000E+00  0.99999998245E-14  0.12500000000E+03  0.12500000000E+03 0.  0.
        -11    1    3    3    0    0 -0.51800318253E+01  0.56779810927E+02  0.11035531628E+02  0.58073768753E+02  0.51100000000E-03 0.  1.
         23    2    1    0    0    0 -0.58179829648E+01  0.23931945303E+02 -0.11403189553E+02  0.97859261916E+02  0.94020292910E+02 0.  0.
         11    1    3    3    0    0 -0.63795113949E+00 -0.32847865623E+02 -0.22438721181E+02  0.39785493162E+02  0.51100000000E-03 0. -1.
         22    1    1    0    0    0  0.58179829648E+01 -0.23931945303E+02  0.11403189553E+02  0.27140738084E+02  0.00000000000E+00 0.  1.
</event>
<event>
 5    1  0.1692178E-003  0.9118800E+02  0.7818608E-02  0.1130116E+00
         25   -1    0    0    0    0  0.00000000000E+00  0.00000000000E+00  0.99999998245E-14  0.12500000000E+03  0.12500000000E+03 0.  0.
        -11    1    3    3    0    0 -0.21646642834E+02  0.25333401871E+02 -0.25096584774E+01  0.33416414862E+02  0.51100000000E-03 0. -1.
         23    2    1    0    0    0  0.21872285795E+02 -0.19298619498E+02  0.50812904510E+00  0.95826522395E+02  0.91277766180E+02 0.  0.
         11    1    3    3    0    0  0.43518928629E+02 -0.44632021369E+02  0.30177875225E+01  0.62410107533E+02  0.51100000000E-03 0.  1.
         22    1    1    0    0    0 -0.21872285795E+02  0.19298619498E+02 -0.50812904510E+00  0.29173477605E+02  0.00000000000E+00 0.  1.
</event>
<event>
 5    1  0.1692178E-003  0.9118800E+02  0.7818608E-02  0.1130116E+00
         25   -1    0    0    0    0  0.00000000000E+00  0.00000000000E+00  0.99999998245E-14  0.12500000000E+03  0.12500000000E+03 0.  0.
        -11    1    3    3    0    0 -0.23809256597E+02  0.13008436695E+02 -0.22855514552E+02  0.35474986549E+02  0.51100000000E-03 0.  1.
         23    2    1    0    0    0  0.30688394970E+01 -0.14827414637E+02  0.24234806605E+02  0.96423858696E+02  0.92092153161E+02 0.  0.
         11    1    3    3    0    0  0.26878096094E+02 -0.27835851333E+02  0.47090321156E+02  0.60948872147E+02  0.51100000000E-03 0. -1.
         22    1    1    0    0    0 -0.30688394970E+01  0.14827414637E+02 -0.24234806605E+02  0.28576141304E+02  0.00000000000E+00 0. -1.
</event>
<event>
 5    1  0.1692178E-003  0.9118800E+02  0.7818608E-02  0.1130116E+00
         25   -1    0    0    0    0  0.00000000000E+00  0.00000000000E+00  0.99999998245E-14  0.12500000000E+03  0.12500000000E+03 0.  0.
        -11    1    3    3    0    0 -0.29199325915E+02 -0.35012953600E+02 -0.60188314815E+01  0.45986235836E+02  0.51100000000E-03 0. -1.
         23    2    1    0    0    0  0.88191687898E+01 -0.14667216390E+02 -0.26287216829E+02  0.93632457167E+02  0.88221960371E+02 0.  0.
         11    1    3    3    0    0  0.38018494705E+02  0.20345737210E+02 -0.20268385348E+02  0.47646221331E+02  0.51100000000E-03 0.  1.
         22    1    1    0    0    0 -0.88191687898E+01  0.14667216390E+02  0.26287216829E+02  0.31367542833E+02  0.00000000000E+00 0. -1.
</event>
<event>
 5    1  0.1692178E-003  0.9118800E+02  0.7818608E-02  0.1130116E+00
         25   -1    0    0    0    0  0.00000000000E+00  0.00000000000E+00  0.99999998245E-14  0.12500000000E+03  0.12500000000E+03 0.  0.
        -11    1    3    3    0    0 -0.40986447631E+02 -0.25891168539E+01  0.29298654076E+02  0.50448028172E+02  0.51100000000E-03 0.  1.
         23    2    1    0    0    0  0.57095264919E+01 -0.59331665426E+01  0.26391537300E+02  0.97353763384E+02  0.93345813222E+02 0.  0.
         11    1    3    3    0    0  0.46695974123E+02 -0.33440496887E+01 -0.29071167765E+01  0.46905735212E+02  0.51100000000E-03 0. -1.
         22    1    1    0    0    0 -0.57095264919E+01  0.59331665426E+01 -0.26391537300E+02  0.27646236616E+02  0.00000000000E+00 0.  1.
</event>
<event>
 5    1  0.1692178E-003  0.9118800E+02  0.7818608E-02  0.1130116E+00
         25   -1    0    0    0    0  0.00000000000E+00  0.00000000000E+00  0.99999998245E-14  0.12500000000E+03  0.12500000000E+03 0.  0.
        -11    1    3    3    0    0 -0.49258737623E+02 -0.13701434230E+01 -0.20557080953E+02  0.53393764643E+02  0.51100000000E-03 0. -1.
         23    2    1    0    0    0 -0.17159103269E+02  0.19579293425E+02  0.36239537615E+01  0.98714707594E+02  0.95150811339E+02 0.  0.
         11    1    3    3    0    0  0.32099634354E+02  0.20949436848E+02  0.24181034714E+02  0.45320942951E+02  0.51100000000E-03 0.  1.
         22    1    1    0    0    0  0.17159103269E+02 -0.19579293425E+02 -0.36239537615E+01  0.26285292406E+02  0.00000000000E+00 0. -1.
</event>
<event>
 5    1  0.1692178E-003  0.9118800E+02  0.7818608E-02  0.1130116E+00
         25   -1    0    0    0    0  0.00000000000E+00  0.00000000000E+00  0.99999998245E-14  0.12500000000E+03  0.12500000000E+03 0.  0.
        -11    1    3    3    0    0  0.39924447750E+02  0.23007151565E+01 -0.10156096108E+02  0.41260163679E+02  0.51100000000E-03 0. -1.
         23    2    1    0    0    0 -0.13135585127E+02 -0.17850288307E+02 -0.15022287351E+02  0.98226029310E+02  0.94506652292E+02 0.  0.
         11    1    3    3    0    0 -0.53060032878E+02 -0.20151003463E+02 -0.48661912433E+01  0.56965865631E+02  0.51100000000E-03 0.  1.
         22    1    1    0    0    0  0.13135585127E+02  0.17850288307E+02  0.15022287351E+02  0.26773970690E+02  0.00000000000E+00 0.  1.
</event>
<event>
 5    1  0.1692178E-003  0.9118800E+02  0.7818608E-02  0.1130116E+00
         25   -1    0    0    0    0  0.00000000000E+00  0.00000000000E+00  0.99999998245E-14  0.12500000000E+03  0.12500000000E+03 0.  0.
        -11    1    3    3    0    0 -0.50660622781E+02  0.31801189179E+02 -0.10109377325E+02  0.60663117657E+02  0.51100000000E-03 0.  1.
         23    2    1    0    0    0 -0.27830354655E+02  0.16523624283E+02  0.53652638114E+01  0.92192304936E+02  0.86157276152E+02 0.  0.
         11    1    3    3    0    0  0.22830268126E+02 -0.15277564896E+02  0.15474641137E+02  0.31529187278E+02  0.51100000000E-03 0. -1.
         22    1    1    0    0    0  0.27830354655E+02 -0.16523624283E+02 -0.53652638114E+01  0.32807695064E+02  0.00000000000E+00 0.  1.
</event>
<event>
 5    1  0.1692178E-003  0.9118800E+02  0.7818608E-02  0.1130116E+00
         25   -1    0    0    0    0  0.00000000000E+00  0.00000000000E+00  0.99999998245E-14  0.12500000000E+03  0.12500000000E+03 0.  0.
        -11    1    3    3    0    0 -0.48145150926E+01  0.19911092266E+02  0.28936159254E+02  0.35453243341E+02  0.51100000000E-03 0. -1.
         23    2    1    0    0    0  0.17640151916E+02 -0.84231307111E+00 -0.23169255202E+02  0.95867563824E+02  0.91333952920E+02 0.  0.
         11    1    3    3    0    0  0.22454667009E+02 -0.20753405337E+02 -0.52105414456E+02  0.60414320483E+02  0.51100000000E-03 0.  1.
         22    1    1    0    0    0 -0.17640151916E+02  0.84231307111E+00  0.23169255202E+02  0.29132436176E+02  0.00000000000E+00 0.  1.
</event>
<event>
 5    1  0.1692178E-003  0.9118800E+02  0.7818608E-02  0.1130116E+00
         25   -1    0    0    0    0  0.00000000000E+00  0.00000000000E+00  0.99999998245E-14  0.12500000000E+03  0.12500000000E+03 0.  0.
        -11    1    3    3    0    0  0.30770276070E+02  0.11041922793E+02 -0.40015146946E+02  0.51671519562E+02  0.51100000000E-03 0.  1.
         23    2    1    0    0    0  0.30865904678E+02 -0.13797190994E+02 -0.11971931693E+02  0.89133669000E+02  0.81599125302E+02 0.  0.
         11    1    3    3    0    0  0.95628607947E-01 -0.24839113787E+02  0.28043215253E+02  0.37462149439E+02  0.51100000000E-03 0. -1.
         22    1    1    0    0    0 -0.30865904678E+02  0.13797190994E+02  0.11971931693E+02  0.35866331000E+02  0.00000000000E+00 0.  1.
</event>
<event>
 5    1  0.1692178E-003  0.9118800E+02  0.7818608E-02  0.1130116E+00
         25   -1    0    0    0    0  0.00000000000E+00  0.00000000000E+00  0.99999998245E-14  0.12500000000E+03  0.12500000000E+03 0.  0.
        -11    1    3    3    0    0  0.23096720404E+01  0.36212108246E+02 -0.24686230594E+02  0.43886915473E+02  0.51100000000E-03 0.  1.
         23    2    1    0    0    0 -0.28831494535E+02  0.12144597967E+01 -0.16377305392E+01  0.96096502789E+02  0.91646744062E+02 0.  0.
         11    1    3    3    0    0 -0.31141166576E+02 -0.34997648449E+02  0.23048500055E+02  0.52209587316E+02  0.51100000000E-03 0. -1.
         22    1    1    0    0    0  0.28831494535E+02 -0.12144597967E+01  0.16377305392E+01  0.28903497211E+02  0.00000000000E+00 0. -1.
</event>
<event>
 5    1  0.1692178E-003  0.9118800E+02  0.7818608E-02  0.1130116E+00
         25   -1    0    0    0    0  0.00000000000E+00  0.00000000000E+00  0.99999998245E-14  0.12500000000E+03  0.12500000000E+03 0.  0.
        -11    1    3    3    0    0 -0.32629383242E+02 -0.30712034318E+02 -0.17512574652E+02  0.48110248117E+02  0.51100000000E-03 0.  1.
         23    2    1    0    0    0  0.93309585629E+01 -0.15218741362E+02 -0.25825212611E+02  0.93605438644E+02  0.88183670036E+02 0.  0.
         11    1    3    3    0    0  0.41960341805E+02  0.15493292957E+02 -0.83126379590E+01  0.45495190527E+02  0.51100000000E-03 0. -1.
         22    1    1    0    0    0 -0.93309585629E+01  0.15218741362E+02  0.25825212611E+02  0.31394561356E+02  0.00000000000E+00 0.  1.
</event>
<event>
 5    1  0.1692178E-003  0.9118800E+02  0.7818608E-02  0.1130116E+00
         25   -1    0    0    0    0  0.00000000000E+00  0.00000000000E+00  0.99999998245E-14  0.12500000000E+03  0.12500000000E+03 0.  0.
        -11    1    3    3    0    0  0.14584191226E+02  0.18794467181E+02  0.39732318556E+02  0.46309694109E+02  0.51100000000E-03 0. -1.
         23    2    1    0    0    0 -0.90197212015E+00  0.27437998529E+02 -0.73154921679E+01  0.96589196727E+02  0.92316299654E+02 0.  0.
         11    1    3    3    0    0 -0.15486163346E+02  0.86435313474E+01 -0.47047810724E+02  0.50279502618E+02  0.51100000000E-03 0.  1.
         22    1    1    0    0    0  0.90197212015E+00 -0.27437998529E+02  0.73154921679E+01  0.28410803273E+02  0.00000000000E+00 0.  1.
</event>
<event>
 5    1  0.1692178E-003  0.9118800E+02  0.7818608E-02  0.1130116E+00
         25   -1    0    0    0    0  0.00000000000E+00  0.00000000000E+00  0.99999998245E-14  0.12500000000E+03  0.12500000000E+03 0.  0.
        -11    1    3    3    0    0  0.21537029161E+02  0.19537437615E+01 -0.57185247798E+02  0.61137658655E+02  0.51100000000E-03 0. -1.
         23    2    1    0    0    0  0.18360831918E+02  0.39859343490E+01 -0.24078131299E+02  0.94458810956E+02  0.89385137126E+02 0.  0.
         11    1    3    3    0    0 -0.31761972433E+01  0.20321905875E+01  0.33107116499E+02  0.33321152301E+02  0.51100000000E-03 0.  1.
         22    1    1    0    0    0 -0.18360831918E+02 -0.39859343490E+01  0.24078131299E+02  0.30541189044E+02  0.00000000000E+00 0. -1.
</event>
<event>
 5    1  0.1692178E-003  0.9118800E+02  0.7818608E-02  0.1130116E+00
         25   -1    0    0    0    0  0.00000000000E+00  0.00000000000E+00  0.99999998245E-14  0.12500000000E+03  0.12500000000E+03 0.  0.
        -11    1    3    3    0    0  0.24666989178E+02 -0.24892005653E+02 -0.46194070736E+02  0.57982449689E+02  0.51100000000E-03 0. -1.
         23    2    1    0    0    0  0.19162570030E+01 -0.24680992375E+02 -0.17115255845E+02  0.94904229397E+02  0.90005873971E+02 0.  0.
         11    1    3    3    0    0 -0.22750732175E+02  0.21101327732E+00  0.29078814891E+02  0.36921779708E+02  0.51100000000E-03 0.  1.
         22    1    1    0    0    0 -0.19162570030E+01  0.24680992375E+02  0.17115255845E+02  0.30095770603E+02  0.00000000000E+00 0. -1.
</event>
<event>
 5    1  0.1692178E-003  0.9118800E+02  0.7818608E-02  0.1130116E+00
         25   -1    0    0    0    0  0.00000000000E+00  0.00000000000E+00  0.99999998245E-14  0.12500000000E+03  0.12500000000E+03 0.  0.
        -11    1    3    3    0    0 -0.49194281022E+02 -0.27580035193E+01 -0.35385726454E+02  0.60661631247E+02  0.51100000000E-03 0.  1.
         23    2    1    0    0    0 -0.20518402557E+02  0.92330980323E+01 -0.17255987388E+02  0.96644682271E+02  0.92391398776E+02 0.  0.
         11    1    3    3    0    0  0.28675878465E+02  0.11991101552E+02  0.18129739066E+02  0.35983051024E+02  0.51100000000E-03 0. -1.
         22    1    1    0    0    0  0.20518402557E+02 -0.92330980323E+01  0.17255987388E+02  0.28355317729E+02  0.00000000000E+00 0.  1.
</event>
<event>
 5    1  0.1692178E-003  0.9118800E+02  0.7818608E-02  0.1130116E+00
         25   -1    0    0    0    0  0.00000000000E+00  0.00000000000E+00  0.99999998245E-14  0.12500000000E+03  0.12500000000E+03 0.  0.
        -11    1    3    3    0    0  0.49282090872E+01 -0.25142721491E+02  0.43451866620E+02  0.50443120461E+02  0.51100000000E-03 0. -1.
         23    2    1    0    0    0  0.11677053349E+02 -0.30033240172E+02  0.20108962803E+01  0.92713891625E+02  0.86910718017E+02 0.  0.
         11    1    3    3    0    0  0.67488442619E+01 -0.48905186807E+01 -0.41440970340E+02  0.42270771164E+02  0.51100000000E-03 0.  1.
         22    1    1    0    0    0 -0.11677053349E+02  0.30033240172E+02 -0.20108962803E+01  0.32286108375E+02  0.00000000000E+00 0. -1.
</event>
<event>
 5    1  0.1692178E-003  0.9118800E+02  0.7818608E-02  0.1130116E+00
         25   -1    0    0    0    0  0.00000000000E+00  0.00000000000E+00  0.99999998245E-14  0.12500000000E+03  0.12500000000E+03 0.  0.
        -11    1    3    3    0    0 -0.48237722156E+02 -0.18130682193E+02 -0.72172445708E+00  0.51537562632E+02  0.51100000000E-03 0.  1.
         23    2    1    0    0    0 -0.18939721099E+02  0.18433102833E+02  0.21804030806E+01  0.98481205288E+02  0.94843562365E+02 0.  0.
         11    1    3    3    0    0  0.29298001057E+02  0.36563785026E+02  0.29021275377E+01  0.46943642657E+02  0.51100000000E-03 0. -1.
         22    1    1    0    0    0  0.18939721099E+02 -0.18433102833E+02 -0.21804030806E+01  0.26518794712E+02  0.00000000000E+00 0.  1.
</event>
<event>
 5    1  0.1692178E-003  0.9118800E+02  0.7818608E-02  0.1130116E+00
         25   -1    0    0    0    0  0.00000000000E+00  0.00000000000E+00  0.99999998245E-14  0.12500000000E+03  0.12500000000E+03 0.  0.
        -11    1    3    3    0    0  0.44299336328E+02 -0.12069255646E+01 -0.19662172921E+02  0.48481841061E+02  0.51100000000E-03 0.  1.
         23    2    1    0    0    0  0.56820787458E+01  0.25117750797E+02 -0.14350710372E+02  0.95518983868E+02  0.90855632555E+02 0.  0.
         11    1    3    3    0    0 -0.38617257583E+02  0.26324676362E+02  0.53114625484E+01  0.47037142807E+02  0.51100000000E-03 0. -1.
         22    1    1    0    0    0 -0.56820787458E+01 -0.25117750797E+02  0.14350710372E+02  0.29481016132E+02  0.00000000000E+00 0.  1.
</event>
<event>
 5    1  0.1692178E-003  0.9118800E+02  0.7818608E-02  0.1130116E+00
         25   -1    0    0    0    0  0.00000000000E+00  0.00000000000E+00  0.99999998245E-14  0.12500000000E+03  0.12500000000E+03 0.  0.
        -11    1    3    3    0    0 -0.13897609190E+01 -0.10729081190E+02  0.38858777804E+02  0.40336698319E+02  0.51100000000E-03 0. -1.
         23    2    1    0    0    0 -0.26548190977E+02 -0.27464055784E+01 -0.10507590249E+02  0.96316230363E+02  0.91945949289E+02 0.  0.
         11    1    3    3    0    0 -0.25158430058E+02  0.79826756118E+01 -0.49366368053E+02  0.55979532044E+02  0.51100000000E-03 0.  1.
         22    1    1    0    0    0  0.26548190977E+02  0.27464055784E+01  0.10507590249E+02  0.28683769637E+02  0.00000000000E+00 0.  1.
</event>
<event>
 5    1  0.1692178E-003  0.9118800E+02  0.7818608E-02  0.1130116E+00
         25   -1    0    0    0    0  0.00000000000E+00  0.00000000000E+00  0.99999998245E-14  0.12500000000E+03  0.12500000000E+03 0.  0.
        -11    1    3    3    0    0  0.30498236948E+02 -0.48645418628E+02  0.92247306899E+01  0.58151654035E+02  0.51100000000E-03 0. -1.
         23    2    1    0    0    0  0.23335867947E+02 -0.15905299236E+02 -0.77436467785E+01  0.95716807858E+02  0.91127394149E+02 0.  0.
         11    1    3    3    0    0 -0.71623690017E+01  0.32740119392E+02 -0.16968377468E+02  0.37565153823E+02  0.51100000000E-03 0.  1.
         22    1    1    0    0    0 -0.23335867947E+02  0.15905299236E+02  0.77436467785E+01  0.29283192142E+02  0.00000000000E+00 0. -1.
</event>
<event>
 5    1  0.1692178E-003  0.9118800E+02  0.7818608E-02  0.1130116E+00
         25   -1    0    0    0    0  0.00000000000E+00  0.00000000000E+00  0.99999998245E-14  0.12500000000E+03  0.12500000000E+03 0.  0.
        -11    1    3    3    0    0  0.22210986889E+02  0.17069619660E+02  0.45674823481E+02  0.53580680793E+02  0.51100000000E-03 0. -1.
         23    2    1    0    0    0  0.72757265678E+01  0.28783765673E+02  0.10575537295E+02  0.93483601848E+02  0.88010797417E+02 0.  0.
         11    1    3    3    0    0 -0.14935260322E+02  0.11714146013E+02 -0.35099286186E+02  0.39902921055E+02  0.51100000000E-03 0.  1.
         22    1    1    0    0    0 -0.72757265678E+01 -0.28783765673E+02 -0.10575537295E+02  0.31516398152E+02  0.00000000000E+00 0. -1.
</event>
<event>
 5    1  0.1692178E-003  0.9118800E+02  0.7818608E-02  0.1130116E+00
         25   -1    0    0    0    0  0.00000000000E+00  0.00000000000E+00  0.99999998245E-14  0.12500000000E+03  0.12500000000E+03 0.  0.
        -11    1    3    3    0    0  0.25271075858E+02 -0.11992329804E+02  0.37086563839E+02  0.46452733685E+02  0.51100000000E-03 0.  1.
         23    2    1    0    0    0 -0.74599886618E+01  0.20432606823E+02  0.19561547578E+02  0.95745991794E+02  0.91167417143E+02 0.  0.
         11    1    3    3    0    0 -0.32731064520E+02  0.32424936628E+02 -0.17525016260E+02  0.49293258110E+02  0.51100000000E-03 0. -1.
         22    1    1    0    0    0  0.74599886618E+01 -0.20432606823E+02 -0.19561547578E+02  0.29254008206E+02  0.00000000000E+00 0. -1.
</event>
<event>
 5    1  0.1692178E-003  0.9118800E+02  0.7818608E-02  0.1130116E+00
         25   -1    0    0    0    0  0.00000000000E+00  0.00000000000E+00  0.99999998245E-14  0.12500000000E+03  0.12500000000E+03 0.  0.
        -11    1    3    3    0    0  0.22534321365E+02 -0.33515473107E+02  0.46256617876E+02  0.61406492120E+02  0.51100000000E-03 0. -1.
         23    2    1    0    0    0  0.17248388430E+02 -0.10918944605E+02  0.22599569880E+02  0.94545594515E+02  0.89506416690E+02 0.  0.
         11    1    3    3    0    0 -0.52859329346E+01  0.22596528502E+02 -0.23657047996E+02  0.33139102394E+02  0.51100000000E-03 0.  1.
         22    1    1    0    0    0 -0.17248388430E+02  0.10918944605E+02 -0.22599569880E+02  0.30454405485E+02  0.00000000000E+00 0. -1.
</event>
<event>
 5    1  0.1692178E-003  0.9118800E+02  0.7818608E-02  0.1130116E+00
         25   -1    0    0    0    0  0.00000000000E+00  0.00000000000E+00  0.99999998245E-14  0.12500000000E+03  0.12500000000E+03 0.  0.
        -11    1    3    3    0    0  0.10665530024E+02 -0.65882620241E+01 -0.52649523813E+02  0.54121447552E+02  0.51100000000E-03 0.  1.
         23    2    1    0    0    0  0.18998072384E+02  0.13805650343E+02 -0.17078406819E+02  0.95962184738E+02  0.91463359793E+02 0.  0.
         11    1    3    3    0    0  0.83325423598E+01  0.20393912367E+02  0.35571116994E+02  0.41840737186E+02  0.51100000000E-03 0. -1.
         22    1    1    0    0    0 -0.18998072384E+02 -0.13805650343E+02  0.17078406819E+02  0.29037815262E+02  0.00000000000E+00 0.  1.
</event>
<event>
 5    1  0.1692178E-003  0.9118800E+02  0.7818608E-02  0.1130116E+00
         25   -1    0    0    0    0  0.00000000000E+00  0.00000000000E+00  0.99999998245E-14  0.12500000000E+03  0.12500000000E+03 0.  0.
        -11    1    3    3    0    0  0.31913134532E+02  0.26093453190E+01  0.17282708610E+02  0.36386108006E+02  0.51100000000E-03 0.  1.
         23    2    1    0    0    0 -0.25848866970E+02  0.11111830321E+02  0.17081712072E+01  0.96812156067E+02  0.92617703582E+02 0.  0.
         11    1    3    3    0    0 -0.57762001502E+02  0.85024850015E+01 -0.15574537402E+02  0.60426048061E+02  0.51100000000E-03 0. -1.
         22    1    1    0    0    0  0.25848866970E+02 -0.11111830321E+02 -0.17081712072E+01  0.28187843933E+02  0.00000000000E+00 0. -1.
</event>
<event>
 5    1  0.1692178E-003  0.9118800E+02  0.7818608E-02  0.1130116E+00
         25   -1    0    0    0    0  0.00000000000E+00  0.00000000000E+00  0.99999998245E-14  0.12500000000E+03  0.12500000000E+03 0.  0.
        -11    1    3    3    0    0 -0.45327935722E+02  0.21940248121E+02 -0.72557892990E+00  0.50363902842E+02  0.51100000000E-03 0.  1.
         23    2    1    0    0    0 -0.23195003618E+01  0.28351550037E+02 -0.10039878504E+02  0.94833965594E+02  0.89908238768E+02 0.  0.
         11    1    3    3    0    0  0.43008435360E+02  0.64113019161E+01 -0.93142995741E+01  0.44470062752E+02  0.51100000000E-03 0. -1.
         22    1    1    0    0    0  0.23195003618E+01 -0.28351550037E+02  0.10039878504E+02  0.30166034406E+02  0.00000000000E+00 0.  1.
</event>
<event>
 5    1  0.1692178E-003  0.9118800E+02  0.7818608E-02  0.1130116E+00
         25   -1    0    0    0    0  0.00000000000E+00  0.00000000000E+00  0.99999998245E-14  0.12500000000E+03  0.12500000000E+03 0.  0.
        -11    1    3    3    0    0  0.24484558006E+02 -0.40098259633E+02 -0.25801262362E+02  0.53601018144E+02  0.51100000000E-03 0. -1.
         23    2    1    0    0    0  0.17539671795E+01 -0.39266056030E+02 -0.28419062528E+02  0.76496982857E+02  0.59154422609E+02 0.  0.
         11    1    3    3    0    0 -0.22730590827E+02  0.83220360332E+00 -0.26178001664E+01  0.22895964713E+02  0.51100000000E-03 0.  1.
         22    1    1    0    0    0 -0.17539671795E+01  0.39266056030E+02  0.28419062528E+02  0.48503017143E+02  0.00000000000E+00 0. -1.
</event>
<event>
 5    1  0.1692178E-003  0.9118800E+02  0.7818608E-02  0.1130116E+00
         25   -1    0    0    0    0  0.00000000000E+00  0.00000000000E+00  0.99999998245E-14  0.12500000000E+03  0.12500000000E+03 0.  0.
        -11    1    3    3    0    0  0.11111534276E+02 -0.36400584546E+02  0.15497185394E+02  0.41092961741E+02  0.51100000000E-03 0. -1.
         23    2    1    0    0    0 -0.54372308500E+01  0.18865473510E+02  0.17329472156E+02  0.98812595102E+02  0.95279319768E+02 0.  0.
         11    1    3    3    0    0 -0.16548765126E+02  0.55266058056E+02  0.18322867624E+01  0.57719633361E+02  0.51100000000E-03 0.  1.
         22    1    1    0    0    0  0.54372308500E+01 -0.18865473510E+02 -0.17329472156E+02  0.26187404898E+02  0.00000000000E+00 0.  1.
</event>
<event>
 5    1  0.1692178E-003  0.9118800E+02  0.7818608E-02  0.1130116E+00
         25   -1    0    0    0    0  0.00000000000E+00  0.00000000000E+00  0.99999998245E-14  0.12500000000E+03  0.12500000000E+03 0.  0.
        -11    1    3    3    0    0  0.26861404615E+02  0.18544458762E+02  0.38169677294E+02  0.50223065156E+02  0.51100000000E-03 0. -1.
         23    2    1    0    0    0  0.39031740202E+02  0.81837847806E+01  0.80581838007E+01  0.84313572255E+02  0.73847092453E+02 0.  0.
         11    1    3    3    0    0  0.12170335586E+02 -0.10360673982E+02 -0.30111493493E+02  0.34090507099E+02  0.51100000000E-03 0.  1.
         22    1    1    0    0    0 -0.39031740202E+02 -0.81837847806E+01 -0.80581838007E+01  0.40686427745E+02  0.00000000000E+00 0. -1.
</event>
<event>
 5    1  0.1692178E-003  0.9118800E+02  0.7818608E-02  0.1130116E+00
         25   -1    0    0    0    0  0.00000000000E+00  0.00000000000E+00  0.99999998245E-14  0.12500000000E+03  0.12500000000E+03 0.  0.
        -11    1    3    3    0    0 -0.13468228602E+02 -0.57604077815E+02  0.19180935297E+02  0.62189478545E+02  0.51100000000E-03 0.  1.
         23    2    1    0    0    0 -0.30244837372E+01 -0.29678438597E+02  0.11912736828E+02  0.92877258551E+02  0.87145364982E+02 0.  0.
         11    1    3    3    0    0  0.10443744864E+02  0.27925639217E+02 -0.72681984688E+01  0.30687780007E+02  0.51100000000E-03 0. -1.
         22    1    1    0    0    0  0.30244837372E+01  0.29678438597E+02 -0.11912736828E+02  0.32122741449E+02  0.00000000000E+00 0.  1.
</event>
<event>
 5    1  0.1692178E-003  0.9118800E+02  0.7818608E-02  0.1130116E+00
         25   -1    0    0    0    0  0.00000000000E+00  0.00000000000E+00  0.99999998245E-14  0.12500000000E+03  0.12500000000E+03 0.  0.
        -11    1    3    3    0    0  0.37673712321E+02  0.85757471707E+01  0.19561000712E+02  0.43306867686E+02  0.51100000000E-03 0.  1.
         23    2    1    0    0    0 -0.91607980994E+01  0.26142201750E+02 -0.73819174731E+00  0.97289354731E+02  0.93259523282E+02 0.  0.
         11    1    3    3    0    0 -0.46834510421E+02  0.17566454579E+02 -0.20299192460E+02  0.53982487046E+02  0.51100000000E-03 0. -1.
         22    1    1    0    0    0  0.91607980994E+01 -0.26142201750E+02  0.73819174731E+00  0.27710645269E+02  0.00000000000E+00 0. -1.
</event>
<event>
 5    1  0.1692178E-003  0.9118800E+02  0.7818608E-02  0.1130116E+00
         25   -1    0    0    0    0  0.00000000000E+00  0.00000000000E+00  0.99999998245E-14  0.12500000000E+03  0.12500000000E+03 0.  0.
        -11    1    3    3    0    0 -0.29731812840E+02  0.13780815082E+02 -0.29141644584E+02  0.43853472022E+02  0.51100000000E-03 0.  1.
         23    2    1    0    0    0 -0.17652751236E+02 -0.21474216963E+02  0.75943066306E+01  0.96182728901E+02  0.91764275322E+02 0.  0.
         11    1    3    3    0    0  0.12079061604E+02 -0.35255032045E+02  0.36735951214E+02  0.52329256880E+02  0.51100000000E-03 0. -1.
         22    1    1    0    0    0  0.17652751236E+02  0.21474216963E+02 -0.75943066306E+01  0.28817271099E+02  0.00000000000E+00 0. -1.
</event>
<event>
 5    1  0.1692178E-003  0.9118800E+02  0.7818608E-02  0.1130116E+00
         25   -1    0    0    0    0  0.00000000000E+00  0.00000000000E+00  0.99999998245E-14  0.12500000000E+03  0.12500000000E+03 0.  0.
        -11    1    3    3    0    0  0.27709569871E+02 -0.50569258097E+02  0.30770699385E+01  0.57745462909E+02  0.51100000000E-03 0. -1.
         23    2    1    0    0    0  0.25420283001E+02 -0.12903146015E+02 -0.42248588366E+01  0.96181058362E+02  0.91761999709E+02 0.  0.
         11    1    3    3    0    0 -0.22892868698E+01  0.37666112082E+02 -0.73019287751E+01  0.38435595453E+02  0.51100000000E-03 0.  1.
         22    1    1    0    0    0 -0.25420283001E+02  0.12903146015E+02  0.42248588366E+01  0.28818941638E+02  0.00000000000E+00 0. -1.
</event>
<event>
 5    1  0.1692178E-003  0.9118800E+02  0.7818608E-02  0.1130116E+00
         25   -1    0    0    0    0  0.00000000000E+00  0.00000000000E+00  0.99999998245E-14  0.12500000000E+03  0.12500000000E+03 0.  0.
        -11    1    3    3    0    0  0.72566476306E+01 -0.42877434180E+02 -0.31409128023E+02  0.53643887071E+02  0.51100000000E-03 0.  1.
         23    2    1    0    0    0  0.22905661055E+02 -0.56485391820E+01 -0.13473952999E+02  0.97831586121E+02  0.93983490733E+02 0.  0.
         11    1    3    3    0    0  0.15649013424E+02  0.37228894998E+02  0.17935175024E+02  0.44187699050E+02  0.51100000000E-03 0. -1.
         22    1    1    0    0    0 -0.22905661055E+02  0.56485391820E+01  0.13473952999E+02  0.27168413879E+02  0.00000000000E+00 0.  1.
</event>
<event>
 5    1  0.1692178E-003  0.9118800E+02  0.7818608E-02  0.1130116E+00
         25   -1    0    0    0    0  0.00000000000E+00  0.00000000000E+00  0.99999998245E-14  0.12500000000E+03  0.12500000000E+03 0.  0.
        -11    1    3    3    0    0  0.89988917036E+01 -0.26937554100E+02  0.19944138284E+02  0.34704185985E+02  0.51100000000E-03 0.  1.
         23    2    1    0    0    0 -0.11226392580E+02  0.54842742451E+01 -0.27008398244E+02  0.95241593959E+02  0.90473192106E+02 0.  0.
         11    1    3    3    0    0 -0.20225284283E+02  0.32421828345E+02 -0.46952536528E+02  0.60537407974E+02  0.51100000000E-03 0. -1.
         22    1    1    0    0    0  0.11226392580E+02 -0.54842742451E+01  0.27008398244E+02  0.29758406041E+02  0.00000000000E+00 0. -1.
</event>
<event>
 5    1  0.1692178E-003  0.9118800E+02  0.7818608E-02  0.1130116E+00
         25   -1    0    0    0    0  0.00000000000E+00  0.00000000000E+00  0.99999998245E-14  0.12500000000E+03  0.12500000000E+03 0.  0.
        -11    1    3    3    0    0 -0.18869631689E+02 -0.30354569365E+02  0.50575344802E+02  0.61930028125E+02  0.51100000000E-03 0. -1.
         23    2    1    0    0    0 -0.30660836930E+01 -0.14232381760E+02  0.25218586407E+02  0.95880613672E+02  0.91351811246E+02 0.  0.
         11    1    3    3    0    0  0.15803547996E+02  0.16122187606E+02 -0.25356758395E+02  0.33950585547E+02  0.51100000000E-03 0.  1.
         22    1    1    0    0    0  0.30660836930E+01  0.14232381760E+02 -0.25218586407E+02  0.29119386328E+02  0.00000000000E+00 0. -1.
</event>
<event>
 5    1  0.1692178E-003  0.9118800E+02  0.7818608E-02  0.1130116E+00
         25   -1    0    0    0    0  0.00000000000E+00  0.00000000000E+00  0.99999998245E-14  0.12500000000E+03  0.12500000000E+03 0.  0.
        -11    1    3    3    0    0  0.50614330041E+02  0.12401097221E+01 -0.25737412368E+02  0.56795798025E+02  0.51100000000E-03 0. -1.
         23    2    1    0    0    0  0.15286263580E+02 -0.10508512662E+02 -0.24789736739E+02  0.94038253599E+02  0.88795064050E+02 0.  0.
         11    1    3    3    0    0 -0.35328066461E+02 -0.11748622385E+02  0.94767562941E+00  0.37242455574E+02  0.51100000000E-03 0.  1.
         22    1    1    0    0    0 -0.15286263580E+02  0.10508512662E+02  0.24789736739E+02  0.30961746401E+02  0.00000000000E+00 0. -1.
</event>
<event>
 5    1  0.1692178E-003  0.9118800E+02  0.7818608E-02  0.1130116E+00
         25   -1    0    0    0    0  0.00000000000E+00  0.00000000000E+00  0.99999998245E-14  0.12500000000E+03  0.12500000000E+03 0.  0.
        -11    1    3    3    0    0 -0.15798312203E+01  0.44498330367E+02 -0.17523960349E+02  0.47850668320E+02  0.51100000000E-03 0. -1.
         23    2    1    0    0    0  0.22714287394E+02  0.53576088100E+01 -0.20393720844E+02  0.94007312575E+02  0.88751496571E+02 0.  0.
         11    1    3    3    0    0  0.24294118614E+02 -0.39140721557E+02 -0.28697604956E+01  0.46156644254E+02  0.51100000000E-03 0.  1.
         22    1    1    0    0    0 -0.22714287394E+02 -0.53576088100E+01  0.20393720844E+02  0.30992687425E+02  0.00000000000E+00 0. -1.
</event>
<event>
 5    1  0.1692178E-003  0.9118800E+02  0.7818608E-02  0.1130116E+00
         25   -1    0    0    0    0  0.00000000000E+00  0.00000000000E+00  0.99999998245E-14  0.12500000000E+03  0.12500000000E+03 0.  0.
        -11    1    3    3    0    0  0.54394950829E+01 -0.36523771945E+02  0.18392692864E+02  0.41253668624E+02  0.51100000000E-03 0. -1.
         23    2    1    0    0    0  0.22755426098E+02  0.15019723823E+02  0.46104121778E+01  0.97347560306E+02  0.93337506269E+02 0.  0.
         11    1    3    3    0    0  0.17315931015E+02  0.51543495768E+02 -0.13782280686E+02  0.56093891682E+02  0.51100000000E-03 0.  1.
         22    1    1    0    0    0 -0.22755426098E+02 -0.15019723823E+02 -0.46104121778E+01  0.27652439694E+02  0.00000000000E+00 0.  1.
</event>
<event>
 5    1  0.1692178E-003  0.9118800E+02  0.7818608E-02  0.1130116E+00
         25   -1    0    0    0    0  0.00000000000E+00  0.00000000000E+00  0.99999998245E-14  0.12500000000E+03  0.12500000000E+03 0.  0.
        -11    1    3    3    0    0 -0.15707294387E+02  0.14421091674E+02  0.55824059495E+02  0.59757950105E+02  0.51100000000E-03 0. -1.
         23    2    1    0    0    0 -0.14483780073E+02 -0.42191772970E+01  0.24738008994E+02  0.96025003343E+02  0.91549171683E+02 0.  0.
         11    1    3    3    0    0  0.12235143140E+01 -0.18640268971E+02 -0.31086050501E+02  0.36267053238E+02  0.51100000000E-03 0.  1.
         22    1    1    0    0    0  0.14483780073E+02  0.42191772970E+01 -0.24738008994E+02  0.28974996657E+02  0.00000000000E+00 0. -1.
</event>
<event>
 5    1  0.1692178E-003  0.9118800E+02  0.7818608E-02  0.1130116E+00
         25   -1    0    0    0    0  0.00000000000E+00  0.00000000000E+00  0.99999998245E-14  0.12500000000E+03  0.12500000000E+03 0.  0.
        -11    1    3    3    0    0  0.10005861433E+02  0.27950672963E+02  0.40917945843E+02  0.50553295386E+02  0.51100000000E-03 0.  1.
         23    2    1    0    0    0 -0.75263958576E+01 -0.10282737285E+02  0.27479869442E+02  0.94709332374E+02  0.89734793105E+02 0.  0.
         11    1    3    3    0    0 -0.17532257290E+02 -0.38233410248E+02 -0.13438076402E+02  0.44156036988E+02  0.51100000000E-03 0. -1.
         22    1    1    0    0    0  0.75263958576E+01  0.10282737285E+02 -0.27479869442E+02  0.30290667626E+02  0.00000000000E+00 0.  1.
</event>
<event>
 5    1  0.1692178E-003  0.9118800E+02  0.7818608E-02  0.1130116E+00
         25   -1    0    0    0    0  0.00000000000E+00  0.00000000000E+00  0.99999998245E-14  0.12500000000E+03  0.12500000000E+03 0.  0.
        -11    1    3    3    0    0 -0.82356194271E+01  0.28247524777E+02  0.11199591262E+01  0.29444904348E+02  0.51100000000E-03 0. -1.
         23    2    1    0    0    0 -0.21573764877E+02 -0.28379029512E+02  0.92107929743E+01  0.88181046264E+02  0.80126534719E+02 0.  0.
         11    1    3    3    0    0 -0.13338145450E+02 -0.56626554288E+02  0.80908338480E+01  0.58736141916E+02  0.51100000000E-03 0.  1.
         22    1    1    0    0    0  0.21573764877E+02  0.28379029512E+02 -0.92107929743E+01  0.36818953736E+02  0.00000000000E+00 0.  1.
</event>
<event>
 5    1  0.1692178E-003  0.9118800E+02  0.7818608E-02  0.1130116E+00
         25   -1    0    0    0    0  0.00000000000E+00  0.00000000000E+00  0.99999998245E-14  0.12500000000E+03  0.12500000000E+03 0.  0.
        -11    1    3    3    0    0 -0.42881276700E+02 -0.22034016011E+02  0.60567931606E+01  0.48589983501E+02  0.51100000000E-03 0.  1.
         23    2    1    0    0    0 -0.13192193937E+02 -0.25054158034E+01 -0.25542226456E+02  0.96143173744E+02  0.91710378017E+02 0.  0.
         11    1    3    3    0    0  0.29689082763E+02  0.19528600207E+02 -0.31599019617E+02  0.47553190244E+02  0.51100000000E-03 0. -1.
         22    1    1    0    0    0  0.13192193937E+02  0.25054158034E+01  0.25542226456E+02  0.28856826256E+02  0.00000000000E+00 0.  1.
</event>
<event>
 5    1  0.1692178E-003  0.9118800E+02  0.7818608E-02  0.1130116E+00
         25   -1    0    0    0    0  0.00000000000E+00  0.00000000000E+00  0.99999998245E-14  0.12500000000E+03  0.12500000000E+03 0.  0.
        -11    1    3    3    0    0  0.26729300927E+02 -0.43591909518E+02  0.34486825311E+02  0.61676991040E+02  0.51100000000E-03 0.  1.
         23    2    1    0    0    0  0.10312395073E+02 -0.19730414027E+02  0.23431352424E+02  0.92678753022E+02  0.86860164951E+02 0.  0.
         11    1    3    3    0    0 -0.16416905854E+02  0.23861495492E+02 -0.11055472887E+02  0.31001761981E+02  0.51100000000E-03 0. -1.
         22    1    1    0    0    0 -0.10312395073E+02  0.19730414027E+02 -0.23431352424E+02  0.32321246978E+02  0.00000000000E+00 0.  1.
</event>
<event>
 5    1  0.1692178E-003  0.9118800E+02  0.7818608E-02  0.1130116E+00
         25   -1    0    0    0    0  0.00000000000E+00  0.00000000000E+00  0.99999998245E-14  0.12500000000E+03  0.12500000000E+03 0.  0.
        -11    1    3    3    0    0  0.54658660312E+02  0.68304594257E+01 -0.97580909643E+01  0.55941439583E+02  0.51100000000E-03 0.  1.
         23    2    1    0    0    0  0.16834630281E+02  0.20279899227E+02  0.39233344210E+01  0.98352830500E+02  0.94674218376E+02 0.  0.
         11    1    3    3    0    0 -0.37824030031E+02  0.13449439801E+02  0.13681425385E+02  0.42411390918E+02  0.51100000000E-03 0. -1.
         22    1    1    0    0    0 -0.16834630281E+02 -0.20279899227E+02 -0.39233344210E+01  0.26647169500E+02  0.00000000000E+00 0.  1.
</event>
<event>
 5    1  0.1692178E-003  0.9118800E+02  0.7818608E-02  0.1130116E+00
         25   -1    0    0    0    0  0.00000000000E+00  0.00000000000E+00  0.99999998245E-14  0.12500000000E+03  0.12500000000E+03 0.  0.
        -11    1    3    3    0    0 -0.22768806578E+01 -0.26208623410E+02  0.32097970327E+02  0.41501274991E+02  0.51100000000E-03 0.  1.
         23    2    1    0    0    0 -0.22436861534E+02 -0.13994918216E+02 -0.15308792606E+02  0.94444646583E+02  0.89365326865E+02 0.  0.
         11    1    3    3    0    0 -0.20159980876E+02  0.12213705194E+02 -0.47406762932E+02  0.52943371592E+02  0.51100000000E-03 0. -1.
         22    1    1    0    0    0  0.22436861534E+02  0.13994918216E+02  0.15308792606E+02  0.30555353417E+02  0.00000000000E+00 0. -1.
</event>
<event>
 5    1  0.1692178E-003  0.9118800E+02  0.7818608E-02  0.1130116E+00
         25   -1    0    0    0    0  0.00000000000E+00  0.00000000000E+00  0.99999998245E-14  0.12500000000E+03  0.12500000000E+03 0.  0.
        -11    1    3    3    0    0 -0.23809880476E+02 -0.54266005440E+01  0.37426538332E+02  0.44688971498E+02  0.51100000000E-03 0. -1.
         23    2    1    0    0    0 -0.10900603273E+02  0.26907967565E+02 -0.22012010765E+00  0.95967082078E+02  0.91470052582E+02 0.  0.
         11    1    3    3    0    0  0.12909277203E+02  0.32334568109E+02 -0.37646658440E+02  0.51278110580E+02  0.51100000000E-03 0.  1.
         22    1    1    0    0    0  0.10900603273E+02 -0.26907967565E+02  0.22012010765E+00  0.29032917922E+02  0.00000000000E+00 0.  1.
</event>
<event>
 5    1  0.1692178E-003  0.9118800E+02  0.7818608E-02  0.1130116E+00
         25   -1    0    0    0    0  0.00000000000E+00  0.00000000000E+00  0.99999998245E-14  0.12500000000E+03  0.12500000000E+03 0.  0.
        -11    1    3    3    0    0  0.40066946550E+01  0.25269233808E+02  0.54410788362E+02  0.60125881862E+02  0.51100000000E-03 0. -1.
         23    2    1    0    0    0  0.23700266753E+01  0.23101122138E+02  0.20866518014E+02  0.93779967257E+02  0.88430717594E+02 0.  0.
         11    1    3    3    0    0 -0.16366679797E+01 -0.21681116703E+01 -0.33544270348E+02  0.33654085395E+02  0.51100000000E-03 0.  1.
         22    1    1    0    0    0 -0.23700266753E+01 -0.23101122138E+02 -0.20866518014E+02  0.31220032743E+02  0.00000000000E+00 0. -1.
</event>
<event>
 5    1  0.1692178E-003  0.9118800E+02  0.7818608E-02  0.1130116E+00
         25   -1    0    0    0    0  0.00000000000E+00  0.00000000000E+00  0.99999998245E-14  0.12500000000E+03  0.12500000000E+03 0.  0.
        -11    1    3    3    0    0  0.29644340200E+01  0.93538997161E+01  0.54763020109E+02  0.55635165864E+02  0.51100000000E-03 0.  1.
         23    2    1    0    0    0 -0.10428976029E+02 -0.12746155553E+02  0.25142503574E+02  0.94943827450E+02  0.90060850886E+02 0.  0.
         11    1    3    3    0    0 -0.13393410049E+02 -0.22100055269E+02 -0.29620516535E+02  0.39308661586E+02  0.51100000000E-03 0. -1.
         22    1    1    0    0    0  0.10428976029E+02  0.12746155553E+02 -0.25142503574E+02  0.30056172550E+02  0.00000000000E+00 0.  1.
</event>
<event>
 5    1  0.1692178E-003  0.9118800E+02  0.7818608E-02  0.1130116E+00
         25   -1    0    0    0    0  0.00000000000E+00  0.00000000000E+00  0.99999998245E-14  0.12500000000E+03  0.12500000000E+03 0.  0.
        -11    1    3    3    0    0 -0.19987607174E+02 -0.13572422201E+02 -0.35106605836E+02  0.42616767340E+02  0.51100000000E-03 0. -1.
         23    2    1    0    0    0 -0.66029138313E+01 -0.25771500434E+02  0.13986434616E+02  0.94943568759E+02  0.90060491836E+02 0.  0.
         11    1    3    3    0    0  0.13384693343E+02 -0.12199078233E+02  0.49093040452E+02  0.52326801418E+02  0.51100000000E-03 0.  1.
         22    1    1    0    0    0  0.66029138313E+01  0.25771500434E+02 -0.13986434616E+02  0.30056431241E+02  0.00000000000E+00 0. -1.
</event>
<event>
 5    1  0.1692178E-003  0.9118800E+02  0.7818608E-02  0.1130116E+00
         25   -1    0    0    0    0  0.00000000000E+00  0.00000000000E+00  0.99999998245E-14  0.12500000000E+03  0.12500000000E+03 0.  0.
        -11    1    3    3    0    0 -0.43653564090E+02  0.29135769815E+02 -0.16553462647E+02  0.55032207537E+02  0.51100000000E-03 0. -1.
         23    2    1    0    0    0 -0.17317444067E+02  0.14904016355E+02  0.14319773895E+02  0.98035588326E+02  0.94254427383E+02 0.  0.
         11    1    3    3    0    0  0.26336120023E+02 -0.14231753459E+02  0.30873236542E+02  0.43003380789E+02  0.51100000000E-03 0.  1.
         22    1    1    0    0    0  0.17317444067E+02 -0.14904016355E+02 -0.14319773895E+02  0.26964411674E+02  0.00000000000E+00 0. -1.
</event>
