<event>
 5    1  0.3144657E-003  0.9118800E+02  0.7818608E-02  0.1130116E+00
         25   -1    0    0    0    0  0.00000000000E+00  0.00000000000E+00  0.99999998245E-14  0.12500000000E+03  0.12500000000E+03 0.  0.
        -11    1    3    3    0    0  0.29261329716E+02 -0.31761250918E+02  0.10516401925E+02  0.44447690450E+02  0.51100000000E-03 0.  1.
         23    2    1    0    0    0 -0.37846760174E+01  0.18865842567E+02  0.47557359918E+01  0.10517928323E+03  0.10329482469E+03 0.  0.
         11    1    3    3    0    0 -0.33046005733E+02  0.50627093485E+02 -0.57606659334E+01  0.60731592783E+02  0.51100000000E-03 0. -1.
         22    1    1    0    0    0  0.37846760174E+01 -0.18865842567E+02 -0.47557359918E+01  0.19820716767E+02  0.00000000000E+00 0. -1.
</event>
<event>
 5    1  0.3144657E-003  0.9118800E+02  0.7818608E-02  0.1130116E+00
         25   -1    0    0    0    0  0.00000000000E+00  0.00000000000E+00  0.99999998245E-14  0.12500000000E+03  0.12500000000E+03 0.  0.
        -11    1    3    3    0    0 -0.10545293186E+02 -0.19099234706E+02 -0.37658435408E+02  0.43521738619E+02  0.51100000000E-03 0. -1.
         23    2    1    0    0    0  0.52024709897E+01  0.20388968201E+02  0.45964523978E+01  0.10346159005E+03  0.10119484923E+03 0.  0.
         11    1    3    3    0    0  0.15747764176E+02  0.39488202907E+02  0.42254887806E+02  0.59939851427E+02  0.51100000000E-03 0.  1.
         22    1    1    0    0    0 -0.52024709897E+01 -0.20388968201E+02 -0.45964523978E+01  0.21538409954E+02  0.00000000000E+00 0.  1.
</event>
<event>
 5    1  0.3144657E-003  0.9118800E+02  0.7818608E-02  0.1130116E+00
         25   -1    0    0    0    0  0.00000000000E+00  0.00000000000E+00  0.99999998245E-14  0.12500000000E+03  0.12500000000E+03 0.  0.
        -11    1    3    3    0    0  0.35913783942E+02  0.34231813304E+02  0.32336999383E+02  0.59222448855E+02  0.51100000000E-03 0. -1.
         23    2    1    0    0    0 -0.10870239370E+00  0.13385222442E+02  0.16499425256E+02  0.10375365844E+03  0.10155498318E+03 0.  0.
         11    1    3    3    0    0 -0.36022486335E+02 -0.20846590862E+02 -0.15837574127E+02  0.44531209582E+02  0.51100000000E-03 0.  1.
         22    1    1    0    0    0  0.10870239370E+00 -0.13385222442E+02 -0.16499425256E+02  0.21246341563E+02  0.00000000000E+00 0. -1.
</event>
<event>
 5    1  0.3144657E-003  0.9118800E+02  0.7818608E-02  0.1130116E+00
         25   -1    0    0    0    0  0.00000000000E+00  0.00000000000E+00  0.99999998245E-14  0.12500000000E+03  0.12500000000E+03 0.  0.
        -11    1    3    3    0    0 -0.59538604440E+02 -0.17910917592E+02  0.53528407931E+01  0.62404321105E+02  0.51100000000E-03 0. -1.
         23    2    1    0    0    0 -0.27576767276E+02 -0.10623738760E+02  0.15369308139E+01  0.95407702439E+02  0.90702401345E+02 0.  0.
         11    1    3    3    0    0  0.31961837164E+02  0.72871788328E+01 -0.38159099792E+01  0.33003381334E+02  0.51100000000E-03 0.  1.
         22    1    1    0    0    0  0.27576767276E+02  0.10623738760E+02 -0.15369308139E+01  0.29592297561E+02  0.00000000000E+00 0. -1.
</event>
<event>
 5    1  0.3144657E-003  0.9118800E+02  0.7818608E-02  0.1130116E+00
         25   -1    0    0    0    0  0.00000000000E+00  0.00000000000E+00  0.99999998245E-14  0.12500000000E+03  0.12500000000E+03 0.  0.
        -11    1    3    3    0    0  0.31034005431E+02  0.48242074187E+01 -0.31439045580E+02  0.44438677496E+02  0.51100000000E-03 0. -1.
         23    2    1    0    0    0  0.16666096853E+01  0.29126017373E+02  0.28203963569E+01  0.95690323928E+02  0.91091058738E+02 0.  0.
         11    1    3    3    0    0 -0.29367395745E+02  0.24301809954E+02  0.34259441937E+02  0.51251646432E+02  0.51100000000E-03 0.  1.
         22    1    1    0    0    0 -0.16666096853E+01 -0.29126017373E+02 -0.28203963569E+01  0.29309676072E+02  0.00000000000E+00 0.  1.
</event>
<event>
 5    1  0.3144657E-003  0.9118800E+02  0.7818608E-02  0.1130116E+00
         25   -1    0    0    0    0  0.00000000000E+00  0.00000000000E+00  0.99999998245E-14  0.12500000000E+03  0.12500000000E+03 0.  0.
        -11    1    3    3    0    0  0.34805504798E+02 -0.12587898922E+02 -0.11923589973E+02  0.38885091765E+02  0.51100000000E-03 0. -1.
         23    2    1    0    0    0 -0.16454238412E+02  0.11726806781E+02 -0.20444592159E+02  0.96255586498E+02  0.91863467301E+02 0.  0.
         11    1    3    3    0    0 -0.51259743210E+02  0.24314705703E+02 -0.85210021865E+01  0.57370494733E+02  0.51100000000E-03 0.  1.
         22    1    1    0    0    0  0.16454238412E+02 -0.11726806781E+02  0.20444592159E+02  0.28744413502E+02  0.00000000000E+00 0.  1.
</event>
<event>
 5    1  0.3144657E-003  0.9118800E+02  0.7818608E-02  0.1130116E+00
         25   -1    0    0    0    0  0.00000000000E+00  0.00000000000E+00  0.99999998245E-14  0.12500000000E+03  0.12500000000E+03 0.  0.
        -11    1    3    3    0    0 -0.25926874382E+02 -0.27576640131E+02  0.40378403451E+02  0.55345183726E+02  0.51100000000E-03 0. -1.
         23    2    1    0    0    0 -0.66508395636E+01  0.63611401204E+01  0.26790590843E+02  0.96672742310E+02  0.92429354523E+02 0.  0.
         11    1    3    3    0    0  0.19276034819E+02  0.33937780252E+02 -0.13587812608E+02  0.41327558584E+02  0.51100000000E-03 0.  1.
         22    1    1    0    0    0  0.66508395636E+01 -0.63611401204E+01 -0.26790590843E+02  0.28327257690E+02  0.00000000000E+00 0. -1.
</event>
<event>
 5    1  0.3144657E-003  0.9118800E+02  0.7818608E-02  0.1130116E+00
         25   -1    0    0    0    0  0.00000000000E+00  0.00000000000E+00  0.99999998245E-14  0.12500000000E+03  0.12500000000E+03 0.  0.
        -11    1    3    3    0    0  0.14211226125E+01  0.31756029652E+02 -0.31040719781E+02  0.44429621803E+02  0.51100000000E-03 0.  1.
         23    2    1    0    0    0 -0.12002896719E+01  0.19833315164E+02  0.19939276559E+02  0.96850828869E+02  0.92669883011E+02 0.  0.
         11    1    3    3    0    0 -0.26214122844E+01 -0.11922714489E+02  0.50979996340E+02  0.52421207066E+02  0.51100000000E-03 0. -1.
         22    1    1    0    0    0  0.12002896719E+01 -0.19833315164E+02 -0.19939276559E+02  0.28149171131E+02  0.00000000000E+00 0. -1.
</event>
<event>
 5    1  0.3144657E-003  0.9118800E+02  0.7818608E-02  0.1130116E+00
         25   -1    0    0    0    0  0.00000000000E+00  0.00000000000E+00  0.99999998245E-14  0.12500000000E+03  0.12500000000E+03 0.  0.
        -11    1    3    3    0    0  0.19398121642E+02  0.43795817404E+02 -0.51936149853E+01  0.48180228125E+02  0.51100000000E-03 0.  1.
         23    2    1    0    0    0  0.61782259600E+01  0.10642030957E+02  0.26416724796E+02  0.95857820125E+02  0.91320616682E+02 0.  0.
         11    1    3    3    0    0 -0.13219895682E+02 -0.33153786447E+02  0.31610339782E+02  0.47677592000E+02  0.51100000000E-03 0. -1.
         22    1    1    0    0    0 -0.61782259600E+01 -0.10642030957E+02 -0.26416724796E+02  0.29142179875E+02  0.00000000000E+00 0. -1.
</event>
<event>
 5    1  0.3144657E-003  0.9118800E+02  0.7818608E-02  0.1130116E+00
         25   -1    0    0    0    0  0.00000000000E+00  0.00000000000E+00  0.99999998245E-14  0.12500000000E+03  0.12500000000E+03 0.  0.
        -11    1    3    3    0    0 -0.28394772777E+02  0.17897884759E+02 -0.87058134480E+01  0.34675475309E+02  0.51100000000E-03 0. -1.
         23    2    1    0    0    0  0.17692277998E+02 -0.22348512450E+02  0.12405994398E+00  0.96495823107E+02  0.92189781303E+02 0.  0.
         11    1    3    3    0    0  0.46087050775E+02 -0.40246397209E+02  0.88298733920E+01  0.61820347797E+02  0.51100000000E-03 0.  1.
         22    1    1    0    0    0 -0.17692277998E+02  0.22348512450E+02 -0.12405994398E+00  0.28504176893E+02  0.00000000000E+00 0.  1.
</event>
<event>
 5    1  0.3144657E-003  0.9118800E+02  0.7818608E-02  0.1130116E+00
         25   -1    0    0    0    0  0.00000000000E+00  0.00000000000E+00  0.99999998245E-14  0.12500000000E+03  0.12500000000E+03 0.  0.
        -11    1    3    3    0    0  0.10724057511E+02 -0.23137232080E+02  0.25991456010E+02  0.36412809609E+02  0.51100000000E-03 0.  1.
         23    2    1    0    0    0 -0.17673961916E+02  0.21056069639E+02 -0.44876994995E+01  0.97145620717E+02  0.93066670614E+02 0.  0.
         11    1    3    3    0    0 -0.28398019427E+02  0.44193301719E+02 -0.30479155510E+02  0.60732811108E+02  0.51100000000E-03 0. -1.
         22    1    1    0    0    0  0.17673961916E+02 -0.21056069639E+02  0.44876994995E+01  0.27854379283E+02  0.00000000000E+00 0. -1.
</event>
<event>
 5    1  0.3144657E-003  0.9118800E+02  0.7818608E-02  0.1130116E+00
         25   -1    0    0    0    0  0.00000000000E+00  0.00000000000E+00  0.99999998245E-14  0.12500000000E+03  0.12500000000E+03 0.  0.
        -11    1    3    3    0    0 -0.15250800246E+01  0.54834413767E+01  0.34307252945E+02  0.34776164299E+02  0.51100000000E-03 0.  1.
         23    2    1    0    0    0 -0.12860339249E+02  0.11004848494E+02 -0.24667556468E+02  0.95083727537E+02  0.90254816405E+02 0.  0.
         11    1    3    3    0    0 -0.11335259224E+02  0.55214071173E+01 -0.58974809413E+02  0.60307563239E+02  0.51100000000E-03 0. -1.
         22    1    1    0    0    0  0.12860339249E+02 -0.11004848494E+02  0.24667556468E+02  0.29916272463E+02  0.00000000000E+00 0. -1.
</event>
<event>
 5    1  0.3144657E-003  0.9118800E+02  0.7818608E-02  0.1130116E+00
         25   -1    0    0    0    0  0.00000000000E+00  0.00000000000E+00  0.99999998245E-14  0.12500000000E+03  0.12500000000E+03 0.  0.
        -11    1    3    3    0    0  0.24616304729E+02  0.34979016841E+02 -0.25420047085E+02  0.49756134011E+02  0.51100000000E-03 0.  1.
         23    2    1    0    0    0  0.28723742857E+02  0.17099482646E+01  0.58934221086E+01  0.95628078869E+02  0.91005602669E+02 0.  0.
         11    1    3    3    0    0  0.41074381278E+01 -0.33269068576E+02  0.31313469193E+02  0.45871944858E+02  0.51100000000E-03 0. -1.
         22    1    1    0    0    0 -0.28723742857E+02 -0.17099482646E+01 -0.58934221086E+01  0.29371921131E+02  0.00000000000E+00 0.  1.
</event>
<event>
 5    1  0.3144657E-003  0.9118800E+02  0.7818608E-02  0.1130116E+00
         25   -1    0    0    0    0  0.00000000000E+00  0.00000000000E+00  0.99999998245E-14  0.12500000000E+03  0.12500000000E+03 0.  0.
        -11    1    3    3    0    0 -0.29252503457E+02 -0.41481898488E+02  0.79568009112E+01  0.51378668158E+02  0.51100000000E-03 0.  1.
         23    2    1    0    0    0  0.55202057456E+01 -0.19999636624E+02  0.22154282343E+02  0.94647564139E+02  0.89648709052E+02 0.  0.
         11    1    3    3    0    0  0.34772709203E+02  0.21482261864E+02  0.14197481432E+02  0.43268895981E+02  0.51100000000E-03 0. -1.
         22    1    1    0    0    0 -0.55202057456E+01  0.19999636624E+02 -0.22154282343E+02  0.30352435861E+02  0.00000000000E+00 0.  1.
</event>
<event>
 5    1  0.3144657E-003  0.9118800E+02  0.7818608E-02  0.1130116E+00
         25   -1    0    0    0    0  0.00000000000E+00  0.00000000000E+00  0.99999998245E-14  0.12500000000E+03  0.12500000000E+03 0.  0.
        -11    1    3    3    0    0  0.43807599254E+01 -0.63070272468E+01 -0.40397635714E+02  0.41121024084E+02  0.51100000000E-03 0.  1.
         23    2    1    0    0    0 -0.13350099894E+02  0.26138286583E+02 -0.32130780640E+00  0.95648025086E+02  0.91032995510E+02 0.  0.
         11    1    3    3    0    0 -0.17730859819E+02  0.32445313829E+02  0.40076327907E+02  0.54527001002E+02  0.51100000000E-03 0. -1.
         22    1    1    0    0    0  0.13350099894E+02 -0.26138286583E+02  0.32130780640E+00  0.29351974914E+02  0.00000000000E+00 0. -1.
</event>
<event>
 5    1  0.3144657E-003  0.9118800E+02  0.7818608E-02  0.1130116E+00
         25   -1    0    0    0    0  0.00000000000E+00  0.00000000000E+00  0.99999998245E-14  0.12500000000E+03  0.12500000000E+03 0.  0.
        -11    1    3    3    0    0 -0.75084303976E+01  0.28575225147E+02  0.25951169712E+02  0.39324079505E+02  0.51100000000E-03 0.  1.
         23    2    1    0    0    0 -0.27657316174E+02 -0.87198379229E+01 -0.93948038716E+01  0.94516807071E+02  0.89466204613E+02 0.  0.
         11    1    3    3    0    0 -0.20148885776E+02 -0.37295063070E+02 -0.35345973583E+02  0.55192727566E+02  0.51100000000E-03 0. -1.
         22    1    1    0    0    0  0.27657316174E+02  0.87198379229E+01  0.93948038716E+01  0.30483192929E+02  0.00000000000E+00 0. -1.
</event>
<event>
 5    1  0.3144657E-003  0.9118800E+02  0.7818608E-02  0.1130116E+00
         25   -1    0    0    0    0  0.00000000000E+00  0.00000000000E+00  0.99999998245E-14  0.12500000000E+03  0.12500000000E+03 0.  0.
        -11    1    3    3    0    0  0.17870931558E+02 -0.13315905872E+02  0.28606628517E+02  0.36263242261E+02  0.51100000000E-03 0.  1.
         23    2    1    0    0    0  0.76784557867E+01  0.23487432263E+02 -0.16440969713E+02  0.95319642141E+02  0.90580961218E+02 0.  0.
         11    1    3    3    0    0 -0.10192475771E+02  0.36803338135E+02 -0.45047598230E+02  0.59056399879E+02  0.51100000000E-03 0. -1.
         22    1    1    0    0    0 -0.76784557867E+01 -0.23487432263E+02  0.16440969713E+02  0.29680357859E+02  0.00000000000E+00 0. -1.
</event>
<event>
 5    1  0.3144657E-003  0.9118800E+02  0.7818608E-02  0.1130116E+00
         25   -1    0    0    0    0  0.00000000000E+00  0.00000000000E+00  0.99999998245E-14  0.12500000000E+03  0.12500000000E+03 0.  0.
        -11    1    3    3    0    0  0.16308259991E+02  0.15305029005E+02 -0.34222124108E+02  0.40882233739E+02  0.51100000000E-03 0.  1.
         23    2    1    0    0    0  0.61392206372E+01  0.20354685404E+02  0.19717440320E+02  0.96003781269E+02  0.91520190763E+02 0.  0.
         11    1    3    3    0    0 -0.10169039353E+02  0.50496563989E+01  0.53939564428E+02  0.55121547530E+02  0.51100000000E-03 0. -1.
         22    1    1    0    0    0 -0.61392206372E+01 -0.20354685404E+02 -0.19717440320E+02  0.28996218731E+02  0.00000000000E+00 0. -1.
</event>
<event>
 5    1  0.3144657E-003  0.9118800E+02  0.7818608E-02  0.1130116E+00
         25   -1    0    0    0    0  0.00000000000E+00  0.00000000000E+00  0.99999998245E-14  0.12500000000E+03  0.12500000000E+03 0.  0.
        -11    1    3    3    0    0 -0.81464534871E+01 -0.39556817279E+02  0.31501244799E+02  0.51219477953E+02  0.51100000000E-03 0.  1.
         23    2    1    0    0    0  0.19437103190E+02 -0.21089546398E+02  0.99613924228E+00  0.96302225852E+02  0.91926908264E+02 0.  0.
         11    1    3    3    0    0  0.27583556677E+02  0.18467270881E+02 -0.30505105557E+02  0.45082747898E+02  0.51100000000E-03 0. -1.
         22    1    1    0    0    0 -0.19437103190E+02  0.21089546398E+02 -0.99613924228E+00  0.28697774148E+02  0.00000000000E+00 0.  1.
</event>
<event>
 5    1  0.3144657E-003  0.9118800E+02  0.7818608E-02  0.1130116E+00
         25   -1    0    0    0    0  0.00000000000E+00  0.00000000000E+00  0.99999998245E-14  0.12500000000E+03  0.12500000000E+03 0.  0.
        -11    1    3    3    0    0 -0.18367707424E+02  0.33037723972E+02 -0.46003167484E+01  0.38079217373E+02  0.51100000000E-03 0.  1.
         23    2    1    0    0    0  0.14877505863E+02 -0.40972599042E+01  0.24685236811E+02  0.95888341926E+02  0.91362385485E+02 0.  0.
         11    1    3    3    0    0  0.33245213287E+02 -0.37134983877E+02  0.29285553559E+02  0.57809124553E+02  0.51100000000E-03 0. -1.
         22    1    1    0    0    0 -0.14877505863E+02  0.40972599042E+01 -0.24685236811E+02  0.29111658074E+02  0.00000000000E+00 0. -1.
</event>
<event>
 5    1  0.3144657E-003  0.9118800E+02  0.7818608E-02  0.1130116E+00
         25   -1    0    0    0    0  0.00000000000E+00  0.00000000000E+00  0.99999998245E-14  0.12500000000E+03  0.12500000000E+03 0.  0.
        -11    1    3    3    0    0  0.30527950608E+02 -0.16645766647E+02 -0.70325203271E+01  0.35475254164E+02  0.51100000000E-03 0. -1.
         23    2    1    0    0    0 -0.26619736966E+02 -0.14207374355E+02 -0.11171537305E+02  0.92824494907E+02  0.87069648712E+02 0.  0.
         11    1    3    3    0    0 -0.57147687574E+02  0.24383922920E+01 -0.41390169779E+01  0.57349240744E+02  0.51100000000E-03 0.  1.
         22    1    1    0    0    0  0.26619736966E+02  0.14207374355E+02  0.11171537305E+02  0.32175505093E+02  0.00000000000E+00 0.  1.
</event>
<event>
 5    1  0.3144657E-003  0.9118800E+02  0.7818608E-02  0.1130116E+00
         25   -1    0    0    0    0  0.00000000000E+00  0.00000000000E+00  0.99999998245E-14  0.12500000000E+03  0.12500000000E+03 0.  0.
        -11    1    3    3    0    0 -0.21161402836E+02  0.71245220101E+01  0.34303355167E+02  0.40930232834E+02  0.51100000000E-03 0.  1.
         23    2    1    0    0    0 -0.96051069495E+01 -0.26867294065E+02 -0.69645515489E+01  0.95629699556E+02  0.91007828723E+02 0.  0.
         11    1    3    3    0    0  0.11556295887E+02 -0.33991816075E+02 -0.41267906716E+02  0.54699466722E+02  0.51100000000E-03 0. -1.
         22    1    1    0    0    0  0.96051069495E+01  0.26867294065E+02  0.69645515489E+01  0.29370300444E+02  0.00000000000E+00 0. -1.
</event>
<event>
 5    1  0.3144657E-003  0.9118800E+02  0.7818608E-02  0.1130116E+00
         25   -1    0    0    0    0  0.00000000000E+00  0.00000000000E+00  0.99999998245E-14  0.12500000000E+03  0.12500000000E+03 0.  0.
        -11    1    3    3    0    0 -0.81720343911E+01 -0.23638207932E+02  0.23707441649E+02  0.34461424958E+02  0.51100000000E-03 0.  1.
         23    2    1    0    0    0 -0.60408070991E+01  0.25881467597E+02 -0.12289317562E+02  0.95719135233E+02  0.91130586568E+02 0.  0.
         11    1    3    3    0    0  0.21312272920E+01  0.49519675528E+02 -0.35996759211E+02  0.61257710275E+02  0.51100000000E-03 0. -1.
         22    1    1    0    0    0  0.60408070991E+01 -0.25881467597E+02  0.12289317562E+02  0.29280864767E+02  0.00000000000E+00 0. -1.
</event>
<event>
 5    1  0.3144657E-003  0.9118800E+02  0.7818608E-02  0.1130116E+00
         25   -1    0    0    0    0  0.00000000000E+00  0.00000000000E+00  0.99999998245E-14  0.12500000000E+03  0.12500000000E+03 0.  0.
        -11    1    3    3    0    0  0.21512326704E+02  0.44041941204E+02  0.14415987140E+02  0.51091031216E+02  0.51100000000E-03 0.  1.
         23    2    1    0    0    0 -0.21766522642E+01  0.92131398642E+01  0.28075107619E+02  0.95371779853E+02  0.90652881715E+02 0.  0.
         11    1    3    3    0    0 -0.23688978969E+02 -0.34828801340E+02  0.13659120479E+02  0.44280748637E+02  0.51100000000E-03 0. -1.
         22    1    1    0    0    0  0.21766522642E+01 -0.92131398642E+01 -0.28075107619E+02  0.29628220147E+02  0.00000000000E+00 0.  1.
</event>
<event>
 5    1  0.3144657E-003  0.9118800E+02  0.7818608E-02  0.1130116E+00
         25   -1    0    0    0    0  0.00000000000E+00  0.00000000000E+00  0.99999998245E-14  0.12500000000E+03  0.12500000000E+03 0.  0.
        -11    1    3    3    0    0  0.45121061888E+02 -0.40825208681E+01  0.29819111325E+02  0.54237962748E+02  0.51100000000E-03 0. -1.
         23    2    1    0    0    0  0.93138584847E+01 -0.19098932599E+02  0.23046463062E+02  0.93652645311E+02  0.88250559929E+02 0.  0.
         11    1    3    3    0    0 -0.35807203403E+02 -0.15016411731E+02 -0.67726482630E+01  0.39414682564E+02  0.51100000000E-03 0.  1.
         22    1    1    0    0    0 -0.93138584847E+01  0.19098932599E+02 -0.23046463062E+02  0.31347354689E+02  0.00000000000E+00 0. -1.
</event>
<event>
 5    1  0.3144657E-003  0.9118800E+02  0.7818608E-02  0.1130116E+00
         25   -1    0    0    0    0  0.00000000000E+00  0.00000000000E+00  0.99999998245E-14  0.12500000000E+03  0.12500000000E+03 0.  0.
        -11    1    3    3    0    0  0.72224783502E+01  0.11912392321E+02 -0.28281612990E+02  0.31526479631E+02  0.51100000000E-03 0.  1.
         23    2    1    0    0    0 -0.15366834996E+02 -0.28461621110E+02  0.95341303657E+01  0.91279040111E+02  0.84821931289E+02 0.  0.
         11    1    3    3    0    0 -0.22589313346E+02 -0.40374013432E+02  0.37815743356E+02  0.59752560480E+02  0.51100000000E-03 0. -1.
         22    1    1    0    0    0  0.15366834996E+02  0.28461621110E+02 -0.95341303657E+01  0.33720959889E+02  0.00000000000E+00 0. -1.
</event>
<event>
 5    1  0.3144657E-003  0.9118800E+02  0.7818608E-02  0.1130116E+00
         25   -1    0    0    0    0  0.00000000000E+00  0.00000000000E+00  0.99999998245E-14  0.12500000000E+03  0.12500000000E+03 0.  0.
        -11    1    3    3    0    0  0.26959976368E+02 -0.48587339003E+02 -0.26723999208E+02  0.61658267662E+02  0.51100000000E-03 0.  1.
         23    2    1    0    0    0  0.58506175280E+01 -0.24860566871E+02 -0.14040707877E+02  0.95855206497E+02  0.91317039069E+02 0.  0.
         11    1    3    3    0    0 -0.21109358840E+02  0.23726772132E+02  0.12683291331E+02  0.34196938835E+02  0.51100000000E-03 0. -1.
         22    1    1    0    0    0 -0.58506175280E+01  0.24860566871E+02  0.14040707877E+02  0.29144793503E+02  0.00000000000E+00 0.  1.
</event>
<event>
 5    1  0.3144657E-003  0.9118800E+02  0.7818608E-02  0.1130116E+00
         25   -1    0    0    0    0  0.00000000000E+00  0.00000000000E+00  0.99999998245E-14  0.12500000000E+03  0.12500000000E+03 0.  0.
        -11    1    3    3    0    0  0.21447485419E+02  0.51395763408E+01 -0.34737284551E+02  0.41147160461E+02  0.51100000000E-03 0. -1.
         23    2    1    0    0    0 -0.82300347344E+01 -0.25753153348E+02  0.24208888129E+01  0.97855588389E+02  0.94015408828E+02 0.  0.
         11    1    3    3    0    0 -0.29677520153E+02 -0.30892729689E+02  0.37158173364E+02  0.56708427928E+02  0.51100000000E-03 0.  1.
         22    1    1    0    0    0  0.82300347344E+01  0.25753153348E+02 -0.24208888129E+01  0.27144411611E+02  0.00000000000E+00 0. -1.
</event>
<event>
 5    1  0.3144657E-003  0.9118800E+02  0.7818608E-02  0.1130116E+00
         25   -1    0    0    0    0  0.00000000000E+00  0.00000000000E+00  0.99999998245E-14  0.12500000000E+03  0.12500000000E+03 0.  0.
        -11    1    3    3    0    0  0.22895122874E+02  0.24108275688E+02 -0.14870319754E+02  0.36421449970E+02  0.51100000000E-03 0.  1.
         23    2    1    0    0    0 -0.61213198749E+01 -0.25858827329E+02 -0.15558778394E+02  0.94206736240E+02  0.89031927195E+02 0.  0.
         11    1    3    3    0    0 -0.29016442749E+02 -0.49967103018E+02 -0.68845863964E+00  0.57785286270E+02  0.51100000000E-03 0. -1.
         22    1    1    0    0    0  0.61213198749E+01  0.25858827329E+02  0.15558778394E+02  0.30793263760E+02  0.00000000000E+00 0. -1.
</event>
<event>
 5    1  0.3144657E-003  0.9118800E+02  0.7818608E-02  0.1130116E+00
         25   -1    0    0    0    0  0.00000000000E+00  0.00000000000E+00  0.99999998245E-14  0.12500000000E+03  0.12500000000E+03 0.  0.
        -11    1    3    3    0    0  0.16123929394E+02  0.10235091695E+02  0.26525251907E+02  0.32685274821E+02  0.51100000000E-03 0. -1.
         23    2    1    0    0    0 -0.20581065929E+02 -0.14752053143E+02 -0.16710940519E+02  0.94660934758E+02  0.89667350186E+02 0.  0.
         11    1    3    3    0    0 -0.36704995323E+02 -0.24987144838E+02 -0.43236192427E+02  0.61975659937E+02  0.51100000000E-03 0.  1.
         22    1    1    0    0    0  0.20581065929E+02  0.14752053143E+02  0.16710940519E+02  0.30339065242E+02  0.00000000000E+00 0.  1.
</event>
<event>
 5    1  0.3144657E-003  0.9118800E+02  0.7818608E-02  0.1130116E+00
         25   -1    0    0    0    0  0.00000000000E+00  0.00000000000E+00  0.99999998245E-14  0.12500000000E+03  0.12500000000E+03 0.  0.
        -11    1    3    3    0    0  0.35002042255E+02  0.26323066874E+02  0.36421822375E+02  0.56961354944E+02  0.51100000000E-03 0.  1.
         23    2    1    0    0    0 -0.43413852603E+01  0.12988285478E+02  0.17943814134E+02  0.10242736942E+03  0.99909170525E+02 0.  0.
         11    1    3    3    0    0 -0.39343427515E+02 -0.13334781395E+02 -0.18478008241E+02  0.45466014476E+02  0.51100000000E-03 0. -1.
         22    1    1    0    0    0  0.43413852603E+01 -0.12988285478E+02 -0.17943814134E+02  0.22572630580E+02  0.00000000000E+00 0.  1.
</event>
<event>
 5    1  0.3144657E-003  0.9118800E+02  0.7818608E-02  0.1130116E+00
         25   -1    0    0    0    0  0.00000000000E+00  0.00000000000E+00  0.99999998245E-14  0.12500000000E+03  0.12500000000E+03 0.  0.
        -11    1    3    3    0    0  0.30602763301E+02  0.48004340967E+02  0.18165567677E+01  0.56958280803E+02  0.51100000000E-03 0.  1.
         23    2    1    0    0    0  0.25446273648E+02  0.99271333307E+01  0.93796031017E+01  0.96120287863E+02  0.91679179566E+02 0.  0.
         11    1    3    3    0    0 -0.51564896523E+01 -0.38077207636E+02  0.75630463341E+01  0.39162007060E+02  0.51100000000E-03 0. -1.
         22    1    1    0    0    0 -0.25446273648E+02 -0.99271333307E+01 -0.93796031017E+01  0.28879712137E+02  0.00000000000E+00 0.  1.
</event>
<event>
 5    1  0.3144657E-003  0.9118800E+02  0.7818608E-02  0.1130116E+00
         25   -1    0    0    0    0  0.00000000000E+00  0.00000000000E+00  0.99999998245E-14  0.12500000000E+03  0.12500000000E+03 0.  0.
        -11    1    3    3    0    0  0.14671174679E+02 -0.19676819857E+02  0.18558795825E+02  0.30770919858E+02  0.51100000000E-03 0.  1.
         23    2    1    0    0    0 -0.21717515804E+02 -0.35253404818E+01 -0.26274877731E+02  0.90729783806E+02  0.84008606413E+02 0.  0.
         11    1    3    3    0    0 -0.36388690483E+02  0.16151479375E+02 -0.44833673557E+02  0.59958863948E+02  0.51100000000E-03 0. -1.
         22    1    1    0    0    0  0.21717515804E+02  0.35253404818E+01  0.26274877731E+02  0.34270216194E+02  0.00000000000E+00 0. -1.
</event>
<event>
 5    1  0.3144657E-003  0.9118800E+02  0.7818608E-02  0.1130116E+00
         25   -1    0    0    0    0  0.00000000000E+00  0.00000000000E+00  0.99999998245E-14  0.12500000000E+03  0.12500000000E+03 0.  0.
        -11    1    3    3    0    0 -0.22275093534E+02  0.46451682437E+02 -0.22002353884E+02  0.56018230692E+02  0.51100000000E-03 0.  1.
         23    2    1    0    0    0 -0.26845956754E+02  0.11585930457E+02 -0.41081585049E+01  0.95473467103E+02  0.90792988582E+02 0.  0.
         11    1    3    3    0    0 -0.45708632201E+01 -0.34865751980E+02  0.17894195379E+02  0.39455236411E+02  0.51100000000E-03 0. -1.
         22    1    1    0    0    0  0.26845956754E+02 -0.11585930457E+02  0.41081585049E+01  0.29526532897E+02  0.00000000000E+00 0.  1.
</event>
<event>
 5    1  0.3144657E-003  0.9118800E+02  0.7818608E-02  0.1130116E+00
         25   -1    0    0    0    0  0.00000000000E+00  0.00000000000E+00  0.99999998245E-14  0.12500000000E+03  0.12500000000E+03 0.  0.
        -11    1    3    3    0    0  0.13455028010E+02 -0.39926208434E+02 -0.10010111692E+02  0.43305221798E+02  0.51100000000E-03 0.  1.
         23    2    1    0    0    0  0.99829550127E+01 -0.87246839870E+01 -0.37619398943E+02  0.85112675218E+02  0.75187557511E+02 0.  0.
         11    1    3    3    0    0 -0.34720729973E+01  0.31201524447E+02 -0.27609287251E+02  0.41807453420E+02  0.51100000000E-03 0. -1.
         22    1    1    0    0    0 -0.99829550127E+01  0.87246839870E+01  0.37619398943E+02  0.39887324782E+02  0.00000000000E+00 0. -1.
</event>
<event>
 5    1  0.3144657E-003  0.9118800E+02  0.7818608E-02  0.1130116E+00
         25   -1    0    0    0    0  0.00000000000E+00  0.00000000000E+00  0.99999998245E-14  0.12500000000E+03  0.12500000000E+03 0.  0.
        -11    1    3    3    0    0  0.27222223389E+02 -0.16223517148E+02  0.12048216756E+02  0.33902971583E+02  0.51100000000E-03 0.  1.
         23    2    1    0    0    0 -0.12519546158E+02  0.25242297071E+02 -0.95263010910E+01  0.95256714877E+02  0.90494081129E+02 0.  0.
         11    1    3    3    0    0 -0.39741769548E+02  0.41465814219E+02 -0.21574517847E+02  0.61353743294E+02  0.51100000000E-03 0. -1.
         22    1    1    0    0    0  0.12519546158E+02 -0.25242297071E+02  0.95263010910E+01  0.29743285123E+02  0.00000000000E+00 0. -1.
</event>
<event>
 5    1  0.3144657E-003  0.9118800E+02  0.7818608E-02  0.1130116E+00
         25   -1    0    0    0    0  0.00000000000E+00  0.00000000000E+00  0.99999998245E-14  0.12500000000E+03  0.12500000000E+03 0.  0.
        -11    1    3    3    0    0  0.29893169031E+02  0.14286532777E+02 -0.25951940700E+01  0.33233140177E+02  0.51100000000E-03 0. -1.
         23    2    1    0    0    0 -0.21851321192E+02 -0.12493653841E+02  0.16911422056E+02  0.94675623335E+02  0.89687824334E+02 0.  0.
         11    1    3    3    0    0 -0.51744490223E+02 -0.26780186618E+02  0.19506616126E+02  0.61442483158E+02  0.51100000000E-03 0.  1.
         22    1    1    0    0    0  0.21851321192E+02  0.12493653841E+02 -0.16911422056E+02  0.30324376665E+02  0.00000000000E+00 0.  1.
</event>
<event>
 5    1  0.3144657E-003  0.9118800E+02  0.7818608E-02  0.1130116E+00
         25   -1    0    0    0    0  0.00000000000E+00  0.00000000000E+00  0.99999998245E-14  0.12500000000E+03  0.12500000000E+03 0.  0.
        -11    1    3    3    0    0  0.95391431646E+01 -0.37560919702E+02 -0.23638062442E+01  0.38825320622E+02  0.51100000000E-03 0. -1.
         23    2    1    0    0    0  0.22776591333E+02  0.15011546916E+02 -0.14097489711E+02  0.94293992937E+02  0.89154350619E+02 0.  0.
         11    1    3    3    0    0  0.13237448169E+02  0.52572466619E+02 -0.11733683467E+02  0.55468672315E+02  0.51100000000E-03 0.  1.
         22    1    1    0    0    0 -0.22776591333E+02 -0.15011546916E+02  0.14097489711E+02  0.30706007063E+02  0.00000000000E+00 0.  1.
</event>
<event>
 5    1  0.3144657E-003  0.9118800E+02  0.7818608E-02  0.1130116E+00
         25   -1    0    0    0    0  0.00000000000E+00  0.00000000000E+00  0.99999998245E-14  0.12500000000E+03  0.12500000000E+03 0.  0.
        -11    1    3    3    0    0 -0.14441821623E+02  0.13303520955E+02 -0.26108493643E+02  0.32668078030E+02  0.51100000000E-03 0.  1.
         23    2    1    0    0    0  0.53808444340E+01 -0.20081748494E+02  0.22159799618E+02  0.94614364767E+02  0.89602406172E+02 0.  0.
         11    1    3    3    0    0  0.19822666058E+02 -0.33385269450E+02  0.48268293261E+02  0.61946286737E+02  0.51100000000E-03 0. -1.
         22    1    1    0    0    0 -0.53808444340E+01  0.20081748494E+02 -0.22159799618E+02  0.30385635233E+02  0.00000000000E+00 0. -1.
</event>
<event>
 5    1  0.3144657E-003  0.9118800E+02  0.7818608E-02  0.1130116E+00
         25   -1    0    0    0    0  0.00000000000E+00  0.00000000000E+00  0.99999998245E-14  0.12500000000E+03  0.12500000000E+03 0.  0.
        -11    1    3    3    0    0  0.10724392294E+02 -0.51195906928E+02 -0.20400338714E+02  0.56144521515E+02  0.51100000000E-03 0.  1.
         23    2    1    0    0    0 -0.13560401701E+02 -0.27597844818E+02 -0.33150968745E+01  0.94072416839E+02  0.88843143854E+02 0.  0.
         11    1    3    3    0    0 -0.24284793996E+02  0.23598062110E+02  0.17085241839E+02  0.37927895324E+02  0.51100000000E-03 0. -1.
         22    1    1    0    0    0  0.13560401701E+02  0.27597844818E+02  0.33150968745E+01  0.30927583161E+02  0.00000000000E+00 0.  1.
</event>
<event>
 5    1  0.3144657E-003  0.9118800E+02  0.7818608E-02  0.1130116E+00
         25   -1    0    0    0    0  0.00000000000E+00  0.00000000000E+00  0.99999998245E-14  0.12500000000E+03  0.12500000000E+03 0.  0.
        -11    1    3    3    0    0  0.27691995279E+02 -0.21203316928E+01 -0.20093157434E+02  0.34279401759E+02  0.51100000000E-03 0. -1.
         23    2    1    0    0    0 -0.26763717168E+02 -0.51353090757E+01  0.92624501048E+01  0.96217002625E+02  0.91810950633E+02 0.  0.
         11    1    3    3    0    0 -0.54455712448E+02 -0.30149773829E+01  0.29355607538E+02  0.61937600866E+02  0.51100000000E-03 0.  1.
         22    1    1    0    0    0  0.26763717168E+02  0.51353090757E+01 -0.92624501048E+01  0.28782997375E+02  0.00000000000E+00 0.  1.
</event>
<event>
 5    1  0.3144657E-003  0.9118800E+02  0.7818608E-02  0.1130116E+00
         25   -1    0    0    0    0  0.00000000000E+00  0.00000000000E+00  0.99999998245E-14  0.12500000000E+03  0.12500000000E+03 0.  0.
        -11    1    3    3    0    0 -0.58456450198E+01 -0.20148540333E+02  0.23528144457E+02  0.31523147450E+02  0.51100000000E-03 0.  1.
         23    2    1    0    0    0  0.17929316460E+01  0.26203376330E+02 -0.17122823699E+02  0.93646808354E+02  0.88242291949E+02 0.  0.
         11    1    3    3    0    0  0.76385766657E+01  0.46351916663E+02 -0.40650968156E+02  0.62123660904E+02  0.51100000000E-03 0. -1.
         22    1    1    0    0    0 -0.17929316460E+01 -0.26203376330E+02  0.17122823699E+02  0.31353191646E+02  0.00000000000E+00 0. -1.
</event>
<event>
 5    1  0.3144657E-003  0.9118800E+02  0.7818608E-02  0.1130116E+00
         25   -1    0    0    0    0  0.00000000000E+00  0.00000000000E+00  0.99999998245E-14  0.12500000000E+03  0.12500000000E+03 0.  0.
        -11    1    3    3    0    0  0.35523636517E+02 -0.45535770861E+02 -0.23775211039E+02  0.62455550910E+02  0.51100000000E-03 0. -1.
         23    2    1    0    0    0  0.17204818091E+02 -0.21203288338E+02 -0.95327562219E+01  0.96078405247E+02  0.91622056906E+02 0.  0.
         11    1    3    3    0    0 -0.18318818426E+02  0.24332482523E+02  0.14242454817E+02  0.33622854337E+02  0.51100000000E-03 0.  1.
         22    1    1    0    0    0 -0.17204818091E+02  0.21203288338E+02  0.95327562219E+01  0.28921594753E+02  0.00000000000E+00 0. -1.
</event>
<event>
 5    1  0.3144657E-003  0.9118800E+02  0.7818608E-02  0.1130116E+00
         25   -1    0    0    0    0  0.00000000000E+00  0.00000000000E+00  0.99999998245E-14  0.12500000000E+03  0.12500000000E+03 0.  0.
        -11    1    3    3    0    0  0.19793295474E+02  0.21725737026E+02 -0.29758034546E+02  0.41824906638E+02  0.51100000000E-03 0. -1.
         23    2    1    0    0    0  0.23287414009E+02 -0.13262277938E+02  0.11329860366E+02  0.95904340474E+02  0.91384271724E+02 0.  0.
         11    1    3    3    0    0  0.34941185358E+01 -0.34988014964E+02  0.41087894911E+02  0.54079433836E+02  0.51100000000E-03 0.  1.
         22    1    1    0    0    0 -0.23287414009E+02  0.13262277938E+02 -0.11329860366E+02  0.29095659526E+02  0.00000000000E+00 0.  1.
</event>
<event>
 5    1  0.3144657E-003  0.9118800E+02  0.7818608E-02  0.1130116E+00
         25   -1    0    0    0    0  0.00000000000E+00  0.00000000000E+00  0.99999998245E-14  0.12500000000E+03  0.12500000000E+03 0.  0.
        -11    1    3    3    0    0  0.18950724998E+02 -0.43005045124E+02 -0.97754937177E+01  0.48001293334E+02  0.51100000000E-03 0.  1.
         23    2    1    0    0    0 -0.21628963066E+01 -0.93905481993E+01 -0.30664224794E+02  0.92857268347E+02  0.87116686615E+02 0.  0.
         11    1    3    3    0    0 -0.21113621305E+02  0.33614496925E+02 -0.20888731076E+02  0.44855975013E+02  0.51100000000E-03 0. -1.
         22    1    1    0    0    0  0.21628963066E+01  0.93905481993E+01  0.30664224794E+02  0.32142731653E+02  0.00000000000E+00 0. -1.
</event>
<event>
 5    1  0.3144657E-003  0.9118800E+02  0.7818608E-02  0.1130116E+00
         25   -1    0    0    0    0  0.00000000000E+00  0.00000000000E+00  0.99999998245E-14  0.12500000000E+03  0.12500000000E+03 0.  0.
        -11    1    3    3    0    0 -0.62891883309E+00  0.43764489902E+02 -0.81252778283E+01  0.44516808683E+02  0.51100000000E-03 0.  1.
         23    2    1    0    0    0 -0.15410260667E+02  0.48204907291E+00 -0.26930220793E+02  0.93968640102E+02  0.88697012495E+02 0.  0.
         11    1    3    3    0    0 -0.14781341834E+02 -0.43282440829E+02 -0.18804942965E+02  0.49451831419E+02  0.51100000000E-03 0. -1.
         22    1    1    0    0    0  0.15410260667E+02 -0.48204907291E+00  0.26930220793E+02  0.31031359898E+02  0.00000000000E+00 0.  1.
</event>
<event>
 5    1  0.3144657E-003  0.9118800E+02  0.7818608E-02  0.1130116E+00
         25   -1    0    0    0    0  0.00000000000E+00  0.00000000000E+00  0.99999998245E-14  0.12500000000E+03  0.12500000000E+03 0.  0.
        -11    1    3    3    0    0 -0.32234908672E+02  0.42516059008E+02  0.11113826466E+02  0.54499740822E+02  0.51100000000E-03 0. -1.
         23    2    1    0    0    0 -0.94091382423E+01  0.22784732148E+02 -0.16448024954E+02  0.95365334043E+02  0.90643993241E+02 0.  0.
         11    1    3    3    0    0  0.22825770430E+02 -0.19731326860E+02 -0.27561851420E+02  0.40865593221E+02  0.51100000000E-03 0.  1.
         22    1    1    0    0    0  0.94091382423E+01 -0.22784732148E+02  0.16448024954E+02  0.29634665957E+02  0.00000000000E+00 0. -1.
</event>
<event>
 5    1  0.3144657E-003  0.9118800E+02  0.7818608E-02  0.1130116E+00
         25   -1    0    0    0    0  0.00000000000E+00  0.00000000000E+00  0.99999998245E-14  0.12500000000E+03  0.12500000000E+03 0.  0.
        -11    1    3    3    0    0 -0.25993558351E+02 -0.31533492712E+02  0.34709359294E+02  0.53616843074E+02  0.51100000000E-03 0.  1.
         23    2    1    0    0    0  0.98881360087E+01 -0.22799682243E+02  0.18853385115E+02  0.93806236611E+02  0.88467842478E+02 0.  0.
         11    1    3    3    0    0  0.35881694360E+02  0.87338104690E+01 -0.15855974179E+02  0.40189393537E+02  0.51100000000E-03 0. -1.
         22    1    1    0    0    0 -0.98881360087E+01  0.22799682243E+02 -0.18853385115E+02  0.31193763389E+02  0.00000000000E+00 0.  1.
</event>
<event>
 5    1  0.3144657E-003  0.9118800E+02  0.7818608E-02  0.1130116E+00
         25   -1    0    0    0    0  0.00000000000E+00  0.00000000000E+00  0.99999998245E-14  0.12500000000E+03  0.12500000000E+03 0.  0.
        -11    1    3    3    0    0 -0.68440995000E+01  0.23923736986E+02  0.23832325572E+02  0.34455284526E+02  0.51100000000E-03 0. -1.
         23    2    1    0    0    0  0.13867555429E+02 -0.62634440088E+01 -0.25148956751E+02  0.95605955534E+02  0.90975210268E+02 0.  0.
         11    1    3    3    0    0  0.20711654929E+02 -0.30187180995E+02 -0.48981282324E+02  0.61150671007E+02  0.51100000000E-03 0.  1.
         22    1    1    0    0    0 -0.13867555429E+02  0.62634440088E+01  0.25148956751E+02  0.29394044466E+02  0.00000000000E+00 0.  1.
</event>
<event>
 5    1  0.3144657E-003  0.9118800E+02  0.7818608E-02  0.1130116E+00
         25   -1    0    0    0    0  0.00000000000E+00  0.00000000000E+00  0.99999998245E-14  0.12500000000E+03  0.12500000000E+03 0.  0.
        -11    1    3    3    0    0  0.33602698917E+02 -0.33504618508E+02 -0.38078497394E+02  0.60841374080E+02  0.51100000000E-03 0. -1.
         23    2    1    0    0    0  0.73743946761E+01 -0.21603950874E+02 -0.16312578742E+02  0.96942690517E+02  0.92793710074E+02 0.  0.
         11    1    3    3    0    0 -0.26228304241E+02  0.11900667634E+02  0.21765918652E+02  0.36101316437E+02  0.51100000000E-03 0.  1.
         22    1    1    0    0    0 -0.73743946761E+01  0.21603950874E+02  0.16312578742E+02  0.28057309483E+02  0.00000000000E+00 0. -1.
</event>
<event>
 5    1  0.3144657E-003  0.9118800E+02  0.7818608E-02  0.1130116E+00
         25   -1    0    0    0    0  0.00000000000E+00  0.00000000000E+00  0.99999998245E-14  0.12500000000E+03  0.12500000000E+03 0.  0.
        -11    1    3    3    0    0 -0.35245408421E+02 -0.34843697954E+02 -0.36041564782E+02  0.61280637187E+02  0.51100000000E-03 0. -1.
         23    2    1    0    0    0 -0.10040966268E+02 -0.20258927928E+02 -0.21372718277E+02  0.93886686918E+02  0.88581441225E+02 0.  0.
         11    1    3    3    0    0  0.25204442154E+02  0.14584770026E+02  0.14668846505E+02  0.32606049731E+02  0.51100000000E-03 0.  1.
         22    1    1    0    0    0  0.10040966268E+02  0.20258927928E+02  0.21372718277E+02  0.31113313082E+02  0.00000000000E+00 0. -1.
</event>
<event>
 5    1  0.3144657E-003  0.9118800E+02  0.7818608E-02  0.1130116E+00
         25   -1    0    0    0    0  0.00000000000E+00  0.00000000000E+00  0.99999998245E-14  0.12500000000E+03  0.12500000000E+03 0.  0.
        -11    1    3    3    0    0 -0.25839358511E+02  0.71972773797E+01 -0.34698877878E+02  0.43857557800E+02  0.51100000000E-03 0.  1.
         23    2    1    0    0    0  0.20275910604E+02  0.15747182250E+02 -0.18012481154E+02  0.93638626035E+02  0.88230700489E+02 0.  0.
         11    1    3    3    0    0  0.46115269115E+02  0.85499048700E+01  0.16686396724E+02  0.49781068236E+02  0.51100000000E-03 0. -1.
         22    1    1    0    0    0 -0.20275910604E+02 -0.15747182250E+02  0.18012481154E+02  0.31361373965E+02  0.00000000000E+00 0. -1.
</event>
<event>
 5    1  0.3144657E-003  0.9118800E+02  0.7818608E-02  0.1130116E+00
         25   -1    0    0    0    0  0.00000000000E+00  0.00000000000E+00  0.99999998245E-14  0.12500000000E+03  0.12500000000E+03 0.  0.
        -11    1    3    3    0    0 -0.34658134668E+02 -0.20844923774E+01  0.13712156013E+02  0.37330344626E+02  0.51100000000E-03 0.  1.
         23    2    1    0    0    0  0.98921469520E+01  0.23557276980E+02 -0.14144725999E+02  0.95796008087E+02  0.91235968904E+02 0.  0.
         11    1    3    3    0    0  0.44550281620E+02  0.25641769358E+02 -0.27856882012E+02  0.58465663461E+02  0.51100000000E-03 0. -1.
         22    1    1    0    0    0 -0.98921469520E+01 -0.23557276980E+02  0.14144725999E+02  0.29203991913E+02  0.00000000000E+00 0. -1.
</event>
<event>
 5    1  0.3144657E-003  0.9118800E+02  0.7818608E-02  0.1130116E+00
         25   -1    0    0    0    0  0.00000000000E+00  0.00000000000E+00  0.99999998245E-14  0.12500000000E+03  0.12500000000E+03 0.  0.
        -11    1    3    3    0    0  0.68774346597E-01  0.35916211726E+02  0.89053726107E+01  0.37003846506E+02  0.51100000000E-03 0.  1.
         23    2    1    0    0    0 -0.22581372303E+02 -0.10776363747E+02 -0.16744686413E+02  0.94892975674E+02  0.89990243462E+02 0.  0.
         11    1    3    3    0    0 -0.22650146650E+02 -0.46692575473E+02 -0.25650059024E+02  0.57889129168E+02  0.51100000000E-03 0. -1.
         22    1    1    0    0    0  0.22581372303E+02  0.10776363747E+02  0.16744686413E+02  0.30107024326E+02  0.00000000000E+00 0. -1.
</event>
<event>
 5    1  0.3144657E-003  0.9118800E+02  0.7818608E-02  0.1130116E+00
         25   -1    0    0    0    0  0.00000000000E+00  0.00000000000E+00  0.99999998245E-14  0.12500000000E+03  0.12500000000E+03 0.  0.
        -11    1    3    3    0    0 -0.47149664176E+02  0.36463052313E+02  0.18285002291E+02  0.62345700132E+02  0.51100000000E-03 0.  1.
         23    2    1    0    0    0 -0.21263334390E+02  0.17078170561E+02  0.11565800530E+02  0.95376343220E+02  0.90659173860E+02 0.  0.
         11    1    3    3    0    0  0.25886329786E+02 -0.19384881752E+02 -0.67192017610E+01  0.33030643089E+02  0.51100000000E-03 0. -1.
         22    1    1    0    0    0  0.21263334390E+02 -0.17078170561E+02 -0.11565800530E+02  0.29623656780E+02  0.00000000000E+00 0.  1.
</event>
<event>
 5    1  0.3144657E-003  0.9118800E+02  0.7818608E-02  0.1130116E+00
         25   -1    0    0    0    0  0.00000000000E+00  0.00000000000E+00  0.99999998245E-14  0.12500000000E+03  0.12500000000E+03 0.  0.
        -11    1    3    3    0    0  0.27061743944E+02 -0.93105526433E+01 -0.39060171537E+02  0.48422323123E+02  0.51100000000E-03 0.  1.
         23    2    1    0    0    0 -0.10188596518E+02 -0.23709066653E+02 -0.13044994343E+02  0.96084619699E+02  0.91630534893E+02 0.  0.
         11    1    3    3    0    0 -0.37250340462E+02 -0.14398514010E+02  0.26015177194E+02  0.47662296576E+02  0.51100000000E-03 0. -1.
         22    1    1    0    0    0  0.10188596518E+02  0.23709066653E+02  0.13044994343E+02  0.28915380301E+02  0.00000000000E+00 0.  1.
</event>
<event>
 5    1  0.3144657E-003  0.9118800E+02  0.7818608E-02  0.1130116E+00
         25   -1    0    0    0    0  0.00000000000E+00  0.00000000000E+00  0.99999998245E-14  0.12500000000E+03  0.12500000000E+03 0.  0.
        -11    1    3    3    0    0 -0.39504622562E+02  0.24458733464E+01 -0.12904997968E+01  0.39601299097E+02  0.51100000000E-03 0.  1.
         23    2    1    0    0    0  0.10072672436E+02 -0.16714553017E+02 -0.21040100886E+02  0.96302946878E+02  0.91927888693E+02 0.  0.
         11    1    3    3    0    0  0.49577294998E+02 -0.19160426363E+02 -0.19749601089E+02  0.56701647782E+02  0.51100000000E-03 0. -1.
         22    1    1    0    0    0 -0.10072672436E+02  0.16714553017E+02  0.21040100886E+02  0.28697053122E+02  0.00000000000E+00 0. -1.
</event>
<event>
 5    1  0.3144657E-003  0.9118800E+02  0.7818608E-02  0.1130116E+00
         25   -1    0    0    0    0  0.00000000000E+00  0.00000000000E+00  0.99999998245E-14  0.12500000000E+03  0.12500000000E+03 0.  0.
        -11    1    3    3    0    0  0.58035009279E+01  0.13631215970E+02  0.37236936223E+02  0.40075929077E+02  0.51100000000E-03 0.  1.
         23    2    1    0    0    0  0.22178510061E+02  0.12367145174E+02 -0.15458359182E+02  0.95271336107E+02  0.90514275265E+02 0.  0.
         11    1    3    3    0    0  0.16375009133E+02 -0.12640707963E+01 -0.52695295405E+02  0.55195407030E+02  0.51100000000E-03 0. -1.
         22    1    1    0    0    0 -0.22178510061E+02 -0.12367145174E+02  0.15458359182E+02  0.29728663893E+02  0.00000000000E+00 0. -1.
</event>
<event>
 5    1  0.3144657E-003  0.9118800E+02  0.7818608E-02  0.1130116E+00
         25   -1    0    0    0    0  0.00000000000E+00  0.00000000000E+00  0.99999998245E-14  0.12500000000E+03  0.12500000000E+03 0.  0.
        -11    1    3    3    0    0  0.21796974727E+02 -0.24810065478E+02  0.91923908453E+01  0.34280424530E+02  0.51100000000E-03 0. -1.
         23    2    1    0    0    0 -0.51805853204E+01  0.23913226668E+02 -0.16370996031E+02  0.95560394280E+02  0.90912587522E+02 0.  0.
         11    1    3    3    0    0 -0.26977560047E+02  0.48723292146E+02 -0.25563386876E+02  0.61279969749E+02  0.51100000000E-03 0.  1.
         22    1    1    0    0    0  0.51805853204E+01 -0.23913226668E+02  0.16370996031E+02  0.29439605720E+02  0.00000000000E+00 0.  1.
</event>
<event>
 5    1  0.3144657E-003  0.9118800E+02  0.7818608E-02  0.1130116E+00
         25   -1    0    0    0    0  0.00000000000E+00  0.00000000000E+00  0.99999998245E-14  0.12500000000E+03  0.12500000000E+03 0.  0.
        -11    1    3    3    0    0 -0.40743223227E+02 -0.43218411467E+02 -0.15798753938E+02  0.61460897772E+02  0.51100000000E-03 0.  1.
         23    2    1    0    0    0 -0.18130166487E+02 -0.17311349115E+02 -0.14854371153E+02  0.95861741861E+02  0.91325984611E+02 0.  0.
         11    1    3    3    0    0  0.22613056740E+02  0.25907062353E+02  0.94438278453E+00  0.34400844088E+02  0.51100000000E-03 0. -1.
         22    1    1    0    0    0  0.18130166487E+02  0.17311349115E+02  0.14854371153E+02  0.29138258139E+02  0.00000000000E+00 0.  1.
</event>
<event>
 5    1  0.3144657E-003  0.9118800E+02  0.7818608E-02  0.1130116E+00
         25   -1    0    0    0    0  0.00000000000E+00  0.00000000000E+00  0.99999998245E-14  0.12500000000E+03  0.12500000000E+03 0.  0.
        -11    1    3    3    0    0  0.26790410476E+02 -0.30150201412E+02  0.16172312534E+02  0.43454624974E+02  0.51100000000E-03 0. -1.
         23    2    1    0    0    0 -0.22788492456E+02 -0.15955808154E+02  0.10199083411E+02  0.95370209169E+02  0.90650715895E+02 0.  0.
         11    1    3    3    0    0 -0.49578902932E+02  0.14194393258E+02 -0.59732291236E+01  0.51915584196E+02  0.51100000000E-03 0.  1.
         22    1    1    0    0    0  0.22788492456E+02  0.15955808154E+02 -0.10199083411E+02  0.29629790831E+02  0.00000000000E+00 0.  1.
</event>
<event>
 5    1  0.3144657E-003  0.9118800E+02  0.7818608E-02  0.1130116E+00
         25   -1    0    0    0    0  0.00000000000E+00  0.00000000000E+00  0.99999998245E-14  0.12500000000E+03  0.12500000000E+03 0.  0.
        -11    1    3    3    0    0  0.15256947733E+02  0.37402040215E+02  0.40886033088E+02  0.57474818559E+02  0.51100000000E-03 0. -1.
         23    2    1    0    0    0  0.17957938543E+02  0.15294305855E+02  0.32751704224E+01  0.10118550673E+03  0.98343157785E+02 0.  0.
         11    1    3    3    0    0  0.27009908095E+01 -0.22107734361E+02 -0.37610862666E+02  0.43710688174E+02  0.51100000000E-03 0.  1.
         22    1    1    0    0    0 -0.17957938543E+02 -0.15294305855E+02 -0.32751704224E+01  0.23814493268E+02  0.00000000000E+00 0. -1.
</event>
<event>
 5    1  0.3144657E-003  0.9118800E+02  0.7818608E-02  0.1130116E+00
         25   -1    0    0    0    0  0.00000000000E+00  0.00000000000E+00  0.99999998245E-14  0.12500000000E+03  0.12500000000E+03 0.  0.
        -11    1    3    3    0    0 -0.24637896154E+02  0.37448897011E+02 -0.27161714359E+02  0.52413781980E+02  0.51100000000E-03 0.  1.
         23    2    1    0    0    0  0.33749900212E+01  0.90740826267E+01 -0.31049812906E+02  0.92475848748E+02  0.86567674031E+02 0.  0.
         11    1    3    3    0    0  0.28012886175E+02 -0.28374814384E+02 -0.38880985463E+01  0.40062066768E+02  0.51100000000E-03 0. -1.
         22    1    1    0    0    0 -0.33749900212E+01 -0.90740826267E+01  0.31049812906E+02  0.32524151252E+02  0.00000000000E+00 0.  1.
</event>
<event>
 5    1  0.3144657E-003  0.9118800E+02  0.7818608E-02  0.1130116E+00
         25   -1    0    0    0    0  0.00000000000E+00  0.00000000000E+00  0.99999998245E-14  0.12500000000E+03  0.12500000000E+03 0.  0.
        -11    1    3    3    0    0  0.29753234368E+02  0.47799329837E+02  0.33925911024E+01  0.56405146600E+02  0.51100000000E-03 0.  1.
         23    2    1    0    0    0  0.27338598839E+02  0.96295219903E+01 -0.50665806833E+01  0.95575572732E+02  0.90933454696E+02 0.  0.
         11    1    3    3    0    0 -0.24146355292E+01 -0.38169807847E+02 -0.84591717857E+01  0.39170426132E+02  0.51100000000E-03 0. -1.
         22    1    1    0    0    0 -0.27338598839E+02 -0.96295219903E+01  0.50665806833E+01  0.29424427268E+02  0.00000000000E+00 0.  1.
</event>
<event>
 5    1  0.3144657E-003  0.9118800E+02  0.7818608E-02  0.1130116E+00
         25   -1    0    0    0    0  0.00000000000E+00  0.00000000000E+00  0.99999998245E-14  0.12500000000E+03  0.12500000000E+03 0.  0.
        -11    1    3    3    0    0 -0.19731254372E+02 -0.14712496425E+02 -0.20665145330E+02  0.32137644312E+02  0.51100000000E-03 0. -1.
         23    2    1    0    0    0  0.25418398622E+02 -0.29561276153E+02 -0.23019469701E+02  0.79724620139E+02  0.65621300160E+02 0.  0.
         11    1    3    3    0    0  0.45149652994E+02 -0.14848779728E+02 -0.23543243715E+01  0.47586975827E+02  0.51100000000E-03 0.  1.
         22    1    1    0    0    0 -0.25418398622E+02  0.29561276153E+02  0.23019469701E+02  0.45275379861E+02  0.00000000000E+00 0.  1.
</event>
<event>
 5    1  0.3144657E-003  0.9118800E+02  0.7818608E-02  0.1130116E+00
         25   -1    0    0    0    0  0.00000000000E+00  0.00000000000E+00  0.99999998245E-14  0.12500000000E+03  0.12500000000E+03 0.  0.
        -11    1    3    3    0    0 -0.41403206361E+02  0.95053524386E+01  0.12670574792E+02  0.44329681792E+02  0.51100000000E-03 0. -1.
         23    2    1    0    0    0  0.32980198265E+01 -0.13859401174E+02  0.24974493572E+02  0.96247865038E+02  0.91852959993E+02 0.  0.
         11    1    3    3    0    0  0.44701226187E+02 -0.23364753613E+02  0.12303918780E+02  0.51918183247E+02  0.51100000000E-03 0.  1.
         22    1    1    0    0    0 -0.32980198265E+01  0.13859401174E+02 -0.24974493572E+02  0.28752134962E+02  0.00000000000E+00 0.  1.
</event>
<event>
 5    1  0.3144657E-003  0.9118800E+02  0.7818608E-02  0.1130116E+00
         25   -1    0    0    0    0  0.00000000000E+00  0.00000000000E+00  0.99999998245E-14  0.12500000000E+03  0.12500000000E+03 0.  0.
        -11    1    3    3    0    0 -0.11478233811E+01 -0.39107913225E+02  0.42917384070E+02  0.58074505861E+02  0.51100000000E-03 0. -1.
         23    2    1    0    0    0 -0.10424813632E+02 -0.50449127456E+01  0.24516103624E+02  0.97886032736E+02  0.94055877988E+02 0.  0.
         11    1    3    3    0    0 -0.92769902510E+01  0.34063000480E+02 -0.18401280446E+02  0.39811526875E+02  0.51100000000E-03 0.  1.
         22    1    1    0    0    0  0.10424813632E+02  0.50449127456E+01 -0.24516103624E+02  0.27113967264E+02  0.00000000000E+00 0. -1.
</event>
<event>
 5    1  0.3144657E-003  0.9118800E+02  0.7818608E-02  0.1130116E+00
         25   -1    0    0    0    0  0.00000000000E+00  0.00000000000E+00  0.99999998245E-14  0.12500000000E+03  0.12500000000E+03 0.  0.
        -11    1    3    3    0    0  0.21327800235E+02 -0.29019465842E+01 -0.54838711014E+02  0.58911633680E+02  0.51100000000E-03 0.  1.
         23    2    1    0    0    0  0.22946033259E+02 -0.30917586609E+01 -0.18296951925E+02  0.95489699024E+02  0.90815333265E+02 0.  0.
         11    1    3    3    0    0  0.16182330239E+01 -0.18981207668E+00  0.36541759089E+02  0.36578065345E+02  0.51100000000E-03 0. -1.
         22    1    1    0    0    0 -0.22946033259E+02  0.30917586609E+01  0.18296951925E+02  0.29510300976E+02  0.00000000000E+00 0.  1.
</event>
<event>
 5    1  0.3144657E-003  0.9118800E+02  0.7818608E-02  0.1130116E+00
         25   -1    0    0    0    0  0.00000000000E+00  0.00000000000E+00  0.99999998245E-14  0.12500000000E+03  0.12500000000E+03 0.  0.
        -11    1    3    3    0    0 -0.12359288473E+02 -0.36715272906E+02  0.10594228885E+02  0.40162183233E+02  0.51100000000E-03 0. -1.
         23    2    1    0    0    0  0.12067897651E+02  0.16621456041E+02  0.15841236752E+02  0.99060614185E+02  0.95604150256E+02 0.  0.
         11    1    3    3    0    0  0.24427186124E+02  0.53336728947E+02  0.52470078670E+01  0.58898430952E+02  0.51100000000E-03 0.  1.
         22    1    1    0    0    0 -0.12067897651E+02 -0.16621456041E+02 -0.15841236752E+02  0.25939385815E+02  0.00000000000E+00 0.  1.
</event>
<event>
 5    1  0.3144657E-003  0.9118800E+02  0.7818608E-02  0.1130116E+00
         25   -1    0    0    0    0  0.00000000000E+00  0.00000000000E+00  0.99999998245E-14  0.12500000000E+03  0.12500000000E+03 0.  0.
        -11    1    3    3    0    0  0.23718084439E+02 -0.22430130651E+02 -0.27856554954E+02  0.42914402532E+02  0.51100000000E-03 0.  1.
         23    2    1    0    0    0 -0.14622273697E+02  0.16272815124E+02 -0.13645943225E+02  0.99215757397E+02  0.95806781332E+02 0.  0.
         11    1    3    3    0    0 -0.38340358136E+02  0.38702945775E+02  0.14210611729E+02  0.56301354865E+02  0.51100000000E-03 0. -1.
         22    1    1    0    0    0  0.14622273697E+02 -0.16272815124E+02  0.13645943225E+02  0.25784242603E+02  0.00000000000E+00 0. -1.
</event>
<event>
 5    1  0.3144657E-003  0.9118800E+02  0.7818608E-02  0.1130116E+00
         25   -1    0    0    0    0  0.00000000000E+00  0.00000000000E+00  0.99999998245E-14  0.12500000000E+03  0.12500000000E+03 0.  0.
        -11    1    3    3    0    0 -0.42040031581E+02 -0.13474742884E+02  0.10007045944E+02  0.45266697692E+02  0.51100000000E-03 0. -1.
         23    2    1    0    0    0 -0.47137164180E+01 -0.15792124652E+02 -0.24047758645E+02  0.95846869476E+02  0.91305626163E+02 0.  0.
         11    1    3    3    0    0  0.37326315163E+02 -0.23173817682E+01 -0.34054804589E+02  0.50580171785E+02  0.51100000000E-03 0.  1.
         22    1    1    0    0    0  0.47137164180E+01  0.15792124652E+02  0.24047758645E+02  0.29153130524E+02  0.00000000000E+00 0. -1.
</event>
<event>
 5    1  0.3144657E-003  0.9118800E+02  0.7818608E-02  0.1130116E+00
         25   -1    0    0    0    0  0.00000000000E+00  0.00000000000E+00  0.99999998245E-14  0.12500000000E+03  0.12500000000E+03 0.  0.
        -11    1    3    3    0    0  0.17261840186E+02  0.50720070465E+01  0.39232300543E+02  0.43160975292E+02  0.51100000000E-03 0.  1.
         23    2    1    0    0    0  0.17797045581E+02  0.18578680388E+02 -0.12333486974E+02  0.96469015136E+02  0.92153425243E+02 0.  0.
         11    1    3    3    0    0  0.53520539547E+00  0.13506673341E+02 -0.51565787516E+02  0.53308039844E+02  0.51100000000E-03 0. -1.
         22    1    1    0    0    0 -0.17797045581E+02 -0.18578680388E+02  0.12333486974E+02  0.28530984864E+02  0.00000000000E+00 0. -1.
</event>
<event>
 5    1  0.3144657E-003  0.9118800E+02  0.7818608E-02  0.1130116E+00
         25   -1    0    0    0    0  0.00000000000E+00  0.00000000000E+00  0.99999998245E-14  0.12500000000E+03  0.12500000000E+03 0.  0.
        -11    1    3    3    0    0 -0.36533599337E+01 -0.30399208390E+00  0.35091688743E+02  0.35282659610E+02  0.51100000000E-03 0.  1.
         23    2    1    0    0    0 -0.26993573838E+01  0.24036125285E+02 -0.18761922211E+02  0.94389028534E+02  0.89287497073E+02 0.  0.
         11    1    3    3    0    0  0.95400254995E+00  0.24340117369E+02 -0.53853610954E+02  0.59106368925E+02  0.51100000000E-03 0. -1.
         22    1    1    0    0    0  0.26993573838E+01 -0.24036125285E+02  0.18761922211E+02  0.30610971466E+02  0.00000000000E+00 0. -1.
</event>
<event>
 5    1  0.3144657E-003  0.9118800E+02  0.7818608E-02  0.1130116E+00
         25   -1    0    0    0    0  0.00000000000E+00  0.00000000000E+00  0.99999998245E-14  0.12500000000E+03  0.12500000000E+03 0.  0.
        -11    1    3    3    0    0 -0.49027232551E+02 -0.94247226273E+01 -0.41140109023E+01  0.50094111572E+02  0.51100000000E-03 0. -1.
         23    2    1    0    0    0 -0.16927199932E+02  0.15371104349E+02  0.17640340166E+02  0.96121244008E+02  0.91680483212E+02 0.  0.
         11    1    3    3    0    0  0.32100032619E+02  0.24795826976E+02  0.21754351069E+02  0.46027132436E+02  0.51100000000E-03 0.  1.
         22    1    1    0    0    0  0.16927199932E+02 -0.15371104349E+02 -0.17640340166E+02  0.28878755992E+02  0.00000000000E+00 0. -1.
</event>
<event>
 5    1  0.3144657E-003  0.9118800E+02  0.7818608E-02  0.1130116E+00
         25   -1    0    0    0    0  0.00000000000E+00  0.00000000000E+00  0.99999998245E-14  0.12500000000E+03  0.12500000000E+03 0.  0.
        -11    1    3    3    0    0 -0.11585009809E+02  0.26237725638E+02 -0.46452309059E+02  0.54593476864E+02  0.51100000000E-03 0.  1.
         23    2    1    0    0    0  0.13500857708E+02  0.21725557030E+02 -0.14059194528E+02  0.95812092608E+02  0.91258003222E+02 0.  0.
         11    1    3    3    0    0  0.25085867517E+02 -0.45121686075E+01  0.32393114531E+02  0.41218615744E+02  0.51100000000E-03 0. -1.
         22    1    1    0    0    0 -0.13500857708E+02 -0.21725557030E+02  0.14059194528E+02  0.29187907392E+02  0.00000000000E+00 0.  1.
</event>
<event>
 5    1  0.3144657E-003  0.9118800E+02  0.7818608E-02  0.1130116E+00
         25   -1    0    0    0    0  0.00000000000E+00  0.00000000000E+00  0.99999998245E-14  0.12500000000E+03  0.12500000000E+03 0.  0.
        -11    1    3    3    0    0 -0.27879299554E+02  0.13130495169E+02 -0.57142183289E+01  0.31341945351E+02  0.51100000000E-03 0. -1.
         23    2    1    0    0    0  0.22234155225E+02 -0.20356378077E+02  0.92939171570E+01  0.93454529911E+02  0.87969497429E+02 0.  0.
         11    1    3    3    0    0  0.50113454780E+02 -0.33486873246E+02  0.15008135486E+02  0.62112584560E+02  0.51100000000E-03 0.  1.
         22    1    1    0    0    0 -0.22234155225E+02  0.20356378077E+02 -0.92939171570E+01  0.31545470089E+02  0.00000000000E+00 0.  1.
</event>
<event>
 5    1  0.3144657E-003  0.9118800E+02  0.7818608E-02  0.1130116E+00
         25   -1    0    0    0    0  0.00000000000E+00  0.00000000000E+00  0.99999998245E-14  0.12500000000E+03  0.12500000000E+03 0.  0.
        -11    1    3    3    0    0  0.47461966780E+02  0.90485980877E+01 -0.38858623357E+02  0.62004096860E+02  0.51100000000E-03 0. -1.
         23    2    1    0    0    0  0.24114418426E+02  0.70890276436E+01 -0.13735482819E+02  0.96356973323E+02  0.92001322440E+02 0.  0.
         11    1    3    3    0    0 -0.23347548354E+02 -0.19595704441E+01  0.25123140538E+02  0.34352876462E+02  0.51100000000E-03 0.  1.
         22    1    1    0    0    0 -0.24114418426E+02 -0.70890276436E+01  0.13735482819E+02  0.28643026677E+02  0.00000000000E+00 0. -1.
</event>
<event>
 5    1  0.3144657E-003  0.9118800E+02  0.7818608E-02  0.1130116E+00
         25   -1    0    0    0    0  0.00000000000E+00  0.00000000000E+00  0.99999998245E-14  0.12500000000E+03  0.12500000000E+03 0.  0.
        -11    1    3    3    0    0  0.30209215650E+02 -0.48097978469E+02  0.21648511700E+02  0.60783799668E+02  0.51100000000E-03 0.  1.
         23    2    1    0    0    0  0.23203503842E+02 -0.17529668911E+02  0.11142667635E+02  0.93857570346E+02  0.88540344401E+02 0.  0.
         11    1    3    3    0    0 -0.70057118077E+01  0.30568309557E+02 -0.10505844065E+02  0.33073770679E+02  0.51100000000E-03 0. -1.
         22    1    1    0    0    0 -0.23203503842E+02  0.17529668911E+02 -0.11142667635E+02  0.31142429654E+02  0.00000000000E+00 0.  1.
</event>
<event>
 5    1  0.3144657E-003  0.9118800E+02  0.7818608E-02  0.1130116E+00
         25   -1    0    0    0    0  0.00000000000E+00  0.00000000000E+00  0.99999998245E-14  0.12500000000E+03  0.12500000000E+03 0.  0.
        -11    1    3    3    0    0  0.26018840050E+02 -0.48353958187E+02  0.78402106232E+00  0.54915389457E+02  0.51100000000E-03 0. -1.
         23    2    1    0    0    0 -0.69617837228E+01 -0.25254882750E+02  0.11205200204E+02  0.96507333453E+02  0.92205386846E+02 0.  0.
         11    1    3    3    0    0 -0.32980623773E+02  0.23099075437E+02  0.10421179142E+02  0.41591943997E+02  0.51100000000E-03 0.  1.
         22    1    1    0    0    0  0.69617837228E+01  0.25254882750E+02 -0.11205200204E+02  0.28492666547E+02  0.00000000000E+00 0. -1.
</event>
<event>
 5    1  0.3144657E-003  0.9118800E+02  0.7818608E-02  0.1130116E+00
         25   -1    0    0    0    0  0.00000000000E+00  0.00000000000E+00  0.99999998245E-14  0.12500000000E+03  0.12500000000E+03 0.  0.
        -11    1    3    3    0    0 -0.37782357409E+02 -0.90085423682E+01 -0.15380930829E+02  0.41775990718E+02  0.51100000000E-03 0. -1.
         23    2    1    0    0    0  0.19065623285E+02 -0.76313257922E+01 -0.16507336974E+02  0.98651806541E+02  0.95068142062E+02 0.  0.
         11    1    3    3    0    0  0.56847980694E+02  0.13772165760E+01 -0.11264061451E+01  0.56875815823E+02  0.51100000000E-03 0.  1.
         22    1    1    0    0    0 -0.19065623285E+02  0.76313257922E+01  0.16507336974E+02  0.26348193459E+02  0.00000000000E+00 0. -1.
</event>
<event>
 5    1  0.3144657E-003  0.9118800E+02  0.7818608E-02  0.1130116E+00
         25   -1    0    0    0    0  0.00000000000E+00  0.00000000000E+00  0.99999998245E-14  0.12500000000E+03  0.12500000000E+03 0.  0.
        -11    1    3    3    0    0  0.19645904646E+02  0.33095617162E+01 -0.53999333467E+02  0.57557300000E+02  0.51100000000E-03 0.  1.
         23    2    1    0    0    0 -0.19347231340E-01  0.16606935785E+02 -0.24038849709E+02  0.95782591049E+02  0.91217584720E+02 0.  0.
         11    1    3    3    0    0 -0.19665251877E+02  0.13297374068E+02  0.29960483758E+02  0.38225291049E+02  0.51100000000E-03 0. -1.
         22    1    1    0    0    0  0.19347231340E-01 -0.16606935785E+02  0.24038849709E+02  0.29217408951E+02  0.00000000000E+00 0.  1.
</event>
<event>
 5    1  0.3144657E-003  0.9118800E+02  0.7818608E-02  0.1130116E+00
         25   -1    0    0    0    0  0.00000000000E+00  0.00000000000E+00  0.99999998245E-14  0.12500000000E+03  0.12500000000E+03 0.  0.
        -11    1    3    3    0    0 -0.43290368183E+02 -0.39146689581E+02 -0.97804451172E+00  0.58373588668E+02  0.51100000000E-03 0.  1.
         23    2    1    0    0    0 -0.26442830660E+02 -0.61734766596E+01  0.84107050703E+01  0.96573338797E+02  0.92294824878E+02 0.  0.
         11    1    3    3    0    0  0.16847537523E+02  0.32973212922E+02  0.93887495820E+01  0.38199750130E+02  0.51100000000E-03 0. -1.
         22    1    1    0    0    0  0.26442830660E+02  0.61734766596E+01 -0.84107050703E+01  0.28426661203E+02  0.00000000000E+00 0.  1.
</event>
<event>
 5    1  0.3144657E-003  0.9118800E+02  0.7818608E-02  0.1130116E+00
         25   -1    0    0    0    0  0.00000000000E+00  0.00000000000E+00  0.99999998245E-14  0.12500000000E+03  0.12500000000E+03 0.  0.
        -11    1    3    3    0    0 -0.40283650612E+02  0.22892063068E+02 -0.66636992487E+01  0.46810511064E+02  0.51100000000E-03 0.  1.
         23    2    1    0    0    0 -0.21388413074E+02 -0.19823900687E+02  0.60460767174E+01  0.95217349078E+02  0.90439688575E+02 0.  0.
         11    1    3    3    0    0  0.18895237538E+02 -0.42715963755E+02  0.12709775966E+02  0.48406838014E+02  0.51100000000E-03 0. -1.
         22    1    1    0    0    0  0.21388413074E+02  0.19823900687E+02 -0.60460767174E+01  0.29782650922E+02  0.00000000000E+00 0. -1.
</event>
<event>
 5    1  0.3144657E-003  0.9118800E+02  0.7818608E-02  0.1130116E+00
         25   -1    0    0    0    0  0.00000000000E+00  0.00000000000E+00  0.99999998245E-14  0.12500000000E+03  0.12500000000E+03 0.  0.
        -11    1    3    3    0    0 -0.40848383078E+02  0.31691317175E+02 -0.21249093420E+01  0.51744035640E+02  0.51100000000E-03 0. -1.
         23    2    1    0    0    0 -0.18086350952E+02 -0.43962073139E+00 -0.22539424564E+02  0.96097837160E+02  0.91648564037E+02 0.  0.
         11    1    3    3    0    0  0.22762032126E+02 -0.32130937906E+02 -0.20414515222E+02  0.44353801520E+02  0.51100000000E-03 0.  1.
         22    1    1    0    0    0  0.18086350952E+02  0.43962073139E+00  0.22539424564E+02  0.28902162840E+02  0.00000000000E+00 0.  1.
</event>
<event>
 5    1  0.3144657E-003  0.9118800E+02  0.7818608E-02  0.1130116E+00
         25   -1    0    0    0    0  0.00000000000E+00  0.00000000000E+00  0.99999998245E-14  0.12500000000E+03  0.12500000000E+03 0.  0.
        -11    1    3    3    0    0 -0.24489162536E+02  0.13937819429E+02  0.21378846655E+02  0.35370001084E+02  0.51100000000E-03 0. -1.
         23    2    1    0    0    0  0.24962434144E+02  0.17699993947E+02 -0.84629307063E+01  0.93250447243E+02  0.87679027201E+02 0.  0.
         11    1    3    3    0    0  0.49451596680E+02  0.37621745183E+01 -0.29841777361E+02  0.57880446159E+02  0.51100000000E-03 0.  1.
         22    1    1    0    0    0 -0.24962434144E+02 -0.17699993947E+02  0.84629307063E+01  0.31749552757E+02  0.00000000000E+00 0.  1.
</event>
<event>
 5    1  0.3144657E-003  0.9118800E+02  0.7818608E-02  0.1130116E+00
         25   -1    0    0    0    0  0.00000000000E+00  0.00000000000E+00  0.99999998245E-14  0.12500000000E+03  0.12500000000E+03 0.  0.
        -11    1    3    3    0    0 -0.42494450702E+02  0.18272496857E+02 -0.36698882206E+02  0.59046341439E+02  0.51100000000E-03 0. -1.
         23    2    1    0    0    0 -0.24077654792E+02 -0.55193800742E+01 -0.15886153719E+02  0.95630510786E+02  0.91008942948E+02 0.  0.
         11    1    3    3    0    0  0.18416795909E+02 -0.23791876931E+02  0.20812728488E+02  0.36584169348E+02  0.51100000000E-03 0.  1.
         22    1    1    0    0    0  0.24077654792E+02  0.55193800742E+01  0.15886153719E+02  0.29369489214E+02  0.00000000000E+00 0. -1.
</event>
<event>
 5    1  0.3144657E-003  0.9118800E+02  0.7818608E-02  0.1130116E+00
         25   -1    0    0    0    0  0.00000000000E+00  0.00000000000E+00  0.99999998245E-14  0.12500000000E+03  0.12500000000E+03 0.  0.
        -11    1    3    3    0    0 -0.28299836140E+02  0.14501430842E+02  0.15669855258E+02  0.35450198675E+02  0.51100000000E-03 0.  1.
         23    2    1    0    0    0  0.69727384791E+01 -0.10382301718E+02 -0.26438093061E+02  0.95753050833E+02  0.91177095305E+02 0.  0.
         11    1    3    3    0    0  0.35272574619E+02 -0.24883732561E+02 -0.42107948320E+02  0.60302852158E+02  0.51100000000E-03 0. -1.
         22    1    1    0    0    0 -0.69727384791E+01  0.10382301718E+02  0.26438093061E+02  0.29246949167E+02  0.00000000000E+00 0. -1.
</event>
<event>
 5    1  0.3144657E-003  0.9118800E+02  0.7818608E-02  0.1130116E+00
         25   -1    0    0    0    0  0.00000000000E+00  0.00000000000E+00  0.99999998245E-14  0.12500000000E+03  0.12500000000E+03 0.  0.
        -11    1    3    3    0    0 -0.22339528442E+02  0.27749843922E+02 -0.67865489008E+01  0.36265212187E+02  0.51100000000E-03 0. -1.
         23    2    1    0    0    0 -0.48311317420E-03 -0.26974028452E+02 -0.11743408974E+02  0.95580518946E+02  0.90940253664E+02 0.  0.
         11    1    3    3    0    0  0.22339045329E+02 -0.54723872374E+02 -0.49568600734E+01  0.59315306759E+02  0.51100000000E-03 0.  1.
         22    1    1    0    0    0  0.48311317420E-03  0.26974028452E+02  0.11743408974E+02  0.29419481054E+02  0.00000000000E+00 0.  1.
</event>
<event>
 5    1  0.3144657E-003  0.9118800E+02  0.7818608E-02  0.1130116E+00
         25   -1    0    0    0    0  0.00000000000E+00  0.00000000000E+00  0.99999998245E-14  0.12500000000E+03  0.12500000000E+03 0.  0.
        -11    1    3    3    0    0  0.12196598295E+02 -0.42029904030E+01  0.39789781433E+02  0.41828804012E+02  0.51100000000E-03 0. -1.
         23    2    1    0    0    0 -0.29278112388E+02 -0.78418922376E+01  0.97800249601E+01  0.93151106344E+02  0.87537286833E+02 0.  0.
         11    1    3    3    0    0 -0.41474710683E+02 -0.36389018346E+01 -0.30009756473E+02  0.51322302332E+02  0.51100000000E-03 0.  1.
         22    1    1    0    0    0  0.29278112388E+02  0.78418922376E+01 -0.97800249601E+01  0.31848893656E+02  0.00000000000E+00 0.  1.
</event>
<event>
 5    1  0.3144657E-003  0.9118800E+02  0.7818608E-02  0.1130116E+00
         25   -1    0    0    0    0  0.00000000000E+00  0.00000000000E+00  0.99999998245E-14  0.12500000000E+03  0.12500000000E+03 0.  0.
        -11    1    3    3    0    0 -0.33567634440E+01 -0.19458877758E+02  0.51672915219E+02  0.55317320542E+02  0.51100000000E-03 0. -1.
         23    2    1    0    0    0  0.12035586548E+02  0.65109527613E+01  0.28536772987E+02  0.93352010144E+02  0.87823701448E+02 0.  0.
         11    1    3    3    0    0  0.15392349992E+02  0.25969830519E+02 -0.23136142232E+02  0.38034689602E+02  0.51100000000E-03 0.  1.
         22    1    1    0    0    0 -0.12035586548E+02 -0.65109527613E+01 -0.28536772987E+02  0.31647989856E+02  0.00000000000E+00 0. -1.
</event>
<event>
 5    1  0.3144657E-003  0.9118800E+02  0.7818608E-02  0.1130116E+00
         25   -1    0    0    0    0  0.00000000000E+00  0.00000000000E+00  0.99999998245E-14  0.12500000000E+03  0.12500000000E+03 0.  0.
        -11    1    3    3    0    0 -0.26510831678E+02 -0.34826978349E+02  0.16331784420E+02  0.46716911283E+02  0.51100000000E-03 0.  1.
         23    2    1    0    0    0  0.94413925047E+01 -0.21353840337E+02 -0.15821731874E+02  0.96796213214E+02  0.92596184066E+02 0.  0.
         11    1    3    3    0    0  0.35952224183E+02  0.13473138012E+02 -0.32153516294E+02  0.50079301931E+02  0.51100000000E-03 0. -1.
         22    1    1    0    0    0 -0.94413925047E+01  0.21353840337E+02  0.15821731874E+02  0.28203786786E+02  0.00000000000E+00 0. -1.
</event>
<event>
 5    1  0.3144657E-003  0.9118800E+02  0.7818608E-02  0.1130116E+00
         25   -1    0    0    0    0  0.00000000000E+00  0.00000000000E+00  0.99999998245E-14  0.12500000000E+03  0.12500000000E+03 0.  0.
        -11    1    3    3    0    0  0.27571664963E+02 -0.25462137378E+02  0.12336228542E+02  0.39505691788E+02  0.51100000000E-03 0.  1.
         23    2    1    0    0    0 -0.20713476707E+02 -0.15554317015E+02 -0.14172550032E+02  0.95472960367E+02  0.90792290927E+02 0.  0.
         11    1    3    3    0    0 -0.48285141670E+02  0.99078203635E+01 -0.26508778574E+02  0.55967268579E+02  0.51100000000E-03 0. -1.
         22    1    1    0    0    0  0.20713476707E+02  0.15554317015E+02  0.14172550032E+02  0.29527039633E+02  0.00000000000E+00 0.  1.
</event>
<event>
 5    1  0.3144657E-003  0.9118800E+02  0.7818608E-02  0.1130116E+00
         25   -1    0    0    0    0  0.00000000000E+00  0.00000000000E+00  0.99999998245E-14  0.12500000000E+03  0.12500000000E+03 0.  0.
        -11    1    3    3    0    0  0.90697486798E+01 -0.36472500177E+02 -0.10802904333E+02  0.39105068118E+02  0.51100000000E-03 0.  1.
         23    2    1    0    0    0 -0.24197407459E+02  0.76465461966E+01 -0.16618347077E+02  0.94665965384E+02  0.89674362814E+02 0.  0.
         11    1    3    3    0    0 -0.33267156139E+02  0.44119046373E+02 -0.58154427442E+01  0.55560897266E+02  0.51100000000E-03 0. -1.
         22    1    1    0    0    0  0.24197407459E+02 -0.76465461966E+01  0.16618347077E+02  0.30334034616E+02  0.00000000000E+00 0. -1.
</event>
<event>
 5    1  0.3144657E-003  0.9118800E+02  0.7818608E-02  0.1130116E+00
         25   -1    0    0    0    0  0.00000000000E+00  0.00000000000E+00  0.99999998245E-14  0.12500000000E+03  0.12500000000E+03 0.  0.
        -11    1    3    3    0    0 -0.29821503525E+01 -0.37072701686E+01  0.34799703235E+02  0.35123445422E+02  0.51100000000E-03 0. -1.
         23    2    1    0    0    0  0.22309002732E+02  0.12494551906E+02 -0.16499724987E+02  0.94568990242E+02  0.89539083983E+02 0.  0.
         11    1    3    3    0    0  0.25291153085E+02  0.16201822074E+02 -0.51299428222E+02  0.59445544820E+02  0.51100000000E-03 0.  1.
         22    1    1    0    0    0 -0.22309002732E+02 -0.12494551906E+02  0.16499724987E+02  0.30431009758E+02  0.00000000000E+00 0.  1.
</event>
<event>
 5    1  0.3144657E-003  0.9118800E+02  0.7818608E-02  0.1130116E+00
         25   -1    0    0    0    0  0.00000000000E+00  0.00000000000E+00  0.99999998245E-14  0.12500000000E+03  0.12500000000E+03 0.  0.
        -11    1    3    3    0    0 -0.43659805277E+02  0.40298035150E+02 -0.84635980663E+01  0.60014520962E+02  0.51100000000E-03 0.  1.
         23    2    1    0    0    0 -0.14846441689E+02  0.25051476547E+02 -0.13328920488E+02  0.92974175587E+02  0.87284270614E+02 0.  0.
         11    1    3    3    0    0  0.28813363587E+02 -0.15246558603E+02 -0.48653224214E+01  0.32959654625E+02  0.51100000000E-03 0. -1.
         22    1    1    0    0    0  0.14846441689E+02 -0.25051476547E+02  0.13328920488E+02  0.32025824413E+02  0.00000000000E+00 0.  1.
</event>
<event>
 5    1  0.3144657E-003  0.9118800E+02  0.7818608E-02  0.1130116E+00
         25   -1    0    0    0    0  0.00000000000E+00  0.00000000000E+00  0.99999998245E-14  0.12500000000E+03  0.12500000000E+03 0.  0.
        -11    1    3    3    0    0  0.31852639894E+02  0.32241905010E+02 -0.41957294130E+02  0.61762008046E+02  0.51100000000E-03 0.  1.
         23    2    1    0    0    0  0.16644738912E+02  0.19572492699E+02 -0.14858637070E+02  0.95319890508E+02  0.90581303959E+02 0.  0.
         11    1    3    3    0    0 -0.15207900982E+02 -0.12669412311E+02  0.27098657061E+02  0.33557882462E+02  0.51100000000E-03 0. -1.
         22    1    1    0    0    0 -0.16644738912E+02 -0.19572492699E+02  0.14858637070E+02  0.29680109492E+02  0.00000000000E+00 0.  1.
</event>
<event>
 5    1  0.3144657E-003  0.9118800E+02  0.7818608E-02  0.1130116E+00
         25   -1    0    0    0    0  0.00000000000E+00  0.00000000000E+00  0.99999998245E-14  0.12500000000E+03  0.12500000000E+03 0.  0.
        -11    1    3    3    0    0 -0.40448649556E+02  0.22712168549E+02  0.32241492297E+02  0.56492917051E+02  0.51100000000E-03 0.  1.
         23    2    1    0    0    0 -0.26425224881E+02 -0.71126337008E+01  0.12457705290E+02  0.94932135272E+02  0.90044621261E+02 0.  0.
         11    1    3    3    0    0  0.14023424675E+02 -0.29824802250E+02 -0.19783787007E+02  0.38439218221E+02  0.51100000000E-03 0. -1.
         22    1    1    0    0    0  0.26425224881E+02  0.71126337008E+01 -0.12457705290E+02  0.30067864728E+02  0.00000000000E+00 0.  1.
</event>
<event>
 5    1  0.3144657E-003  0.9118800E+02  0.7818608E-02  0.1130116E+00
         25   -1    0    0    0    0  0.00000000000E+00  0.00000000000E+00  0.99999998245E-14  0.12500000000E+03  0.12500000000E+03 0.  0.
        -11    1    3    3    0    0  0.63306291459E+01 -0.29479407263E+02 -0.53601411533E+01  0.30624229482E+02  0.51100000000E-03 0. -1.
         23    2    1    0    0    0 -0.92478821901E+01  0.30663648368E+02 -0.13002285943E+00  0.92971894184E+02  0.87281003351E+02 0.  0.
         11    1    3    3    0    0 -0.15578511336E+02  0.60143055631E+02  0.52301182938E+01  0.62347664701E+02  0.51100000000E-03 0.  1.
         22    1    1    0    0    0  0.92478821901E+01 -0.30663648368E+02  0.13002285943E+00  0.32028105816E+02  0.00000000000E+00 0.  1.
</event>
<event>
 5    1  0.3144657E-003  0.9118800E+02  0.7818608E-02  0.1130116E+00
         25   -1    0    0    0    0  0.00000000000E+00  0.00000000000E+00  0.99999998245E-14  0.12500000000E+03  0.12500000000E+03 0.  0.
        -11    1    3    3    0    0  0.40207413735E+02 -0.43257789089E+02  0.38605476858E+01  0.59184256900E+02  0.51100000000E-03 0.  1.
         23    2    1    0    0    0  0.25268215648E+02 -0.99394321440E+01 -0.63807264717E+01  0.97107551135E+02  0.93015524424E+02 0.  0.
         11    1    3    3    0    0 -0.14939198088E+02  0.33318356945E+02 -0.10241274158E+02  0.37923294235E+02  0.51100000000E-03 0. -1.
         22    1    1    0    0    0 -0.25268215648E+02  0.99394321440E+01  0.63807264717E+01  0.27892448865E+02  0.00000000000E+00 0.  1.
</event>
<event>
 5    1  0.3144657E-003  0.9118800E+02  0.7818608E-02  0.1130116E+00
         25   -1    0    0    0    0  0.00000000000E+00  0.00000000000E+00  0.99999998245E-14  0.12500000000E+03  0.12500000000E+03 0.  0.
        -11    1    3    3    0    0 -0.13772164780E+02  0.47949335693E+02  0.28756317670E+02  0.57582437620E+02  0.51100000000E-03 0.  1.
         23    2    1    0    0    0  0.92223534926E+01  0.26554161590E+02  0.63014838150E+01  0.96192292698E+02  0.91777302066E+02 0.  0.
         11    1    3    3    0    0  0.22994518273E+02 -0.21395174102E+02 -0.22454833855E+02  0.38609855078E+02  0.51100000000E-03 0. -1.
         22    1    1    0    0    0 -0.92223534926E+01 -0.26554161590E+02 -0.63014838150E+01  0.28807707302E+02  0.00000000000E+00 0.  1.
</event>
<event>
 5    1  0.3144657E-003  0.9118800E+02  0.7818608E-02  0.1130116E+00
         25   -1    0    0    0    0  0.00000000000E+00  0.00000000000E+00  0.99999998245E-14  0.12500000000E+03  0.12500000000E+03 0.  0.
        -11    1    3    3    0    0 -0.24050444527E+02 -0.84467440521E+01 -0.13112837633E+02  0.28665621885E+02  0.51100000000E-03 0.  1.
         23    2    1    0    0    0  0.24162655197E+02  0.23678663085E+02  0.78382488933E+01  0.90273192813E+02  0.83326455603E+02 0.  0.
         11    1    3    3    0    0  0.48213099724E+02  0.32125407137E+02  0.20951086527E+02  0.61607570928E+02  0.51100000000E-03 0. -1.
         22    1    1    0    0    0 -0.24162655197E+02 -0.23678663085E+02 -0.78382488933E+01  0.34726807187E+02  0.00000000000E+00 0. -1.
</event>
<event>
 5    1  0.3144657E-003  0.9118800E+02  0.7818608E-02  0.1130116E+00
         25   -1    0    0    0    0  0.00000000000E+00  0.00000000000E+00  0.99999998245E-14  0.12500000000E+03  0.12500000000E+03 0.  0.
        -11    1    3    3    0    0  0.14046411353E+02 -0.38249216701E+02  0.52804196509E+01  0.41087553859E+02  0.51100000000E-03 0.  1.
         23    2    1    0    0    0 -0.24232741684E+02 -0.34469071984E+01  0.18303716348E+02  0.94436411027E+02  0.89353806616E+02 0.  0.
         11    1    3    3    0    0 -0.38279153038E+02  0.34802309503E+02  0.13023296697E+02  0.53348857168E+02  0.51100000000E-03 0. -1.
         22    1    1    0    0    0  0.24232741684E+02  0.34469071984E+01 -0.18303716348E+02  0.30563588973E+02  0.00000000000E+00 0. -1.
</event>
<event>
 5    1  0.3144657E-003  0.9118800E+02  0.7818608E-02  0.1130116E+00
         25   -1    0    0    0    0  0.00000000000E+00  0.00000000000E+00  0.99999998245E-14  0.12500000000E+03  0.12500000000E+03 0.  0.
        -11    1    3    3    0    0  0.13048899594E+02 -0.39284737590E+02 -0.24338312858E-01  0.41395228961E+02  0.51100000000E-03 0.  1.
         23    2    1    0    0    0  0.20967069859E+02  0.42478138857E+01  0.24894373080E+02  0.92176353762E+02  0.86134130521E+02 0.  0.
         11    1    3    3    0    0  0.79181702652E+01  0.43532551476E+02  0.24918711393E+02  0.50781124801E+02  0.51100000000E-03 0. -1.
         22    1    1    0    0    0 -0.20967069859E+02 -0.42478138857E+01 -0.24894373080E+02  0.32823646238E+02  0.00000000000E+00 0. -1.
</event>
<event>
 5    1  0.3144657E-003  0.9118800E+02  0.7818608E-02  0.1130116E+00
         25   -1    0    0    0    0  0.00000000000E+00  0.00000000000E+00  0.99999998245E-14  0.12500000000E+03  0.12500000000E+03 0.  0.
        -11    1    3    3    0    0 -0.25890396714E+02 -0.55088230356E+01 -0.24053529040E+02  0.35766353361E+02  0.51100000000E-03 0. -1.
         23    2    1    0    0    0  0.21340254087E+02 -0.23056968374E+02  0.38264975310E+01  0.93350792768E+02  0.87821968732E+02 0.  0.
         11    1    3    3    0    0  0.47230650800E+02 -0.17548145338E+02  0.27880026571E+02  0.57584439406E+02  0.51100000000E-03 0.  1.
         22    1    1    0    0    0 -0.21340254087E+02  0.23056968374E+02 -0.38264975310E+01  0.31649207232E+02  0.00000000000E+00 0.  1.
</event>
<event>
 5    1  0.3144657E-003  0.9118800E+02  0.7818608E-02  0.1130116E+00
         25   -1    0    0    0    0  0.00000000000E+00  0.00000000000E+00  0.99999998245E-14  0.12500000000E+03  0.12500000000E+03 0.  0.
        -11    1    3    3    0    0  0.17370773730E+00  0.38805843460E+02  0.37147453841E+02  0.53720173009E+02  0.51100000000E-03 0. -1.
         23    2    1    0    0    0  0.14370260480E+02 -0.20277514809E+01  0.20138956394E+02  0.10017675027E+03  0.97052499033E+02 0.  0.
         11    1    3    3    0    0  0.14196552742E+02 -0.40833594941E+02 -0.17008497447E+02  0.46456577265E+02  0.51100000000E-03 0.  1.
         22    1    1    0    0    0 -0.14370260480E+02  0.20277514809E+01 -0.20138956394E+02  0.24823249726E+02  0.00000000000E+00 0.  1.
</event>
<event>
 5    1  0.3144657E-003  0.9118800E+02  0.7818608E-02  0.1130116E+00
         25   -1    0    0    0    0  0.00000000000E+00  0.00000000000E+00  0.99999998245E-14  0.12500000000E+03  0.12500000000E+03 0.  0.
        -11    1    3    3    0    0  0.10622583873E+00 -0.22302431312E+02 -0.42061050128E+02  0.47608210053E+02  0.51100000000E-03 0.  1.
         23    2    1    0    0    0 -0.11083762810E+02 -0.24562519361E+02  0.63228712457E+01  0.97320660120E+02  0.93301473890E+02 0.  0.
         11    1    3    3    0    0 -0.11189988648E+02 -0.22600880489E+01  0.48383921373E+02  0.49712450067E+02  0.51100000000E-03 0. -1.
         22    1    1    0    0    0  0.11083762810E+02  0.24562519361E+02 -0.63228712457E+01  0.27679339880E+02  0.00000000000E+00 0.  1.
</event>
<event>
 5    1  0.3144657E-003  0.9118800E+02  0.7818608E-02  0.1130116E+00
         25   -1    0    0    0    0  0.00000000000E+00  0.00000000000E+00  0.99999998245E-14  0.12500000000E+03  0.12500000000E+03 0.  0.
        -11    1    3    3    0    0  0.39412180213E+02  0.32802403617E+02 -0.35047305569E+01  0.51396505414E+02  0.51100000000E-03 0.  1.
         23    2    1    0    0    0  0.27946535264E+02 -0.96337199100E+01 -0.16640465387E+01  0.95392797440E+02  0.90681857943E+02 0.  0.
         11    1    3    3    0    0 -0.11465644949E+02 -0.42436123527E+02  0.18406840182E+01  0.43996292026E+02  0.51100000000E-03 0. -1.
         22    1    1    0    0    0 -0.27946535264E+02  0.96337199100E+01  0.16640465387E+01  0.29607202560E+02  0.00000000000E+00 0.  1.
</event>
<event>
 5    1  0.3144657E-003  0.9118800E+02  0.7818608E-02  0.1130116E+00
         25   -1    0    0    0    0  0.00000000000E+00  0.00000000000E+00  0.99999998245E-14  0.12500000000E+03  0.12500000000E+03 0.  0.
        -11    1    3    3    0    0 -0.22735552385E+02  0.32149235951E+02  0.17190296645E+01  0.39413624266E+02  0.51100000000E-03 0. -1.
         23    2    1    0    0    0  0.28147331642E+02  0.81782563660E+01  0.12456394224E+01  0.95662178450E+02  0.91052427823E+02 0.  0.
         11    1    3    3    0    0  0.50882884027E+02 -0.23970979585E+02 -0.47339024210E+00  0.56248554184E+02  0.51100000000E-03 0.  1.
         22    1    1    0    0    0 -0.28147331642E+02 -0.81782563660E+01 -0.12456394224E+01  0.29337821550E+02  0.00000000000E+00 0.  1.
</event>
<event>
 5    1  0.3144657E-003  0.9118800E+02  0.7818608E-02  0.1130116E+00
         25   -1    0    0    0    0  0.00000000000E+00  0.00000000000E+00  0.99999998245E-14  0.12500000000E+03  0.12500000000E+03 0.  0.
        -11    1    3    3    0    0 -0.11910881215E+02  0.40769936016E+02 -0.86770828645E+01  0.43351453740E+02  0.51100000000E-03 0. -1.
         23    2    1    0    0    0 -0.88416114577E+01  0.11398801498E+00  0.26414366321E+02  0.97144913667E+02  0.93065720955E+02 0.  0.
         11    1    3    3    0    0  0.30692697576E+01 -0.40655948001E+02  0.35091449186E+02  0.53793459927E+02  0.51100000000E-03 0.  1.
         22    1    1    0    0    0  0.88416114577E+01 -0.11398801498E+00 -0.26414366321E+02  0.27855086333E+02  0.00000000000E+00 0.  1.
</event>
<event>
 5    1  0.3144657E-003  0.9118800E+02  0.7818608E-02  0.1130116E+00
         25   -1    0    0    0    0  0.00000000000E+00  0.00000000000E+00  0.99999998245E-14  0.12500000000E+03  0.12500000000E+03 0.  0.
        -11    1    3    3    0    0  0.24800888994E+02 -0.48131456694E+02  0.15762666729E+02  0.56393110227E+02  0.51100000000E-03 0.  1.
         23    2    1    0    0    0  0.25284820900E+02 -0.12130902932E+02  0.16608216292E+02  0.92406843935E+02  0.86467976637E+02 0.  0.
         11    1    3    3    0    0  0.48393190564E+00  0.36000553762E+02  0.84554956294E+00  0.36013733708E+02  0.51100000000E-03 0. -1.
         22    1    1    0    0    0 -0.25284820900E+02  0.12130902932E+02 -0.16608216292E+02  0.32593156065E+02  0.00000000000E+00 0.  1.
</event>
<event>
 5    1  0.3144657E-003  0.9118800E+02  0.7818608E-02  0.1130116E+00
         25   -1    0    0    0    0  0.00000000000E+00  0.00000000000E+00  0.99999998245E-14  0.12500000000E+03  0.12500000000E+03 0.  0.
        -11    1    3    3    0    0  0.34000345224E+02  0.14822044785E+02  0.31301521266E+02  0.48533511318E+02  0.51100000000E-03 0. -1.
         23    2    1    0    0    0  0.14190844623E+02  0.22175901988E+02 -0.11502639769E+02  0.96269155569E+02  0.91881929084E+02 0.  0.
         11    1    3    3    0    0 -0.19809500602E+02  0.73538572021E+01 -0.42804161036E+02  0.47735644251E+02  0.51100000000E-03 0.  1.
         22    1    1    0    0    0 -0.14190844623E+02 -0.22175901988E+02  0.11502639769E+02  0.28730844431E+02  0.00000000000E+00 0. -1.
</event>
<event>
 5    1  0.3144657E-003  0.9118800E+02  0.7818608E-02  0.1130116E+00
         25   -1    0    0    0    0  0.00000000000E+00  0.00000000000E+00  0.99999998245E-14  0.12500000000E+03  0.12500000000E+03 0.  0.
        -11    1    3    3    0    0 -0.38792946408E+02  0.25228017348E+02  0.38171674392E+02  0.59986850864E+02  0.51100000000E-03 0.  1.
         23    2    1    0    0    0 -0.66071138045E+01  0.92882904103E+01  0.23684920675E+02  0.98714989843E+02  0.95151182130E+02 0.  0.
         11    1    3    3    0    0  0.32185832604E+02 -0.15939726938E+02 -0.14486753717E+02  0.38728138979E+02  0.51100000000E-03 0. -1.
         22    1    1    0    0    0  0.66071138045E+01 -0.92882904103E+01 -0.23684920675E+02  0.26285010157E+02  0.00000000000E+00 0.  1.
</event>
<event>
 5    1  0.3144657E-003  0.9118800E+02  0.7818608E-02  0.1130116E+00
         25   -1    0    0    0    0  0.00000000000E+00  0.00000000000E+00  0.99999998245E-14  0.12500000000E+03  0.12500000000E+03 0.  0.
        -11    1    3    3    0    0 -0.99938738121E+01 -0.26157186027E+00  0.38806077236E+02  0.40073152663E+02  0.51100000000E-03 0. -1.
         23    2    1    0    0    0 -0.23456964492E+02  0.15146105157E+01 -0.16018846572E+02  0.96554847975E+02  0.92269778334E+02 0.  0.
         11    1    3    3    0    0 -0.13463090680E+02  0.17761823759E+01 -0.54824923809E+02  0.56481695312E+02  0.51100000000E-03 0.  1.
         22    1    1    0    0    0  0.23456964492E+02 -0.15146105157E+01  0.16018846572E+02  0.28445152025E+02  0.00000000000E+00 0.  1.
</event>
<event>
 5    1  0.3144657E-003  0.9118800E+02  0.7818608E-02  0.1130116E+00
         25   -1    0    0    0    0  0.00000000000E+00  0.00000000000E+00  0.99999998245E-14  0.12500000000E+03  0.12500000000E+03 0.  0.
        -11    1    3    3    0    0  0.37691930793E+02  0.22733214562E+01  0.49691088863E+02  0.62410367328E+02  0.51100000000E-03 0. -1.
         23    2    1    0    0    0  0.16725968589E+02 -0.11562810499E+01  0.23443869787E+02  0.96177959099E+02  0.91757777734E+02 0.  0.
         11    1    3    3    0    0 -0.20965962204E+02 -0.34296025061E+01 -0.26247219076E+02  0.33767591770E+02  0.51100000000E-03 0.  1.
         22    1    1    0    0    0 -0.16725968589E+02  0.11562810499E+01 -0.23443869787E+02  0.28822040901E+02  0.00000000000E+00 0. -1.
</event>
<event>
 5    1  0.3144657E-003  0.9118800E+02  0.7818608E-02  0.1130116E+00
         25   -1    0    0    0    0  0.00000000000E+00  0.00000000000E+00  0.99999998245E-14  0.12500000000E+03  0.12500000000E+03 0.  0.
        -11    1    3    3    0    0  0.13312066905E+02  0.90919433470E+01  0.33054507081E+02  0.36776011172E+02  0.51100000000E-03 0. -1.
         23    2    1    0    0    0 -0.86725057613E+00  0.18581743052E+02 -0.23028462875E+02  0.95396902175E+02  0.90687515921E+02 0.  0.
         11    1    3    3    0    0 -0.14179317481E+02  0.94897997051E+01 -0.56082969956E+02  0.58620891003E+02  0.51100000000E-03 0.  1.
         22    1    1    0    0    0  0.86725057613E+00 -0.18581743052E+02  0.23028462875E+02  0.29603097825E+02  0.00000000000E+00 0.  1.
</event>
<event>
 5    1  0.3144657E-003  0.9118800E+02  0.7818608E-02  0.1130116E+00
         25   -1    0    0    0    0  0.00000000000E+00  0.00000000000E+00  0.99999998245E-14  0.12500000000E+03  0.12500000000E+03 0.  0.
        -11    1    3    3    0    0  0.15680242570E+02 -0.29797341845E+02 -0.52462876999E+02  0.62338632094E+02  0.51100000000E-03 0.  1.
         23    2    1    0    0    0  0.48559366197E+01 -0.15959526745E+02 -0.24636788469E+02  0.95246715132E+02  0.90480267368E+02 0.  0.
         11    1    3    3    0    0 -0.10824305951E+02  0.13837815100E+02  0.27826088530E+02  0.32908083038E+02  0.51100000000E-03 0. -1.
         22    1    1    0    0    0 -0.48559366197E+01  0.15959526745E+02  0.24636788469E+02  0.29753284868E+02  0.00000000000E+00 0.  1.
</event>
<event>
 5    1  0.3144657E-003  0.9118800E+02  0.7818608E-02  0.1130116E+00
         25   -1    0    0    0    0  0.00000000000E+00  0.00000000000E+00  0.99999998245E-14  0.12500000000E+03  0.12500000000E+03 0.  0.
        -11    1    3    3    0    0 -0.11507216663E+02  0.23329634226E+02 -0.25200453865E+02  0.36218099670E+02  0.51100000000E-03 0. -1.
         23    2    1    0    0    0 -0.50193395762E+01 -0.30401355391E+02 -0.12054366876E+02  0.91913085061E+02  0.85751217281E+02 0.  0.
         11    1    3    3    0    0  0.64878770863E+01 -0.53730989617E+02  0.13146086989E+02  0.55694985391E+02  0.51100000000E-03 0.  1.
         22    1    1    0    0    0  0.50193395762E+01  0.30401355391E+02  0.12054366876E+02  0.33086914939E+02  0.00000000000E+00 0. -1.
</event>
<event>
 5    1  0.3144657E-003  0.9118800E+02  0.7818608E-02  0.1130116E+00
         25   -1    0    0    0    0  0.00000000000E+00  0.00000000000E+00  0.99999998245E-14  0.12500000000E+03  0.12500000000E+03 0.  0.
        -11    1    3    3    0    0 -0.37974355897E+02 -0.22813432338E+02 -0.10471501370E+02  0.45520948386E+02  0.51100000000E-03 0. -1.
         23    2    1    0    0    0  0.81820796272E+01 -0.66603014979E+01 -0.26091385019E+02  0.96856325483E+02  0.92677296955E+02 0.  0.
         11    1    3    3    0    0  0.46156435524E+02  0.16153130840E+02 -0.15619883649E+02  0.51335377097E+02  0.51100000000E-03 0.  1.
         22    1    1    0    0    0 -0.81820796272E+01  0.66603014979E+01  0.26091385019E+02  0.28143674517E+02  0.00000000000E+00 0. -1.
</event>
<event>
 5    1  0.3144657E-003  0.9118800E+02  0.7818608E-02  0.1130116E+00
         25   -1    0    0    0    0  0.00000000000E+00  0.00000000000E+00  0.99999998245E-14  0.12500000000E+03  0.12500000000E+03 0.  0.
        -11    1    3    3    0    0 -0.17999747386E+02  0.12498931063E+01 -0.40852625256E+02  0.44659714837E+02  0.51100000000E-03 0.  1.
         23    2    1    0    0    0  0.23411735923E+02 -0.11170618578E+02 -0.15740003530E+02  0.94657953111E+02  0.89663193550E+02 0.  0.
         11    1    3    3    0    0  0.41411483308E+02 -0.12420511684E+02  0.25112621726E+02  0.49998238274E+02  0.51100000000E-03 0. -1.
         22    1    1    0    0    0 -0.23411735923E+02  0.11170618578E+02  0.15740003530E+02  0.30342046889E+02  0.00000000000E+00 0. -1.
</event>
<event>
 5    1  0.3144657E-003  0.9118800E+02  0.7818608E-02  0.1130116E+00
         25   -1    0    0    0    0  0.00000000000E+00  0.00000000000E+00  0.99999998245E-14  0.12500000000E+03  0.12500000000E+03 0.  0.
        -11    1    3    3    0    0  0.32945162312E+02 -0.19425768323E+02 -0.49013563375E+01  0.38558624054E+02  0.51100000000E-03 0.  1.
         23    2    1    0    0    0 -0.21666051427E+02 -0.22916678016E+02 -0.48652885932E+00  0.93459095986E+02  0.87975985340E+02 0.  0.
         11    1    3    3    0    0 -0.54611213738E+02 -0.34909096923E+01  0.44148274782E+01  0.54900471932E+02  0.51100000000E-03 0. -1.
         22    1    1    0    0    0  0.21666051427E+02  0.22916678016E+02  0.48652885932E+00  0.31540904014E+02  0.00000000000E+00 0. -1.
</event>
<event>
 5    1  0.3144657E-003  0.9118800E+02  0.7818608E-02  0.1130116E+00
         25   -1    0    0    0    0  0.00000000000E+00  0.00000000000E+00  0.99999998245E-14  0.12500000000E+03  0.12500000000E+03 0.  0.
        -11    1    3    3    0    0 -0.43384707529E+02  0.34853856898E+02 -0.18875800553E+02  0.58764955840E+02  0.51100000000E-03 0. -1.
         23    2    1    0    0    0 -0.22859863264E+02  0.17949288654E+02  0.61636697543E+01  0.95289040128E+02  0.90538721176E+02 0.  0.
         11    1    3    3    0    0  0.20524844265E+02 -0.16904568244E+02  0.25039470307E+02  0.36524084289E+02  0.51100000000E-03 0.  1.
         22    1    1    0    0    0  0.22859863264E+02 -0.17949288654E+02 -0.61636697543E+01  0.29710959872E+02  0.00000000000E+00 0. -1.
</event>
<event>
 5    1  0.3144657E-003  0.9118800E+02  0.7818608E-02  0.1130116E+00
         25   -1    0    0    0    0  0.00000000000E+00  0.00000000000E+00  0.99999998245E-14  0.12500000000E+03  0.12500000000E+03 0.  0.
        -11    1    3    3    0    0 -0.11659572032E+02  0.34324595904E+02  0.32264252972E+02  0.48529429464E+02  0.51100000000E-03 0.  1.
         23    2    1    0    0    0  0.23305360393E+02  0.16857297268E+02  0.60042281286E+01  0.95617027897E+02  0.90990422431E+02 0.  0.
         11    1    3    3    0    0  0.34964932424E+02 -0.17467298636E+02 -0.26260024844E+02  0.47087598433E+02  0.51100000000E-03 0. -1.
         22    1    1    0    0    0 -0.23305360393E+02 -0.16857297268E+02 -0.60042281286E+01  0.29382972103E+02  0.00000000000E+00 0.  1.
</event>
<event>
 5    1  0.3144657E-003  0.9118800E+02  0.7818608E-02  0.1130116E+00
         25   -1    0    0    0    0  0.00000000000E+00  0.00000000000E+00  0.99999998245E-14  0.12500000000E+03  0.12500000000E+03 0.  0.
        -11    1    3    3    0    0  0.38982140881E+02  0.39522615427E+02 -0.14923048154E+02  0.57483404599E+02  0.51100000000E-03 0.  1.
         23    2    1    0    0    0  0.13629128685E+02  0.13349799208E+02 -0.23313132025E+02  0.94875717230E+02  0.89966267609E+02 0.  0.
         11    1    3    3    0    0 -0.25353012196E+02 -0.26172816219E+02 -0.83900838709E+01  0.37392312631E+02  0.51100000000E-03 0. -1.
         22    1    1    0    0    0 -0.13629128685E+02 -0.13349799208E+02  0.23313132025E+02  0.30124282770E+02  0.00000000000E+00 0.  1.
</event>
<event>
 5    1  0.3144657E-003  0.9118800E+02  0.7818608E-02  0.1130116E+00
         25   -1    0    0    0    0  0.00000000000E+00  0.00000000000E+00  0.99999998245E-14  0.12500000000E+03  0.12500000000E+03 0.  0.
        -11    1    3    3    0    0  0.18238994972E+02 -0.31083640997E+02  0.81163168249E+01  0.36942228876E+02  0.51100000000E-03 0. -1.
         23    2    1    0    0    0  0.12308000949E+02  0.25468730843E+02 -0.71601191372E+01  0.95821061633E+02  0.91270287653E+02 0.  0.
         11    1    3    3    0    0 -0.59309940228E+01  0.56552371841E+02 -0.15276435962E+02  0.58878832758E+02  0.51100000000E-03 0.  1.
         22    1    1    0    0    0 -0.12308000949E+02 -0.25468730843E+02  0.71601191372E+01  0.29178938367E+02  0.00000000000E+00 0.  1.
</event>
<event>
 5    1  0.3144657E-003  0.9118800E+02  0.7818608E-02  0.1130116E+00
         25   -1    0    0    0    0  0.00000000000E+00  0.00000000000E+00  0.99999998245E-14  0.12500000000E+03  0.12500000000E+03 0.  0.
        -11    1    3    3    0    0  0.17677948412E+02 -0.11522786974E+02  0.41114210811E+02  0.46213231986E+02  0.51100000000E-03 0.  1.
         23    2    1    0    0    0  0.92654536686E+01 -0.28124569185E+02 -0.40979837858E+01  0.95106296739E+02  0.90286068609E+02 0.  0.
         11    1    3    3    0    0 -0.84124947433E+01 -0.16601782211E+02 -0.45212194597E+02  0.48893064753E+02  0.51100000000E-03 0. -1.
         22    1    1    0    0    0 -0.92654536686E+01  0.28124569185E+02  0.40979837858E+01  0.29893703261E+02  0.00000000000E+00 0. -1.
</event>
<event>
 5    1  0.3144657E-003  0.9118800E+02  0.7818608E-02  0.1130116E+00
         25   -1    0    0    0    0  0.00000000000E+00  0.00000000000E+00  0.99999998245E-14  0.12500000000E+03  0.12500000000E+03 0.  0.
        -11    1    3    3    0    0  0.26115301048E+02  0.32653400294E+02 -0.14510802780E+02  0.44258523441E+02  0.51100000000E-03 0.  1.
         23    2    1    0    0    0 -0.22579070695E+02  0.14815821524E+02 -0.95552917775E+01  0.96353419020E+02  0.91996493167E+02 0.  0.
         11    1    3    3    0    0 -0.48694371744E+02 -0.17837578770E+02  0.49555110026E+01  0.52094895579E+02  0.51100000000E-03 0. -1.
         22    1    1    0    0    0  0.22579070695E+02 -0.14815821524E+02  0.95552917775E+01  0.28646580980E+02  0.00000000000E+00 0. -1.
</event>
<event>
 5    1  0.3144657E-003  0.9118800E+02  0.7818608E-02  0.1130116E+00
         25   -1    0    0    0    0  0.00000000000E+00  0.00000000000E+00  0.99999998245E-14  0.12500000000E+03  0.12500000000E+03 0.  0.
        -11    1    3    3    0    0  0.38709824801E+02 -0.49852270075E+01  0.42338823792E+02  0.57583669775E+02  0.51100000000E-03 0.  1.
         23    2    1    0    0    0  0.20886542550E+02  0.14975331834E+02  0.20387000811E+02  0.92195457246E+02  0.86161849513E+02 0.  0.
         11    1    3    3    0    0 -0.17823282250E+02  0.19960558842E+02 -0.21951822982E+02  0.34611787471E+02  0.51100000000E-03 0. -1.
         22    1    1    0    0    0 -0.20886542550E+02 -0.14975331834E+02 -0.20387000811E+02  0.32804542754E+02  0.00000000000E+00 0.  1.
</event>
<event>
 5    1  0.3144657E-003  0.9118800E+02  0.7818608E-02  0.1130116E+00
         25   -1    0    0    0    0  0.00000000000E+00  0.00000000000E+00  0.99999998245E-14  0.12500000000E+03  0.12500000000E+03 0.  0.
        -11    1    3    3    0    0 -0.21896437850E+01 -0.46541207838E+01 -0.46304786350E+02  0.46589576295E+02  0.51100000000E-03 0. -1.
         23    2    1    0    0    0  0.15387854148E+02  0.23278094873E+02 -0.10760952433E+02  0.95092578622E+02  0.90267074039E+02 0.  0.
         11    1    3    3    0    0  0.17577497933E+02  0.27932215657E+02  0.35543833916E+02  0.48503002328E+02  0.51100000000E-03 0.  1.
         22    1    1    0    0    0 -0.15387854148E+02 -0.23278094873E+02  0.10760952433E+02  0.29907421378E+02  0.00000000000E+00 0.  1.
</event>
<event>
 5    1  0.3144657E-003  0.9118800E+02  0.7818608E-02  0.1130116E+00
         25   -1    0    0    0    0  0.00000000000E+00  0.00000000000E+00  0.99999998245E-14  0.12500000000E+03  0.12500000000E+03 0.  0.
        -11    1    3    3    0    0  0.27784296869E+02  0.18125450738E+02 -0.14567636715E+02  0.36231411188E+02  0.51100000000E-03 0. -1.
         23    2    1    0    0    0 -0.30153239067E+01 -0.29376444060E+02  0.25059373419E+01  0.95363074285E+02  0.90640876934E+02 0.  0.
         11    1    3    3    0    0 -0.30799620776E+02 -0.47501894797E+02  0.17073574057E+02  0.59131663097E+02  0.51100000000E-03 0.  1.
         22    1    1    0    0    0  0.30153239067E+01  0.29376444060E+02 -0.25059373419E+01  0.29636925715E+02  0.00000000000E+00 0.  1.
</event>
<event>
 5    1  0.3144657E-003  0.9118800E+02  0.7818608E-02  0.1130116E+00
         25   -1    0    0    0    0  0.00000000000E+00  0.00000000000E+00  0.99999998245E-14  0.12500000000E+03  0.12500000000E+03 0.  0.
        -11    1    3    3    0    0 -0.77518214323E+01  0.80676049908E+01 -0.35790823354E+02  0.37498800279E+02  0.51100000000E-03 0.  1.
         23    2    1    0    0    0  0.11063447124E+02 -0.27537666594E+02  0.50971382471E+01  0.94888477919E+02  0.89983995687E+02 0.  0.
         11    1    3    3    0    0  0.18815268556E+02 -0.35605271585E+02  0.40887961601E+02  0.57389677640E+02  0.51100000000E-03 0. -1.
         22    1    1    0    0    0 -0.11063447124E+02  0.27537666594E+02 -0.50971382471E+01  0.30111522081E+02  0.00000000000E+00 0. -1.
</event>
<event>
 5    1  0.3144657E-003  0.9118800E+02  0.7818608E-02  0.1130116E+00
         25   -1    0    0    0    0  0.00000000000E+00  0.00000000000E+00  0.99999998245E-14  0.12500000000E+03  0.12500000000E+03 0.  0.
        -11    1    3    3    0    0 -0.82462832975E+01  0.44690186009E+02 -0.51552691271E+01  0.45736098585E+02  0.51100000000E-03 0.  1.
         23    2    1    0    0    0 -0.16897081037E+02  0.35685695395E+01  0.22940964256E+02  0.96285302071E+02  0.91903892833E+02 0.  0.
         11    1    3    3    0    0 -0.86507977397E+01 -0.41121616469E+02  0.28096233383E+02  0.50549203487E+02  0.51100000000E-03 0. -1.
         22    1    1    0    0    0  0.16897081037E+02 -0.35685695395E+01 -0.22940964256E+02  0.28714697929E+02  0.00000000000E+00 0.  1.
</event>
<event>
 5    1  0.3144657E-003  0.9118800E+02  0.7818608E-02  0.1130116E+00
         25   -1    0    0    0    0  0.00000000000E+00  0.00000000000E+00  0.99999998245E-14  0.12500000000E+03  0.12500000000E+03 0.  0.
        -11    1    3    3    0    0  0.35054391118E+02  0.15298902359E+02  0.64499651434E+01  0.38787482526E+02  0.51100000000E-03 0.  1.
         23    2    1    0    0    0 -0.76230640736E+01 -0.21723723306E+02 -0.13025663306E+02  0.98548172753E+02  0.94931781761E+02 0.  0.
         11    1    3    3    0    0 -0.42677455192E+02 -0.37022625664E+02 -0.19475628449E+02  0.59760690228E+02  0.51100000000E-03 0. -1.
         22    1    1    0    0    0  0.76230640736E+01  0.21723723306E+02  0.13025663306E+02  0.26451827247E+02  0.00000000000E+00 0. -1.
</event>
<event>
 5    1  0.3144657E-003  0.9118800E+02  0.7818608E-02  0.1130116E+00
         25   -1    0    0    0    0  0.00000000000E+00  0.00000000000E+00  0.99999998245E-14  0.12500000000E+03  0.12500000000E+03 0.  0.
        -11    1    3    3    0    0 -0.25693202245E+02 -0.11748842181E+02 -0.20370362259E+02  0.34829981238E+02  0.51100000000E-03 0.  1.
         23    2    1    0    0    0  0.25756585490E+02  0.14108540376E+02 -0.13007268165E+02  0.92880821418E+02  0.87150475355E+02 0.  0.
         11    1    3    3    0    0  0.51449787736E+02  0.25857382557E+02  0.73630940943E+01  0.58050840180E+02  0.51100000000E-03 0. -1.
         22    1    1    0    0    0 -0.25756585490E+02 -0.14108540376E+02  0.13007268165E+02  0.32119178582E+02  0.00000000000E+00 0. -1.
</event>
<event>
 5    1  0.3144657E-003  0.9118800E+02  0.7818608E-02  0.1130116E+00
         25   -1    0    0    0    0  0.00000000000E+00  0.00000000000E+00  0.99999998245E-14  0.12500000000E+03  0.12500000000E+03 0.  0.
        -11    1    3    3    0    0 -0.15167768374E+02 -0.17863930993E+02  0.23003242637E+02  0.32837941471E+02  0.51100000000E-03 0. -1.
         23    2    1    0    0    0  0.32174558455E+01  0.10822413630E+02 -0.28360185792E+02  0.94474980802E+02  0.89407746871E+02 0.  0.
         11    1    3    3    0    0  0.18385224219E+02  0.28686344622E+02 -0.51363428428E+02  0.61637039332E+02  0.51100000000E-03 0.  1.
         22    1    1    0    0    0 -0.32174558455E+01 -0.10822413630E+02  0.28360185792E+02  0.30525019198E+02  0.00000000000E+00 0.  1.
</event>
<event>
 5    1  0.3144657E-003  0.9118800E+02  0.7818608E-02  0.1130116E+00
         25   -1    0    0    0    0  0.00000000000E+00  0.00000000000E+00  0.99999998245E-14  0.12500000000E+03  0.12500000000E+03 0.  0.
        -11    1    3    3    0    0  0.15018586359E+02 -0.21417035117E+02 -0.44253710562E+02  0.51406597127E+02  0.51100000000E-03 0. -1.
         23    2    1    0    0    0  0.29003061319E+00 -0.30003648448E+02 -0.45032143269E+01  0.94658906130E+02  0.89664522150E+02 0.  0.
         11    1    3    3    0    0 -0.14728555746E+02 -0.85866133315E+01  0.39750496235E+02  0.43252309003E+02  0.51100000000E-03 0.  1.
         22    1    1    0    0    0 -0.29003061319E+00  0.30003648448E+02  0.45032143269E+01  0.30341093870E+02  0.00000000000E+00 0. -1.
</event>
<event>
 5    1  0.3144657E-003  0.9118800E+02  0.7818608E-02  0.1130116E+00
         25   -1    0    0    0    0  0.00000000000E+00  0.00000000000E+00  0.99999998245E-14  0.12500000000E+03  0.12500000000E+03 0.  0.
        -11    1    3    3    0    0  0.54004596773E+02 -0.19418663670E+01 -0.34373861378E+01  0.54148711354E+02  0.51100000000E-03 0.  1.
         23    2    1    0    0    0  0.30610526708E+02  0.20190061700E+02  0.63013590446E+01  0.87793144951E+02  0.79519093543E+02 0.  0.
         11    1    3    3    0    0 -0.23394070064E+02  0.22131928067E+02  0.97387451825E+01  0.33644433598E+02  0.51100000000E-03 0. -1.
         22    1    1    0    0    0 -0.30610526708E+02 -0.20190061700E+02 -0.63013590446E+01  0.37206855049E+02  0.00000000000E+00 0.  1.
</event>
<event>
 5    1  0.3144657E-003  0.9118800E+02  0.7818608E-02  0.1130116E+00
         25   -1    0    0    0    0  0.00000000000E+00  0.00000000000E+00  0.99999998245E-14  0.12500000000E+03  0.12500000000E+03 0.  0.
        -11    1    3    3    0    0  0.20735389059E+02 -0.21557431248E+02  0.49934820636E+02  0.58207950605E+02  0.51100000000E-03 0.  1.
         23    2    1    0    0    0  0.21401535642E+02 -0.12861375106E+02  0.11698117274E+02  0.97426704129E+02  0.93443437609E+02 0.  0.
         11    1    3    3    0    0  0.66614658314E+00  0.86960561418E+01 -0.38236703362E+02  0.39218753524E+02  0.51100000000E-03 0. -1.
         22    1    1    0    0    0 -0.21401535642E+02  0.12861375106E+02 -0.11698117274E+02  0.27573295871E+02  0.00000000000E+00 0.  1.
</event>
<event>
 5    1  0.3144657E-003  0.9118800E+02  0.7818608E-02  0.1130116E+00
         25   -1    0    0    0    0  0.00000000000E+00  0.00000000000E+00  0.99999998245E-14  0.12500000000E+03  0.12500000000E+03 0.  0.
        -11    1    3    3    0    0  0.56042186629E+02 -0.12120873611E+02 -0.11761542652E+02  0.58531838730E+02  0.51100000000E-03 0. -1.
         23    2    1    0    0    0  0.26584117053E+02  0.78138168293E+01 -0.13569709899E+02  0.94146993021E+02  0.88948008720E+02 0.  0.
         11    1    3    3    0    0 -0.29458069577E+02  0.19934690440E+02 -0.18081672464E+01  0.35615154291E+02  0.51100000000E-03 0.  1.
         22    1    1    0    0    0 -0.26584117053E+02 -0.78138168293E+01  0.13569709899E+02  0.30853006979E+02  0.00000000000E+00 0. -1.
</event>
<event>
 5    1  0.3144657E-003  0.9118800E+02  0.7818608E-02  0.1130116E+00
         25   -1    0    0    0    0  0.00000000000E+00  0.00000000000E+00  0.99999998245E-14  0.12500000000E+03  0.12500000000E+03 0.  0.
        -11    1    3    3    0    0 -0.98690779502E+01 -0.52741804921E+02 -0.30446134604E+02  0.61693304325E+02  0.51100000000E-03 0.  1.
         23    2    1    0    0    0 -0.11215363277E+02 -0.22179484464E+02 -0.15100765981E+02  0.95918269692E+02  0.91403322822E+02 0.  0.
         11    1    3    3    0    0 -0.13462853273E+01  0.30562320458E+02  0.15345368623E+02  0.34224965367E+02  0.51100000000E-03 0. -1.
         22    1    1    0    0    0  0.11215363277E+02  0.22179484464E+02  0.15100765981E+02  0.29081730308E+02  0.00000000000E+00 0.  1.
</event>
<event>
 5    1  0.3144657E-003  0.9118800E+02  0.7818608E-02  0.1130116E+00
         25   -1    0    0    0    0  0.00000000000E+00  0.00000000000E+00  0.99999998245E-14  0.12500000000E+03  0.12500000000E+03 0.  0.
        -11    1    3    3    0    0  0.32776117841E+02 -0.99790747977E+01  0.84158726506E+01  0.35280061611E+02  0.51100000000E-03 0.  1.
         23    2    1    0    0    0 -0.90274301697E+01  0.26919753474E+02 -0.11326796781E+02  0.94430996944E+02  0.89346232354E+02 0.  0.
         11    1    3    3    0    0 -0.41803548011E+02  0.36898828271E+02 -0.19742669432E+02  0.59150935332E+02  0.51100000000E-03 0. -1.
         22    1    1    0    0    0  0.90274301697E+01 -0.26919753474E+02  0.11326796781E+02  0.30569003056E+02  0.00000000000E+00 0. -1.
</event>
<event>
 5    1  0.3144657E-003  0.9118800E+02  0.7818608E-02  0.1130116E+00
         25   -1    0    0    0    0  0.00000000000E+00  0.00000000000E+00  0.99999998245E-14  0.12500000000E+03  0.12500000000E+03 0.  0.
        -11    1    3    3    0    0 -0.52853449395E+02  0.10801676576E+02 -0.22427646200E+02  0.58422278663E+02  0.51100000000E-03 0.  1.
         23    2    1    0    0    0 -0.49649339847E+02  0.11008225454E+01 -0.10296377207E+02  0.74282309387E+02  0.54273173362E+02 0.  0.
         11    1    3    3    0    0  0.32041095475E+01 -0.97008540311E+01  0.12131268994E+02  0.15860030724E+02  0.51100000000E-03 0. -1.
         22    1    1    0    0    0  0.49649339847E+02 -0.11008225454E+01  0.10296377207E+02  0.50717690613E+02  0.00000000000E+00 0.  1.
</event>
<event>
 5    1  0.3144657E-003  0.9118800E+02  0.7818608E-02  0.1130116E+00
         25   -1    0    0    0    0  0.00000000000E+00  0.00000000000E+00  0.99999998245E-14  0.12500000000E+03  0.12500000000E+03 0.  0.
        -11    1    3    3    0    0  0.74910622818E+01 -0.13153860701E+02 -0.29391396108E+02  0.33060463259E+02  0.51100000000E-03 0. -1.
         23    2    1    0    0    0 -0.21221999707E+02 -0.10413645924E+02  0.22458589831E+02  0.92393167124E+02  0.86448202879E+02 0.  0.
         11    1    3    3    0    0 -0.28713061989E+02  0.27402147767E+01  0.51849985939E+02  0.59332703865E+02  0.51100000000E-03 0.  1.
         22    1    1    0    0    0  0.21221999707E+02  0.10413645924E+02 -0.22458589831E+02  0.32606832876E+02  0.00000000000E+00 0.  1.
</event>
<event>
 5    1  0.3144657E-003  0.9118800E+02  0.7818608E-02  0.1130116E+00
         25   -1    0    0    0    0  0.00000000000E+00  0.00000000000E+00  0.99999998245E-14  0.12500000000E+03  0.12500000000E+03 0.  0.
        -11    1    3    3    0    0 -0.16888498666E+01 -0.24308871126E+02  0.23639526931E+02  0.33949972946E+02  0.51100000000E-03 0. -1.
         23    2    1    0    0    0  0.29175090008E+02 -0.10925890019E+02 -0.19188989008E+02  0.88410681220E+02  0.80483975454E+02 0.  0.
         11    1    3    3    0    0  0.30863939874E+02  0.13382981106E+02 -0.42828515939E+02  0.54460708273E+02  0.51100000000E-03 0.  1.
         22    1    1    0    0    0 -0.29175090008E+02  0.10925890019E+02  0.19188989008E+02  0.36589318780E+02  0.00000000000E+00 0.  1.
</event>
<event>
 5    1  0.3144657E-003  0.9118800E+02  0.7818608E-02  0.1130116E+00
         25   -1    0    0    0    0  0.00000000000E+00  0.00000000000E+00  0.99999998245E-14  0.12500000000E+03  0.12500000000E+03 0.  0.
        -11    1    3    3    0    0 -0.15810867984E+02  0.54887471519E+01 -0.20130283277E+02  0.26178964776E+02  0.51100000000E-03 0. -1.
         23    2    1    0    0    0  0.17507805677E+02  0.27334006744E+02  0.23244902777E+02  0.85075111905E+02  0.75125082204E+02 0.  0.
         11    1    3    3    0    0  0.33318673661E+02  0.21845259592E+02  0.43375186054E+02  0.58896147129E+02  0.51100000000E-03 0.  1.
         22    1    1    0    0    0 -0.17507805677E+02 -0.27334006744E+02 -0.23244902777E+02  0.39924888095E+02  0.00000000000E+00 0.  1.
</event>
<event>
 5    1  0.3144657E-003  0.9118800E+02  0.7818608E-02  0.1130116E+00
         25   -1    0    0    0    0  0.00000000000E+00  0.00000000000E+00  0.99999998245E-14  0.12500000000E+03  0.12500000000E+03 0.  0.
        -11    1    3    3    0    0 -0.38179422183E+02 -0.14753543542E+01  0.41058314278E+02  0.56085917308E+02  0.51100000000E-03 0.  1.
         23    2    1    0    0    0 -0.25844420934E+02  0.84858147736E+01  0.26121731743E+01  0.97672969527E+02  0.93772290053E+02 0.  0.
         11    1    3    3    0    0  0.12335001249E+02  0.99611691278E+01 -0.38446141104E+02  0.41587052219E+02  0.51100000000E-03 0. -1.
         22    1    1    0    0    0  0.25844420934E+02 -0.84858147736E+01 -0.26121731743E+01  0.27327030473E+02  0.00000000000E+00 0.  1.
</event>
<event>
 5    1  0.3144657E-003  0.9118800E+02  0.7818608E-02  0.1130116E+00
         25   -1    0    0    0    0  0.00000000000E+00  0.00000000000E+00  0.99999998245E-14  0.12500000000E+03  0.12500000000E+03 0.  0.
        -11    1    3    3    0    0 -0.34673172553E+02 -0.46994133017E+01 -0.40581846641E+02  0.53583576377E+02  0.51100000000E-03 0.  1.
         23    2    1    0    0    0 -0.31526537963E+02 -0.75544625238E+00 -0.10386909211E+01  0.93447311148E+02  0.87959239350E+02 0.  0.
         11    1    3    3    0    0  0.31466345896E+01  0.39439670493E+01  0.39543155720E+02  0.39863734771E+02  0.51100000000E-03 0. -1.
         22    1    1    0    0    0  0.31526537963E+02  0.75544625238E+00  0.10386909211E+01  0.31552688852E+02  0.00000000000E+00 0.  1.
</event>
<event>
 5    1  0.3144657E-003  0.9118800E+02  0.7818608E-02  0.1130116E+00
         25   -1    0    0    0    0  0.00000000000E+00  0.00000000000E+00  0.99999998245E-14  0.12500000000E+03  0.12500000000E+03 0.  0.
        -11    1    3    3    0    0  0.20872374374E+02  0.30375498004E+02 -0.46804253419E+02  0.59573190525E+02  0.51100000000E-03 0. -1.
         23    2    1    0    0    0  0.22040218545E+01  0.24527175869E+02 -0.17572260777E+02  0.94747323800E+02  0.89787699325E+02 0.  0.
         11    1    3    3    0    0 -0.18668352520E+02 -0.58483221358E+01  0.29231992641E+02  0.35174133275E+02  0.51100000000E-03 0.  1.
         22    1    1    0    0    0 -0.22040218545E+01 -0.24527175869E+02  0.17572260777E+02  0.30252676200E+02  0.00000000000E+00 0. -1.
</event>
<event>
 5    1  0.3144657E-003  0.9118800E+02  0.7818608E-02  0.1130116E+00
         25   -1    0    0    0    0  0.00000000000E+00  0.00000000000E+00  0.99999998245E-14  0.12500000000E+03  0.12500000000E+03 0.  0.
        -11    1    3    3    0    0 -0.55398759382E+01  0.52740390860E+01 -0.34044367040E+02  0.34893045742E+02  0.51100000000E-03 0.  1.
         23    2    1    0    0    0  0.59119986011E+01 -0.18311857407E+02  0.21397968851E+02  0.96222423311E+02  0.91818330566E+02 0.  0.
         11    1    3    3    0    0  0.11451874539E+02 -0.23585896493E+02  0.55442335891E+02  0.61329377570E+02  0.51100000000E-03 0. -1.
         22    1    1    0    0    0 -0.59119986011E+01  0.18311857407E+02 -0.21397968851E+02  0.28777576689E+02  0.00000000000E+00 0. -1.
</event>
<event>
 5    1  0.3144657E-003  0.9118800E+02  0.7818608E-02  0.1130116E+00
         25   -1    0    0    0    0  0.00000000000E+00  0.00000000000E+00  0.99999998245E-14  0.12500000000E+03  0.12500000000E+03 0.  0.
        -11    1    3    3    0    0  0.39798520174E+02  0.43507937999E+02  0.29893929353E+01  0.59040658426E+02  0.51100000000E-03 0.  1.
         23    2    1    0    0    0  0.21428545403E+02  0.10578566715E+02  0.12643916654E+02  0.97963778737E+02  0.94159145515E+02 0.  0.
         11    1    3    3    0    0 -0.18369974771E+02 -0.32929371284E+02  0.96545237183E+01  0.38923120311E+02  0.51100000000E-03 0. -1.
         22    1    1    0    0    0 -0.21428545403E+02 -0.10578566715E+02 -0.12643916654E+02  0.27036221263E+02  0.00000000000E+00 0.  1.
</event>
<event>
 5    1  0.3144657E-003  0.9118800E+02  0.7818608E-02  0.1130116E+00
         25   -1    0    0    0    0  0.00000000000E+00  0.00000000000E+00  0.99999998245E-14  0.12500000000E+03  0.12500000000E+03 0.  0.
        -11    1    3    3    0    0  0.15759900030E+02 -0.24474168010E+01 -0.30720260894E+02  0.34613562770E+02  0.51100000000E-03 0.  1.
         23    2    1    0    0    0 -0.14971513048E+02  0.65774523480E+01  0.22773850413E+02  0.96963285767E+02  0.92821449254E+02 0.  0.
         11    1    3    3    0    0 -0.30731413078E+02  0.90248691490E+01  0.53494111308E+02  0.62349722997E+02  0.51100000000E-03 0. -1.
         22    1    1    0    0    0  0.14971513048E+02 -0.65774523480E+01 -0.22773850413E+02  0.28036714233E+02  0.00000000000E+00 0. -1.
</event>
<event>
 5    1  0.3144657E-003  0.9118800E+02  0.7818608E-02  0.1130116E+00
         25   -1    0    0    0    0  0.00000000000E+00  0.00000000000E+00  0.99999998245E-14  0.12500000000E+03  0.12500000000E+03 0.  0.
        -11    1    3    3    0    0  0.41114624991E+02 -0.45945248563E+02  0.70925495246E+01  0.62061924823E+02  0.51100000000E-03 0.  1.
         23    2    1    0    0    0  0.20928206465E+02 -0.20569758415E+02 -0.15343691619E+01  0.95615325834E+02  0.90988084157E+02 0.  0.
         11    1    3    3    0    0 -0.20186418526E+02  0.25375490148E+02 -0.86269186865E+01  0.33553401012E+02  0.51100000000E-03 0. -1.
         22    1    1    0    0    0 -0.20928206465E+02  0.20569758415E+02  0.15343691619E+01  0.29384674166E+02  0.00000000000E+00 0.  1.
</event>
<event>
 5    1  0.3144657E-003  0.9118800E+02  0.7818608E-02  0.1130116E+00
         25   -1    0    0    0    0  0.00000000000E+00  0.00000000000E+00  0.99999998245E-14  0.12500000000E+03  0.12500000000E+03 0.  0.
        -11    1    3    3    0    0 -0.26370792516E+02  0.13907088510E+02 -0.32510571715E+02  0.44110804597E+02  0.51100000000E-03 0. -1.
         23    2    1    0    0    0 -0.65013342484E+01 -0.27348037853E+02 -0.97434178155E+01  0.95249088886E+02  0.90483546689E+02 0.  0.
         11    1    3    3    0    0  0.19869458268E+02 -0.41255126362E+02  0.22767153900E+02  0.51138284288E+02  0.51100000000E-03 0.  1.
         22    1    1    0    0    0  0.65013342484E+01  0.27348037853E+02  0.97434178155E+01  0.29750911114E+02  0.00000000000E+00 0.  1.
</event>
<event>
 5    1  0.3144657E-003  0.9118800E+02  0.7818608E-02  0.1130116E+00
         25   -1    0    0    0    0  0.00000000000E+00  0.00000000000E+00  0.99999998245E-14  0.12500000000E+03  0.12500000000E+03 0.  0.
        -11    1    3    3    0    0 -0.12779569131E+01 -0.26802778363E+02 -0.53672387027E+02  0.60006226604E+02  0.51100000000E-03 0.  1.
         23    2    1    0    0    0 -0.30274188740E+01 -0.10481117199E+01 -0.29356360706E+02  0.95469342758E+02  0.90787310179E+02 0.  0.
         11    1    3    3    0    0 -0.17494619609E+01  0.25754666644E+02  0.24316026320E+02  0.35463116154E+02  0.51100000000E-03 0. -1.
         22    1    1    0    0    0  0.30274188740E+01  0.10481117199E+01  0.29356360706E+02  0.29530657242E+02  0.00000000000E+00 0.  1.
</event>
<event>
 5    1  0.3144657E-003  0.9118800E+02  0.7818608E-02  0.1130116E+00
         25   -1    0    0    0    0  0.00000000000E+00  0.00000000000E+00  0.99999998245E-14  0.12500000000E+03  0.12500000000E+03 0.  0.
        -11    1    3    3    0    0  0.80075342594E+01 -0.28333740960E+02  0.18355635987E+02  0.34696553928E+02  0.51100000000E-03 0.  1.
         23    2    1    0    0    0 -0.33990466941E+01  0.28748211695E+02 -0.98172138771E+00  0.96034900812E+02  0.91562684556E+02 0.  0.
         11    1    3    3    0    0 -0.11406580953E+02  0.57081952655E+02 -0.19337357375E+02  0.61338346884E+02  0.51100000000E-03 0. -1.
         22    1    1    0    0    0  0.33990466941E+01 -0.28748211695E+02  0.98172138771E+00  0.28965099188E+02  0.00000000000E+00 0. -1.
</event>
<event>
 5    1  0.3144657E-003  0.9118800E+02  0.7818608E-02  0.1130116E+00
         25   -1    0    0    0    0  0.00000000000E+00  0.00000000000E+00  0.99999998245E-14  0.12500000000E+03  0.12500000000E+03 0.  0.
        -11    1    3    3    0    0  0.75523256722E+00  0.40382021824E+02  0.29780055116E+02  0.50180969957E+02  0.51100000000E-03 0.  1.
         23    2    1    0    0    0  0.12668082714E+02  0.23153634681E+02 -0.11297831934E+02  0.96290905187E+02  0.91911513406E+02 0.  0.
         11    1    3    3    0    0  0.11912850147E+02 -0.17228387143E+02 -0.41077887050E+02  0.46109935230E+02  0.51100000000E-03 0. -1.
         22    1    1    0    0    0 -0.12668082714E+02 -0.23153634681E+02  0.11297831934E+02  0.28709094813E+02  0.00000000000E+00 0. -1.
</event>
<event>
 5    1  0.3144657E-003  0.9118800E+02  0.7818608E-02  0.1130116E+00
         25   -1    0    0    0    0  0.00000000000E+00  0.00000000000E+00  0.99999998245E-14  0.12500000000E+03  0.12500000000E+03 0.  0.
        -11    1    3    3    0    0  0.37493286125E+02  0.15262487549E+02  0.89254259630E+01  0.41453024733E+02  0.51100000000E-03 0. -1.
         23    2    1    0    0    0 -0.12026986189E+02  0.27019461860E+02  0.13368977711E+02  0.92543424687E+02  0.86665195850E+02 0.  0.
         11    1    3    3    0    0 -0.49520272314E+02  0.11756974311E+02  0.44435517483E+01  0.51090399954E+02  0.51100000000E-03 0.  1.
         22    1    1    0    0    0  0.12026986189E+02 -0.27019461860E+02 -0.13368977711E+02  0.32456575313E+02  0.00000000000E+00 0. -1.
</event>
<event>
 5    1  0.3144657E-003  0.9118800E+02  0.7818608E-02  0.1130116E+00
         25   -1    0    0    0    0  0.00000000000E+00  0.00000000000E+00  0.99999998245E-14  0.12500000000E+03  0.12500000000E+03 0.  0.
        -11    1    3    3    0    0 -0.77684607847E+01  0.20424088940E+02  0.39596917889E+02  0.45226190405E+02  0.51100000000E-03 0. -1.
         23    2    1    0    0    0 -0.45200595521E+01 -0.24128277192E+02  0.15246393803E+02  0.96102643329E+02  0.91655118963E+02 0.  0.
         11    1    3    3    0    0  0.32484012327E+01 -0.44552366132E+02 -0.24350524086E+02  0.50876452923E+02  0.51100000000E-03 0.  1.
         22    1    1    0    0    0  0.45200595521E+01  0.24128277192E+02 -0.15246393803E+02  0.28897356671E+02  0.00000000000E+00 0. -1.
</event>
<event>
 5    1  0.3144657E-003  0.9118800E+02  0.7818608E-02  0.1130116E+00
         25   -1    0    0    0    0  0.00000000000E+00  0.00000000000E+00  0.99999998245E-14  0.12500000000E+03  0.12500000000E+03 0.  0.
        -11    1    3    3    0    0 -0.23369880614E+02  0.25447228428E+02 -0.14553605785E+01  0.34580786995E+02  0.51100000000E-03 0.  1.
         23    2    1    0    0    0  0.22389511225E+02 -0.95949138188E+01  0.17222834659E+02  0.95167490588E+02  0.90370751060E+02 0.  0.
         11    1    3    3    0    0  0.45759391839E+02 -0.35042142246E+02  0.18678195237E+02  0.60586703593E+02  0.51100000000E-03 0. -1.
         22    1    1    0    0    0 -0.22389511225E+02  0.95949138188E+01 -0.17222834659E+02  0.29832509412E+02  0.00000000000E+00 0. -1.
</event>
<event>
 5    1  0.3144657E-003  0.9118800E+02  0.7818608E-02  0.1130116E+00
         25   -1    0    0    0    0  0.00000000000E+00  0.00000000000E+00  0.99999998245E-14  0.12500000000E+03  0.12500000000E+03 0.  0.
        -11    1    3    3    0    0  0.20164352750E+02 -0.36085846552E+02 -0.34773971012E+02  0.54018686613E+02  0.51100000000E-03 0.  1.
         23    2    1    0    0    0  0.21130715311E+02 -0.19727076730E+02  0.37182280972E+01  0.95853989877E+02  0.91315373674E+02 0.  0.
         11    1    3    3    0    0  0.96636256112E+00  0.16358769822E+02  0.38492199109E+02  0.41835303264E+02  0.51100000000E-03 0. -1.
         22    1    1    0    0    0 -0.21130715311E+02  0.19727076730E+02 -0.37182280972E+01  0.29146010123E+02  0.00000000000E+00 0.  1.
</event>
<event>
 5    1  0.3144657E-003  0.9118800E+02  0.7818608E-02  0.1130116E+00
         25   -1    0    0    0    0  0.00000000000E+00  0.00000000000E+00  0.99999998245E-14  0.12500000000E+03  0.12500000000E+03 0.  0.
        -11    1    3    3    0    0 -0.15057427835E+02  0.13060915121E+01 -0.54334643562E+02  0.56397566431E+02  0.51100000000E-03 0.  1.
         23    2    1    0    0    0 -0.24126711943E+02 -0.53411310832E+01 -0.18010888665E+02  0.94421935625E+02  0.89333554201E+02 0.  0.
         11    1    3    3    0    0 -0.90692841082E+01 -0.66472225953E+01  0.36323754897E+02  0.38024369194E+02  0.51100000000E-03 0. -1.
         22    1    1    0    0    0  0.24126711943E+02  0.53411310832E+01  0.18010888665E+02  0.30578064375E+02  0.00000000000E+00 0.  1.
</event>
<event>
 5    1  0.3144657E-003  0.9118800E+02  0.7818608E-02  0.1130116E+00
         25   -1    0    0    0    0  0.00000000000E+00  0.00000000000E+00  0.99999998245E-14  0.12500000000E+03  0.12500000000E+03 0.  0.
        -11    1    3    3    0    0 -0.12309065990E+01 -0.24962763709E+02 -0.53591727011E+02  0.59133137134E+02  0.51100000000E-03 0.  1.
         23    2    1    0    0    0 -0.32109263708E+01  0.20607214937E+01 -0.29079381553E+02  0.95671395316E+02  0.91065080184E+02 0.  0.
         11    1    3    3    0    0 -0.19800197718E+01  0.27023485203E+02  0.24512345458E+02  0.36538258181E+02  0.51100000000E-03 0. -1.
         22    1    1    0    0    0  0.32109263708E+01 -0.20607214937E+01  0.29079381553E+02  0.29328604684E+02  0.00000000000E+00 0.  1.
</event>
<event>
 5    1  0.3144657E-003  0.9118800E+02  0.7818608E-02  0.1130116E+00
         25   -1    0    0    0    0  0.00000000000E+00  0.00000000000E+00  0.99999998245E-14  0.12500000000E+03  0.12500000000E+03 0.  0.
        -11    1    3    3    0    0 -0.19278012998E+01  0.33041986621E+02  0.39888578245E+01  0.33337670655E+02  0.51100000000E-03 0.  1.
         23    2    1    0    0    0  0.94567980171E+01 -0.23667728256E+02  0.19135334503E+02  0.93129113346E+02  0.87505876011E+02 0.  0.
         11    1    3    3    0    0  0.11384599317E+02 -0.56709714877E+02  0.15146476679E+02  0.59791442691E+02  0.51100000000E-03 0. -1.
         22    1    1    0    0    0 -0.94567980171E+01  0.23667728256E+02 -0.19135334503E+02  0.31870886654E+02  0.00000000000E+00 0. -1.
</event>
<event>
 5    1  0.3144657E-003  0.9118800E+02  0.7818608E-02  0.1130116E+00
         25   -1    0    0    0    0  0.00000000000E+00  0.00000000000E+00  0.99999998245E-14  0.12500000000E+03  0.12500000000E+03 0.  0.
        -11    1    3    3    0    0 -0.33110279973E+02 -0.54095600612E+01 -0.39213905286E+02  0.51607018398E+02  0.51100000000E-03 0. -1.
         23    2    1    0    0    0 -0.28897503307E+02  0.86357502291E+01  0.14205533415E+01  0.94806294510E+02  0.89869759249E+02 0.  0.
         11    1    3    3    0    0  0.42127766654E+01  0.14045310290E+02  0.40634458627E+02  0.43199276112E+02  0.51100000000E-03 0.  1.
         22    1    1    0    0    0  0.28897503307E+02 -0.86357502291E+01 -0.14205533415E+01  0.30193705490E+02  0.00000000000E+00 0. -1.
</event>
<event>
 5    1  0.3144657E-003  0.9118800E+02  0.7818608E-02  0.1130116E+00
         25   -1    0    0    0    0  0.00000000000E+00  0.00000000000E+00  0.99999998245E-14  0.12500000000E+03  0.12500000000E+03 0.  0.
        -11    1    3    3    0    0  0.35117241346E+02 -0.11819325137E+02 -0.38520870742E+02  0.53448803255E+02  0.51100000000E-03 0.  1.
         23    2    1    0    0    0  0.27901916831E+02 -0.61251392177E+01  0.32778827120E+01  0.96246238362E+02  0.91850746270E+02 0.  0.
         11    1    3    3    0    0 -0.72153245151E+01  0.56941859194E+01  0.41798753454E+02  0.42797435107E+02  0.51100000000E-03 0. -1.
         22    1    1    0    0    0 -0.27901916831E+02  0.61251392177E+01 -0.32778827120E+01  0.28753761638E+02  0.00000000000E+00 0.  1.
</event>
<event>
 5    1  0.3144657E-003  0.9118800E+02  0.7818608E-02  0.1130116E+00
         25   -1    0    0    0    0  0.00000000000E+00  0.00000000000E+00  0.99999998245E-14  0.12500000000E+03  0.12500000000E+03 0.  0.
        -11    1    3    3    0    0  0.61440341846E+01 -0.27479090464E+02  0.25859492409E+02  0.38230392579E+02  0.51100000000E-03 0. -1.
         23    2    1    0    0    0  0.10289670520E+02 -0.13265372354E+01 -0.26300804864E+02  0.96726879250E+02  0.92502539492E+02 0.  0.
         11    1    3    3    0    0  0.41456363353E+01  0.26152553229E+02 -0.52160297273E+02  0.58496486671E+02  0.51100000000E-03 0.  1.
         22    1    1    0    0    0 -0.10289670520E+02  0.13265372354E+01  0.26300804864E+02  0.28273120750E+02  0.00000000000E+00 0.  1.
</event>
<event>
 5    1  0.3144657E-003  0.9118800E+02  0.7818608E-02  0.1130116E+00
         25   -1    0    0    0    0  0.00000000000E+00  0.00000000000E+00  0.99999998245E-14  0.12500000000E+03  0.12500000000E+03 0.  0.
        -11    1    3    3    0    0  0.26557555178E+02  0.57953369468E+01 -0.42692826965E+02  0.50611926874E+02  0.51100000000E-03 0.  1.
         23    2    1    0    0    0  0.28147473571E+01 -0.23228691343E+02 -0.17343949482E+02  0.95874281334E+02  0.91343146067E+02 0.  0.
         11    1    3    3    0    0 -0.23742807821E+02 -0.29024028290E+02  0.25348877483E+02  0.45262354460E+02  0.51100000000E-03 0. -1.
         22    1    1    0    0    0 -0.28147473571E+01  0.23228691343E+02  0.17343949482E+02  0.29125718666E+02  0.00000000000E+00 0.  1.
</event>
<event>
 5    1  0.3144657E-003  0.9118800E+02  0.7818608E-02  0.1130116E+00
         25   -1    0    0    0    0  0.00000000000E+00  0.00000000000E+00  0.99999998245E-14  0.12500000000E+03  0.12500000000E+03 0.  0.
        -11    1    3    3    0    0  0.16254060211E+02 -0.34191954552E+02  0.73264164560E+01  0.38561128196E+02  0.51100000000E-03 0.  1.
         23    2    1    0    0    0  0.16880173001E+02  0.23141760154E+02  0.48218965013E+01  0.95952934926E+02  0.91450717501E+02 0.  0.
         11    1    3    3    0    0  0.62611279001E+00  0.57333714706E+02 -0.25045199548E+01  0.57391806729E+02  0.51100000000E-03 0. -1.
         22    1    1    0    0    0 -0.16880173001E+02 -0.23141760154E+02 -0.48218965013E+01  0.29047065074E+02  0.00000000000E+00 0. -1.
</event>
<event>
 5    1  0.3144657E-003  0.9118800E+02  0.7818608E-02  0.1130116E+00
         25   -1    0    0    0    0  0.00000000000E+00  0.00000000000E+00  0.99999998245E-14  0.12500000000E+03  0.12500000000E+03 0.  0.
        -11    1    3    3    0    0  0.62344074753E-01 -0.61378584134E+01  0.40099338351E+02  0.40566416272E+02  0.51100000000E-03 0. -1.
         23    2    1    0    0    0 -0.31184289407E+02  0.74763857646E+01  0.34686980453E+00  0.92930129894E+02  0.87221169871E+02 0.  0.
         11    1    3    3    0    0 -0.31246633482E+02  0.13614244178E+02 -0.39752468547E+02  0.52363713622E+02  0.51100000000E-03 0.  1.
         22    1    1    0    0    0  0.31184289407E+02 -0.74763857646E+01 -0.34686980453E+00  0.32069870106E+02  0.00000000000E+00 0.  1.
</event>
<event>
 5    1  0.3144657E-003  0.9118800E+02  0.7818608E-02  0.1130116E+00
         25   -1    0    0    0    0  0.00000000000E+00  0.00000000000E+00  0.99999998245E-14  0.12500000000E+03  0.12500000000E+03 0.  0.
        -11    1    3    3    0    0 -0.15067201236E+01  0.34464887072E+02  0.15787567980E+02  0.37938713070E+02  0.51100000000E-03 0. -1.
         23    2    1    0    0    0 -0.18555502776E+02 -0.11413416411E+02 -0.17438832909E+02  0.97095060461E+02  0.92998737171E+02 0.  0.
         11    1    3    3    0    0 -0.17048782652E+02 -0.45878303483E+02 -0.33226400889E+02  0.59156347391E+02  0.51100000000E-03 0.  1.
         22    1    1    0    0    0  0.18555502776E+02  0.11413416411E+02  0.17438832909E+02  0.27904939539E+02  0.00000000000E+00 0.  1.
</event>
<event>
 5    1  0.3144657E-003  0.9118800E+02  0.7818608E-02  0.1130116E+00
         25   -1    0    0    0    0  0.00000000000E+00  0.00000000000E+00  0.99999998245E-14  0.12500000000E+03  0.12500000000E+03 0.  0.
        -11    1    3    3    0    0  0.16385616906E+02 -0.40669056595E+02 -0.33333051934E+02  0.55077699273E+02  0.51100000000E-03 0. -1.
         23    2    1    0    0    0  0.22372018799E+02 -0.36352350967E+01 -0.19627116271E+02  0.95017574273E+02  0.90163149725E+02 0.  0.
         11    1    3    3    0    0  0.59864018932E+01  0.37033821498E+02  0.13705935663E+02  0.39939875000E+02  0.51100000000E-03 0.  1.
         22    1    1    0    0    0 -0.22372018799E+02  0.36352350967E+01  0.19627116271E+02  0.29982425727E+02  0.00000000000E+00 0. -1.
</event>
<event>
 5    1  0.3144657E-003  0.9118800E+02  0.7818608E-02  0.1130116E+00
         25   -1    0    0    0    0  0.00000000000E+00  0.00000000000E+00  0.99999998245E-14  0.12500000000E+03  0.12500000000E+03 0.  0.
        -11    1    3    3    0    0 -0.88781146009E+00 -0.43707709071E+02  0.39184716709E+01  0.43891986306E+02  0.51100000000E-03 0.  1.
         23    2    1    0    0    0  0.92987274461E+01  0.10588621409E+02  0.19175073686E+02  0.10120359930E+03  0.98366151824E+02 0.  0.
         11    1    3    3    0    0  0.10186538906E+02  0.54296330480E+02  0.15256602015E+02  0.57311612992E+02  0.51100000000E-03 0. -1.
         22    1    1    0    0    0 -0.92987274461E+01 -0.10588621409E+02 -0.19175073686E+02  0.23796400701E+02  0.00000000000E+00 0. -1.
</event>
<event>
 5    1  0.3144657E-003  0.9118800E+02  0.7818608E-02  0.1130116E+00
         25   -1    0    0    0    0  0.00000000000E+00  0.00000000000E+00  0.99999998245E-14  0.12500000000E+03  0.12500000000E+03 0.  0.
        -11    1    3    3    0    0  0.11307158005E+02 -0.18988282213E+00  0.53664765741E+02  0.54843367511E+02  0.51100000000E-03 0.  1.
         23    2    1    0    0    0 -0.11413058989E+02  0.14252131457E+02  0.21020307652E+02  0.97156966754E+02  0.93081908492E+02 0.  0.
         11    1    3    3    0    0 -0.22720216994E+02  0.14442014279E+02 -0.32644458089E+02  0.42313599243E+02  0.51100000000E-03 0. -1.
         22    1    1    0    0    0  0.11413058989E+02 -0.14252131457E+02 -0.21020307652E+02  0.27843033246E+02  0.00000000000E+00 0.  1.
</event>
<event>
 5    1  0.3144657E-003  0.9118800E+02  0.7818608E-02  0.1130116E+00
         25   -1    0    0    0    0  0.00000000000E+00  0.00000000000E+00  0.99999998245E-14  0.12500000000E+03  0.12500000000E+03 0.  0.
        -11    1    3    3    0    0  0.44702329435E+02 -0.15204466848E+02 -0.32717430072E+02  0.57444793496E+02  0.51100000000E-03 0.  1.
         23    2    1    0    0    0  0.89993635951E+01  0.29877724808E+01 -0.25013701440E+02  0.98249288061E+02  0.94537410665E+02 0.  0.
         11    1    3    3    0    0 -0.35702965840E+02  0.18192239329E+02  0.77037286318E+01  0.40804494564E+02  0.51100000000E-03 0. -1.
         22    1    1    0    0    0 -0.89993635951E+01 -0.29877724808E+01  0.25013701440E+02  0.26750711939E+02  0.00000000000E+00 0.  1.
</event>
<event>
 5    1  0.3144657E-003  0.9118800E+02  0.7818608E-02  0.1130116E+00
         25   -1    0    0    0    0  0.00000000000E+00  0.00000000000E+00  0.99999998245E-14  0.12500000000E+03  0.12500000000E+03 0.  0.
        -11    1    3    3    0    0 -0.14829853299E+02 -0.49515567963E+02 -0.20595343599E+02  0.55640670357E+02  0.51100000000E-03 0. -1.
         23    2    1    0    0    0 -0.88560775348E+00 -0.25281398536E+02  0.10635337385E+02  0.97558356202E+02  0.93619383947E+02 0.  0.
         11    1    3    3    0    0  0.13944245546E+02  0.24234169427E+02  0.31230680984E+02  0.41917685845E+02  0.51100000000E-03 0.  1.
         22    1    1    0    0    0  0.88560775348E+00  0.25281398536E+02 -0.10635337385E+02  0.27441643798E+02  0.00000000000E+00 0. -1.
</event>
<event>
 5    1  0.3144657E-003  0.9118800E+02  0.7818608E-02  0.1130116E+00
         25   -1    0    0    0    0  0.00000000000E+00  0.00000000000E+00  0.99999998245E-14  0.12500000000E+03  0.12500000000E+03 0.  0.
        -11    1    3    3    0    0 -0.23992110120E+02 -0.20606666258E+01  0.45725946012E+02  0.51679104423E+02  0.51100000000E-03 0. -1.
         23    2    1    0    0    0  0.13883158317E+02 -0.83814190169E+01  0.24683742250E+02  0.95465657260E+02  0.90782235680E+02 0.  0.
         11    1    3    3    0    0  0.37875268437E+02 -0.63207523910E+01 -0.21042203762E+02  0.43786552838E+02  0.51100000000E-03 0.  1.
         22    1    1    0    0    0 -0.13883158317E+02  0.83814190169E+01 -0.24683742250E+02  0.29534342740E+02  0.00000000000E+00 0.  1.
</event>
<event>
 5    1  0.3144657E-003  0.9118800E+02  0.7818608E-02  0.1130116E+00
         25   -1    0    0    0    0  0.00000000000E+00  0.00000000000E+00  0.99999998245E-14  0.12500000000E+03  0.12500000000E+03 0.  0.
        -11    1    3    3    0    0  0.36568322052E+01 -0.24733792903E+02 -0.54169514667E+02  0.59661287722E+02  0.51100000000E-03 0.  1.
         23    2    1    0    0    0  0.14673996798E+02 -0.12827583894E+02 -0.22584906383E+02  0.95167952016E+02  0.90371389301E+02 0.  0.
         11    1    3    3    0    0  0.11017164593E+02  0.11906209009E+02  0.31584608284E+02  0.35506664295E+02  0.51100000000E-03 0. -1.
         22    1    1    0    0    0 -0.14673996798E+02  0.12827583894E+02  0.22584906383E+02  0.29832047984E+02  0.00000000000E+00 0.  1.
</event>
<event>
 5    1  0.3144657E-003  0.9118800E+02  0.7818608E-02  0.1130116E+00
         25   -1    0    0    0    0  0.00000000000E+00  0.00000000000E+00  0.99999998245E-14  0.12500000000E+03  0.12500000000E+03 0.  0.
        -11    1    3    3    0    0 -0.22010053695E+02  0.31952156045E+02  0.14952634656E+02  0.41580813160E+02  0.51100000000E-03 0. -1.
         23    2    1    0    0    0  0.13209308643E+02 -0.14665995166E+02  0.15329596626E+02  0.10000852582E+03  0.96835589813E+02 0.  0.
         11    1    3    3    0    0  0.35219362339E+02 -0.46618151211E+02  0.37696197075E+00  0.58427712659E+02  0.51100000000E-03 0.  1.
         22    1    1    0    0    0 -0.13209308643E+02  0.14665995166E+02 -0.15329596626E+02  0.24991474182E+02  0.00000000000E+00 0.  1.
</event>
<event>
 5    1  0.3144657E-003  0.9118800E+02  0.7818608E-02  0.1130116E+00
         25   -1    0    0    0    0  0.00000000000E+00  0.00000000000E+00  0.99999998245E-14  0.12500000000E+03  0.12500000000E+03 0.  0.
        -11    1    3    3    0    0 -0.23084605316E+02  0.19894638272E+02  0.44558412241E+02  0.53982846686E+02  0.51100000000E-03 0.  1.
         23    2    1    0    0    0  0.11715491265E+02 -0.10322903882E+01  0.21004140512E+02  0.10092735416E+03  0.98014481279E+02 0.  0.
         11    1    3    3    0    0  0.34800096581E+02 -0.20926928660E+02 -0.23554271729E+02  0.46944507476E+02  0.51100000000E-03 0. -1.
         22    1    1    0    0    0 -0.11715491265E+02  0.10322903882E+01 -0.21004140512E+02  0.24072645839E+02  0.00000000000E+00 0.  1.
</event>
<event>
 5    1  0.3144657E-003  0.9118800E+02  0.7818608E-02  0.1130116E+00
         25   -1    0    0    0    0  0.00000000000E+00  0.00000000000E+00  0.99999998245E-14  0.12500000000E+03  0.12500000000E+03 0.  0.
        -11    1    3    3    0    0 -0.21347125439E+02 -0.54070983220E+01  0.57413779831E+02  0.61492101863E+02  0.51100000000E-03 0. -1.
         23    2    1    0    0    0 -0.28196146716E+01 -0.51603967343E+01  0.28972842509E+02  0.95436415569E+02  0.90741963238E+02 0.  0.
         11    1    3    3    0    0  0.18527510768E+02  0.24670158774E+00 -0.28440937323E+02  0.33944313706E+02  0.51100000000E-03 0.  1.
         22    1    1    0    0    0  0.28196146716E+01  0.51603967343E+01 -0.28972842509E+02  0.29563584431E+02  0.00000000000E+00 0. -1.
</event>
<event>
 5    1  0.3144657E-003  0.9118800E+02  0.7818608E-02  0.1130116E+00
         25   -1    0    0    0    0  0.00000000000E+00  0.00000000000E+00  0.99999998245E-14  0.12500000000E+03  0.12500000000E+03 0.  0.
        -11    1    3    3    0    0  0.17041286328E+02  0.50289458592E+02 -0.37273941191E+01  0.53229019833E+02  0.51100000000E-03 0. -1.
         23    2    1    0    0    0 -0.87469112788E+01  0.21269220756E+02 -0.19219554124E+02  0.95028689231E+02  0.90178557916E+02 0.  0.
         11    1    3    3    0    0 -0.25788197607E+02 -0.29020237836E+02 -0.15492160005E+02  0.41799669398E+02  0.51100000000E-03 0.  1.
         22    1    1    0    0    0  0.87469112788E+01 -0.21269220756E+02  0.19219554124E+02  0.29971310769E+02  0.00000000000E+00 0. -1.
</event>
<event>
 5    1  0.3144657E-003  0.9118800E+02  0.7818608E-02  0.1130116E+00
         25   -1    0    0    0    0  0.00000000000E+00  0.00000000000E+00  0.99999998245E-14  0.12500000000E+03  0.12500000000E+03 0.  0.
        -11    1    3    3    0    0 -0.24718223571E+02 -0.11507992090E+02  0.27108435558E+02  0.38448559623E+02  0.51100000000E-03 0.  1.
         23    2    1    0    0    0 -0.12437594793E+01  0.27464161583E+02 -0.85011731047E+01  0.96223324493E+02  0.91819557411E+02 0.  0.
         11    1    3    3    0    0  0.23474464091E+02  0.38972153673E+02 -0.35609608663E+02  0.57774764869E+02  0.51100000000E-03 0. -1.
         22    1    1    0    0    0  0.12437594793E+01 -0.27464161583E+02  0.85011731047E+01  0.28776675507E+02  0.00000000000E+00 0. -1.
</event>
<event>
 5    1  0.3144657E-003  0.9118800E+02  0.7818608E-02  0.1130116E+00
         25   -1    0    0    0    0  0.00000000000E+00  0.00000000000E+00  0.99999998245E-14  0.12500000000E+03  0.12500000000E+03 0.  0.
        -11    1    3    3    0    0  0.22826455816E+02  0.31965664147E+02  0.12540587601E+01  0.39299153083E+02  0.51100000000E-03 0. -1.
         23    2    1    0    0    0 -0.11399630911E+01 -0.77945502055E+01 -0.29156885966E+02  0.94797706577E+02  0.89857813485E+02 0.  0.
         11    1    3    3    0    0 -0.23966418907E+02 -0.39760214352E+02 -0.30410944726E+02  0.55498553494E+02  0.51100000000E-03 0.  1.
         22    1    1    0    0    0  0.11399630911E+01  0.77945502055E+01  0.29156885966E+02  0.30202293423E+02  0.00000000000E+00 0.  1.
</event>
<event>
 5    1  0.3144657E-003  0.9118800E+02  0.7818608E-02  0.1130116E+00
         25   -1    0    0    0    0  0.00000000000E+00  0.00000000000E+00  0.99999998245E-14  0.12500000000E+03  0.12500000000E+03 0.  0.
        -11    1    3    3    0    0  0.34724165277E+02 -0.97624534884E+01  0.12229633255E+02  0.38087229908E+02  0.51100000000E-03 0.  1.
         23    2    1    0    0    0 -0.15190260142E+02  0.18884855552E+02  0.16316870857E+02  0.95783188966E+02  0.91218404073E+02 0.  0.
         11    1    3    3    0    0 -0.49914425419E+02  0.28647309040E+02  0.40872376029E+01  0.57695959058E+02  0.51100000000E-03 0. -1.
         22    1    1    0    0    0  0.15190260142E+02 -0.18884855552E+02 -0.16316870857E+02  0.29216811034E+02  0.00000000000E+00 0. -1.
</event>
<event>
 5    1  0.3144657E-003  0.9118800E+02  0.7818608E-02  0.1130116E+00
         25   -1    0    0    0    0  0.00000000000E+00  0.00000000000E+00  0.99999998245E-14  0.12500000000E+03  0.12500000000E+03 0.  0.
        -11    1    3    3    0    0  0.69949867192E+00 -0.19335984227E+02  0.38247027592E+02  0.42862625961E+02  0.51100000000E-03 0.  1.
         23    2    1    0    0    0 -0.14622600314E+02  0.22904510229E+02  0.94618934174E+01  0.96225628490E+02  0.91822693940E+02 0.  0.
         11    1    3    3    0    0 -0.15322098986E+02  0.42240494456E+02 -0.28785134174E+02  0.53363002529E+02  0.51100000000E-03 0. -1.
         22    1    1    0    0    0  0.14622600314E+02 -0.22904510229E+02 -0.94618934174E+01  0.28774371510E+02  0.00000000000E+00 0. -1.
</event>
<event>
 5    1  0.3144657E-003  0.9118800E+02  0.7818608E-02  0.1130116E+00
         25   -1    0    0    0    0  0.00000000000E+00  0.00000000000E+00  0.99999998245E-14  0.12500000000E+03  0.12500000000E+03 0.  0.
        -11    1    3    3    0    0  0.42265443362E+02 -0.19487590722E+02 -0.15136085628E+01  0.46566349501E+02  0.51100000000E-03 0.  1.
         23    2    1    0    0    0 -0.53857693745E+01 -0.28228435118E+02  0.61408672223E+01  0.95613586282E+02  0.90985694318E+02 0.  0.
         11    1    3    3    0    0 -0.47651212737E+02 -0.87408443960E+01  0.76544757851E+01  0.49047236781E+02  0.51100000000E-03 0. -1.
         22    1    1    0    0    0  0.53857693745E+01  0.28228435118E+02 -0.61408672223E+01  0.29386413718E+02  0.00000000000E+00 0. -1.
</event>
<event>
 5    1  0.3144657E-003  0.9118800E+02  0.7818608E-02  0.1130116E+00
         25   -1    0    0    0    0  0.00000000000E+00  0.00000000000E+00  0.99999998245E-14  0.12500000000E+03  0.12500000000E+03 0.  0.
        -11    1    3    3    0    0 -0.35212903093E+01 -0.27686298215E+02 -0.45000771228E+02  0.52952809233E+02  0.51100000000E-03 0.  1.
         23    2    1    0    0    0  0.21516873799E+00 -0.29205013222E+02 -0.24529567318E+01  0.95691364896E+02  0.91092487199E+02 0.  0.
         11    1    3    3    0    0  0.37364590473E+01 -0.15187150078E+01  0.42547814497E+02  0.42738555663E+02  0.51100000000E-03 0. -1.
         22    1    1    0    0    0 -0.21516873799E+00  0.29205013222E+02  0.24529567318E+01  0.29308635104E+02  0.00000000000E+00 0.  1.
</event>
<event>
 5    1  0.3144657E-003  0.9118800E+02  0.7818608E-02  0.1130116E+00
         25   -1    0    0    0    0  0.00000000000E+00  0.00000000000E+00  0.99999998245E-14  0.12500000000E+03  0.12500000000E+03 0.  0.
        -11    1    3    3    0    0 -0.35246582760E+02  0.10485607709E+02 -0.27722017388E+02  0.46051925189E+02  0.51100000000E-03 0. -1.
         23    2    1    0    0    0  0.10167945279E+02 -0.83550284565E+01 -0.26703124332E+02  0.95230040968E+02  0.90457228799E+02 0.  0.
         11    1    3    3    0    0  0.45414528040E+02 -0.18840636166E+02  0.10188930565E+01  0.49178115778E+02  0.51100000000E-03 0.  1.
         22    1    1    0    0    0 -0.10167945279E+02  0.83550284565E+01  0.26703124332E+02  0.29769959032E+02  0.00000000000E+00 0.  1.
</event>
<event>
 5    1  0.3144657E-003  0.9118800E+02  0.7818608E-02  0.1130116E+00
         25   -1    0    0    0    0  0.00000000000E+00  0.00000000000E+00  0.99999998245E-14  0.12500000000E+03  0.12500000000E+03 0.  0.
        -11    1    3    3    0    0 -0.17019033939E+02  0.49178038936E+02  0.80921635256E+01  0.52665075151E+02  0.51100000000E-03 0. -1.
         23    2    1    0    0    0  0.99737172304E+01  0.20996953264E+02  0.20904552252E+02  0.93737444336E+02  0.88370589475E+02 0.  0.
         11    1    3    3    0    0  0.26992751170E+02 -0.28181085672E+02  0.12812388727E+02  0.41072369186E+02  0.51100000000E-03 0.  1.
         22    1    1    0    0    0 -0.99737172304E+01 -0.20996953264E+02 -0.20904552252E+02  0.31262555664E+02  0.00000000000E+00 0.  1.
</event>
<event>
 5    1  0.3144657E-003  0.9118800E+02  0.7818608E-02  0.1130116E+00
         25   -1    0    0    0    0  0.00000000000E+00  0.00000000000E+00  0.99999998245E-14  0.12500000000E+03  0.12500000000E+03 0.  0.
        -11    1    3    3    0    0  0.33287690325E+02  0.64196981046E+01  0.10235584771E+02  0.35412569051E+02  0.51100000000E-03 0.  1.
         23    2    1    0    0    0 -0.16759567082E+02 -0.24303397761E+02 -0.20429866681E+01  0.95407568096E+02  0.90702216202E+02 0.  0.
         11    1    3    3    0    0 -0.50047257407E+02 -0.30723095866E+02 -0.12278571439E+02  0.59994999045E+02  0.51100000000E-03 0. -1.
         22    1    1    0    0    0  0.16759567082E+02  0.24303397761E+02  0.20429866681E+01  0.29592431904E+02  0.00000000000E+00 0. -1.
</event>
<event>
 5    1  0.3144657E-003  0.9118800E+02  0.7818608E-02  0.1130116E+00
         25   -1    0    0    0    0  0.00000000000E+00  0.00000000000E+00  0.99999998245E-14  0.12500000000E+03  0.12500000000E+03 0.  0.
        -11    1    3    3    0    0  0.18648248103E+02 -0.26457480884E+02 -0.26637669967E+02  0.41920411658E+02  0.51100000000E-03 0. -1.
         23    2    1    0    0    0 -0.27042426426E+02 -0.29536037388E+01 -0.11307906382E+02  0.95540106096E+02  0.90884688062E+02 0.  0.
         11    1    3    3    0    0 -0.45690674530E+02  0.23503877145E+02  0.15329763585E+02  0.53619694438E+02  0.51100000000E-03 0.  1.
         22    1    1    0    0    0  0.27042426426E+02  0.29536037388E+01  0.11307906382E+02  0.29459893904E+02  0.00000000000E+00 0.  1.
</event>
<event>
 5    1  0.3144657E-003  0.9118800E+02  0.7818608E-02  0.1130116E+00
         25   -1    0    0    0    0  0.00000000000E+00  0.00000000000E+00  0.99999998245E-14  0.12500000000E+03  0.12500000000E+03 0.  0.
        -11    1    3    3    0    0 -0.20098204789E+02 -0.20974813665E+02  0.30727592897E+02  0.42285524822E+02  0.51100000000E-03 0.  1.
         23    2    1    0    0    0 -0.18000473346E+02  0.23302975757E+02  0.12336188979E+01  0.95528530145E+02  0.90868765460E+02 0.  0.
         11    1    3    3    0    0  0.20977314424E+01  0.44277789422E+02 -0.29493973999E+02  0.53243005323E+02  0.51100000000E-03 0. -1.
         22    1    1    0    0    0  0.18000473346E+02 -0.23302975757E+02 -0.12336188979E+01  0.29471469855E+02  0.00000000000E+00 0. -1.
</event>
<event>
 5    1  0.3144657E-003  0.9118800E+02  0.7818608E-02  0.1130116E+00
         25   -1    0    0    0    0  0.00000000000E+00  0.00000000000E+00  0.99999998245E-14  0.12500000000E+03  0.12500000000E+03 0.  0.
        -11    1    3    3    0    0  0.13449890034E+02 -0.31540222310E+02 -0.46432528733E+02  0.57720575968E+02  0.51100000000E-03 0.  1.
         23    2    1    0    0    0  0.20416976338E+02 -0.47132248745E+01 -0.19103548828E+02  0.96644877194E+02  0.92391662495E+02 0.  0.
         11    1    3    3    0    0  0.69670863045E+01  0.26826997436E+02  0.27328979905E+02  0.38924301226E+02  0.51100000000E-03 0. -1.
         22    1    1    0    0    0 -0.20416976338E+02  0.47132248745E+01  0.19103548828E+02  0.28355122806E+02  0.00000000000E+00 0.  1.
</event>
<event>
 5    1  0.3144657E-003  0.9118800E+02  0.7818608E-02  0.1130116E+00
         25   -1    0    0    0    0  0.00000000000E+00  0.00000000000E+00  0.99999998245E-14  0.12500000000E+03  0.12500000000E+03 0.  0.
        -11    1    3    3    0    0 -0.27254616035E+02 -0.96069579843E+01 -0.26095437968E+02  0.38936867105E+02  0.51100000000E-03 0.  1.
         23    2    1    0    0    0 -0.22533412779E+02 -0.23259515524E+01  0.25288824550E+02  0.91048720360E+02  0.84481832899E+02 0.  0.
         11    1    3    3    0    0  0.47212032558E+01  0.72810064320E+01  0.51384262519E+02  0.52111853255E+02  0.51100000000E-03 0. -1.
         22    1    1    0    0    0  0.22533412779E+02  0.23259515524E+01 -0.25288824550E+02  0.33951279640E+02  0.00000000000E+00 0. -1.
</event>
<event>
 5    1  0.3144657E-003  0.9118800E+02  0.7818608E-02  0.1130116E+00
         25   -1    0    0    0    0  0.00000000000E+00  0.00000000000E+00  0.99999998245E-14  0.12500000000E+03  0.12500000000E+03 0.  0.
        -11    1    3    3    0    0  0.77047351407E+01 -0.53133932844E+02  0.81140292897E+01  0.54299311548E+02  0.51100000000E-03 0. -1.
         23    2    1    0    0    0 -0.15249399977E+02 -0.41805716659E+02  0.72654646016E+01  0.79910654020E+02  0.65974718681E+02 0.  0.
         11    1    3    3    0    0 -0.22954135117E+02  0.11328216185E+02 -0.84856468812E+00  0.25611342472E+02  0.51100000000E-03 0.  1.
         22    1    1    0    0    0  0.15249399977E+02  0.41805716659E+02 -0.72654646016E+01  0.45089345980E+02  0.00000000000E+00 0. -1.
</event>
<event>
 5    1  0.3144657E-003  0.9118800E+02  0.7818608E-02  0.1130116E+00
         25   -1    0    0    0    0  0.00000000000E+00  0.00000000000E+00  0.99999998245E-14  0.12500000000E+03  0.12500000000E+03 0.  0.
        -11    1    3    3    0    0  0.77552066216E+01 -0.23222412785E+02  0.16428136728E+02  0.29484018754E+02  0.51100000000E-03 0. -1.
         23    2    1    0    0    0 -0.19297495407E+02  0.21578067113E+02 -0.16851632453E+02  0.91503972987E+02  0.85152764176E+02 0.  0.
         11    1    3    3    0    0 -0.27052702029E+02  0.44800479898E+02 -0.33279769181E+02  0.62019954233E+02  0.51100000000E-03 0.  1.
         22    1    1    0    0    0  0.19297495407E+02 -0.21578067113E+02  0.16851632453E+02  0.33496027013E+02  0.00000000000E+00 0.  1.
</event>
<event>
 5    1  0.3144657E-003  0.9118800E+02  0.7818608E-02  0.1130116E+00
         25   -1    0    0    0    0  0.00000000000E+00  0.00000000000E+00  0.99999998245E-14  0.12500000000E+03  0.12500000000E+03 0.  0.
        -11    1    3    3    0    0 -0.28317677334E+02  0.33951650900E+02  0.87391426621E+00  0.44219556475E+02  0.51100000000E-03 0.  1.
         23    2    1    0    0    0 -0.47454616528E+01 -0.51659307908E+01  0.27183121061E+02  0.96926376830E+02  0.92771731727E+02 0.  0.
         11    1    3    3    0    0  0.23572215681E+02 -0.39117581691E+02  0.26309206795E+02  0.52706820355E+02  0.51100000000E-03 0. -1.
         22    1    1    0    0    0  0.47454616528E+01  0.51659307908E+01 -0.27183121061E+02  0.28073623170E+02  0.00000000000E+00 0.  1.
</event>
<event>
 5    1  0.3144657E-003  0.9118800E+02  0.7818608E-02  0.1130116E+00
         25   -1    0    0    0    0  0.00000000000E+00  0.00000000000E+00  0.99999998245E-14  0.12500000000E+03  0.12500000000E+03 0.  0.
        -11    1    3    3    0    0 -0.16878084359E+02 -0.48797434591E+02  0.27815806379E+02  0.58649624373E+02  0.51100000000E-03 0.  1.
         23    2    1    0    0    0  0.69602227603E+01 -0.27143885692E+02  0.12293492374E+02  0.94399915260E+02  0.89302736885E+02 0.  0.
         11    1    3    3    0    0  0.23838307119E+02  0.21653548899E+02 -0.15522314006E+02  0.35750290888E+02  0.51100000000E-03 0. -1.
         22    1    1    0    0    0 -0.69602227603E+01  0.27143885692E+02 -0.12293492374E+02  0.30600084740E+02  0.00000000000E+00 0.  1.
</event>
<event>
 5    1  0.3144657E-003  0.9118800E+02  0.7818608E-02  0.1130116E+00
         25   -1    0    0    0    0  0.00000000000E+00  0.00000000000E+00  0.99999998245E-14  0.12500000000E+03  0.12500000000E+03 0.  0.
        -11    1    3    3    0    0 -0.38355417186E+01  0.14551738644E+02 -0.21049733085E+02  0.25875775178E+02  0.51100000000E-03 0.  1.
         23    2    1    0    0    0 -0.26267037579E+02 -0.60119575773E+01  0.29604774768E+02  0.84968217799E+02  0.74947010947E+02 0.  0.
         11    1    3    3    0    0 -0.22431495860E+02 -0.20563696221E+02  0.50654507854E+02  0.59092442621E+02  0.51100000000E-03 0. -1.
         22    1    1    0    0    0  0.26267037579E+02  0.60119575773E+01 -0.29604774768E+02  0.40031782201E+02  0.00000000000E+00 0. -1.
</event>
<event>
 5    1  0.3144657E-003  0.9118800E+02  0.7818608E-02  0.1130116E+00
         25   -1    0    0    0    0  0.00000000000E+00  0.00000000000E+00  0.99999998245E-14  0.12500000000E+03  0.12500000000E+03 0.  0.
        -11    1    3    3    0    0  0.14525554507E+02  0.54156370002E+02 -0.23408246131E+00  0.56071016938E+02  0.51100000000E-03 0. -1.
         23    2    1    0    0    0  0.17842403933E+02  0.16087235002E+02  0.14400262455E+02  0.96990750333E+02  0.92858427638E+02 0.  0.
         11    1    3    3    0    0  0.33168494253E+01 -0.38069135000E+02  0.14634344916E+02  0.40919733395E+02  0.51100000000E-03 0.  1.
         22    1    1    0    0    0 -0.17842403933E+02 -0.16087235002E+02 -0.14400262455E+02  0.28009249667E+02  0.00000000000E+00 0. -1.
</event>
<event>
 5    1  0.3144657E-003  0.9118800E+02  0.7818608E-02  0.1130116E+00
         25   -1    0    0    0    0  0.00000000000E+00  0.00000000000E+00  0.99999998245E-14  0.12500000000E+03  0.12500000000E+03 0.  0.
        -11    1    3    3    0    0 -0.12918710947E+02 -0.67183163857E+01  0.31749572423E+02  0.34929417643E+02  0.51100000000E-03 0.  1.
         23    2    1    0    0    0  0.98359590890E+01  0.12201859693E+02 -0.23001658601E+02  0.97166427294E+02  0.93094612215E+02 0.  0.
         11    1    3    3    0    0  0.22754670036E+02  0.18920176079E+02 -0.54751231024E+02  0.62237009651E+02  0.51100000000E-03 0. -1.
         22    1    1    0    0    0 -0.98359590890E+01 -0.12201859693E+02  0.23001658601E+02  0.27833572706E+02  0.00000000000E+00 0. -1.
</event>
<event>
 5    1  0.3144657E-003  0.9118800E+02  0.7818608E-02  0.1130116E+00
         25   -1    0    0    0    0  0.00000000000E+00  0.00000000000E+00  0.99999998245E-14  0.12500000000E+03  0.12500000000E+03 0.  0.
        -11    1    3    3    0    0 -0.69096545837E+01  0.33005824821E+02  0.39516487973E+02  0.51948826941E+02  0.51100000000E-03 0.  1.
         23    2    1    0    0    0 -0.80940483763E+01 -0.10318145462E+02  0.23375675008E+02  0.98197016454E+02  0.94468270406E+02 0.  0.
         11    1    3    3    0    0 -0.11843937926E+01 -0.43323970283E+02 -0.16140812965E+02  0.46248189513E+02  0.51100000000E-03 0. -1.
         22    1    1    0    0    0  0.80940483763E+01  0.10318145462E+02 -0.23375675008E+02  0.26802983546E+02  0.00000000000E+00 0. -1.
</event>
<event>
 5    1  0.3144657E-003  0.9118800E+02  0.7818608E-02  0.1130116E+00
         25   -1    0    0    0    0  0.00000000000E+00  0.00000000000E+00  0.99999998245E-14  0.12500000000E+03  0.12500000000E+03 0.  0.
        -11    1    3    3    0    0 -0.11850508261E+02  0.13528541810E+02  0.32650866174E+02  0.37276467801E+02  0.51100000000E-03 0.  1.
         23    2    1    0    0    0 -0.29697560288E+02 -0.77462791799E+01 -0.13763697439E+02  0.91363869197E+02  0.84946849849E+02 0.  0.
         11    1    3    3    0    0 -0.17847052027E+02 -0.21274820990E+02 -0.46414563612E+02  0.54087401396E+02  0.51100000000E-03 0. -1.
         22    1    1    0    0    0  0.29697560288E+02  0.77462791799E+01  0.13763697439E+02  0.33636130803E+02  0.00000000000E+00 0. -1.
</event>
<event>
 5    1  0.3144657E-003  0.9118800E+02  0.7818608E-02  0.1130116E+00
         25   -1    0    0    0    0  0.00000000000E+00  0.00000000000E+00  0.99999998245E-14  0.12500000000E+03  0.12500000000E+03 0.  0.
        -11    1    3    3    0    0 -0.54628064331E+02 -0.10865314291E+02 -0.20488275389E+02  0.59346860876E+02  0.51100000000E-03 0. -1.
         23    2    1    0    0    0 -0.28507496647E+02 -0.58939582302E+01  0.41483789940E+01  0.95595490874E+02  0.90960830683E+02 0.  0.
         11    1    3    3    0    0  0.26120567684E+02  0.49713560604E+01  0.24636654383E+02  0.36248629998E+02  0.51100000000E-03 0.  1.
         22    1    1    0    0    0  0.28507496647E+02  0.58939582302E+01 -0.41483789940E+01  0.29404509126E+02  0.00000000000E+00 0. -1.
</event>
<event>
 5    1  0.3144657E-003  0.9118800E+02  0.7818608E-02  0.1130116E+00
         25   -1    0    0    0    0  0.00000000000E+00  0.00000000000E+00  0.99999998245E-14  0.12500000000E+03  0.12500000000E+03 0.  0.
        -11    1    3    3    0    0  0.15600041324E+02 -0.23771303151E+02 -0.29913370066E+02  0.41270399220E+02  0.51100000000E-03 0. -1.
         23    2    1    0    0    0 -0.17864769651E+02 -0.20575986054E+02  0.12190334466E+02  0.95148275575E+02  0.90344169118E+02 0.  0.
         11    1    3    3    0    0 -0.33464810975E+02  0.31953170975E+01  0.42103704532E+02  0.53877876355E+02  0.51100000000E-03 0.  1.
         22    1    1    0    0    0  0.17864769651E+02  0.20575986054E+02 -0.12190334466E+02  0.29851724425E+02  0.00000000000E+00 0.  1.
</event>
<event>
 5    1  0.3144657E-003  0.9118800E+02  0.7818608E-02  0.1130116E+00
         25   -1    0    0    0    0  0.00000000000E+00  0.00000000000E+00  0.99999998245E-14  0.12500000000E+03  0.12500000000E+03 0.  0.
        -11    1    3    3    0    0  0.49086686547E+02  0.76127848465E+01 -0.37202359961E+02  0.62060235870E+02  0.51100000000E-03 0.  1.
         23    2    1    0    0    0  0.20168919679E+02  0.76705613115E+01 -0.19145271554E+02  0.96152742682E+02  0.91723419423E+02 0.  0.
         11    1    3    3    0    0 -0.28917766868E+02  0.57776465049E-01  0.18057088407E+02  0.34092506812E+02  0.51100000000E-03 0. -1.
         22    1    1    0    0    0 -0.20168919679E+02 -0.76705613115E+01  0.19145271554E+02  0.28847257318E+02  0.00000000000E+00 0.  1.
</event>
<event>
 5    1  0.3144657E-003  0.9118800E+02  0.7818608E-02  0.1130116E+00
         25   -1    0    0    0    0  0.00000000000E+00  0.00000000000E+00  0.99999998245E-14  0.12500000000E+03  0.12500000000E+03 0.  0.
        -11    1    3    3    0    0 -0.46272790695E+02 -0.27500672845E+02 -0.14902962312E+02  0.55852989638E+02  0.51100000000E-03 0. -1.
         23    2    1    0    0    0 -0.14298344015E+01 -0.19196369103E+02 -0.13515530803E+02  0.10147948585E+03  0.98716115511E+02 0.  0.
         11    1    3    3    0    0  0.44842956294E+02  0.83043037416E+01  0.13874315087E+01  0.45626496208E+02  0.51100000000E-03 0.  1.
         22    1    1    0    0    0  0.14298344015E+01  0.19196369103E+02  0.13515530803E+02  0.23520514154E+02  0.00000000000E+00 0.  1.
</event>
<event>
 5    1  0.3144657E-003  0.9118800E+02  0.7818608E-02  0.1130116E+00
         25   -1    0    0    0    0  0.00000000000E+00  0.00000000000E+00  0.99999998245E-14  0.12500000000E+03  0.12500000000E+03 0.  0.
        -11    1    3    3    0    0  0.28045557082E+02 -0.26935324566E+02  0.20810316961E+02  0.44103676420E+02  0.51100000000E-03 0. -1.
         23    2    1    0    0    0 -0.79678244079E+01 -0.21802867963E+02 -0.16736539907E+02  0.96382469616E+02  0.92035957126E+02 0.  0.
         11    1    3    3    0    0 -0.36013381490E+02  0.51324566031E+01 -0.37546856867E+02  0.52278793196E+02  0.51100000000E-03 0.  1.
         22    1    1    0    0    0  0.79678244079E+01  0.21802867963E+02  0.16736539907E+02  0.28617530384E+02  0.00000000000E+00 0.  1.
</event>
<event>
 5    1  0.3144657E-003  0.9118800E+02  0.7818608E-02  0.1130116E+00
         25   -1    0    0    0    0  0.00000000000E+00  0.00000000000E+00  0.99999998245E-14  0.12500000000E+03  0.12500000000E+03 0.  0.
        -11    1    3    3    0    0 -0.19972838340E+02 -0.31253461816E+02  0.26300871571E+02  0.45468989350E+02  0.51100000000E-03 0. -1.
         23    2    1    0    0    0  0.85785626382E+01  0.97876590411E+01  0.26512756732E+02  0.95464999137E+02  0.90781329491E+02 0.  0.
         11    1    3    3    0    0  0.28551400978E+02  0.41041120857E+02  0.21188516152E+00  0.49996009787E+02  0.51100000000E-03 0.  1.
         22    1    1    0    0    0 -0.85785626382E+01 -0.97876590411E+01 -0.26512756732E+02  0.29535000863E+02  0.00000000000E+00 0.  1.
</event>
<event>
 5    1  0.3144657E-003  0.9118800E+02  0.7818608E-02  0.1130116E+00
         25   -1    0    0    0    0  0.00000000000E+00  0.00000000000E+00  0.99999998245E-14  0.12500000000E+03  0.12500000000E+03 0.  0.
        -11    1    3    3    0    0  0.22938226217E+02  0.25854301209E+02  0.65633960455E+01  0.35180751568E+02  0.51100000000E-03 0.  1.
         23    2    1    0    0    0 -0.27738049755E+02 -0.66102154060E+01 -0.37443891373E+01  0.96240396352E+02  0.91842795516E+02 0.  0.
         11    1    3    3    0    0 -0.50676275973E+02 -0.32464516615E+02 -0.10307785183E+02  0.61059644784E+02  0.51100000000E-03 0. -1.
         22    1    1    0    0    0  0.27738049755E+02  0.66102154060E+01  0.37443891373E+01  0.28759603648E+02  0.00000000000E+00 0. -1.
</event>
<event>
 5    1  0.3144657E-003  0.9118800E+02  0.7818608E-02  0.1130116E+00
         25   -1    0    0    0    0  0.00000000000E+00  0.00000000000E+00  0.99999998245E-14  0.12500000000E+03  0.12500000000E+03 0.  0.
        -11    1    3    3    0    0  0.19772179105E+02 -0.22072000007E+02  0.19860710559E+02  0.35672959998E+02  0.51100000000E-03 0.  1.
         23    2    1    0    0    0 -0.58688164587E+01  0.28603877542E+02  0.11841816440E+00  0.95800019864E+02  0.91241465168E+02 0.  0.
         11    1    3    3    0    0 -0.25640995563E+02  0.50675877549E+02 -0.19742292394E+02  0.60127059866E+02  0.51100000000E-03 0. -1.
         22    1    1    0    0    0  0.58688164587E+01 -0.28603877542E+02 -0.11841816440E+00  0.29199980136E+02  0.00000000000E+00 0. -1.
</event>
<event>
 5    1  0.3144657E-003  0.9118800E+02  0.7818608E-02  0.1130116E+00
         25   -1    0    0    0    0  0.00000000000E+00  0.00000000000E+00  0.99999998245E-14  0.12500000000E+03  0.12500000000E+03 0.  0.
        -11    1    3    3    0    0  0.85198298943E+01  0.53549988249E+02  0.92210718289E+01  0.55001971863E+02  0.51100000000E-03 0.  1.
         23    2    1    0    0    0 -0.23223786039E+01  0.17317210624E+02  0.23748731224E+02  0.95516420486E+02  0.90852105763E+02 0.  0.
         11    1    3    3    0    0 -0.10842208498E+02 -0.36232777624E+02  0.14527659395E+02  0.40514448623E+02  0.51100000000E-03 0. -1.
         22    1    1    0    0    0  0.23223786039E+01 -0.17317210624E+02 -0.23748731224E+02  0.29483579514E+02  0.00000000000E+00 0.  1.
</event>
<event>
 5    1  0.3144657E-003  0.9118800E+02  0.7818608E-02  0.1130116E+00
         25   -1    0    0    0    0  0.00000000000E+00  0.00000000000E+00  0.99999998245E-14  0.12500000000E+03  0.12500000000E+03 0.  0.
        -11    1    3    3    0    0 -0.12185411881E+02 -0.34021945795E+02  0.22304597360E+02  0.42467306508E+02  0.51100000000E-03 0.  1.
         23    2    1    0    0    0  0.20408054362E+02  0.86554863947E+01  0.18189567569E+02  0.96324810447E+02  0.91957613125E+02 0.  0.
         11    1    3    3    0    0  0.32593466243E+02  0.42677432190E+02 -0.41150297909E+01  0.53857503938E+02  0.51100000000E-03 0. -1.
         22    1    1    0    0    0 -0.20408054362E+02 -0.86554863947E+01 -0.18189567569E+02  0.28675189553E+02  0.00000000000E+00 0. -1.
</event>
<event>
 5    1  0.3144657E-003  0.9118800E+02  0.7818608E-02  0.1130116E+00
         25   -1    0    0    0    0  0.00000000000E+00  0.00000000000E+00  0.99999998245E-14  0.12500000000E+03  0.12500000000E+03 0.  0.
        -11    1    3    3    0    0  0.16949205519E+02 -0.33107092985E+02  0.15979540840E+02  0.40480870783E+02  0.51100000000E-03 0.  1.
         23    2    1    0    0    0  0.27088473488E+02  0.16568518245E+02  0.14866511491E+01  0.93211459229E+02  0.87623426132E+02 0.  0.
         11    1    3    3    0    0  0.10139267969E+02  0.49675611230E+02 -0.14492889691E+02  0.52730588446E+02  0.51100000000E-03 0. -1.
         22    1    1    0    0    0 -0.27088473488E+02 -0.16568518245E+02 -0.14866511491E+01  0.31788540771E+02  0.00000000000E+00 0. -1.
</event>
<event>
 5    1  0.3144657E-003  0.9118800E+02  0.7818608E-02  0.1130116E+00
         25   -1    0    0    0    0  0.00000000000E+00  0.00000000000E+00  0.99999998245E-14  0.12500000000E+03  0.12500000000E+03 0.  0.
        -11    1    3    3    0    0 -0.53467180977E+01  0.25072482403E+02  0.34341031147E+02  0.42854675227E+02  0.51100000000E-03 0.  1.
         23    2    1    0    0    0 -0.25663538890E+02  0.43774831986E+01 -0.11048763658E+02  0.96718296270E+02  0.92490940461E+02 0.  0.
         11    1    3    3    0    0 -0.20316820793E+02 -0.20694999204E+02 -0.45389794805E+02  0.53863621043E+02  0.51100000000E-03 0. -1.
         22    1    1    0    0    0  0.25663538890E+02 -0.43774831986E+01  0.11048763658E+02  0.28281703730E+02  0.00000000000E+00 0. -1.
</event>
<event>
 5    1  0.3144657E-003  0.9118800E+02  0.7818608E-02  0.1130116E+00
         25   -1    0    0    0    0  0.00000000000E+00  0.00000000000E+00  0.99999998245E-14  0.12500000000E+03  0.12500000000E+03 0.  0.
        -11    1    3    3    0    0 -0.16437559482E+02 -0.13876429281E+02 -0.27934275179E+02  0.35257231617E+02  0.51100000000E-03 0.  1.
         23    2    1    0    0    0 -0.19783228275E+01  0.23943049555E+02  0.16868395107E+02  0.95644827769E+02  0.91028605077E+02 0.  0.
         11    1    3    3    0    0  0.14459236654E+02  0.37819478836E+02  0.44802670285E+02  0.60387596152E+02  0.51100000000E-03 0. -1.
         22    1    1    0    0    0  0.19783228275E+01 -0.23943049555E+02 -0.16868395107E+02  0.29355172231E+02  0.00000000000E+00 0. -1.
</event>
<event>
 5    1  0.3144657E-003  0.9118800E+02  0.7818608E-02  0.1130116E+00
         25   -1    0    0    0    0  0.00000000000E+00  0.00000000000E+00  0.99999998245E-14  0.12500000000E+03  0.12500000000E+03 0.  0.
        -11    1    3    3    0    0 -0.35394134305E+02  0.65743737918E-01  0.11964068979E+01  0.35414410276E+02  0.51100000000E-03 0.  1.
         23    2    1    0    0    0  0.24597685320E+02 -0.80431622177E+00  0.13889189257E+02  0.96740441866E+02  0.92520865034E+02 0.  0.
         11    1    3    3    0    0  0.59991819626E+02 -0.87005995969E+00  0.12692782359E+02  0.61326031590E+02  0.51100000000E-03 0. -1.
         22    1    1    0    0    0 -0.24597685320E+02  0.80431622177E+00 -0.13889189257E+02  0.28259558134E+02  0.00000000000E+00 0. -1.
</event>
<event>
 5    1  0.3144657E-003  0.9118800E+02  0.7818608E-02  0.1130116E+00
         25   -1    0    0    0    0  0.00000000000E+00  0.00000000000E+00  0.99999998245E-14  0.12500000000E+03  0.12500000000E+03 0.  0.
        -11    1    3    3    0    0  0.17876387295E+02  0.43268566686E+02  0.65250589224E+01  0.47268493523E+02  0.51100000000E-03 0.  1.
         23    2    1    0    0    0  0.13945495215E+02 -0.22210118992E+01  0.24809981506E+02  0.96452759976E+02  0.92131373560E+02 0.  0.
         11    1    3    3    0    0 -0.39308920804E+01 -0.45489578585E+02  0.18284922583E+02  0.49184266453E+02  0.51100000000E-03 0. -1.
         22    1    1    0    0    0 -0.13945495215E+02  0.22210118992E+01 -0.24809981506E+02  0.28547240024E+02  0.00000000000E+00 0.  1.
</event>
<event>
 5    1  0.3144657E-003  0.9118800E+02  0.7818608E-02  0.1130116E+00
         25   -1    0    0    0    0  0.00000000000E+00  0.00000000000E+00  0.99999998245E-14  0.12500000000E+03  0.12500000000E+03 0.  0.
        -11    1    3    3    0    0  0.11638148387E+02  0.91644371835E+01  0.54718861055E+02  0.56688509966E+02  0.51100000000E-03 0.  1.
         23    2    1    0    0    0  0.18758811620E+02 -0.84989667517E+01  0.19974082730E+02  0.96310464797E+02  0.91938110701E+02 0.  0.
         11    1    3    3    0    0  0.71206632339E+01 -0.17663403935E+02 -0.34744778325E+02  0.39621954831E+02  0.51100000000E-03 0. -1.
         22    1    1    0    0    0 -0.18758811620E+02  0.84989667517E+01 -0.19974082730E+02  0.28689535203E+02  0.00000000000E+00 0.  1.
</event>
<event>
 5    1  0.3144657E-003  0.9118800E+02  0.7818608E-02  0.1130116E+00
         25   -1    0    0    0    0  0.00000000000E+00  0.00000000000E+00  0.99999998245E-14  0.12500000000E+03  0.12500000000E+03 0.  0.
        -11    1    3    3    0    0 -0.43684684588E+02  0.28285144707E+02  0.24814300043E+02  0.57655446972E+02  0.51100000000E-03 0.  1.
         23    2    1    0    0    0 -0.13514516435E+02  0.22395543228E+01  0.23815941372E+02  0.97525342196E+02  0.93575293475E+02 0.  0.
         11    1    3    3    0    0  0.30170168153E+02 -0.26045590384E+02 -0.99835867121E+00  0.39869895224E+02  0.51100000000E-03 0. -1.
         22    1    1    0    0    0  0.13514516435E+02 -0.22395543228E+01 -0.23815941372E+02  0.27474657804E+02  0.00000000000E+00 0.  1.
</event>
<event>
 5    1  0.3144657E-003  0.9118800E+02  0.7818608E-02  0.1130116E+00
         25   -1    0    0    0    0  0.00000000000E+00  0.00000000000E+00  0.99999998245E-14  0.12500000000E+03  0.12500000000E+03 0.  0.
        -11    1    3    3    0    0 -0.13311835515E+02  0.32180822115E+02  0.49104112072E+02  0.60199867935E+02  0.51100000000E-03 0. -1.
         23    2    1    0    0    0  0.91832979450E+00 -0.47391262189E+00  0.16433306393E+02  0.10853423303E+03  0.10727794861E+03 0.  0.
         11    1    3    3    0    0  0.14230165309E+02 -0.32654734737E+02 -0.32670805679E+02  0.48334365099E+02  0.51100000000E-03 0.  1.
         22    1    1    0    0    0 -0.91832979450E+00  0.47391262189E+00 -0.16433306393E+02  0.16465766966E+02  0.00000000000E+00 0. -1.
</event>
<event>
 5    1  0.3144657E-003  0.9118800E+02  0.7818608E-02  0.1130116E+00
         25   -1    0    0    0    0  0.00000000000E+00  0.00000000000E+00  0.99999998245E-14  0.12500000000E+03  0.12500000000E+03 0.  0.
        -11    1    3    3    0    0 -0.12630056692E+02 -0.32226205756E+02  0.15408147085E+02  0.37887434148E+02  0.51100000000E-03 0.  1.
         23    2    1    0    0    0 -0.18289633699E+02  0.20887687669E+02 -0.78532498675E+01  0.96147275164E+02  0.91715968026E+02 0.  0.
         11    1    3    3    0    0 -0.56595770069E+01  0.53113893425E+02 -0.23261396953E+02  0.58259841015E+02  0.51100000000E-03 0. -1.
         22    1    1    0    0    0  0.18289633699E+02 -0.20887687669E+02  0.78532498675E+01  0.28852724836E+02  0.00000000000E+00 0. -1.
</event>
<event>
 5    1  0.3144657E-003  0.9118800E+02  0.7818608E-02  0.1130116E+00
         25   -1    0    0    0    0  0.00000000000E+00  0.00000000000E+00  0.99999998245E-14  0.12500000000E+03  0.12500000000E+03 0.  0.
        -11    1    3    3    0    0 -0.48120860363E+02  0.12203230557E+02  0.29313891717E+02  0.57652756100E+02  0.51100000000E-03 0.  1.
         23    2    1    0    0    0 -0.18770626140E+02  0.20369729560E+02  0.45156196900E+01  0.96934841721E+02  0.92783136561E+02 0.  0.
         11    1    3    3    0    0  0.29350234223E+02  0.81664990034E+01 -0.24798272027E+02  0.39282085620E+02  0.51100000000E-03 0. -1.
         22    1    1    0    0    0  0.18770626140E+02 -0.20369729560E+02 -0.45156196900E+01  0.28065158279E+02  0.00000000000E+00 0.  1.
</event>
<event>
 5    1  0.3144657E-003  0.9118800E+02  0.7818608E-02  0.1130116E+00
         25   -1    0    0    0    0  0.00000000000E+00  0.00000000000E+00  0.99999998245E-14  0.12500000000E+03  0.12500000000E+03 0.  0.
        -11    1    3    3    0    0 -0.27299042385E+02  0.20135610259E+02  0.14715530915E+02  0.36976037727E+02  0.51100000000E-03 0.  1.
         23    2    1    0    0    0 -0.82316451673E+01 -0.29751489212E+02 -0.46438835592E+01  0.93783389886E+02  0.88435555471E+02 0.  0.
         11    1    3    3    0    0  0.19067397218E+02 -0.49887099471E+02 -0.19359414474E+02  0.56807352159E+02  0.51100000000E-03 0. -1.
         22    1    1    0    0    0  0.82316451673E+01  0.29751489212E+02  0.46438835592E+01  0.31216610114E+02  0.00000000000E+00 0. -1.
</event>
<event>
 5    1  0.3144657E-003  0.9118800E+02  0.7818608E-02  0.1130116E+00
         25   -1    0    0    0    0  0.00000000000E+00  0.00000000000E+00  0.99999998245E-14  0.12500000000E+03  0.12500000000E+03 0.  0.
        -11    1    3    3    0    0 -0.60713582782E+02 -0.27457311984E+01  0.12336092379E+02  0.62014976815E+02  0.51100000000E-03 0.  1.
         23    2    1    0    0    0 -0.28231180980E+02  0.25483104475E+01  0.97364526877E+01  0.95028480576E+02  0.90178268690E+02 0.  0.
         11    1    3    3    0    0  0.32482401801E+02  0.52940416459E+01 -0.25996396910E+01  0.33013503760E+02  0.51100000000E-03 0. -1.
         22    1    1    0    0    0  0.28231180980E+02 -0.25483104475E+01 -0.97364526877E+01  0.29971519424E+02  0.00000000000E+00 0.  1.
</event>
<event>
 5    1  0.3144657E-003  0.9118800E+02  0.7818608E-02  0.1130116E+00
         25   -1    0    0    0    0  0.00000000000E+00  0.00000000000E+00  0.99999998245E-14  0.12500000000E+03  0.12500000000E+03 0.  0.
        -11    1    3    3    0    0  0.12172487462E+02 -0.30088713952E+02  0.29787875490E+02  0.44054712402E+02  0.51100000000E-03 0.  1.
         23    2    1    0    0    0 -0.22443492951E+02  0.61416226876E+01  0.18130576422E+02  0.95501733839E+02  0.90831896709E+02 0.  0.
         11    1    3    3    0    0 -0.34615980413E+02  0.36230336640E+02 -0.11657299068E+02  0.51447021438E+02  0.51100000000E-03 0. -1.
         22    1    1    0    0    0  0.22443492951E+02 -0.61416226876E+01 -0.18130576422E+02  0.29498266161E+02  0.00000000000E+00 0. -1.
</event>
<event>
 5    1  0.3144657E-003  0.9118800E+02  0.7818608E-02  0.1130116E+00
         25   -1    0    0    0    0  0.00000000000E+00  0.00000000000E+00  0.99999998245E-14  0.12500000000E+03  0.12500000000E+03 0.  0.
        -11    1    3    3    0    0  0.25001266138E+00 -0.23109688052E+02  0.44057704716E+02  0.49751397300E+02  0.51100000000E-03 0.  1.
         23    2    1    0    0    0  0.13882731571E+02 -0.25230858794E+02 -0.29502936000E+00  0.96200459835E+02  0.91788424972E+02 0.  0.
         11    1    3    3    0    0  0.13632718909E+02 -0.21211707425E+01 -0.44352734076E+02  0.46449062536E+02  0.51100000000E-03 0. -1.
         22    1    1    0    0    0 -0.13882731571E+02  0.25230858794E+02  0.29502936000E+00  0.28799540165E+02  0.00000000000E+00 0.  1.
</event>
<event>
 5    1  0.3144657E-003  0.9118800E+02  0.7818608E-02  0.1130116E+00
         25   -1    0    0    0    0  0.00000000000E+00  0.00000000000E+00  0.99999998245E-14  0.12500000000E+03  0.12500000000E+03 0.  0.
        -11    1    3    3    0    0 -0.50143924046E+01 -0.28456829045E+02 -0.54981316115E+02  0.62111837620E+02  0.51100000000E-03 0.  1.
         23    2    1    0    0    0 -0.68128196497E+01 -0.11156482406E+02 -0.25598615178E+02  0.96256814541E+02  0.91865138303E+02 0.  0.
         11    1    3    3    0    0 -0.17984272451E+01  0.17300346639E+02  0.29382700937E+02  0.34144976922E+02  0.51100000000E-03 0. -1.
         22    1    1    0    0    0  0.68128196497E+01  0.11156482406E+02  0.25598615178E+02  0.28743185459E+02  0.00000000000E+00 0.  1.
</event>
<event>
 5    1  0.3144657E-003  0.9118800E+02  0.7818608E-02  0.1130116E+00
         25   -1    0    0    0    0  0.00000000000E+00  0.00000000000E+00  0.99999998245E-14  0.12500000000E+03  0.12500000000E+03 0.  0.
        -11    1    3    3    0    0  0.38860611158E+02 -0.36806409285E+02 -0.29084748996E+02  0.60916184125E+02  0.51100000000E-03 0.  1.
         23    2    1    0    0    0  0.13307378634E+02 -0.26085211436E+02 -0.16918155923E+02  0.91180647824E+02  0.84676808843E+02 0.  0.
         11    1    3    3    0    0 -0.25553232524E+02  0.10721197848E+02  0.12166593072E+02  0.30264463698E+02  0.51100000000E-03 0. -1.
         22    1    1    0    0    0 -0.13307378634E+02  0.26085211436E+02  0.16918155923E+02  0.33819352176E+02  0.00000000000E+00 0.  1.
</event>
<event>
 5    1  0.3144657E-003  0.9118800E+02  0.7818608E-02  0.1130116E+00
         25   -1    0    0    0    0  0.00000000000E+00  0.00000000000E+00  0.99999998245E-14  0.12500000000E+03  0.12500000000E+03 0.  0.
        -11    1    3    3    0    0 -0.52042406812E+02 -0.10199232047E+02 -0.25087645798E+02  0.58667081171E+02  0.51100000000E-03 0.  1.
         23    2    1    0    0    0 -0.18701222149E+02 -0.19266317263E+02 -0.11326186326E+02  0.95858806006E+02  0.91321966150E+02 0.  0.
         11    1    3    3    0    0  0.33341184664E+02 -0.90670852156E+01  0.13761459473E+02  0.37191724835E+02  0.51100000000E-03 0. -1.
         22    1    1    0    0    0  0.18701222149E+02  0.19266317263E+02  0.11326186326E+02  0.29141193994E+02  0.00000000000E+00 0.  1.
</event>
<event>
 5    1  0.3144657E-003  0.9118800E+02  0.7818608E-02  0.1130116E+00
         25   -1    0    0    0    0  0.00000000000E+00  0.00000000000E+00  0.99999998245E-14  0.12500000000E+03  0.12500000000E+03 0.  0.
        -11    1    3    3    0    0 -0.22186471762E+02 -0.30797551181E+02  0.43603085547E+02  0.57809668373E+02  0.51100000000E-03 0. -1.
         23    2    1    0    0    0  0.59880403242E+01 -0.12706315007E+02  0.25535331228E+02  0.95856214918E+02  0.91318419443E+02 0.  0.
         11    1    3    3    0    0  0.28174512086E+02  0.18091236174E+02 -0.18067754318E+02  0.38046546545E+02  0.51100000000E-03 0.  1.
         22    1    1    0    0    0 -0.59880403242E+01  0.12706315007E+02 -0.25535331228E+02  0.29143785082E+02  0.00000000000E+00 0. -1.
</event>
<event>
 5    1  0.3144657E-003  0.9118800E+02  0.7818608E-02  0.1130116E+00
         25   -1    0    0    0    0  0.00000000000E+00  0.00000000000E+00  0.99999998245E-14  0.12500000000E+03  0.12500000000E+03 0.  0.
        -11    1    3    3    0    0 -0.27377334055E+02  0.34772433884E+02  0.40843066818E+01  0.44444596291E+02  0.51100000000E-03 0.  1.
         23    2    1    0    0    0  0.12659889083E+02  0.90944102387E+01  0.24302957960E+02  0.96127610858E+02  0.91689163561E+02 0.  0.
         11    1    3    3    0    0  0.40037223138E+02 -0.25678023645E+02  0.20218651278E+02  0.51683014567E+02  0.51100000000E-03 0. -1.
         22    1    1    0    0    0 -0.12659889083E+02 -0.90944102387E+01 -0.24302957960E+02  0.28872389142E+02  0.00000000000E+00 0.  1.
</event>
<event>
 5    1  0.3144657E-003  0.9118800E+02  0.7818608E-02  0.1130116E+00
         25   -1    0    0    0    0  0.00000000000E+00  0.00000000000E+00  0.99999998245E-14  0.12500000000E+03  0.12500000000E+03 0.  0.
        -11    1    3    3    0    0 -0.70693996726E+01  0.28721654759E+02  0.20327965816E+02  0.35890612398E+02  0.51100000000E-03 0.  1.
         23    2    1    0    0    0  0.66127442255E+01 -0.27516451425E+02  0.18813793753E+01  0.96637646896E+02  0.92381879847E+02 0.  0.
         11    1    3    3    0    0  0.13682143898E+02 -0.56238106184E+02 -0.18446586440E+02  0.60747034499E+02  0.51100000000E-03 0. -1.
         22    1    1    0    0    0 -0.66127442255E+01  0.27516451425E+02 -0.18813793753E+01  0.28362353104E+02  0.00000000000E+00 0. -1.
</event>
<event>
 5    1  0.3144657E-003  0.9118800E+02  0.7818608E-02  0.1130116E+00
         25   -1    0    0    0    0  0.00000000000E+00  0.00000000000E+00  0.99999998245E-14  0.12500000000E+03  0.12500000000E+03 0.  0.
        -11    1    3    3    0    0  0.45922266706E+02  0.25699084664E+02  0.16207677822E+02  0.55063475668E+02  0.51100000000E-03 0. -1.
         23    2    1    0    0    0  0.19884403109E+02  0.25540698842E+01  0.26850788706E+02  0.91490633935E+02  0.85133180862E+02 0.  0.
         11    1    3    3    0    0 -0.26037863597E+02 -0.23145014780E+02  0.10643110884E+02  0.36427158267E+02  0.51100000000E-03 0.  1.
         22    1    1    0    0    0 -0.19884403109E+02 -0.25540698842E+01 -0.26850788706E+02  0.33509366065E+02  0.00000000000E+00 0. -1.
</event>
<event>
 5    1  0.3144657E-003  0.9118800E+02  0.7818608E-02  0.1130116E+00
         25   -1    0    0    0    0  0.00000000000E+00  0.00000000000E+00  0.99999998245E-14  0.12500000000E+03  0.12500000000E+03 0.  0.
        -11    1    3    3    0    0  0.11968777557E+02 -0.52371090483E+02  0.27749526918E+02  0.60465022939E+02  0.51100000000E-03 0. -1.
         23    2    1    0    0    0  0.16762079156E+02 -0.22882813821E+02  0.12595936183E+02  0.93963761918E+02  0.88690137441E+02 0.  0.
         11    1    3    3    0    0  0.47933015991E+01  0.29488276662E+02 -0.15153590735E+02  0.33498738978E+02  0.51100000000E-03 0.  1.
         22    1    1    0    0    0 -0.16762079156E+02  0.22882813821E+02 -0.12595936183E+02  0.31036238082E+02  0.00000000000E+00 0. -1.
</event>
<event>
 5    1  0.3144657E-003  0.9118800E+02  0.7818608E-02  0.1130116E+00
         25   -1    0    0    0    0  0.00000000000E+00  0.00000000000E+00  0.99999998245E-14  0.12500000000E+03  0.12500000000E+03 0.  0.
        -11    1    3    3    0    0 -0.35613207369E+02  0.87384489444E+01 -0.83135408229E+01  0.37600212637E+02  0.51100000000E-03 0. -1.
         23    2    1    0    0    0  0.14290296126E+02  0.29364071165E+02  0.64873046166E+00  0.92336838947E+02  0.86366716603E+02 0.  0.
         11    1    3    3    0    0  0.49903503494E+02  0.20625622221E+02  0.89622712846E+01  0.54736626310E+02  0.51100000000E-03 0.  1.
         22    1    1    0    0    0 -0.14290296126E+02 -0.29364071165E+02 -0.64873046166E+00  0.32663161053E+02  0.00000000000E+00 0.  1.
</event>
<event>
 5    1  0.3144657E-003  0.9118800E+02  0.7818608E-02  0.1130116E+00
         25   -1    0    0    0    0  0.00000000000E+00  0.00000000000E+00  0.99999998245E-14  0.12500000000E+03  0.12500000000E+03 0.  0.
        -11    1    3    3    0    0 -0.20443835224E+02  0.94838148154E+01  0.18709802423E+02  0.29290780957E+02  0.51100000000E-03 0.  1.
         23    2    1    0    0    0  0.27548658202E+02 -0.22526665159E+02  0.19679622017E+01  0.89359403945E+02  0.81944194342E+02 0.  0.
         11    1    3    3    0    0  0.47992493426E+02 -0.32010479974E+02 -0.16741840221E+02  0.60068622988E+02  0.51100000000E-03 0. -1.
         22    1    1    0    0    0 -0.27548658202E+02  0.22526665159E+02 -0.19679622017E+01  0.35640596055E+02  0.00000000000E+00 0. -1.
</event>
<event>
 5    1  0.3144657E-003  0.9118800E+02  0.7818608E-02  0.1130116E+00
         25   -1    0    0    0    0  0.00000000000E+00  0.00000000000E+00  0.99999998245E-14  0.12500000000E+03  0.12500000000E+03 0.  0.
        -11    1    3    3    0    0 -0.15248277284E+02  0.29124188889E+01  0.35973298391E+02  0.39179973728E+02  0.51100000000E-03 0.  1.
         23    2    1    0    0    0 -0.29871281392E+02 -0.17411302006E+02 -0.77520347576E+01  0.89566386969E+02  0.82259326172E+02 0.  0.
         11    1    3    3    0    0 -0.14623004108E+02 -0.20323720895E+02 -0.43725333148E+02  0.50386413242E+02  0.51100000000E-03 0. -1.
         22    1    1    0    0    0  0.29871281392E+02  0.17411302006E+02  0.77520347576E+01  0.35433613031E+02  0.00000000000E+00 0.  1.
</event>
<event>
 5    1  0.3144657E-003  0.9118800E+02  0.7818608E-02  0.1130116E+00
         25   -1    0    0    0    0  0.00000000000E+00  0.00000000000E+00  0.99999998245E-14  0.12500000000E+03  0.12500000000E+03 0.  0.
        -11    1    3    3    0    0  0.37850070901E+02  0.17295242187E+02  0.15168609300E+02  0.44292662799E+02  0.51100000000E-03 0.  1.
         23    2    1    0    0    0  0.42726554372E+01 -0.23739552096E+02  0.13538377156E+02  0.97339385867E+02  0.93326558206E+02 0.  0.
         11    1    3    3    0    0 -0.33577415463E+02 -0.41034794283E+02 -0.16302321439E+01  0.53046723067E+02  0.51100000000E-03 0. -1.
         22    1    1    0    0    0 -0.42726554372E+01  0.23739552096E+02 -0.13538377156E+02  0.27660614133E+02  0.00000000000E+00 0.  1.
</event>
<event>
 5    1  0.3144657E-003  0.9118800E+02  0.7818608E-02  0.1130116E+00
         25   -1    0    0    0    0  0.00000000000E+00  0.00000000000E+00  0.99999998245E-14  0.12500000000E+03  0.12500000000E+03 0.  0.
        -11    1    3    3    0    0  0.26389319120E+02  0.85789478756E+01  0.54693146284E+02  0.61329721677E+02  0.51100000000E-03 0. -1.
         23    2    1    0    0    0  0.44477182201E+01  0.60724608082E+00  0.27355208940E+02  0.97278917747E+02  0.93245533065E+02 0.  0.
         11    1    3    3    0    0 -0.21941600899E+02 -0.79717017948E+01 -0.27337937345E+02  0.35949196070E+02  0.51100000000E-03 0.  1.
         22    1    1    0    0    0 -0.44477182201E+01 -0.60724608082E+00 -0.27355208940E+02  0.27721082253E+02  0.00000000000E+00 0. -1.
</event>
<event>
 5    1  0.3144657E-003  0.9118800E+02  0.7818608E-02  0.1130116E+00
         25   -1    0    0    0    0  0.00000000000E+00  0.00000000000E+00  0.99999998245E-14  0.12500000000E+03  0.12500000000E+03 0.  0.
        -11    1    3    3    0    0 -0.57915158398E+02 -0.20504811670E+02 -0.11046298190E+02  0.62423021217E+02  0.51100000000E-03 0.  1.
         23    2    1    0    0    0 -0.37348876191E+02 -0.15161044764E+02 -0.62090684371E+01  0.84215831970E+02  0.73681463017E+02 0.  0.
         11    1    3    3    0    0  0.20566282207E+02  0.53437669069E+01  0.48372297527E+01  0.21792810753E+02  0.51100000000E-03 0. -1.
         22    1    1    0    0    0  0.37348876191E+02  0.15161044764E+02  0.62090684371E+01  0.40784168030E+02  0.00000000000E+00 0.  1.
</event>
<event>
 5    1  0.3144657E-003  0.9118800E+02  0.7818608E-02  0.1130116E+00
         25   -1    0    0    0    0  0.00000000000E+00  0.00000000000E+00  0.99999998245E-14  0.12500000000E+03  0.12500000000E+03 0.  0.
        -11    1    3    3    0    0  0.46527731125E+02 -0.54442611514E+01 -0.19165371459E+02  0.50614041595E+02  0.51100000000E-03 0.  1.
         23    2    1    0    0    0  0.19135365732E+02 -0.16479662944E+02  0.14884480747E+02  0.95686363590E+02  0.91085623989E+02 0.  0.
         11    1    3    3    0    0 -0.27392365393E+02 -0.11035401793E+02  0.34049852206E+02  0.45072321995E+02  0.51100000000E-03 0. -1.
         22    1    1    0    0    0 -0.19135365732E+02  0.16479662944E+02 -0.14884480747E+02  0.29313636410E+02  0.00000000000E+00 0.  1.
</event>
<event>
 5    1  0.3144657E-003  0.9118800E+02  0.7818608E-02  0.1130116E+00
         25   -1    0    0    0    0  0.00000000000E+00  0.00000000000E+00  0.99999998245E-14  0.12500000000E+03  0.12500000000E+03 0.  0.
        -11    1    3    3    0    0  0.33184898057E+02 -0.35491090020E+01  0.47891182743E+02  0.58372930529E+02  0.51100000000E-03 0. -1.
         23    2    1    0    0    0  0.20647481312E+02 -0.17647606392E+02  0.24531025477E+02  0.88400441166E+02  0.80468070012E+02 0.  0.
         11    1    3    3    0    0 -0.12537416745E+02 -0.14098497390E+02 -0.23360157266E+02  0.30027510637E+02  0.51100000000E-03 0.  1.
         22    1    1    0    0    0 -0.20647481312E+02  0.17647606392E+02 -0.24531025477E+02  0.36599558834E+02  0.00000000000E+00 0. -1.
</event>
<event>
 5    1  0.3144657E-003  0.9118800E+02  0.7818608E-02  0.1130116E+00
         25   -1    0    0    0    0  0.00000000000E+00  0.00000000000E+00  0.99999998245E-14  0.12500000000E+03  0.12500000000E+03 0.  0.
        -11    1    3    3    0    0  0.20444774674E+02 -0.17221981894E+02 -0.15481626477E+02  0.30891199887E+02  0.51100000000E-03 0. -1.
         23    2    1    0    0    0 -0.20092411565E+02 -0.26613122084E+02  0.20461768706E+02  0.85876512833E+02  0.76446897963E+02 0.  0.
         11    1    3    3    0    0 -0.40537186239E+02 -0.93911401899E+01  0.35943395183E+02  0.54985312946E+02  0.51100000000E-03 0.  1.
         22    1    1    0    0    0  0.20092411565E+02  0.26613122084E+02 -0.20461768706E+02  0.39123487167E+02  0.00000000000E+00 0.  1.
</event>
<event>
 5    1  0.3144657E-003  0.9118800E+02  0.7818608E-02  0.1130116E+00
         25   -1    0    0    0    0  0.00000000000E+00  0.00000000000E+00  0.99999998245E-14  0.12500000000E+03  0.12500000000E+03 0.  0.
        -11    1    3    3    0    0  0.20737856868E+02 -0.42962005031E+01 -0.39341818037E+02  0.44679913753E+02  0.51100000000E-03 0.  1.
         23    2    1    0    0    0 -0.17860293731E+01 -0.98830152503E+00  0.18264669990E+02  0.10662162111E+03  0.10502573626E+03 0.  0.
         11    1    3    3    0    0 -0.22523886241E+02  0.33078989781E+01  0.57606488027E+02  0.61941707356E+02  0.51100000000E-03 0. -1.
         22    1    1    0    0    0  0.17860293731E+01  0.98830152503E+00 -0.18264669990E+02  0.18378378891E+02  0.00000000000E+00 0. -1.
</event>
<event>
 5    1  0.3144657E-003  0.9118800E+02  0.7818608E-02  0.1130116E+00
         25   -1    0    0    0    0  0.00000000000E+00  0.00000000000E+00  0.99999998245E-14  0.12500000000E+03  0.12500000000E+03 0.  0.
        -11    1    3    3    0    0  0.34912249258E+02 -0.14108666819E+02 -0.89818955071E+01  0.38711678791E+02  0.51100000000E-03 0.  1.
         23    2    1    0    0    0 -0.14624548401E+02  0.72499572146E+01 -0.25140781346E+02  0.95025040747E+02  0.90173500468E+02 0.  0.
         11    1    3    3    0    0 -0.49536797659E+02  0.21358624034E+02 -0.16158885839E+02  0.56313361956E+02  0.51100000000E-03 0. -1.
         22    1    1    0    0    0  0.14624548401E+02 -0.72499572146E+01  0.25140781346E+02  0.29974959253E+02  0.00000000000E+00 0. -1.
</event>
<event>
 5    1  0.3144657E-003  0.9118800E+02  0.7818608E-02  0.1130116E+00
         25   -1    0    0    0    0  0.00000000000E+00  0.00000000000E+00  0.99999998245E-14  0.12500000000E+03  0.12500000000E+03 0.  0.
        -11    1    3    3    0    0  0.48898213938E+02  0.24629885787E+01  0.55161455149E+00  0.48963311959E+02  0.51100000000E-03 0. -1.
         23    2    1    0    0    0  0.10338489532E+02 -0.77671866607E+01  0.25775714101E+02  0.96162507185E+02  0.91736725450E+02 0.  0.
         11    1    3    3    0    0 -0.38559724406E+02 -0.10230175239E+02  0.25224099549E+02  0.47199195227E+02  0.51100000000E-03 0.  1.
         22    1    1    0    0    0 -0.10338489532E+02  0.77671866607E+01 -0.25775714101E+02  0.28837492815E+02  0.00000000000E+00 0.  1.
</event>
<event>
 5    1  0.3144657E-003  0.9118800E+02  0.7818608E-02  0.1130116E+00
         25   -1    0    0    0    0  0.00000000000E+00  0.00000000000E+00  0.99999998245E-14  0.12500000000E+03  0.12500000000E+03 0.  0.
        -11    1    3    3    0    0 -0.37692308120E+02  0.42967231254E+02  0.17158108659E+01  0.57182489105E+02  0.51100000000E-03 0.  1.
         23    2    1    0    0    0 -0.10438141339E+02  0.20395201271E+02  0.17734698301E+02  0.96026934002E+02  0.91551807741E+02 0.  0.
         11    1    3    3    0    0  0.27254166781E+02 -0.22572029983E+02  0.16018887435E+02  0.38844444897E+02  0.51100000000E-03 0. -1.
         22    1    1    0    0    0  0.10438141339E+02 -0.20395201271E+02 -0.17734698301E+02  0.28973065998E+02  0.00000000000E+00 0.  1.
</event>
<event>
 5    1  0.3144657E-003  0.9118800E+02  0.7818608E-02  0.1130116E+00
         25   -1    0    0    0    0  0.00000000000E+00  0.00000000000E+00  0.99999998245E-14  0.12500000000E+03  0.12500000000E+03 0.  0.
        -11    1    3    3    0    0 -0.59942636905E+02  0.33567348512E+01  0.15265574547E+02  0.61946954360E+02  0.51100000000E-03 0.  1.
         23    2    1    0    0    0 -0.28926310134E+02 -0.21895631310E+01  0.27104034832E+01  0.95864593846E+02  0.91329888107E+02 0.  0.
         11    1    3    3    0    0  0.31016326771E+02 -0.55462979822E+01 -0.12555171063E+02  0.33917639487E+02  0.51100000000E-03 0. -1.
         22    1    1    0    0    0  0.28926310134E+02  0.21895631310E+01 -0.27104034832E+01  0.29135406154E+02  0.00000000000E+00 0.  1.
</event>
<event>
 5    1  0.3144657E-003  0.9118800E+02  0.7818608E-02  0.1130116E+00
         25   -1    0    0    0    0  0.00000000000E+00  0.00000000000E+00  0.99999998245E-14  0.12500000000E+03  0.12500000000E+03 0.  0.
        -11    1    3    3    0    0 -0.32830511297E+02 -0.10933424491E+02  0.35387279447E+02  0.49493856083E+02  0.51100000000E-03 0. -1.
         23    2    1    0    0    0 -0.34510705418E+02  0.67282127369E+01 -0.83721506745E+00  0.89829578277E+02  0.82658300063E+02 0.  0.
         11    1    3    3    0    0 -0.16801941212E+01  0.17661637228E+02 -0.36224494514E+02  0.40335722194E+02  0.51100000000E-03 0.  1.
         22    1    1    0    0    0  0.34510705418E+02 -0.67282127369E+01  0.83721506745E+00  0.35170421723E+02  0.00000000000E+00 0.  1.
</event>
<event>
 5    1  0.3144657E-003  0.9118800E+02  0.7818608E-02  0.1130116E+00
         25   -1    0    0    0    0  0.00000000000E+00  0.00000000000E+00  0.99999998245E-14  0.12500000000E+03  0.12500000000E+03 0.  0.
        -11    1    3    3    0    0  0.12264913187E+02  0.11546853449E+02  0.26973050891E+02  0.31800996756E+02  0.51100000000E-03 0.  1.
         23    2    1    0    0    0 -0.15056459194E+02 -0.26246136028E+02 -0.11873596519E+02  0.92495555471E+02  0.86596125015E+02 0.  0.
         11    1    3    3    0    0 -0.27321372381E+02 -0.37792989477E+02 -0.38846647410E+02  0.60694558715E+02  0.51100000000E-03 0. -1.
         22    1    1    0    0    0  0.15056459194E+02  0.26246136028E+02  0.11873596519E+02  0.32504444529E+02  0.00000000000E+00 0. -1.
</event>
<event>
 5    1  0.3144657E-003  0.9118800E+02  0.7818608E-02  0.1130116E+00
         25   -1    0    0    0    0  0.00000000000E+00  0.00000000000E+00  0.99999998245E-14  0.12500000000E+03  0.12500000000E+03 0.  0.
        -11    1    3    3    0    0  0.35720552164E+02  0.31045039855E+02 -0.40266406973E+02  0.62138038891E+02  0.51100000000E-03 0. -1.
         23    2    1    0    0    0  0.20280432767E+02  0.14181472402E+02 -0.15726632778E+02  0.95678726302E+02  0.91075142468E+02 0.  0.
         11    1    3    3    0    0 -0.15440119397E+02 -0.16863567453E+02  0.24539774194E+02  0.33540687411E+02  0.51100000000E-03 0.  1.
         22    1    1    0    0    0 -0.20280432767E+02 -0.14181472402E+02  0.15726632778E+02  0.29321273698E+02  0.00000000000E+00 0. -1.
</event>
<event>
 5    1  0.3144657E-003  0.9118800E+02  0.7818608E-02  0.1130116E+00
         25   -1    0    0    0    0  0.00000000000E+00  0.00000000000E+00  0.99999998245E-14  0.12500000000E+03  0.12500000000E+03 0.  0.
        -11    1    3    3    0    0  0.41066044267E+02 -0.46366010719E+01 -0.41943537370E+02  0.58882751198E+02  0.51100000000E-03 0.  1.
         23    2    1    0    0    0  0.26702193660E+02 -0.87804183191E+01 -0.83107929184E+01  0.95688361168E+02  0.91088365294E+02 0.  0.
         11    1    3    3    0    0 -0.14363850607E+02 -0.41438172472E+01  0.33632744452E+02  0.36805609970E+02  0.51100000000E-03 0. -1.
         22    1    1    0    0    0 -0.26702193660E+02  0.87804183191E+01  0.83107929184E+01  0.29311638832E+02  0.00000000000E+00 0.  1.
</event>
<event>
 5    1  0.3144657E-003  0.9118800E+02  0.7818608E-02  0.1130116E+00
         25   -1    0    0    0    0  0.00000000000E+00  0.00000000000E+00  0.99999998245E-14  0.12500000000E+03  0.12500000000E+03 0.  0.
        -11    1    3    3    0    0 -0.13373720137E+02 -0.29794858320E+02 -0.33975677887E-01  0.32658706760E+02  0.51100000000E-03 0.  1.
         23    2    1    0    0    0  0.23022407711E+02  0.19704560206E+02 -0.49493904824E+01  0.94294993635E+02  0.89155753649E+02 0.  0.
         11    1    3    3    0    0  0.36396127849E+02  0.49499418526E+02 -0.49154148045E+01  0.61636286875E+02  0.51100000000E-03 0. -1.
         22    1    1    0    0    0 -0.23022407711E+02 -0.19704560206E+02  0.49493904824E+01  0.30705006365E+02  0.00000000000E+00 0. -1.
</event>
<event>
 5    1  0.3144657E-003  0.9118800E+02  0.7818608E-02  0.1130116E+00
         25   -1    0    0    0    0  0.00000000000E+00  0.00000000000E+00  0.99999998245E-14  0.12500000000E+03  0.12500000000E+03 0.  0.
        -11    1    3    3    0    0  0.28045958054E+02 -0.23270281802E+02 -0.24004886434E+02  0.43638473292E+02  0.51100000000E-03 0. -1.
         23    2    1    0    0    0 -0.47940031435E+01 -0.29579463950E+02  0.11949110387E+02  0.92739987714E+02  0.86948242814E+02 0.  0.
         11    1    3    3    0    0 -0.32839961198E+02 -0.63091821474E+01  0.35953996820E+02  0.49101514421E+02  0.51100000000E-03 0.  1.
         22    1    1    0    0    0  0.47940031435E+01  0.29579463950E+02 -0.11949110387E+02  0.32260012286E+02  0.00000000000E+00 0.  1.
</event>
<event>
 5    1  0.3144657E-003  0.9118800E+02  0.7818608E-02  0.1130116E+00
         25   -1    0    0    0    0  0.00000000000E+00  0.00000000000E+00  0.99999998245E-14  0.12500000000E+03  0.12500000000E+03 0.  0.
        -11    1    3    3    0    0  0.52035344164E+02 -0.33295962041E+02 -0.76259789374E+01  0.62245109732E+02  0.51100000000E-03 0. -1.
         23    2    1    0    0    0  0.17169105936E+02 -0.66783316788E+01 -0.25081841366E+01  0.10640781615E+03  0.10477095990E+03 0.  0.
         11    1    3    3    0    0 -0.34866238228E+02  0.26617630362E+02  0.51177948008E+01  0.44162706418E+02  0.51100000000E-03 0.  1.
         22    1    1    0    0    0 -0.17169105936E+02  0.66783316788E+01  0.25081841366E+01  0.18592183850E+02  0.00000000000E+00 0. -1.
</event>
<event>
 5    1  0.3144657E-003  0.9118800E+02  0.7818608E-02  0.1130116E+00
         25   -1    0    0    0    0  0.00000000000E+00  0.00000000000E+00  0.99999998245E-14  0.12500000000E+03  0.12500000000E+03 0.  0.
        -11    1    3    3    0    0 -0.47027380373E+02  0.78020801825E+01 -0.27746567022E+02  0.55157220214E+02  0.51100000000E-03 0.  1.
         23    2    1    0    0    0 -0.16726377677E+02  0.15101139613E+02 -0.31196987049E+02  0.86515352039E+02  0.77484437209E+02 0.  0.
         11    1    3    3    0    0  0.30301002696E+02  0.72990594304E+01 -0.34504200262E+01  0.31358131825E+02  0.51100000000E-03 0. -1.
         22    1    1    0    0    0  0.16726377677E+02 -0.15101139613E+02  0.31196987049E+02  0.38484647961E+02  0.00000000000E+00 0.  1.
</event>
<event>
 5    1  0.3144657E-003  0.9118800E+02  0.7818608E-02  0.1130116E+00
         25   -1    0    0    0    0  0.00000000000E+00  0.00000000000E+00  0.99999998245E-14  0.12500000000E+03  0.12500000000E+03 0.  0.
        -11    1    3    3    0    0  0.28114802817E+02  0.20087108600E+02  0.16425684150E+02  0.38258818191E+02  0.51100000000E-03 0. -1.
         23    2    1    0    0    0  0.54639838138E+01 -0.92377286064E+01 -0.27354798926E+02  0.95615041719E+02  0.90987693836E+02 0.  0.
         11    1    3    3    0    0 -0.22650819003E+02 -0.29324837206E+02 -0.43780483076E+02  0.57356223527E+02  0.51100000000E-03 0.  1.
         22    1    1    0    0    0 -0.54639838138E+01  0.92377286064E+01  0.27354798926E+02  0.29384958281E+02  0.00000000000E+00 0.  1.
</event>
<event>
 5    1  0.3144657E-003  0.9118800E+02  0.7818608E-02  0.1130116E+00
         25   -1    0    0    0    0  0.00000000000E+00  0.00000000000E+00  0.99999998245E-14  0.12500000000E+03  0.12500000000E+03 0.  0.
        -11    1    3    3    0    0  0.83176143330E+01  0.37802436506E+02 -0.16810609155E+02  0.42199567467E+02  0.51100000000E-03 0.  1.
         23    2    1    0    0    0 -0.29136719584E+02  0.31774629189E+02 -0.10037015660E+02  0.80735825190E+02  0.67520043673E+02 0.  0.
         11    1    3    3    0    0 -0.37454333917E+02 -0.60278073167E+01  0.67735934946E+01  0.38536257724E+02  0.51100000000E-03 0. -1.
         22    1    1    0    0    0  0.29136719584E+02 -0.31774629189E+02  0.10037015660E+02  0.44264174810E+02  0.00000000000E+00 0.  1.
</event>
<event>
 5    1  0.3144657E-003  0.9118800E+02  0.7818608E-02  0.1130116E+00
         25   -1    0    0    0    0  0.00000000000E+00  0.00000000000E+00  0.99999998245E-14  0.12500000000E+03  0.12500000000E+03 0.  0.
        -11    1    3    3    0    0  0.16836745732E+02 -0.73290631095E+01 -0.36575332437E+02  0.40926105557E+02  0.51100000000E-03 0. -1.
         23    2    1    0    0    0  0.81672901488E+01 -0.23096013383E+02  0.15492114267E+02  0.96014899224E+02  0.91535374615E+02 0.  0.
         11    1    3    3    0    0 -0.86694555836E+01 -0.15766950274E+02  0.52067446704E+02  0.55088793666E+02  0.51100000000E-03 0.  1.
         22    1    1    0    0    0 -0.81672901488E+01  0.23096013383E+02 -0.15492114267E+02  0.28985100776E+02  0.00000000000E+00 0.  1.
</event>
<event>
 5    1  0.3144657E-003  0.9118800E+02  0.7818608E-02  0.1130116E+00
         25   -1    0    0    0    0  0.00000000000E+00  0.00000000000E+00  0.99999998245E-14  0.12500000000E+03  0.12500000000E+03 0.  0.
        -11    1    3    3    0    0  0.39929706152E+01  0.29412563512E+02  0.40643691436E+02  0.50328444845E+02  0.51100000000E-03 0.  1.
         23    2    1    0    0    0  0.29123845691E+02  0.99166340516E+01  0.21735727070E+02  0.87330651054E+02  0.78788722312E+02 0.  0.
         11    1    3    3    0    0  0.25130875076E+02 -0.19495929461E+02 -0.18907964366E+02  0.37002206209E+02  0.51100000000E-03 0. -1.
         22    1    1    0    0    0 -0.29123845691E+02 -0.99166340516E+01 -0.21735727070E+02  0.37669348946E+02  0.00000000000E+00 0.  1.
</event>
<event>
 5    1  0.3144657E-003  0.9118800E+02  0.7818608E-02  0.1130116E+00
         25   -1    0    0    0    0  0.00000000000E+00  0.00000000000E+00  0.99999998245E-14  0.12500000000E+03  0.12500000000E+03 0.  0.
        -11    1    3    3    0    0  0.20106601664E+02 -0.56273435430E+02  0.86252591162E+00  0.59763859621E+02  0.51100000000E-03 0. -1.
         23    2    1    0    0    0  0.14596962937E+02 -0.22533549113E+02 -0.11049973619E+02  0.95966672951E+02  0.91469493481E+02 0.  0.
         11    1    3    3    0    0 -0.55096387273E+01  0.33739886318E+02 -0.11912499531E+02  0.36202813329E+02  0.51100000000E-03 0.  1.
         22    1    1    0    0    0 -0.14596962937E+02  0.22533549113E+02  0.11049973619E+02  0.29033327049E+02  0.00000000000E+00 0. -1.
</event>
<event>
 5    1  0.3144657E-003  0.9118800E+02  0.7818608E-02  0.1130116E+00
         25   -1    0    0    0    0  0.00000000000E+00  0.00000000000E+00  0.99999998245E-14  0.12500000000E+03  0.12500000000E+03 0.  0.
        -11    1    3    3    0    0 -0.37518056041E+02 -0.16061762168E+01 -0.65118974441E+01  0.38112847436E+02  0.51100000000E-03 0. -1.
         23    2    1    0    0    0  0.92929136943E+01  0.19233756782E+02  0.19940369531E+02  0.95778193384E+02  0.91211558182E+02 0.  0.
         11    1    3    3    0    0  0.46810969735E+02  0.20839932999E+02  0.26452266975E+02  0.57665345948E+02  0.51100000000E-03 0.  1.
         22    1    1    0    0    0 -0.92929136943E+01 -0.19233756782E+02 -0.19940369531E+02  0.29221806616E+02  0.00000000000E+00 0.  1.
</event>
<event>
 5    1  0.3144657E-003  0.9118800E+02  0.7818608E-02  0.1130116E+00
         25   -1    0    0    0    0  0.00000000000E+00  0.00000000000E+00  0.99999998245E-14  0.12500000000E+03  0.12500000000E+03 0.  0.
        -11    1    3    3    0    0  0.76366507187E+01  0.44202932832E+02 -0.25541647528E+02  0.51619700347E+02  0.51100000000E-03 0.  1.
         23    2    1    0    0    0 -0.19612450014E+02  0.22673399752E+02  0.48359583019E+00  0.95017253014E+02  0.90162704338E+02 0.  0.
         11    1    3    3    0    0 -0.27249100733E+02 -0.21529533080E+02  0.26025243358E+02  0.43397552667E+02  0.51100000000E-03 0. -1.
         22    1    1    0    0    0  0.19612450014E+02 -0.22673399752E+02 -0.48359583019E+00  0.29982746986E+02  0.00000000000E+00 0.  1.
</event>
<event>
 5    1  0.3144657E-003  0.9118800E+02  0.7818608E-02  0.1130116E+00
         25   -1    0    0    0    0  0.00000000000E+00  0.00000000000E+00  0.99999998245E-14  0.12500000000E+03  0.12500000000E+03 0.  0.
        -11    1    3    3    0    0  0.35989845380E+02 -0.24733190748E+02 -0.93543831870E+01  0.44659872146E+02  0.51100000000E-03 0. -1.
         23    2    1    0    0    0  0.15976488300E+02  0.66540788465E+01  0.24517949315E+02  0.94989088945E+02  0.90123649706E+02 0.  0.
         11    1    3    3    0    0 -0.20013357080E+02  0.31387269595E+02  0.33872332502E+02  0.50329216799E+02  0.51100000000E-03 0.  1.
         22    1    1    0    0    0 -0.15976488300E+02 -0.66540788465E+01 -0.24517949315E+02  0.30010911055E+02  0.00000000000E+00 0. -1.
</event>
<event>
 5    1  0.3144657E-003  0.9118800E+02  0.7818608E-02  0.1130116E+00
         25   -1    0    0    0    0  0.00000000000E+00  0.00000000000E+00  0.99999998245E-14  0.12500000000E+03  0.12500000000E+03 0.  0.
        -11    1    3    3    0    0 -0.47494925928E+02  0.31561522120E+02  0.76240697954E+01  0.57532808969E+02  0.51100000000E-03 0.  1.
         23    2    1    0    0    0 -0.26107529147E+02  0.18735102944E+02 -0.13431807107E+02  0.90171554691E+02  0.83173846086E+02 0.  0.
         11    1    3    3    0    0  0.21387396780E+02 -0.12826419175E+02 -0.21055876902E+02  0.32638745722E+02  0.51100000000E-03 0. -1.
         22    1    1    0    0    0  0.26107529147E+02 -0.18735102944E+02  0.13431807107E+02  0.34828445309E+02  0.00000000000E+00 0.  1.
</event>
<event>
 5    1  0.3144657E-003  0.9118800E+02  0.7818608E-02  0.1130116E+00
         25   -1    0    0    0    0  0.00000000000E+00  0.00000000000E+00  0.99999998245E-14  0.12500000000E+03  0.12500000000E+03 0.  0.
        -11    1    3    3    0    0 -0.12863013647E+02  0.27823691193E+02 -0.46024004434E+01  0.30996725663E+02  0.51100000000E-03 0. -1.
         23    2    1    0    0    0  0.16470657575E+02 -0.26998052346E+02 -0.34844815200E+01  0.93183039069E+02  0.87582873709E+02 0.  0.
         11    1    3    3    0    0  0.29333671222E+02 -0.54821743539E+02  0.11179189234E+01  0.62186313406E+02  0.51100000000E-03 0.  1.
         22    1    1    0    0    0 -0.16470657575E+02  0.26998052346E+02  0.34844815200E+01  0.31816960931E+02  0.00000000000E+00 0.  1.
</event>
<event>
 5    1  0.3144657E-003  0.9118800E+02  0.7818608E-02  0.1130116E+00
         25   -1    0    0    0    0  0.00000000000E+00  0.00000000000E+00  0.99999998245E-14  0.12500000000E+03  0.12500000000E+03 0.  0.
        -11    1    3    3    0    0  0.47465273489E+01  0.28175221148E+02  0.18936767059E+02  0.34277890185E+02  0.51100000000E-03 0. -1.
         23    2    1    0    0    0 -0.18040520279E+02 -0.19901696358E+02 -0.11732194793E+02  0.95688188651E+02  0.91088128551E+02 0.  0.
         11    1    3    3    0    0 -0.22787047628E+02 -0.48076917506E+02 -0.30668961852E+02  0.61410298467E+02  0.51100000000E-03 0.  1.
         22    1    1    0    0    0  0.18040520279E+02  0.19901696358E+02  0.11732194793E+02  0.29311811349E+02  0.00000000000E+00 0.  1.
</event>
<event>
 5    1  0.3144657E-003  0.9118800E+02  0.7818608E-02  0.1130116E+00
         25   -1    0    0    0    0  0.00000000000E+00  0.00000000000E+00  0.99999998245E-14  0.12500000000E+03  0.12500000000E+03 0.  0.
        -11    1    3    3    0    0 -0.20508192596E+00 -0.43111617237E+02  0.18105851430E+02  0.46759763212E+02  0.51100000000E-03 0.  1.
         23    2    1    0    0    0  0.10968182132E+02 -0.19933257946E+02 -0.21307509148E+02  0.93828767465E+02  0.88499671561E+02 0.  0.
         11    1    3    3    0    0  0.11173264058E+02  0.23178359291E+02 -0.39413360577E+02  0.47069004253E+02  0.51100000000E-03 0. -1.
         22    1    1    0    0    0 -0.10968182132E+02  0.19933257946E+02  0.21307509148E+02  0.31171232535E+02  0.00000000000E+00 0.  1.
</event>
<event>
 5    1  0.3144657E-003  0.9118800E+02  0.7818608E-02  0.1130116E+00
         25   -1    0    0    0    0  0.00000000000E+00  0.00000000000E+00  0.99999998245E-14  0.12500000000E+03  0.12500000000E+03 0.  0.
        -11    1    3    3    0    0 -0.18316782347E+02 -0.20424883870E+02  0.31692448980E+02  0.41917677885E+02  0.51100000000E-03 0.  1.
         23    2    1    0    0    0 -0.15485260575E+02  0.19095012714E+02 -0.91002982378E+01  0.98784961690E+02  0.95243059707E+02 0.  0.
         11    1    3    3    0    0  0.28315217729E+01  0.39519896583E+02 -0.40792747218E+02  0.56867283805E+02  0.51100000000E-03 0. -1.
         22    1    1    0    0    0  0.15485260575E+02 -0.19095012714E+02  0.91002982378E+01  0.26215038310E+02  0.00000000000E+00 0. -1.
</event>
<event>
 5    1  0.3144657E-003  0.9118800E+02  0.7818608E-02  0.1130116E+00
         25   -1    0    0    0    0  0.00000000000E+00  0.00000000000E+00  0.99999998245E-14  0.12500000000E+03  0.12500000000E+03 0.  0.
        -11    1    3    3    0    0 -0.95430251836E+01 -0.22435844206E+02 -0.52645236557E+02  0.58016871402E+02  0.51100000000E-03 0. -1.
         23    2    1    0    0    0  0.49556929246E+01  0.37991874582E+01 -0.26443587961E+02  0.97829132109E+02  0.93980226789E+02 0.  0.
         11    1    3    3    0    0  0.14498718108E+02  0.26235031664E+02  0.26201648596E+02  0.39812260707E+02  0.51100000000E-03 0.  1.
         22    1    1    0    0    0 -0.49556929246E+01 -0.37991874582E+01  0.26443587961E+02  0.27170867891E+02  0.00000000000E+00 0. -1.
</event>
<event>
 5    1  0.3144657E-003  0.9118800E+02  0.7818608E-02  0.1130116E+00
         25   -1    0    0    0    0  0.00000000000E+00  0.00000000000E+00  0.99999998245E-14  0.12500000000E+03  0.12500000000E+03 0.  0.
        -11    1    3    3    0    0 -0.26640023454E+02 -0.10721682898E+02  0.18868828212E+02  0.34360995506E+02  0.51100000000E-03 0.  1.
         23    2    1    0    0    0  0.14429036057E+02  0.27783790108E+02  0.13657049427E+00  0.93692577146E+02  0.88307102129E+02 0.  0.
         11    1    3    3    0    0  0.41069059510E+02  0.38505473006E+02 -0.18732257718E+02  0.59331581640E+02  0.51100000000E-03 0. -1.
         22    1    1    0    0    0 -0.14429036057E+02 -0.27783790108E+02 -0.13657049427E+00  0.31307422854E+02  0.00000000000E+00 0. -1.
</event>
<event>
 5    1  0.3144657E-003  0.9118800E+02  0.7818608E-02  0.1130116E+00
         25   -1    0    0    0    0  0.00000000000E+00  0.00000000000E+00  0.99999998245E-14  0.12500000000E+03  0.12500000000E+03 0.  0.
        -11    1    3    3    0    0 -0.88972899299E+00 -0.34888766892E+02 -0.51242349600E+02  0.61998355347E+02  0.51100000000E-03 0.  1.
         23    2    1    0    0    0 -0.15302870259E+01 -0.13316549152E+02 -0.29319803236E+02  0.92761465270E+02  0.86979114261E+02 0.  0.
         11    1    3    3    0    0 -0.64055803288E+00  0.21572217740E+02  0.21922546364E+02  0.30763109923E+02  0.51100000000E-03 0. -1.
         22    1    1    0    0    0  0.15302870259E+01  0.13316549152E+02  0.29319803236E+02  0.32238534730E+02  0.00000000000E+00 0.  1.
</event>
<event>
 5    1  0.3144657E-003  0.9118800E+02  0.7818608E-02  0.1130116E+00
         25   -1    0    0    0    0  0.00000000000E+00  0.00000000000E+00  0.99999998245E-14  0.12500000000E+03  0.12500000000E+03 0.  0.
        -11    1    3    3    0    0 -0.34678440804E+02  0.14187916225E+02 -0.23500180608E+02  0.44228381299E+02  0.51100000000E-03 0.  1.
         23    2    1    0    0    0  0.19920581339E+02  0.66543796684E+01 -0.38973257781E+00  0.10399375757E+03  0.10185008292E+03 0.  0.
         11    1    3    3    0    0  0.54599022144E+02 -0.75335365562E+01  0.23110448030E+02  0.59765376269E+02  0.51100000000E-03 0. -1.
         22    1    1    0    0    0 -0.19920581339E+02 -0.66543796684E+01  0.38973257781E+00  0.21006242433E+02  0.00000000000E+00 0. -1.
</event>
<event>
 5    1  0.3144657E-003  0.9118800E+02  0.7818608E-02  0.1130116E+00
         25   -1    0    0    0    0  0.00000000000E+00  0.00000000000E+00  0.99999998245E-14  0.12500000000E+03  0.12500000000E+03 0.  0.
        -11    1    3    3    0    0 -0.24964147731E+02 -0.31515751002E+02 -0.36616818494E+02  0.54380535396E+02  0.51100000000E-03 0. -1.
         23    2    1    0    0    0 -0.20691596457E+02 -0.19184547028E+02  0.35002224838E+01  0.96566910719E+02  0.92286118565E+02 0.  0.
         11    1    3    3    0    0  0.42725512734E+01  0.12331203974E+02  0.40117040978E+02  0.42186375323E+02  0.51100000000E-03 0.  1.
         22    1    1    0    0    0  0.20691596457E+02  0.19184547028E+02 -0.35002224838E+01  0.28433089281E+02  0.00000000000E+00 0. -1.
</event>
<event>
 5    1  0.3144657E-003  0.9118800E+02  0.7818608E-02  0.1130116E+00
         25   -1    0    0    0    0  0.00000000000E+00  0.00000000000E+00  0.99999998245E-14  0.12500000000E+03  0.12500000000E+03 0.  0.
        -11    1    3    3    0    0 -0.27908343104E+02  0.50406163935E+01  0.12503888597E+02  0.30994042310E+02  0.51100000000E-03 0.  1.
         23    2    1    0    0    0  0.16577336445E+02 -0.30837327013E+02  0.11484383077E+02  0.88153834995E+02  0.80084073003E+02 0.  0.
         11    1    3    3    0    0  0.44485679549E+02 -0.35877943406E+02 -0.10195055198E+01  0.57159792685E+02  0.51100000000E-03 0. -1.
         22    1    1    0    0    0 -0.16577336445E+02  0.30837327013E+02 -0.11484383077E+02  0.36846165005E+02  0.00000000000E+00 0. -1.
</event>
<event>
 5    1  0.3144657E-003  0.9118800E+02  0.7818608E-02  0.1130116E+00
         25   -1    0    0    0    0  0.00000000000E+00  0.00000000000E+00  0.99999998245E-14  0.12500000000E+03  0.12500000000E+03 0.  0.
        -11    1    3    3    0    0  0.16027303775E+02 -0.46297427665E+02 -0.45274361628E+01  0.49201869407E+02  0.51100000000E-03 0. -1.
         23    2    1    0    0    0  0.12805735041E+02 -0.76733176165E+01 -0.27104371886E+02  0.94056282891E+02  0.88820440906E+02 0.  0.
         11    1    3    3    0    0 -0.32215687337E+01  0.38624110048E+02 -0.22576935723E+02  0.44854413484E+02  0.51100000000E-03 0.  1.
         22    1    1    0    0    0 -0.12805735041E+02  0.76733176165E+01  0.27104371886E+02  0.30943717109E+02  0.00000000000E+00 0. -1.
</event>
<event>
 5    1  0.3144657E-003  0.9118800E+02  0.7818608E-02  0.1130116E+00
         25   -1    0    0    0    0  0.00000000000E+00  0.00000000000E+00  0.99999998245E-14  0.12500000000E+03  0.12500000000E+03 0.  0.
        -11    1    3    3    0    0 -0.49470571772E+01  0.17616543713E+02 -0.30319914426E+02  0.35413460692E+02  0.51100000000E-03 0.  1.
         23    2    1    0    0    0 -0.92722374220E+00 -0.25084840608E+02  0.13304032340E+02  0.96590384573E+02  0.92317908031E+02 0.  0.
         11    1    3    3    0    0  0.40198334350E+01 -0.42701384322E+02  0.43623946766E+02  0.61176923881E+02  0.51100000000E-03 0. -1.
         22    1    1    0    0    0  0.92722374220E+00  0.25084840608E+02 -0.13304032340E+02  0.28409615427E+02  0.00000000000E+00 0. -1.
</event>
<event>
 5    1  0.3144657E-003  0.9118800E+02  0.7818608E-02  0.1130116E+00
         25   -1    0    0    0    0  0.00000000000E+00  0.00000000000E+00  0.99999998245E-14  0.12500000000E+03  0.12500000000E+03 0.  0.
        -11    1    3    3    0    0  0.17035446554E+02 -0.46139526344E+02 -0.37285929695E+02  0.61719550257E+02  0.51100000000E-03 0. -1.
         23    2    1    0    0    0  0.12257649951E+02 -0.16944211358E+02 -0.20409152924E+02  0.95778607084E+02  0.91212125131E+02 0.  0.
         11    1    3    3    0    0 -0.47777966027E+01  0.29195314986E+02  0.16876776771E+02  0.34059056826E+02  0.51100000000E-03 0.  1.
         22    1    1    0    0    0 -0.12257649951E+02  0.16944211358E+02  0.20409152924E+02  0.29221392916E+02  0.00000000000E+00 0. -1.
</event>
<event>
 5    1  0.3144657E-003  0.9118800E+02  0.7818608E-02  0.1130116E+00
         25   -1    0    0    0    0  0.00000000000E+00  0.00000000000E+00  0.99999998245E-14  0.12500000000E+03  0.12500000000E+03 0.  0.
        -11    1    3    3    0    0  0.48707569591E+02 -0.17057096660E+02 -0.86830663068E+01  0.52333235354E+02  0.51100000000E-03 0.  1.
         23    2    1    0    0    0  0.25807833787E+02  0.15766243669E+02  0.43987909009E+01  0.94439108561E+02  0.89357580205E+02 0.  0.
         11    1    3    3    0    0 -0.22899735804E+02  0.32823340329E+02  0.13081857208E+02  0.42105873206E+02  0.51100000000E-03 0. -1.
         22    1    1    0    0    0 -0.25807833787E+02 -0.15766243669E+02 -0.43987909009E+01  0.30560891439E+02  0.00000000000E+00 0.  1.
</event>
<event>
 5    1  0.3144657E-003  0.9118800E+02  0.7818608E-02  0.1130116E+00
         25   -1    0    0    0    0  0.00000000000E+00  0.00000000000E+00  0.99999998245E-14  0.12500000000E+03  0.12500000000E+03 0.  0.
        -11    1    3    3    0    0 -0.32278526506E+02  0.11515613696E+02  0.31613882662E+02  0.46625638970E+02  0.51100000000E-03 0.  1.
         23    2    1    0    0    0  0.16190386592E+02  0.42317883767E+01  0.23260242868E+02  0.96345584125E+02  0.91985846907E+02 0.  0.
         11    1    3    3    0    0  0.48468913097E+02 -0.72838253195E+01 -0.83536397936E+01  0.49719945155E+02  0.51100000000E-03 0. -1.
         22    1    1    0    0    0 -0.16190386592E+02 -0.42317883767E+01 -0.23260242868E+02  0.28654415875E+02  0.00000000000E+00 0. -1.
</event>
<event>
 5    1  0.3144657E-003  0.9118800E+02  0.7818608E-02  0.1130116E+00
         25   -1    0    0    0    0  0.00000000000E+00  0.00000000000E+00  0.99999998245E-14  0.12500000000E+03  0.12500000000E+03 0.  0.
        -11    1    3    3    0    0 -0.28802825368E+02  0.23234371625E+02  0.96246472613E+01  0.38237058061E+02  0.51100000000E-03 0.  1.
         23    2    1    0    0    0 -0.19435816716E+00 -0.43754046150E+01 -0.30184185394E+02  0.94499721500E+02  0.89442329884E+02 0.  0.
         11    1    3    3    0    0  0.28608467201E+02 -0.27609776240E+02 -0.39808832656E+02  0.56262663439E+02  0.51100000000E-03 0. -1.
         22    1    1    0    0    0  0.19435816716E+00  0.43754046150E+01  0.30184185394E+02  0.30500278500E+02  0.00000000000E+00 0. -1.
</event>
<event>
 5    1  0.3144657E-003  0.9118800E+02  0.7818608E-02  0.1130116E+00
         25   -1    0    0    0    0  0.00000000000E+00  0.00000000000E+00  0.99999998245E-14  0.12500000000E+03  0.12500000000E+03 0.  0.
        -11    1    3    3    0    0 -0.13684240285E+02  0.95030473087E+01  0.40460030246E+01  0.17144575850E+02  0.51100000000E-03 0. -1.
         23    2    1    0    0    0  0.46192557185E+02  0.82720751927E+01  0.89212932082E+01  0.77232133816E+02  0.60688000906E+02 0.  0.
         11    1    3    3    0    0  0.59876797470E+02 -0.12309721160E+01  0.48752901836E+01  0.60087557966E+02  0.51100000000E-03 0.  1.
         22    1    1    0    0    0 -0.46192557185E+02 -0.82720751927E+01 -0.89212932082E+01  0.47767866184E+02  0.00000000000E+00 0.  1.
</event>
<event>
 5    1  0.3144657E-003  0.9118800E+02  0.7818608E-02  0.1130116E+00
         25   -1    0    0    0    0  0.00000000000E+00  0.00000000000E+00  0.99999998245E-14  0.12500000000E+03  0.12500000000E+03 0.  0.
        -11    1    3    3    0    0 -0.29275202926E+02  0.20946672993E+02 -0.47862225992E+02  0.59888173232E+02  0.51100000000E-03 0.  1.
         23    2    1    0    0    0 -0.62435969793E+01  0.70491765871E+00 -0.27725216500E+02  0.96571721084E+02  0.92292633893E+02 0.  0.
         11    1    3    3    0    0  0.23031605947E+02 -0.20241755335E+02  0.20137009492E+02  0.36683547852E+02  0.51100000000E-03 0. -1.
         22    1    1    0    0    0  0.62435969793E+01 -0.70491765871E+00  0.27725216500E+02  0.28428278916E+02  0.00000000000E+00 0.  1.
</event>
<event>
 5    1  0.3144657E-003  0.9118800E+02  0.7818608E-02  0.1130116E+00
         25   -1    0    0    0    0  0.00000000000E+00  0.00000000000E+00  0.99999998245E-14  0.12500000000E+03  0.12500000000E+03 0.  0.
        -11    1    3    3    0    0  0.12563632049E+02 -0.29573104333E+02 -0.21656984944E+02  0.38748397996E+02  0.51100000000E-03 0.  1.
         23    2    1    0    0    0  0.16415971230E+02  0.24040962606E+02 -0.26237047186E+01  0.95770976395E+02  0.91201667193E+02 0.  0.
         11    1    3    3    0    0  0.38523391814E+01  0.53614066939E+02  0.19033280225E+02  0.57022578399E+02  0.51100000000E-03 0. -1.
         22    1    1    0    0    0 -0.16415971230E+02 -0.24040962606E+02  0.26237047186E+01  0.29229023605E+02  0.00000000000E+00 0. -1.
</event>
<event>
 5    1  0.3144657E-003  0.9118800E+02  0.7818608E-02  0.1130116E+00
         25   -1    0    0    0    0  0.00000000000E+00  0.00000000000E+00  0.99999998245E-14  0.12500000000E+03  0.12500000000E+03 0.  0.
        -11    1    3    3    0    0 -0.32097347529E+00 -0.34621823898E+02  0.22371570941E+01  0.34695512478E+02  0.51100000000E-03 0. -1.
         23    2    1    0    0    0 -0.17173162754E+02  0.14620004283E+02  0.24849944742E+02  0.91441367759E+02  0.85060813185E+02 0.  0.
         11    1    3    3    0    0 -0.16852189279E+02  0.49241828181E+02  0.22612787648E+02  0.56745855281E+02  0.51100000000E-03 0.  1.
         22    1    1    0    0    0  0.17173162754E+02 -0.14620004283E+02 -0.24849944742E+02  0.33558632241E+02  0.00000000000E+00 0.  1.
</event>
<event>
 5    1  0.3144657E-003  0.9118800E+02  0.7818608E-02  0.1130116E+00
         25   -1    0    0    0    0  0.00000000000E+00  0.00000000000E+00  0.99999998245E-14  0.12500000000E+03  0.12500000000E+03 0.  0.
        -11    1    3    3    0    0 -0.32328038400E+02  0.28141424197E+02 -0.73069670959E+01  0.43479116723E+02  0.51100000000E-03 0. -1.
         23    2    1    0    0    0 -0.14366458381E+02 -0.65160797194E+01  0.25863958613E+02  0.94704806051E+02  0.89728487743E+02 0.  0.
         11    1    3    3    0    0  0.17961580019E+02 -0.34657503916E+02  0.33170925708E+02  0.51225689328E+02  0.51100000000E-03 0.  1.
         22    1    1    0    0    0  0.14366458381E+02  0.65160797194E+01 -0.25863958613E+02  0.30295193949E+02  0.00000000000E+00 0.  1.
</event>
<event>
 5    1  0.3144657E-003  0.9118800E+02  0.7818608E-02  0.1130116E+00
         25   -1    0    0    0    0  0.00000000000E+00  0.00000000000E+00  0.99999998245E-14  0.12500000000E+03  0.12500000000E+03 0.  0.
        -11    1    3    3    0    0  0.17614742438E+02 -0.23312463193E+02 -0.17464577742E+01  0.29271149727E+02  0.51100000000E-03 0.  1.
         23    2    1    0    0    0  0.47127945458E+01 -0.10903530032E+02  0.44542487132E+02  0.78900861618E+02  0.64032924379E+02 0.  0.
         11    1    3    3    0    0 -0.12901947892E+02  0.12408933161E+02  0.46288944907E+02  0.49629711892E+02  0.51100000000E-03 0. -1.
         22    1    1    0    0    0 -0.47127945458E+01  0.10903530032E+02 -0.44542487132E+02  0.46099138382E+02  0.00000000000E+00 0. -1.
</event>
<event>
 5    1  0.3144657E-003  0.9118800E+02  0.7818608E-02  0.1130116E+00
         25   -1    0    0    0    0  0.00000000000E+00  0.00000000000E+00  0.99999998245E-14  0.12500000000E+03  0.12500000000E+03 0.  0.
        -11    1    3    3    0    0 -0.25000431933E+02  0.43200730760E+02 -0.73699700012E+01  0.50454347614E+02  0.51100000000E-03 0. -1.
         23    2    1    0    0    0  0.11858929698E+02  0.18034955033E+02 -0.18633882640E+02  0.96484821606E+02  0.92174863176E+02 0.  0.
         11    1    3    3    0    0  0.36859361630E+02 -0.25165775727E+02 -0.11263912638E+02  0.46030473992E+02  0.51100000000E-03 0.  1.
         22    1    1    0    0    0 -0.11858929698E+02 -0.18034955033E+02  0.18633882640E+02  0.28515178394E+02  0.00000000000E+00 0.  1.
</event>
<event>
 5    1  0.3144657E-003  0.9118800E+02  0.7818608E-02  0.1130116E+00
         25   -1    0    0    0    0  0.00000000000E+00  0.00000000000E+00  0.99999998245E-14  0.12500000000E+03  0.12500000000E+03 0.  0.
        -11    1    3    3    0    0  0.30669708181E+02  0.13423178338E+02  0.24368689043E+02  0.41408280845E+02  0.51100000000E-03 0.  1.
         23    2    1    0    0    0 -0.16672885326E+02 -0.12027631607E+02  0.21526789085E+02  0.95233379845E+02  0.90461842570E+02 0.  0.
         11    1    3    3    0    0 -0.47342593506E+02 -0.25450809945E+02 -0.28418999580E+01  0.53825099000E+02  0.51100000000E-03 0. -1.
         22    1    1    0    0    0  0.16672885326E+02  0.12027631607E+02 -0.21526789085E+02  0.29766620155E+02  0.00000000000E+00 0. -1.
</event>
<event>
 5    1  0.3144657E-003  0.9118800E+02  0.7818608E-02  0.1130116E+00
         25   -1    0    0    0    0  0.00000000000E+00  0.00000000000E+00  0.99999998245E-14  0.12500000000E+03  0.12500000000E+03 0.  0.
        -11    1    3    3    0    0  0.31530218398E+02 -0.50471709519E+02  0.90029725612E+01  0.60188052379E+02  0.51100000000E-03 0. -1.
         23    2    1    0    0    0  0.23633048653E+02 -0.16515838732E+02  0.10554703189E+00  0.96167638705E+02  0.91743717367E+02 0.  0.
         11    1    3    3    0    0 -0.78971697450E+01  0.33955870787E+02 -0.88974255293E+01  0.35979586326E+02  0.51100000000E-03 0.  1.
         22    1    1    0    0    0 -0.23633048653E+02  0.16515838732E+02 -0.10554703189E+00  0.28832361295E+02  0.00000000000E+00 0. -1.
</event>
<event>
 5    1  0.3144657E-003  0.9118800E+02  0.7818608E-02  0.1130116E+00
         25   -1    0    0    0    0  0.00000000000E+00  0.00000000000E+00  0.99999998245E-14  0.12500000000E+03  0.12500000000E+03 0.  0.
        -11    1    3    3    0    0  0.14909005032E+02 -0.23303862053E+02  0.50989346411E+02  0.58010877129E+02  0.51100000000E-03 0. -1.
         23    2    1    0    0    0  0.12442101426E+02 -0.22066191930E+02  0.12227054275E+02  0.96871303435E+02  0.92697496508E+02 0.  0.
         11    1    3    3    0    0 -0.24669036060E+01  0.12376701228E+01 -0.38762292136E+02  0.38860426306E+02  0.51100000000E-03 0.  1.
         22    1    1    0    0    0 -0.12442101426E+02  0.22066191930E+02 -0.12227054275E+02  0.28128696565E+02  0.00000000000E+00 0. -1.
</event>
<event>
 5    1  0.3144657E-003  0.9118800E+02  0.7818608E-02  0.1130116E+00
         25   -1    0    0    0    0  0.00000000000E+00  0.00000000000E+00  0.99999998245E-14  0.12500000000E+03  0.12500000000E+03 0.  0.
        -11    1    3    3    0    0 -0.26933448708E+02 -0.23747032889E+02 -0.40410883651E+02  0.54058965474E+02  0.51100000000E-03 0.  1.
         23    2    1    0    0    0  0.91524494155E+01 -0.19107287095E+02 -0.20432701739E+02  0.95566158070E+02  0.90920512083E+02 0.  0.
         11    1    3    3    0    0  0.36085898123E+02  0.46397457945E+01  0.19978181913E+02  0.41507192596E+02  0.51100000000E-03 0. -1.
         22    1    1    0    0    0 -0.91524494155E+01  0.19107287095E+02  0.20432701739E+02  0.29433841930E+02  0.00000000000E+00 0.  1.
</event>
<event>
 5    1  0.3144657E-003  0.9118800E+02  0.7818608E-02  0.1130116E+00
         25   -1    0    0    0    0  0.00000000000E+00  0.00000000000E+00  0.99999998245E-14  0.12500000000E+03  0.12500000000E+03 0.  0.
        -11    1    3    3    0    0  0.42269456080E+02  0.14441251044E+02 -0.34152273668E+02  0.56228413155E+02  0.51100000000E-03 0. -1.
         23    2    1    0    0    0  0.74024595695E+01 -0.76714060341E+01 -0.23989429523E+02  0.98748531335E+02  0.95195235352E+02 0.  0.
         11    1    3    3    0    0 -0.34866996510E+02 -0.22112657078E+02  0.10162844145E+02  0.42520118180E+02  0.51100000000E-03 0.  1.
         22    1    1    0    0    0 -0.74024595695E+01  0.76714060341E+01  0.23989429523E+02  0.26251468665E+02  0.00000000000E+00 0.  1.
</event>
<event>
 5    1  0.3144657E-003  0.9118800E+02  0.7818608E-02  0.1130116E+00
         25   -1    0    0    0    0  0.00000000000E+00  0.00000000000E+00  0.99999998245E-14  0.12500000000E+03  0.12500000000E+03 0.  0.
        -11    1    3    3    0    0  0.21464691363E+02 -0.92969393306E+01  0.26808548882E+02  0.35578987473E+02  0.51100000000E-03 0.  1.
         23    2    1    0    0    0 -0.28290865816E+02  0.58411953038E+01 -0.37030225581E+01  0.95876040323E+02  0.91345553153E+02 0.  0.
         11    1    3    3    0    0 -0.49755557179E+02  0.15138134634E+02 -0.30511571440E+02  0.60297052850E+02  0.51100000000E-03 0. -1.
         22    1    1    0    0    0  0.28290865816E+02 -0.58411953038E+01  0.37030225581E+01  0.29123959677E+02  0.00000000000E+00 0. -1.
</event>
<event>
 4    1  0.3144657E-003  0.9118800E+02  0.7818608E-02  0.1130116E+00
         25   -1    0    0    0    0  0.00000000000E+00  0.00000000000E+00  0.99999998245E-14  0.12500000000E+03  0.12500000000E+03 0.  0.
        -11    1    1    0    0    0 -0.46523492962E+02  0.40286692100E+02 -0.40643794793E+01  0.61676349913E+02  0.51100000000E-03 0.  1.
         11    1    1    0    0    0  0.52276405972E+01 -0.18790419246E+01  0.41393617167E+01  0.69277226020E+01  0.51100000000E-03 0. -1.
         22    1    1    0    0    0  0.41295852365E+02 -0.38407650176E+02 -0.74982237378E-01  0.56395927485E+02  0.00000000000E+00 0.  1.
</event>
<event>
 5    1  0.3144657E-003  0.9118800E+02  0.7818608E-02  0.1130116E+00
         25   -1    0    0    0    0  0.00000000000E+00  0.00000000000E+00  0.99999998245E-14  0.12500000000E+03  0.12500000000E+03 0.  0.
        -11    1    3    3    0    0 -0.32866411794E+02  0.74909538673E+01 -0.32104116967E+02  0.46550937053E+02  0.51100000000E-03 0. -1.
         23    2    1    0    0    0 -0.18253647820E+02  0.21306371182E+02  0.11584928609E+02  0.94645961018E+02  0.89646473742E+02 0.  0.
         11    1    3    3    0    0  0.14612763974E+02  0.13815417314E+02  0.43689045576E+02  0.48095023964E+02  0.51100000000E-03 0.  1.
         22    1    1    0    0    0  0.18253647820E+02 -0.21306371182E+02 -0.11584928609E+02  0.30354038982E+02  0.00000000000E+00 0.  1.
</event>
<event>
 5    1  0.3144657E-003  0.9118800E+02  0.7818608E-02  0.1130116E+00
         25   -1    0    0    0    0  0.00000000000E+00  0.00000000000E+00  0.99999998245E-14  0.12500000000E+03  0.12500000000E+03 0.  0.
        -11    1    3    3    0    0 -0.61660272462E+02 -0.88373330027E+01 -0.16302809943E+01  0.62311680054E+02  0.51100000000E-03 0.  1.
         23    2    1    0    0    0 -0.29021232626E+02 -0.75070654431E+01  0.95819883251E-01  0.95023389849E+02  0.90171211938E+02 0.  0.
         11    1    3    3    0    0  0.32639039837E+02  0.13302675596E+01  0.17261008775E+01  0.32711709795E+02  0.51100000000E-03 0. -1.
         22    1    1    0    0    0  0.29021232626E+02  0.75070654431E+01 -0.95819883251E-01  0.29976610151E+02  0.00000000000E+00 0.  1.
</event>
<event>
 5    1  0.3144657E-003  0.9118800E+02  0.7818608E-02  0.1130116E+00
         25   -1    0    0    0    0  0.00000000000E+00  0.00000000000E+00  0.99999998245E-14  0.12500000000E+03  0.12500000000E+03 0.  0.
        -11    1    3    3    0    0 -0.40691887288E+02  0.32335735820E+01  0.37371788280E+02  0.55343800453E+02  0.51100000000E-03 0. -1.
         23    2    1    0    0    0 -0.63400431570E+01  0.11419109900E+02  0.31178345575E+02  0.91196428429E+02  0.84700100988E+02 0.  0.
         11    1    3    3    0    0  0.34351844131E+02  0.81855363182E+01 -0.61934427050E+01  0.35852627976E+02  0.51100000000E-03 0.  1.
         22    1    1    0    0    0  0.63400431570E+01 -0.11419109900E+02 -0.31178345575E+02  0.33803571571E+02  0.00000000000E+00 0. -1.
</event>
<event>
 5    1  0.3144657E-003  0.9118800E+02  0.7818608E-02  0.1130116E+00
         25   -1    0    0    0    0  0.00000000000E+00  0.00000000000E+00  0.99999998245E-14  0.12500000000E+03  0.12500000000E+03 0.  0.
        -11    1    3    3    0    0 -0.94078977578E+01 -0.24469963451E+02 -0.54694802575E+02  0.60653186894E+02  0.51100000000E-03 0.  1.
         23    2    1    0    0    0  0.31030316598E+01 -0.42630274377E+01 -0.28473284638E+02  0.96042614992E+02  0.91573215233E+02 0.  0.
         11    1    3    3    0    0  0.12510929418E+02  0.20206936013E+02  0.26221517937E+02  0.35389428098E+02  0.51100000000E-03 0. -1.
         22    1    1    0    0    0 -0.31030316598E+01  0.42630274377E+01  0.28473284638E+02  0.28957385008E+02  0.00000000000E+00 0.  1.
</event>
<event>
 5    1  0.3144657E-003  0.9118800E+02  0.7818608E-02  0.1130116E+00
         25   -1    0    0    0    0  0.00000000000E+00  0.00000000000E+00  0.99999998245E-14  0.12500000000E+03  0.12500000000E+03 0.  0.
        -11    1    3    3    0    0 -0.20862846861E+02 -0.97939728879E+00 -0.25988211129E+02  0.33340736587E+02  0.51100000000E-03 0.  1.
         23    2    1    0    0    0  0.17191424719E+02 -0.14272107530E+02  0.20364257846E+02  0.94768540644E+02  0.89817231982E+02 0.  0.
         11    1    3    3    0    0  0.38054271580E+02 -0.13292710241E+02  0.46352468974E+02  0.61427804057E+02  0.51100000000E-03 0. -1.
         22    1    1    0    0    0 -0.17191424719E+02  0.14272107530E+02 -0.20364257846E+02  0.30231459356E+02  0.00000000000E+00 0. -1.
</event>
<event>
 5    1  0.3144657E-003  0.9118800E+02  0.7818608E-02  0.1130116E+00
         25   -1    0    0    0    0  0.00000000000E+00  0.00000000000E+00  0.99999998245E-14  0.12500000000E+03  0.12500000000E+03 0.  0.
        -11    1    3    3    0    0  0.37693535132E+02 -0.32345725180E+02  0.12752222913E+02  0.51280285857E+02  0.51100000000E-03 0.  1.
         23    2    1    0    0    0  0.22394933123E+02  0.97258248208E+01  0.15413581090E+02  0.96126081318E+02  0.91687078313E+02 0.  0.
         11    1    3    3    0    0 -0.15298602008E+02  0.42071550001E+02  0.26613581773E+01  0.44845795461E+02  0.51100000000E-03 0. -1.
         22    1    1    0    0    0 -0.22394933123E+02 -0.97258248208E+01 -0.15413581090E+02  0.28873918682E+02  0.00000000000E+00 0.  1.
</event>
<event>
 5    1  0.3144657E-003  0.9118800E+02  0.7818608E-02  0.1130116E+00
         25   -1    0    0    0    0  0.00000000000E+00  0.00000000000E+00  0.99999998245E-14  0.12500000000E+03  0.12500000000E+03 0.  0.
        -11    1    3    3    0    0  0.46672794334E+02  0.20916180508E+02 -0.10887434435E+02  0.52291228393E+02  0.51100000000E-03 0.  1.
         23    2    1    0    0    0  0.15030242926E+02 -0.34275433804E+01 -0.25830087563E+02  0.94919280601E+02  0.90026774630E+02 0.  0.
         11    1    3    3    0    0 -0.31642551408E+02 -0.24343723888E+02 -0.14942653128E+02  0.42628052209E+02  0.51100000000E-03 0. -1.
         22    1    1    0    0    0 -0.15030242926E+02  0.34275433804E+01  0.25830087563E+02  0.30080719399E+02  0.00000000000E+00 0.  1.
</event>
<event>
 5    1  0.3144657E-003  0.9118800E+02  0.7818608E-02  0.1130116E+00
         25   -1    0    0    0    0  0.00000000000E+00  0.00000000000E+00  0.99999998245E-14  0.12500000000E+03  0.12500000000E+03 0.  0.
        -11    1    3    3    0    0  0.34755108207E+02  0.12290221131E+02  0.21255585325E+02  0.42553107873E+02  0.51100000000E-03 0.  1.
         23    2    1    0    0    0 -0.40546837534E+01  0.31088814327E+02 -0.53090313772E+01  0.93201562133E+02  0.87609306203E+02 0.  0.
         11    1    3    3    0    0 -0.38809791960E+02  0.18798593196E+02 -0.26564616702E+02  0.50648454260E+02  0.51100000000E-03 0. -1.
         22    1    1    0    0    0  0.40546837534E+01 -0.31088814327E+02  0.53090313772E+01  0.31798437867E+02  0.00000000000E+00 0. -1.
</event>
<event>
 5    1  0.3144657E-003  0.9118800E+02  0.7818608E-02  0.1130116E+00
         25   -1    0    0    0    0  0.00000000000E+00  0.00000000000E+00  0.99999998245E-14  0.12500000000E+03  0.12500000000E+03 0.  0.
        -11    1    3    3    0    0  0.93767749023E+01  0.76445453888E+01 -0.44784906585E+02  0.46390201981E+02  0.51100000000E-03 0.  1.
         23    2    1    0    0    0  0.21634776312E+02  0.18043324055E+02  0.28696714963E+01  0.96682865549E+02  0.92443044017E+02 0.  0.
         11    1    3    3    0    0  0.12258001410E+02  0.10398778666E+02  0.47654578082E+02  0.50292663567E+02  0.51100000000E-03 0. -1.
         22    1    1    0    0    0 -0.21634776312E+02 -0.18043324055E+02 -0.28696714963E+01  0.28317134451E+02  0.00000000000E+00 0. -1.
</event>
<event>
 5    1  0.3144657E-003  0.9118800E+02  0.7818608E-02  0.1130116E+00
         25   -1    0    0    0    0  0.00000000000E+00  0.00000000000E+00  0.99999998245E-14  0.12500000000E+03  0.12500000000E+03 0.  0.
        -11    1    3    3    0    0  0.16469796310E+02 -0.53665109633E+02 -0.73415226590E+01  0.56613568494E+02  0.51100000000E-03 0.  1.
         23    2    1    0    0    0  0.18188097004E+02 -0.14881688965E+02 -0.16230289110E+02  0.96439645946E+02  0.92113579273E+02 0.  0.
         11    1    3    3    0    0  0.17183006939E+01  0.38783420667E+02 -0.88887664507E+01  0.39826077452E+02  0.51100000000E-03 0. -1.
         22    1    1    0    0    0 -0.18188097004E+02  0.14881688965E+02  0.16230289110E+02  0.28560354054E+02  0.00000000000E+00 0.  1.
</event>
<event>
 5    1  0.3144657E-003  0.9118800E+02  0.7818608E-02  0.1130116E+00
         25   -1    0    0    0    0  0.00000000000E+00  0.00000000000E+00  0.99999998245E-14  0.12500000000E+03  0.12500000000E+03 0.  0.
        -11    1    3    3    0    0 -0.37362157101E+02  0.25362169171E+02 -0.25922198457E+02  0.52068520062E+02  0.51100000000E-03 0.  1.
         23    2    1    0    0    0  0.19973949866E+01  0.70850327416E+01 -0.28522866510E+02  0.95542552900E+02  0.90888053258E+02 0.  0.
         11    1    3    3    0    0  0.39359552088E+02 -0.18277136430E+02 -0.26006680535E+01  0.43474032838E+02  0.51100000000E-03 0. -1.
         22    1    1    0    0    0 -0.19973949866E+01 -0.70850327416E+01  0.28522866510E+02  0.29457447100E+02  0.00000000000E+00 0. -1.
</event>
<event>
 5    1  0.3144657E-003  0.9118800E+02  0.7818608E-02  0.1130116E+00
         25   -1    0    0    0    0  0.00000000000E+00  0.00000000000E+00  0.99999998245E-14  0.12500000000E+03  0.12500000000E+03 0.  0.
        -11    1    3    3    0    0  0.18498720902E+02 -0.19501557883E+00 -0.39532943051E+02  0.43647385863E+02  0.51100000000E-03 0. -1.
         23    2    1    0    0    0 -0.29906815566E+00  0.10380922457E+02  0.17515586373E+02  0.10463707391E+03  0.10263658450E+03 0.  0.
         11    1    3    3    0    0 -0.18797789057E+02  0.10575938036E+02  0.57048529424E+02  0.60989688051E+02  0.51100000000E-03 0.  1.
         22    1    1    0    0    0  0.29906815566E+00 -0.10380922457E+02 -0.17515586373E+02  0.20362926087E+02  0.00000000000E+00 0.  1.
</event>
<event>
 5    1  0.3144657E-003  0.9118800E+02  0.7818608E-02  0.1130116E+00
         25   -1    0    0    0    0  0.00000000000E+00  0.00000000000E+00  0.99999998245E-14  0.12500000000E+03  0.12500000000E+03 0.  0.
        -11    1    3    3    0    0  0.23797628121E+02  0.38900971075E+02 -0.20554638891E+02  0.50021053917E+02  0.51100000000E-03 0. -1.
         23    2    1    0    0    0 -0.25569574959E+01  0.29355254321E+02 -0.33059998836E+02  0.80714195153E+02  0.67479988058E+02 0.  0.
         11    1    3    3    0    0 -0.26354585617E+02 -0.95457167537E+01 -0.12505359945E+02  0.30693141237E+02  0.51100000000E-03 0.  1.
         22    1    1    0    0    0  0.25569574959E+01 -0.29355254321E+02  0.33059998836E+02  0.44285804847E+02  0.00000000000E+00 0.  1.
</event>
<event>
 5    1  0.3144657E-003  0.9118800E+02  0.7818608E-02  0.1130116E+00
         25   -1    0    0    0    0  0.00000000000E+00  0.00000000000E+00  0.99999998245E-14  0.12500000000E+03  0.12500000000E+03 0.  0.
        -11    1    3    3    0    0  0.33466392613E+02 -0.20693444139E+02  0.16448733060E+02  0.42647143919E+02  0.51100000000E-03 0.  1.
         23    2    1    0    0    0 -0.14871231917E+02  0.10764814476E+01  0.24550626954E+02  0.96276392377E+02  0.91891773811E+02 0.  0.
         11    1    3    3    0    0 -0.48337624530E+02  0.21769925587E+02  0.81018938942E+01  0.53629248458E+02  0.51100000000E-03 0. -1.
         22    1    1    0    0    0  0.14871231917E+02 -0.10764814476E+01 -0.24550626954E+02  0.28723607623E+02  0.00000000000E+00 0. -1.
</event>
<event>
 5    1  0.3144657E-003  0.9118800E+02  0.7818608E-02  0.1130116E+00
         25   -1    0    0    0    0  0.00000000000E+00  0.00000000000E+00  0.99999998245E-14  0.12500000000E+03  0.12500000000E+03 0.  0.
        -11    1    3    3    0    0  0.52443564083E+02  0.66190163088E+01 -0.25464369380E+02  0.58673442875E+02  0.51100000000E-03 0.  1.
         23    2    1    0    0    0  0.11471905403E+02  0.58111364729E+01 -0.21635036868E+02  0.99831592403E+02  0.96606925739E+02 0.  0.
         11    1    3    3    0    0 -0.40971658680E+02 -0.80787983594E+00  0.38293325117E+01  0.41158149528E+02  0.51100000000E-03 0. -1.
         22    1    1    0    0    0 -0.11471905403E+02 -0.58111364729E+01  0.21635036868E+02  0.25168407597E+02  0.00000000000E+00 0.  1.
</event>
<event>
 5    1  0.3144657E-003  0.9118800E+02  0.7818608E-02  0.1130116E+00
         25   -1    0    0    0    0  0.00000000000E+00  0.00000000000E+00  0.99999998245E-14  0.12500000000E+03  0.12500000000E+03 0.  0.
        -11    1    3    3    0    0  0.50083630118E+02  0.27629479096E+02 -0.76538461568E+01  0.57709093583E+02  0.51100000000E-03 0.  1.
         23    2    1    0    0    0  0.97332650858E+01  0.16621171050E+02  0.10222283979E+02  0.10319415523E+03  0.10086396189E+03 0.  0.
         11    1    3    3    0    0 -0.40350365032E+02 -0.11008308047E+02  0.17876130136E+02  0.45485061649E+02  0.51100000000E-03 0. -1.
         22    1    1    0    0    0 -0.97332650858E+01 -0.16621171050E+02 -0.10222283979E+02  0.21805844768E+02  0.00000000000E+00 0. -1.
</event>
<event>
 5    1  0.3144657E-003  0.9118800E+02  0.7818608E-02  0.1130116E+00
         25   -1    0    0    0    0  0.00000000000E+00  0.00000000000E+00  0.99999998245E-14  0.12500000000E+03  0.12500000000E+03 0.  0.
        -11    1    3    3    0    0 -0.22539307971E+02 -0.10816998692E+02  0.25676275460E+02  0.35837117438E+02  0.51100000000E-03 0. -1.
         23    2    1    0    0    0  0.16156770473E+02  0.23494731312E+02 -0.51211727168E+01  0.96029842225E+02  0.91555778387E+02 0.  0.
         11    1    3    3    0    0  0.38696078444E+02  0.34311730004E+02 -0.30797448176E+02  0.60192724787E+02  0.51100000000E-03 0.  1.
         22    1    1    0    0    0 -0.16156770473E+02 -0.23494731312E+02  0.51211727168E+01  0.28970157775E+02  0.00000000000E+00 0.  1.
</event>
<event>
 5    1  0.3144657E-003  0.9118800E+02  0.7818608E-02  0.1130116E+00
         25   -1    0    0    0    0  0.00000000000E+00  0.00000000000E+00  0.99999998245E-14  0.12500000000E+03  0.12500000000E+03 0.  0.
        -11    1    3    3    0    0 -0.27417347272E+02  0.35654268289E+02 -0.21849887621E+02  0.50003553553E+02  0.51100000000E-03 0. -1.
         23    2    1    0    0    0  0.11927554935E+02  0.29512837849E+02 -0.78475879139E+01  0.92214960719E+02  0.86190139689E+02 0.  0.
         11    1    3    3    0    0  0.39344902207E+02 -0.61414304402E+01  0.14002299707E+02  0.42211407165E+02  0.51100000000E-03 0.  1.
         22    1    1    0    0    0 -0.11927554935E+02 -0.29512837849E+02  0.78475879139E+01  0.32785039281E+02  0.00000000000E+00 0.  1.
</event>
<event>
 5    1  0.3144657E-003  0.9118800E+02  0.7818608E-02  0.1130116E+00
         25   -1    0    0    0    0  0.00000000000E+00  0.00000000000E+00  0.99999998245E-14  0.12500000000E+03  0.12500000000E+03 0.  0.
        -11    1    3    3    0    0 -0.37315382264E+02 -0.52657148714E+01 -0.21596758427E+01  0.37746916518E+02  0.51100000000E-03 0.  1.
         23    2    1    0    0    0  0.16849821923E+02 -0.12189689757E+02 -0.20935495213E+02  0.95490679523E+02  0.90816682833E+02 0.  0.
         11    1    3    3    0    0  0.54165204186E+02 -0.69239748858E+01 -0.18775819370E+02  0.57743763006E+02  0.51100000000E-03 0. -1.
         22    1    1    0    0    0 -0.16849821923E+02  0.12189689757E+02  0.20935495213E+02  0.29509320477E+02  0.00000000000E+00 0. -1.
</event>
<event>
 5    1  0.3144657E-003  0.9118800E+02  0.7818608E-02  0.1130116E+00
         25   -1    0    0    0    0  0.00000000000E+00  0.00000000000E+00  0.99999998245E-14  0.12500000000E+03  0.12500000000E+03 0.  0.
        -11    1    3    3    0    0 -0.45898189399E+01 -0.11277936361E+02 -0.39336870271E+02  0.41178242428E+02  0.51100000000E-03 0.  1.
         23    2    1    0    0    0 -0.17880678912E+02 -0.19606052556E+02  0.12739381515E+02  0.95565193790E+02  0.90919186356E+02 0.  0.
         11    1    3    3    0    0 -0.13290859972E+02 -0.83281161960E+01  0.52076251786E+02  0.54386951363E+02  0.51100000000E-03 0. -1.
         22    1    1    0    0    0  0.17880678912E+02  0.19606052556E+02 -0.12739381515E+02  0.29434806210E+02  0.00000000000E+00 0. -1.
</event>
<event>
 5    1  0.3144657E-003  0.9118800E+02  0.7818608E-02  0.1130116E+00
         25   -1    0    0    0    0  0.00000000000E+00  0.00000000000E+00  0.99999998245E-14  0.12500000000E+03  0.12500000000E+03 0.  0.
        -11    1    3    3    0    0  0.55546423021E+01 -0.22210692094E+02  0.29016435616E+02  0.36961093470E+02  0.51100000000E-03 0.  1.
         23    2    1    0    0    0 -0.13790823750E+02 -0.35115003021E+01 -0.24389923031E+02  0.96761979539E+02  0.92549958859E+02 0.  0.
         11    1    3    3    0    0 -0.19345466052E+02  0.18699191792E+02 -0.53406358647E+02  0.59800886069E+02  0.51100000000E-03 0. -1.
         22    1    1    0    0    0  0.13790823750E+02  0.35115003021E+01  0.24389923031E+02  0.28238020461E+02  0.00000000000E+00 0. -1.
</event>
<event>
 5    1  0.3144657E-003  0.9118800E+02  0.7818608E-02  0.1130116E+00
         25   -1    0    0    0    0  0.00000000000E+00  0.00000000000E+00  0.99999998245E-14  0.12500000000E+03  0.12500000000E+03 0.  0.
        -11    1    3    3    0    0  0.12225807205E+02 -0.36834566347E+02 -0.32102667314E+02  0.50367021837E+02  0.51100000000E-03 0. -1.
         23    2    1    0    0    0  0.21061917369E+02  0.63724293591E+01 -0.17698047061E+02  0.96761142215E+02  0.92548827944E+02 0.  0.
         11    1    3    3    0    0  0.88361101641E+01  0.43206995706E+02  0.14404620253E+02  0.46394120378E+02  0.51100000000E-03 0.  1.
         22    1    1    0    0    0 -0.21061917369E+02 -0.63724293591E+01  0.17698047061E+02  0.28238857785E+02  0.00000000000E+00 0.  1.
</event>
<event>
 5    1  0.3144657E-003  0.9118800E+02  0.7818608E-02  0.1130116E+00
         25   -1    0    0    0    0  0.00000000000E+00  0.00000000000E+00  0.99999998245E-14  0.12500000000E+03  0.12500000000E+03 0.  0.
        -11    1    3    3    0    0 -0.27178574060E+02 -0.54511492330E+02 -0.48784375923E+01  0.61106274945E+02  0.51100000000E-03 0. -1.
         23    2    1    0    0    0 -0.91163454991E+01 -0.24939676470E+02 -0.10934473934E+02  0.96283141921E+02  0.91900954730E+02 0.  0.
         11    1    3    3    0    0  0.18062228561E+02  0.29571815860E+02 -0.60560363419E+01  0.35176866977E+02  0.51100000000E-03 0.  1.
         22    1    1    0    0    0  0.91163454991E+01  0.24939676470E+02  0.10934473934E+02  0.28716858079E+02  0.00000000000E+00 0. -1.
</event>
<event>
 5    1  0.3144657E-003  0.9118800E+02  0.7818608E-02  0.1130116E+00
         25   -1    0    0    0    0  0.00000000000E+00  0.00000000000E+00  0.99999998245E-14  0.12500000000E+03  0.12500000000E+03 0.  0.
        -11    1    3    3    0    0 -0.24375021945E+02  0.26649107232E+02 -0.26109474992E+02  0.44564798840E+02  0.51100000000E-03 0.  1.
         23    2    1    0    0    0 -0.73416378734E+01 -0.21137118152E+02 -0.18709375348E+02  0.95832927189E+02  0.91286536780E+02 0.  0.
         11    1    3    3    0    0  0.17033384072E+02 -0.47786225384E+02  0.74000996439E+01  0.51268128349E+02  0.51100000000E-03 0. -1.
         22    1    1    0    0    0  0.73416378734E+01  0.21137118152E+02  0.18709375348E+02  0.29167072811E+02  0.00000000000E+00 0.  1.
</event>
<event>
 5    1  0.3144657E-003  0.9118800E+02  0.7818608E-02  0.1130116E+00
         25   -1    0    0    0    0  0.00000000000E+00  0.00000000000E+00  0.99999998245E-14  0.12500000000E+03  0.12500000000E+03 0.  0.
        -11    1    3    3    0    0  0.26650587014E+02  0.30907124711E+02 -0.81015239301E+01  0.41606956586E+02  0.51100000000E-03 0. -1.
         23    2    1    0    0    0 -0.30656703328E+01 -0.90244573095E+01 -0.28159149805E+02  0.95271614876E+02  0.90514660244E+02 0.  0.
         11    1    3    3    0    0 -0.29716257347E+02 -0.39931582021E+02 -0.20057625875E+02  0.53664658290E+02  0.51100000000E-03 0.  1.
         22    1    1    0    0    0  0.30656703328E+01  0.90244573095E+01  0.28159149805E+02  0.29728385124E+02  0.00000000000E+00 0. -1.
</event>
<event>
 5    1  0.3144657E-003  0.9118800E+02  0.7818608E-02  0.1130116E+00
         25   -1    0    0    0    0  0.00000000000E+00  0.00000000000E+00  0.99999998245E-14  0.12500000000E+03  0.12500000000E+03 0.  0.
        -11    1    3    3    0    0 -0.21800871302E+02 -0.15498844671E+02 -0.44997745003E+02  0.52347771980E+02  0.51100000000E-03 0.  1.
         23    2    1    0    0    0 -0.11166524756E+02  0.18244057586E+02 -0.20434767219E+02  0.95417629852E+02  0.90716081611E+02 0.  0.
         11    1    3    3    0    0  0.10634346546E+02  0.33742902256E+02  0.24562977785E+02  0.43069857871E+02  0.51100000000E-03 0. -1.
         22    1    1    0    0    0  0.11166524756E+02 -0.18244057586E+02  0.20434767219E+02  0.29582370148E+02  0.00000000000E+00 0. -1.
</event>
<event>
 5    1  0.3144657E-003  0.9118800E+02  0.7818608E-02  0.1130116E+00
         25   -1    0    0    0    0  0.00000000000E+00  0.00000000000E+00  0.99999998245E-14  0.12500000000E+03  0.12500000000E+03 0.  0.
        -11    1    3    3    0    0 -0.58692062291E+01  0.10071694993E+02  0.60422494974E+02  0.61536692476E+02  0.51100000000E-03 0. -1.
         23    2    1    0    0    0  0.47313082228E+01  0.26864399796E+01  0.28694713081E+02  0.95794028075E+02  0.91233256101E+02 0.  0.
         11    1    3    3    0    0  0.10600514452E+02 -0.73852550139E+01 -0.31727781892E+02  0.34257335599E+02  0.51100000000E-03 0.  1.
         22    1    1    0    0    0 -0.47313082228E+01 -0.26864399796E+01 -0.28694713081E+02  0.29205971925E+02  0.00000000000E+00 0. -1.
</event>
<event>
 5    1  0.3144657E-003  0.9118800E+02  0.7818608E-02  0.1130116E+00
         25   -1    0    0    0    0  0.00000000000E+00  0.00000000000E+00  0.99999998245E-14  0.12500000000E+03  0.12500000000E+03 0.  0.
        -11    1    3    3    0    0 -0.50019707848E+02 -0.30199124169E+01  0.86005211246E+01  0.50843485405E+02  0.51100000000E-03 0.  1.
         23    2    1    0    0    0 -0.23604717709E+02 -0.20901277700E+02 -0.14568773511E+02  0.90268238322E+02  0.83319022921E+02 0.  0.
         11    1    3    3    0    0  0.26414990139E+02 -0.17881365283E+02 -0.23169294636E+02  0.39424752917E+02  0.51100000000E-03 0. -1.
         22    1    1    0    0    0  0.23604717709E+02  0.20901277700E+02  0.14568773511E+02  0.34731761678E+02  0.00000000000E+00 0. -1.
</event>
<event>
 5    1  0.3144657E-003  0.9118800E+02  0.7818608E-02  0.1130116E+00
         25   -1    0    0    0    0  0.00000000000E+00  0.00000000000E+00  0.99999998245E-14  0.12500000000E+03  0.12500000000E+03 0.  0.
        -11    1    3    3    0    0 -0.18491679417E+02  0.40456688390E+02 -0.38097175044E+02  0.58566889876E+02  0.51100000000E-03 0.  1.
         23    2    1    0    0    0 -0.17806994490E+01  0.26811259054E+02 -0.56337968474E+01  0.97545416239E+02  0.93602104996E+02 0.  0.
         11    1    3    3    0    0  0.16710979968E+02 -0.13645429336E+02  0.32463378197E+02  0.38978526363E+02  0.51100000000E-03 0. -1.
         22    1    1    0    0    0  0.17806994490E+01 -0.26811259054E+02  0.56337968474E+01  0.27454583761E+02  0.00000000000E+00 0.  1.
</event>
<event>
 5    1  0.3144657E-003  0.9118800E+02  0.7818608E-02  0.1130116E+00
         25   -1    0    0    0    0  0.00000000000E+00  0.00000000000E+00  0.99999998245E-14  0.12500000000E+03  0.12500000000E+03 0.  0.
        -11    1    3    3    0    0 -0.49247945237E+02 -0.75217711160E+01 -0.36701131192E+02  0.61878188256E+02  0.51100000000E-03 0.  1.
         23    2    1    0    0    0 -0.25839434246E+02  0.12915280571E+01 -0.14389816775E+02  0.95395756491E+02  0.90685936742E+02 0.  0.
         11    1    3    3    0    0  0.23408510991E+02  0.88132991731E+01  0.22311314417E+02  0.33517568235E+02  0.51100000000E-03 0. -1.
         22    1    1    0    0    0  0.25839434246E+02 -0.12915280571E+01  0.14389816775E+02  0.29604243509E+02  0.00000000000E+00 0.  1.
</event>
<event>
 5    1  0.3144657E-003  0.9118800E+02  0.7818608E-02  0.1130116E+00
         25   -1    0    0    0    0  0.00000000000E+00  0.00000000000E+00  0.99999998245E-14  0.12500000000E+03  0.12500000000E+03 0.  0.
        -11    1    3    3    0    0  0.21884930882E+02 -0.23832420805E+02  0.31037118628E+01  0.32504884382E+02  0.51100000000E-03 0. -1.
         23    2    1    0    0    0 -0.14013575538E+02  0.26659850879E+02 -0.28689415448E+01  0.94745103308E+02  0.89784607963E+02 0.  0.
         11    1    3    3    0    0 -0.35898506420E+02  0.50492271684E+02 -0.59726534076E+01  0.62240218926E+02  0.51100000000E-03 0.  1.
         22    1    1    0    0    0  0.14013575538E+02 -0.26659850879E+02  0.28689415448E+01  0.30254896692E+02  0.00000000000E+00 0.  1.
</event>
<event>
 5    1  0.3144657E-003  0.9118800E+02  0.7818608E-02  0.1130116E+00
         25   -1    0    0    0    0  0.00000000000E+00  0.00000000000E+00  0.99999998245E-14  0.12500000000E+03  0.12500000000E+03 0.  0.
        -11    1    3    3    0    0  0.54007223116E+02 -0.19620462266E+02  0.19255515189E+02  0.60601299933E+02  0.51100000000E-03 0.  1.
         23    2    1    0    0    0  0.28537783185E+02 -0.80520058841E+01 -0.13069111164E+01  0.95319233761E+02  0.90580397660E+02 0.  0.
         11    1    3    3    0    0 -0.25469439931E+02  0.11568456382E+02 -0.20562426305E+02  0.34717933828E+02  0.51100000000E-03 0. -1.
         22    1    1    0    0    0 -0.28537783185E+02  0.80520058841E+01  0.13069111164E+01  0.29680766239E+02  0.00000000000E+00 0.  1.
</event>
<event>
 5    1  0.3144657E-003  0.9118800E+02  0.7818608E-02  0.1130116E+00
         25   -1    0    0    0    0  0.00000000000E+00  0.00000000000E+00  0.99999998245E-14  0.12500000000E+03  0.12500000000E+03 0.  0.
        -11    1    3    3    0    0 -0.16758229815E+02  0.52812872402E+02 -0.59803827764E+01  0.55729729376E+02  0.51100000000E-03 0. -1.
         23    2    1    0    0    0 -0.22084709749E+02  0.16481335730E+02  0.98761829733E+01  0.95727012072E+02  0.91141390257E+02 0.  0.
         11    1    3    3    0    0 -0.53264799335E+01 -0.36331536672E+02  0.15856565750E+02  0.39997282696E+02  0.51100000000E-03 0.  1.
         22    1    1    0    0    0  0.22084709749E+02 -0.16481335730E+02 -0.98761829733E+01  0.29272987928E+02  0.00000000000E+00 0. -1.
</event>
<event>
 5    1  0.3144657E-003  0.9118800E+02  0.7818608E-02  0.1130116E+00
         25   -1    0    0    0    0  0.00000000000E+00  0.00000000000E+00  0.99999998245E-14  0.12500000000E+03  0.12500000000E+03 0.  0.
        -11    1    3    3    0    0 -0.37682595799E+02  0.20421635277E+02 -0.14504245226E+02  0.45248141878E+02  0.51100000000E-03 0. -1.
         23    2    1    0    0    0 -0.16675813532E+02 -0.67382761203E+01  0.22807329272E+02  0.95954150201E+02  0.91452378593E+02 0.  0.
         11    1    3    3    0    0  0.21006782268E+02 -0.27159911398E+02  0.37311574497E+02  0.50706008323E+02  0.51100000000E-03 0.  1.
         22    1    1    0    0    0  0.16675813532E+02  0.67382761203E+01 -0.22807329272E+02  0.29045849799E+02  0.00000000000E+00 0.  1.
</event>
<event>
 5    1  0.3144657E-003  0.9118800E+02  0.7818608E-02  0.1130116E+00
         25   -1    0    0    0    0  0.00000000000E+00  0.00000000000E+00  0.99999998245E-14  0.12500000000E+03  0.12500000000E+03 0.  0.
        -11    1    3    3    0    0 -0.58118897809E+01  0.60035618344E+02 -0.60055039459E+01  0.60614516501E+02  0.51100000000E-03 0. -1.
         23    2    1    0    0    0 -0.12760310113E+02  0.23974962405E+02  0.88025906930E-01  0.97840616998E+02  0.93995501220E+02 0.  0.
         11    1    3    3    0    0 -0.69484203316E+01 -0.36060655939E+02  0.60935298529E+01  0.37226100497E+02  0.51100000000E-03 0.  1.
         22    1    1    0    0    0  0.12760310113E+02 -0.23974962405E+02 -0.88025906930E-01  0.27159383002E+02  0.00000000000E+00 0. -1.
</event>
<event>
 5    1  0.3144657E-003  0.9118800E+02  0.7818608E-02  0.1130116E+00
         25   -1    0    0    0    0  0.00000000000E+00  0.00000000000E+00  0.99999998245E-14  0.12500000000E+03  0.12500000000E+03 0.  0.
        -11    1    3    3    0    0  0.35133373495E+02  0.18490745982E+01  0.12206013778E+02  0.37239223712E+02  0.51100000000E-03 0.  1.
         23    2    1    0    0    0 -0.23193664520E+02  0.12648188756E+02  0.10469222795E+02  0.96582973790E+02  0.92307873161E+02 0.  0.
         11    1    3    3    0    0 -0.58327038015E+02  0.10799114158E+02 -0.17367909833E+01  0.59343750079E+02  0.51100000000E-03 0. -1.
         22    1    1    0    0    0  0.23193664520E+02 -0.12648188756E+02 -0.10469222795E+02  0.28417026210E+02  0.00000000000E+00 0. -1.
</event>
<event>
 5    1  0.3144657E-003  0.9118800E+02  0.7818608E-02  0.1130116E+00
         25   -1    0    0    0    0  0.00000000000E+00  0.00000000000E+00  0.99999998245E-14  0.12500000000E+03  0.12500000000E+03 0.  0.
        -11    1    3    3    0    0  0.24488512040E+02  0.32261813339E+01 -0.49138923503E+02  0.54997538774E+02  0.51100000000E-03 0. -1.
         23    2    1    0    0    0  0.31159986258E+02 -0.58375353085E+01 -0.17047826281E+02  0.89004862232E+02  0.81401569751E+02 0.  0.
         11    1    3    3    0    0  0.66714742173E+01 -0.90637166424E+01  0.32091097222E+02  0.34007323458E+02  0.51100000000E-03 0.  1.
         22    1    1    0    0    0 -0.31159986258E+02  0.58375353085E+01  0.17047826281E+02  0.35995137768E+02  0.00000000000E+00 0. -1.
</event>
<event>
 5    1  0.3144657E-003  0.9118800E+02  0.7818608E-02  0.1130116E+00
         25   -1    0    0    0    0  0.00000000000E+00  0.00000000000E+00  0.99999998245E-14  0.12500000000E+03  0.12500000000E+03 0.  0.
        -11    1    3    3    0    0 -0.29220638811E+02  0.12640373480E+02 -0.27708477880E+02  0.42206451177E+02  0.51100000000E-03 0.  1.
         23    2    1    0    0    0  0.65957821235E+01  0.21197692595E+02  0.14701950119E+02  0.98373061564E+02  0.94700926031E+02 0.  0.
         11    1    3    3    0    0  0.35816420935E+02  0.85573191146E+01  0.42410428000E+02  0.56166610387E+02  0.51100000000E-03 0. -1.
         22    1    1    0    0    0 -0.65957821235E+01 -0.21197692595E+02 -0.14701950119E+02  0.26626938436E+02  0.00000000000E+00 0.  1.
</event>
<event>
 5    1  0.3144657E-003  0.9118800E+02  0.7818608E-02  0.1130116E+00
         25   -1    0    0    0    0  0.00000000000E+00  0.00000000000E+00  0.99999998245E-14  0.12500000000E+03  0.12500000000E+03 0.  0.
        -11    1    3    3    0    0 -0.21646750605E+02  0.23547898736E+02 -0.31137416318E+02  0.44638817658E+02  0.51100000000E-03 0.  1.
         23    2    1    0    0    0  0.15072886086E+02 -0.87891122830E+01 -0.25794650854E+02  0.93858317284E+02  0.88541398910E+02 0.  0.
         11    1    3    3    0    0  0.36719636691E+02 -0.32337011019E+02  0.53427654640E+01  0.49219499626E+02  0.51100000000E-03 0. -1.
         22    1    1    0    0    0 -0.15072886086E+02  0.87891122830E+01  0.25794650854E+02  0.31141682716E+02  0.00000000000E+00 0.  1.
</event>
<event>
 5    1  0.3144657E-003  0.9118800E+02  0.7818608E-02  0.1130116E+00
         25   -1    0    0    0    0  0.00000000000E+00  0.00000000000E+00  0.99999998245E-14  0.12500000000E+03  0.12500000000E+03 0.  0.
        -11    1    3    3    0    0 -0.38030441272E+02  0.14365699607E+02 -0.89199227142E+01  0.41620341302E+02  0.51100000000E-03 0.  1.
         23    2    1    0    0    0 -0.61468392484E+01 -0.28547010011E+02 -0.13370616759E+00  0.95798402601E+02  0.91239249506E+02 0.  0.
         11    1    3    3    0    0  0.31883602024E+02 -0.42912709618E+02  0.87862165467E+01  0.54178061300E+02  0.51100000000E-03 0. -1.
         22    1    1    0    0    0  0.61468392484E+01  0.28547010011E+02  0.13370616759E+00  0.29201597399E+02  0.00000000000E+00 0. -1.
</event>
<event>
 5    1  0.3144657E-003  0.9118800E+02  0.7818608E-02  0.1130116E+00
         25   -1    0    0    0    0  0.00000000000E+00  0.00000000000E+00  0.99999998245E-14  0.12500000000E+03  0.12500000000E+03 0.  0.
        -11    1    3    3    0    0  0.19862363726E+02 -0.44954579448E+01 -0.33836267375E+02  0.39491969121E+02  0.51100000000E-03 0. -1.
         23    2    1    0    0    0 -0.79137657201E+01 -0.26952846712E+02  0.92194012672E+01  0.95435139211E+02  0.90740204996E+02 0.  0.
         11    1    3    3    0    0 -0.27776129446E+02 -0.22457388768E+02  0.43055668642E+02  0.55943170090E+02  0.51100000000E-03 0.  1.
         22    1    1    0    0    0  0.79137657201E+01  0.26952846712E+02 -0.92194012672E+01  0.29564860789E+02  0.00000000000E+00 0.  1.
</event>
<event>
 5    1  0.3144657E-003  0.9118800E+02  0.7818608E-02  0.1130116E+00
         25   -1    0    0    0    0  0.00000000000E+00  0.00000000000E+00  0.99999998245E-14  0.12500000000E+03  0.12500000000E+03 0.  0.
        -11    1    3    3    0    0  0.26882721191E+02  0.12972358675E+02 -0.22361821351E+02  0.37296297974E+02  0.51100000000E-03 0.  1.
         23    2    1    0    0    0 -0.25191778840E+02 -0.10967717738E+02 -0.80293358033E+01  0.96375067040E+02  0.92025902658E+02 0.  0.
         11    1    3    3    0    0 -0.52074500031E+02 -0.23940076413E+02  0.14332485548E+02  0.59078769066E+02  0.51100000000E-03 0. -1.
         22    1    1    0    0    0  0.25191778840E+02  0.10967717738E+02  0.80293358033E+01  0.28624932960E+02  0.00000000000E+00 0. -1.
</event>
<event>
 5    1  0.3144657E-003  0.9118800E+02  0.7818608E-02  0.1130116E+00
         25   -1    0    0    0    0  0.00000000000E+00  0.00000000000E+00  0.99999998245E-14  0.12500000000E+03  0.12500000000E+03 0.  0.
        -11    1    3    3    0    0  0.34377472373E+02 -0.14463106771E+02 -0.34938692378E+02  0.51104836264E+02  0.51100000000E-03 0.  1.
         23    2    1    0    0    0  0.17409977634E+02 -0.22771367249E+02  0.55673334465E+01  0.95800039566E+02  0.91241492160E+02 0.  0.
         11    1    3    3    0    0 -0.16967494739E+02 -0.83082604782E+01  0.40506025825E+02  0.44695203302E+02  0.51100000000E-03 0. -1.
         22    1    1    0    0    0 -0.17409977634E+02  0.22771367249E+02 -0.55673334465E+01  0.29199960434E+02  0.00000000000E+00 0. -1.
</event>
<event>
 5    1  0.3144657E-003  0.9118800E+02  0.7818608E-02  0.1130116E+00
         25   -1    0    0    0    0  0.00000000000E+00  0.00000000000E+00  0.99999998245E-14  0.12500000000E+03  0.12500000000E+03 0.  0.
        -11    1    3    3    0    0 -0.47171351804E+02 -0.13199294192E+02  0.19802125244E+02  0.52834477026E+02  0.51100000000E-03 0.  1.
         23    2    1    0    0    0 -0.21273738041E+02  0.16956067287E+02  0.17504693112E+02  0.92650433867E+02  0.86819401442E+02 0.  0.
         11    1    3    3    0    0  0.25897613763E+02  0.30155361478E+02 -0.22974321321E+01  0.39815956841E+02  0.51100000000E-03 0. -1.
         22    1    1    0    0    0  0.21273738041E+02 -0.16956067287E+02 -0.17504693112E+02  0.32349566133E+02  0.00000000000E+00 0.  1.
</event>
<event>
 5    1  0.3144657E-003  0.9118800E+02  0.7818608E-02  0.1130116E+00
         25   -1    0    0    0    0  0.00000000000E+00  0.00000000000E+00  0.99999998245E-14  0.12500000000E+03  0.12500000000E+03 0.  0.
        -11    1    3    3    0    0 -0.21063561656E+02  0.23454361695E+01  0.26228260901E+02  0.33720859577E+02  0.51100000000E-03 0.  1.
         23    2    1    0    0    0 -0.50870342391E+01 -0.10657767465E+02 -0.29547976035E+02  0.93179427842E+02  0.87577719544E+02 0.  0.
         11    1    3    3    0    0  0.15976527417E+02 -0.13003203635E+02 -0.55776236936E+02  0.59458568265E+02  0.51100000000E-03 0. -1.
         22    1    1    0    0    0  0.50870342391E+01  0.10657767465E+02  0.29547976035E+02  0.31820572158E+02  0.00000000000E+00 0. -1.
</event>
<event>
 5    1  0.3144657E-003  0.9118800E+02  0.7818608E-02  0.1130116E+00
         25   -1    0    0    0    0  0.00000000000E+00  0.00000000000E+00  0.99999998245E-14  0.12500000000E+03  0.12500000000E+03 0.  0.
        -11    1    3    3    0    0  0.57333178529E+01 -0.26199068599E+02 -0.44003120807E+02  0.51531900509E+02  0.51100000000E-03 0. -1.
         23    2    1    0    0    0  0.23120335395E+02  0.42219460473E+01 -0.21285808118E+02  0.93291004992E+02  0.87736829484E+02 0.  0.
         11    1    3    3    0    0  0.17387017542E+02  0.30421014647E+02  0.22717312689E+02  0.41759104483E+02  0.51100000000E-03 0.  1.
         22    1    1    0    0    0 -0.23120335395E+02 -0.42219460473E+01  0.21285808118E+02  0.31708995008E+02  0.00000000000E+00 0. -1.
</event>
<event>
 5    1  0.3144657E-003  0.9118800E+02  0.7818608E-02  0.1130116E+00
         25   -1    0    0    0    0  0.00000000000E+00  0.00000000000E+00  0.99999998245E-14  0.12500000000E+03  0.12500000000E+03 0.  0.
        -11    1    3    3    0    0  0.37828572944E+02  0.33432794706E+02  0.10074224909E+02  0.51480507967E+02  0.51100000000E-03 0.  1.
         23    2    1    0    0    0  0.20495795476E+02 -0.12225052310E+02  0.53275129869E+01  0.10054776225E+03  0.97529178011E+02 0.  0.
         11    1    3    3    0    0 -0.17332777468E+02 -0.45657847016E+02 -0.47467119217E+01  0.49067254286E+02  0.51100000000E-03 0. -1.
         22    1    1    0    0    0 -0.20495795476E+02  0.12225052310E+02 -0.53275129869E+01  0.24452237746E+02  0.00000000000E+00 0.  1.
</event>
<event>
 5    1  0.3144657E-003  0.9118800E+02  0.7818608E-02  0.1130116E+00
         25   -1    0    0    0    0  0.00000000000E+00  0.00000000000E+00  0.99999998245E-14  0.12500000000E+03  0.12500000000E+03 0.  0.
        -11    1    3    3    0    0  0.21544561624E+02  0.39499490199E+02 -0.25522110898E+02  0.51727710238E+02  0.51100000000E-03 0. -1.
         23    2    1    0    0    0  0.28903449436E+02  0.10405407238E+02  0.42350093286E+01  0.93990046870E+02  0.88727175756E+02 0.  0.
         11    1    3    3    0    0  0.73588878121E+01 -0.29094082961E+02  0.29757120226E+02  0.42262336632E+02  0.51100000000E-03 0.  1.
         22    1    1    0    0    0 -0.28903449436E+02 -0.10405407238E+02 -0.42350093286E+01  0.31009953130E+02  0.00000000000E+00 0. -1.
</event>
<event>
 5    1  0.3144657E-003  0.9118800E+02  0.7818608E-02  0.1130116E+00
         25   -1    0    0    0    0  0.00000000000E+00  0.00000000000E+00  0.99999998245E-14  0.12500000000E+03  0.12500000000E+03 0.  0.
        -11    1    3    3    0    0 -0.18655249931E+02  0.92419455912E+01  0.31991741315E+02  0.38169404252E+02  0.51100000000E-03 0.  1.
         23    2    1    0    0    0  0.24885318138E+02 -0.11816004226E+02 -0.21450163425E+01  0.97368530445E+02  0.93365585797E+02 0.  0.
         11    1    3    3    0    0  0.43540568069E+02 -0.21057949818E+02 -0.34136757658E+02  0.59199126192E+02  0.51100000000E-03 0. -1.
         22    1    1    0    0    0 -0.24885318138E+02  0.11816004226E+02  0.21450163425E+01  0.27631469555E+02  0.00000000000E+00 0. -1.
</event>
<event>
 5    1  0.3144657E-003  0.9118800E+02  0.7818608E-02  0.1130116E+00
         25   -1    0    0    0    0  0.00000000000E+00  0.00000000000E+00  0.99999998245E-14  0.12500000000E+03  0.12500000000E+03 0.  0.
        -11    1    3    3    0    0 -0.17792779370E+02  0.21755221879E+01 -0.41885864207E+02  0.45560306354E+02  0.51100000000E-03 0. -1.
         23    2    1    0    0    0  0.19621993567E+02  0.18216575996E+02 -0.17494946051E+02  0.93016576014E+02  0.87344971254E+02 0.  0.
         11    1    3    3    0    0  0.37414772937E+02  0.16041053808E+02  0.24390918156E+02  0.47456269659E+02  0.51100000000E-03 0.  1.
         22    1    1    0    0    0 -0.19621993567E+02 -0.18216575996E+02  0.17494946051E+02  0.31983423986E+02  0.00000000000E+00 0.  1.
</event>
<event>
 5    1  0.3144657E-003  0.9118800E+02  0.7818608E-02  0.1130116E+00
         25   -1    0    0    0    0  0.00000000000E+00  0.00000000000E+00  0.99999998245E-14  0.12500000000E+03  0.12500000000E+03 0.  0.
        -11    1    3    3    0    0  0.29567236674E+00  0.27292082084E+02 -0.29377689772E+02  0.40099798294E+02  0.51100000000E-03 0.  1.
         23    2    1    0    0    0  0.24790820371E+02 -0.23665172345E+00  0.13608811939E+02  0.96718547754E+02  0.92491280338E+02 0.  0.
         11    1    3    3    0    0  0.24495148005E+02 -0.27528733807E+02  0.42986501711E+02  0.56618749460E+02  0.51100000000E-03 0. -1.
         22    1    1    0    0    0 -0.24790820371E+02  0.23665172345E+00 -0.13608811939E+02  0.28281452246E+02  0.00000000000E+00 0. -1.
</event>
<event>
 5    1  0.3144657E-003  0.9118800E+02  0.7818608E-02  0.1130116E+00
         25   -1    0    0    0    0  0.00000000000E+00  0.00000000000E+00  0.99999998245E-14  0.12500000000E+03  0.12500000000E+03 0.  0.
        -11    1    3    3    0    0  0.18505734507E+01 -0.26613167097E+02  0.25343057007E+02  0.36796138707E+02  0.51100000000E-03 0. -1.
         23    2    1    0    0    0 -0.24503937761E+02  0.11517323437E+02 -0.11078539424E+02  0.95745500505E+02  0.91166743532E+02 0.  0.
         11    1    3    3    0    0 -0.26354511211E+02  0.38130490534E+02 -0.36421596431E+02  0.58949361798E+02  0.51100000000E-03 0.  1.
         22    1    1    0    0    0  0.24503937761E+02 -0.11517323437E+02  0.11078539424E+02  0.29254499495E+02  0.00000000000E+00 0.  1.
</event>
<event>
 5    1  0.3144657E-003  0.9118800E+02  0.7818608E-02  0.1130116E+00
         25   -1    0    0    0    0  0.00000000000E+00  0.00000000000E+00  0.99999998245E-14  0.12500000000E+03  0.12500000000E+03 0.  0.
        -11    1    3    3    0    0  0.59350752348E+01  0.21786251347E+02  0.29133873232E+02  0.36859848556E+02  0.51100000000E-03 0.  1.
         23    2    1    0    0    0 -0.15802003262E+02  0.13304868424E+01 -0.23076398765E+02  0.97000112816E+02  0.92871029951E+02 0.  0.
         11    1    3    3    0    0 -0.21737078497E+02 -0.20455764505E+02 -0.52210271997E+02  0.60140264260E+02  0.51100000000E-03 0. -1.
         22    1    1    0    0    0  0.15802003262E+02 -0.13304868424E+01  0.23076398765E+02  0.27999887184E+02  0.00000000000E+00 0. -1.
</event>
<event>
 5    1  0.3144657E-003  0.9118800E+02  0.7818608E-02  0.1130116E+00
         25   -1    0    0    0    0  0.00000000000E+00  0.00000000000E+00  0.99999998245E-14  0.12500000000E+03  0.12500000000E+03 0.  0.
        -11    1    3    3    0    0  0.21791271159E+02  0.15289787570E+02  0.26242946269E+02  0.37380868526E+02  0.51100000000E-03 0.  1.
         23    2    1    0    0    0 -0.60323142760E+01  0.63544282728E+01 -0.26176655479E+02  0.97395926636E+02  0.93402257248E+02 0.  0.
         11    1    3    3    0    0 -0.27823585435E+02 -0.89353592973E+01 -0.52419601748E+02  0.60015058110E+02  0.51100000000E-03 0. -1.
         22    1    1    0    0    0  0.60323142760E+01 -0.63544282728E+01  0.26176655479E+02  0.27604073364E+02  0.00000000000E+00 0. -1.
</event>
<event>
 5    1  0.3144657E-003  0.9118800E+02  0.7818608E-02  0.1130116E+00
         25   -1    0    0    0    0  0.00000000000E+00  0.00000000000E+00  0.99999998245E-14  0.12500000000E+03  0.12500000000E+03 0.  0.
        -11    1    3    3    0    0 -0.62329779869E+01 -0.45983644226E+02  0.19593312360E+02  0.50371057567E+02  0.51100000000E-03 0.  1.
         23    2    1    0    0    0  0.11651607350E+02 -0.42382052303E+01  0.25960814130E+02  0.96230463895E+02  0.91829276234E+02 0.  0.
         11    1    3    3    0    0  0.17884585337E+02  0.41745438996E+02  0.63675017703E+01  0.45859406328E+02  0.51100000000E-03 0. -1.
         22    1    1    0    0    0 -0.11651607350E+02  0.42382052303E+01 -0.25960814130E+02  0.28769536105E+02  0.00000000000E+00 0.  1.
</event>
<event>
 5    1  0.3144657E-003  0.9118800E+02  0.7818608E-02  0.1130116E+00
         25   -1    0    0    0    0  0.00000000000E+00  0.00000000000E+00  0.99999998245E-14  0.12500000000E+03  0.12500000000E+03 0.  0.
        -11    1    3    3    0    0 -0.27294992252E+02  0.18572755664E+02  0.98721382277E+01  0.34459004170E+02  0.51100000000E-03 0.  1.
         23    2    1    0    0    0  0.16988724433E+02 -0.23253506518E+02  0.65675227970E+01  0.95462317645E+02  0.90777637176E+02 0.  0.
         11    1    3    3    0    0  0.44283716685E+02 -0.41826262181E+02 -0.33046154308E+01  0.61003313474E+02  0.51100000000E-03 0. -1.
         22    1    1    0    0    0 -0.16988724433E+02  0.23253506518E+02 -0.65675227970E+01  0.29537682355E+02  0.00000000000E+00 0. -1.
</event>
<event>
 5    1  0.3144657E-003  0.9118800E+02  0.7818608E-02  0.1130116E+00
         25   -1    0    0    0    0  0.00000000000E+00  0.00000000000E+00  0.99999998245E-14  0.12500000000E+03  0.12500000000E+03 0.  0.
        -11    1    3    3    0    0 -0.38478328814E+01 -0.32351296365E+02 -0.19202729802E+02  0.37817416972E+02  0.51100000000E-03 0.  1.
         23    2    1    0    0    0 -0.38222012114E+01  0.25849755437E+02 -0.11215540067E+02  0.96563976768E+02  0.92282144492E+02 0.  0.
         11    1    3    3    0    0  0.25631669907E-01  0.58201051801E+02  0.79871897351E+01  0.58746559796E+02  0.51100000000E-03 0. -1.
         22    1    1    0    0    0  0.38222012114E+01 -0.25849755437E+02  0.11215540067E+02  0.28436023232E+02  0.00000000000E+00 0. -1.
</event>
<event>
 5    1  0.3144657E-003  0.9118800E+02  0.7818608E-02  0.1130116E+00
         25   -1    0    0    0    0  0.00000000000E+00  0.00000000000E+00  0.99999998245E-14  0.12500000000E+03  0.12500000000E+03 0.  0.
        -11    1    3    3    0    0 -0.35666714785E+02  0.12452067739E+02 -0.51308988306E+01  0.38124725017E+02  0.51100000000E-03 0.  1.
         23    2    1    0    0    0  0.11037173017E+02 -0.80386217576E+01 -0.27869590817E+02  0.93965298128E+02  0.88692302552E+02 0.  0.
         11    1    3    3    0    0  0.46703887802E+02 -0.20490689497E+02 -0.22738691987E+02  0.55840573111E+02  0.51100000000E-03 0. -1.
         22    1    1    0    0    0 -0.11037173017E+02  0.80386217576E+01  0.27869590817E+02  0.31034701872E+02  0.00000000000E+00 0. -1.
</event>
<event>
 4    1  0.3144657E-003  0.9118800E+02  0.7818608E-02  0.1130116E+00
         25   -1    0    0    0    0  0.00000000000E+00  0.00000000000E+00  0.99999998245E-14  0.12500000000E+03  0.12500000000E+03 0.  0.
        -11    1    1    0    0    0  0.17379221607E+01 -0.68872838279E+01 -0.69922002458E+01  0.99672421713E+01  0.51100000000E-03 0. -1.
         11    1    1    0    0    0 -0.17056335554E+02  0.98658694431E+01  0.58228823173E+02  0.61472349969E+02  0.51100000000E-03 0.  1.
         22    1    1    0    0    0  0.15318413393E+02 -0.29785856152E+01 -0.51236622927E+02  0.53560407860E+02  0.00000000000E+00 0.  1.
</event>
<event>
 5    1  0.3144657E-003  0.9118800E+02  0.7818608E-02  0.1130116E+00
         25   -1    0    0    0    0  0.00000000000E+00  0.00000000000E+00  0.99999998245E-14  0.12500000000E+03  0.12500000000E+03 0.  0.
        -11    1    3    3    0    0 -0.41682294011E+01  0.32051698666E+02  0.33336685624E+02  0.46432963855E+02  0.51100000000E-03 0. -1.
         23    2    1    0    0    0  0.32748555455E+00 -0.16258285457E+02  0.24261033253E+02  0.95793205803E+02  0.91232129487E+02 0.  0.
         11    1    3    3    0    0  0.44957149556E+01 -0.48309984123E+02 -0.90756523719E+01  0.49360241948E+02  0.51100000000E-03 0.  1.
         22    1    1    0    0    0 -0.32748555455E+00  0.16258285457E+02 -0.24261033253E+02  0.29206794197E+02  0.00000000000E+00 0.  1.
</event>
<event>
 5    1  0.3144657E-003  0.9118800E+02  0.7818608E-02  0.1130116E+00
         25   -1    0    0    0    0  0.00000000000E+00  0.00000000000E+00  0.99999998245E-14  0.12500000000E+03  0.12500000000E+03 0.  0.
        -11    1    3    3    0    0 -0.24740247053E+02 -0.20366682662E+02  0.22897808884E+02  0.39385165213E+02  0.51100000000E-03 0. -1.
         23    2    1    0    0    0  0.70786780655E+01 -0.37821018367E+02  0.29805559670E+02  0.76328565866E+02  0.58797461394E+02 0.  0.
         11    1    3    3    0    0  0.31818925119E+02 -0.17454335705E+02  0.69077507867E+01  0.36943400653E+02  0.51100000000E-03 0.  1.
         22    1    1    0    0    0 -0.70786780655E+01  0.37821018367E+02 -0.29805559670E+02  0.48671434134E+02  0.00000000000E+00 0.  1.
</event>
<event>
 5    1  0.3144657E-003  0.9118800E+02  0.7818608E-02  0.1130116E+00
         25   -1    0    0    0    0  0.00000000000E+00  0.00000000000E+00  0.99999998245E-14  0.12500000000E+03  0.12500000000E+03 0.  0.
        -11    1    3    3    0    0 -0.37438038853E+02  0.66552776543E+01 -0.26239599485E+02  0.46199740857E+02  0.51100000000E-03 0.  1.
         23    2    1    0    0    0 -0.16444470233E+02  0.15020155811E+02  0.18319589887E+02  0.96161951254E+02  0.91735967938E+02 0.  0.
         11    1    3    3    0    0  0.20993568620E+02  0.83648781568E+01  0.44559189373E+02  0.49962210397E+02  0.51100000000E-03 0. -1.
         22    1    1    0    0    0  0.16444470233E+02 -0.15020155811E+02 -0.18319589887E+02  0.28838048746E+02  0.00000000000E+00 0. -1.
</event>
<event>
 5    1  0.3144657E-003  0.9118800E+02  0.7818608E-02  0.1130116E+00
         25   -1    0    0    0    0  0.00000000000E+00  0.00000000000E+00  0.99999998245E-14  0.12500000000E+03  0.12500000000E+03 0.  0.
        -11    1    3    3    0    0  0.16359447055E+02  0.39186789889E+02 -0.19408681493E+02  0.46689751844E+02  0.51100000000E-03 0.  1.
         23    2    1    0    0    0  0.23670160981E+02  0.45726772310E+01  0.15458505468E+02  0.96361716371E+02  0.92007766481E+02 0.  0.
         11    1    3    3    0    0  0.73107139257E+01 -0.34614112658E+02  0.34867186960E+02  0.49671964527E+02  0.51100000000E-03 0. -1.
         22    1    1    0    0    0 -0.23670160981E+02 -0.45726772310E+01 -0.15458505468E+02  0.28638283629E+02  0.00000000000E+00 0. -1.
</event>
<event>
 5    1  0.3144657E-003  0.9118800E+02  0.7818608E-02  0.1130116E+00
         25   -1    0    0    0    0  0.00000000000E+00  0.00000000000E+00  0.99999998245E-14  0.12500000000E+03  0.12500000000E+03 0.  0.
        -11    1    3    3    0    0 -0.58253662204E+01 -0.61333432704E+01 -0.36050547422E+02  0.37029647055E+02  0.51100000000E-03 0.  1.
         23    2    1    0    0    0 -0.23137970216E+02  0.15317033306E+02  0.13811765937E+02  0.94004160710E+02  0.88747057289E+02 0.  0.
         11    1    3    3    0    0 -0.17312603995E+02  0.21450376577E+02  0.49862313360E+02  0.56974513655E+02  0.51100000000E-03 0. -1.
         22    1    1    0    0    0  0.23137970216E+02 -0.15317033306E+02 -0.13811765937E+02  0.30995839290E+02  0.00000000000E+00 0. -1.
</event>
<event>
 5    1  0.3144657E-003  0.9118800E+02  0.7818608E-02  0.1130116E+00
         25   -1    0    0    0    0  0.00000000000E+00  0.00000000000E+00  0.99999998245E-14  0.12500000000E+03  0.12500000000E+03 0.  0.
        -11    1    3    3    0    0  0.30420951726E+02  0.10141055342E+02  0.10939241125E+02  0.33881297260E+02  0.51100000000E-03 0. -1.
         23    2    1    0    0    0 -0.22343852653E+02 -0.18609387719E+02 -0.35862713090E+01  0.95701221791E+02  0.91106012138E+02 0.  0.
         11    1    3    3    0    0 -0.52764804379E+02 -0.28750443060E+02 -0.14525512434E+02  0.61819924531E+02  0.51100000000E-03 0.  1.
         22    1    1    0    0    0  0.22343852653E+02  0.18609387719E+02  0.35862713090E+01  0.29298778209E+02  0.00000000000E+00 0.  1.
</event>
<event>
 5    1  0.3144657E-003  0.9118800E+02  0.7818608E-02  0.1130116E+00
         25   -1    0    0    0    0  0.00000000000E+00  0.00000000000E+00  0.99999998245E-14  0.12500000000E+03  0.12500000000E+03 0.  0.
        -11    1    3    3    0    0  0.29600000459E+02  0.25519210781E+02  0.12044442418E+02  0.40895705636E+02  0.51100000000E-03 0. -1.
         23    2    1    0    0    0 -0.23859198162E+02  0.11679600133E+02  0.11325530118E+02  0.96121945552E+02  0.91681439714E+02 0.  0.
         11    1    3    3    0    0 -0.53459198621E+02 -0.13839610648E+02 -0.71891229963E+00  0.55226239916E+02  0.51100000000E-03 0.  1.
         22    1    1    0    0    0  0.23859198162E+02 -0.11679600133E+02 -0.11325530118E+02  0.28878054448E+02  0.00000000000E+00 0.  1.
</event>
<event>
 5    1  0.3144657E-003  0.9118800E+02  0.7818608E-02  0.1130116E+00
         25   -1    0    0    0    0  0.00000000000E+00  0.00000000000E+00  0.99999998245E-14  0.12500000000E+03  0.12500000000E+03 0.  0.
        -11    1    3    3    0    0 -0.11316563683E+02  0.49473850500E+02  0.33112553196E+00  0.50752695901E+02  0.51100000000E-03 0.  1.
         23    2    1    0    0    0  0.21308874656E+02  0.18717210748E+02  0.61875285021E+01  0.95970917578E+02  0.91475293903E+02 0.  0.
         11    1    3    3    0    0  0.32625438339E+02 -0.30756639752E+02  0.58564029701E+01  0.45218221677E+02  0.51100000000E-03 0. -1.
         22    1    1    0    0    0 -0.21308874656E+02 -0.18717210748E+02 -0.61875285021E+01  0.29029082422E+02  0.00000000000E+00 0.  1.
</event>
<event>
 5    1  0.3144657E-003  0.9118800E+02  0.7818608E-02  0.1130116E+00
         25   -1    0    0    0    0  0.00000000000E+00  0.00000000000E+00  0.99999998245E-14  0.12500000000E+03  0.12500000000E+03 0.  0.
        -11    1    3    3    0    0 -0.20225142060E+01 -0.31636829932E+02  0.12979258544E+02  0.34255521080E+02  0.51100000000E-03 0. -1.
         23    2    1    0    0    0  0.21538772978E+02  0.46824076201E+01 -0.24875604022E+02  0.91763884734E+02  0.85533450670E+02 0.  0.
         11    1    3    3    0    0  0.23561287184E+02  0.36319237552E+02 -0.37854862565E+02  0.57508363654E+02  0.51100000000E-03 0.  1.
         22    1    1    0    0    0 -0.21538772978E+02 -0.46824076201E+01  0.24875604022E+02  0.33236115266E+02  0.00000000000E+00 0.  1.
</event>
<event>
 5    1  0.3144657E-003  0.9118800E+02  0.7818608E-02  0.1130116E+00
         25   -1    0    0    0    0  0.00000000000E+00  0.00000000000E+00  0.99999998245E-14  0.12500000000E+03  0.12500000000E+03 0.  0.
        -11    1    3    3    0    0 -0.19689579863E+02  0.29350319543E+02 -0.20724843552E+02  0.40971208830E+02  0.51100000000E-03 0.  1.
         23    2    1    0    0    0  0.16013134044E+02  0.14941681485E+02  0.18791247249E+02  0.96141980652E+02  0.91708751834E+02 0.  0.
         11    1    3    3    0    0  0.35702713906E+02 -0.14408638058E+02  0.39516090802E+02  0.55170771822E+02  0.51100000000E-03 0. -1.
         22    1    1    0    0    0 -0.16013134044E+02 -0.14941681485E+02 -0.18791247249E+02  0.28858019348E+02  0.00000000000E+00 0. -1.
</event>
<event>
 5    1  0.3144657E-003  0.9118800E+02  0.7818608E-02  0.1130116E+00
         25   -1    0    0    0    0  0.00000000000E+00  0.00000000000E+00  0.99999998245E-14  0.12500000000E+03  0.12500000000E+03 0.  0.
        -11    1    3    3    0    0  0.87280989109E+01 -0.13266405046E+02  0.30896573268E+02  0.34738673743E+02  0.51100000000E-03 0. -1.
         23    2    1    0    0    0 -0.57517295001E+01  0.26628693467E+02 -0.12133203360E+02  0.95177452628E+02  0.90384529411E+02 0.  0.
         11    1    3    3    0    0 -0.14479828411E+02  0.39895098513E+02 -0.43029776628E+02  0.60438778885E+02  0.51100000000E-03 0.  1.
         22    1    1    0    0    0  0.57517295001E+01 -0.26628693467E+02  0.12133203360E+02  0.29822547372E+02  0.00000000000E+00 0.  1.
</event>
<event>
 5    1  0.3144657E-003  0.9118800E+02  0.7818608E-02  0.1130116E+00
         25   -1    0    0    0    0  0.00000000000E+00  0.00000000000E+00  0.99999998245E-14  0.12500000000E+03  0.12500000000E+03 0.  0.
        -11    1    3    3    0    0  0.18979382206E+02  0.43903254623E+02  0.14263512465E+02  0.49911526760E+02  0.51100000000E-03 0.  1.
         23    2    1    0    0    0 -0.18040718877E+01  0.63658429303E+01  0.28981647541E+02  0.95272663662E+02  0.90516108597E+02 0.  0.
         11    1    3    3    0    0 -0.20783454094E+02 -0.37537411693E+02  0.14718135075E+02  0.45361136902E+02  0.51100000000E-03 0. -1.
         22    1    1    0    0    0  0.18040718877E+01 -0.63658429303E+01 -0.28981647541E+02  0.29727336338E+02  0.00000000000E+00 0. -1.
</event>
<event>
 5    1  0.3144657E-003  0.9118800E+02  0.7818608E-02  0.1130116E+00
         25   -1    0    0    0    0  0.00000000000E+00  0.00000000000E+00  0.99999998245E-14  0.12500000000E+03  0.12500000000E+03 0.  0.
        -11    1    3    3    0    0  0.97499658866E+01  0.19832841500E+02 -0.50334157682E+02  0.54972091706E+02  0.51100000000E-03 0.  1.
         23    2    1    0    0    0  0.86468187510E+01  0.24003390543E+02 -0.69680545606E+01  0.98552239860E+02  0.94937136912E+02 0.  0.
         11    1    3    3    0    0 -0.11031471356E+01  0.41705490426E+01  0.43366103121E+02  0.43580148154E+02  0.51100000000E-03 0. -1.
         22    1    1    0    0    0 -0.86468187510E+01 -0.24003390543E+02  0.69680545606E+01  0.26447760140E+02  0.00000000000E+00 0.  1.
</event>
<event>
 5    1  0.3144657E-003  0.9118800E+02  0.7818608E-02  0.1130116E+00
         25   -1    0    0    0    0  0.00000000000E+00  0.00000000000E+00  0.99999998245E-14  0.12500000000E+03  0.12500000000E+03 0.  0.
        -11    1    3    3    0    0 -0.80426789373E+01 -0.34040980288E+02  0.15757155513E+02  0.38363537032E+02  0.51100000000E-03 0.  1.
         23    2    1    0    0    0  0.23955326354E+02  0.13481572966E+02  0.91222326570E+01  0.96037513936E+02  0.91566251883E+02 0.  0.
         11    1    3    3    0    0  0.31998005292E+02  0.47522553254E+02 -0.66349228563E+01  0.57673976904E+02  0.51100000000E-03 0. -1.
         22    1    1    0    0    0 -0.23955326354E+02 -0.13481572966E+02 -0.91222326570E+01  0.28962486064E+02  0.00000000000E+00 0. -1.
</event>
<event>
 5    1  0.3144657E-003  0.9118800E+02  0.7818608E-02  0.1130116E+00
         25   -1    0    0    0    0  0.00000000000E+00  0.00000000000E+00  0.99999998245E-14  0.12500000000E+03  0.12500000000E+03 0.  0.
        -11    1    3    3    0    0  0.30041722391E+01 -0.15465749048E+02  0.38963361211E+02  0.42028061597E+02  0.51100000000E-03 0.  1.
         23    2    1    0    0    0  0.18857124345E+02  0.22860634313E+02  0.65916671518E+01  0.94641314001E+02  0.89639993865E+02 0.  0.
         11    1    3    3    0    0  0.15852952106E+02  0.38326383361E+02 -0.32371694059E+02  0.52613252404E+02  0.51100000000E-03 0. -1.
         22    1    1    0    0    0 -0.18857124345E+02 -0.22860634313E+02 -0.65916671518E+01  0.30358685999E+02  0.00000000000E+00 0. -1.
</event>
<event>
 5    1  0.3144657E-003  0.9118800E+02  0.7818608E-02  0.1130116E+00
         25   -1    0    0    0    0  0.00000000000E+00  0.00000000000E+00  0.99999998245E-14  0.12500000000E+03  0.12500000000E+03 0.  0.
        -11    1    3    3    0    0 -0.54502272034E+01  0.37062562167E+02  0.15330618744E+02  0.40476738533E+02  0.51100000000E-03 0.  1.
         23    2    1    0    0    0  0.48467779442E+01  0.22334279819E+01 -0.27702651948E+02  0.96788009961E+02  0.92585109441E+02 0.  0.
         11    1    3    3    0    0  0.10297005148E+02 -0.34829134185E+02 -0.43033270693E+02  0.56311271428E+02  0.51100000000E-03 0. -1.
         22    1    1    0    0    0 -0.48467779442E+01 -0.22334279819E+01  0.27702651948E+02  0.28211990039E+02  0.00000000000E+00 0. -1.
</event>
<event>
 5    1  0.3144657E-003  0.9118800E+02  0.7818608E-02  0.1130116E+00
         25   -1    0    0    0    0  0.00000000000E+00  0.00000000000E+00  0.99999998245E-14  0.12500000000E+03  0.12500000000E+03 0.  0.
        -11    1    3    3    0    0 -0.28748108689E+02 -0.20456442285E+01 -0.46897642221E+02  0.55045683388E+02  0.51100000000E-03 0. -1.
         23    2    1    0    0    0  0.27826932204E+01 -0.14226226821E+02 -0.27227520603E+02  0.94154144698E+02  0.88958058513E+02 0.  0.
         11    1    3    3    0    0  0.31530801910E+02 -0.12180582592E+02  0.19670121617E+02  0.39108461310E+02  0.51100000000E-03 0.  1.
         22    1    1    0    0    0 -0.27826932204E+01  0.14226226821E+02  0.27227520603E+02  0.30845855302E+02  0.00000000000E+00 0. -1.
</event>
<event>
 5    1  0.3144657E-003  0.9118800E+02  0.7818608E-02  0.1130116E+00
         25   -1    0    0    0    0  0.00000000000E+00  0.00000000000E+00  0.99999998245E-14  0.12500000000E+03  0.12500000000E+03 0.  0.
        -11    1    3    3    0    0  0.12339087812E+02 -0.29392506439E+02 -0.13939407298E+02  0.34791947328E+02  0.51100000000E-03 0. -1.
         23    2    1    0    0    0 -0.14525862898E+02  0.23400867610E+02  0.50524445591E+01  0.96997705561E+02  0.92867789843E+02 0.  0.
         11    1    3    3    0    0 -0.26864950710E+02  0.52793374049E+02  0.18991851857E+02  0.62205758233E+02  0.51100000000E-03 0.  1.
         22    1    1    0    0    0  0.14525862898E+02 -0.23400867610E+02 -0.50524445591E+01  0.28002294439E+02  0.00000000000E+00 0.  1.
</event>
<event>
 5    1  0.3144657E-003  0.9118800E+02  0.7818608E-02  0.1130116E+00
         25   -1    0    0    0    0  0.00000000000E+00  0.00000000000E+00  0.99999998245E-14  0.12500000000E+03  0.12500000000E+03 0.  0.
        -11    1    3    3    0    0  0.35312314519E+02  0.45466175142E+02  0.10970866556E+02  0.58604543783E+02  0.51100000000E-03 0.  1.
         23    2    1    0    0    0  0.93694734822E+01  0.24264953139E+02 -0.88404377352E+01  0.97527680777E+02  0.93578417352E+02 0.  0.
         11    1    3    3    0    0 -0.25942841037E+02 -0.21201222003E+02 -0.19811304291E+02  0.38923136994E+02  0.51100000000E-03 0. -1.
         22    1    1    0    0    0 -0.93694734822E+01 -0.24264953139E+02  0.88404377352E+01  0.27472319223E+02  0.00000000000E+00 0.  1.
</event>
<event>
 5    1  0.3144657E-003  0.9118800E+02  0.7818608E-02  0.1130116E+00
         25   -1    0    0    0    0  0.00000000000E+00  0.00000000000E+00  0.99999998245E-14  0.12500000000E+03  0.12500000000E+03 0.  0.
        -11    1    3    3    0    0  0.34829969926E+02  0.41318675932E+02 -0.70072686309E+01  0.54492766490E+02  0.51100000000E-03 0. -1.
         23    2    1    0    0    0  0.21755099838E+02  0.12348333110E+02  0.17367133748E+02  0.94547035708E+02  0.89508429363E+02 0.  0.
         11    1    3    3    0    0 -0.13074870088E+02 -0.28970342821E+02  0.24374402379E+02  0.40054269218E+02  0.51100000000E-03 0.  1.
         22    1    1    0    0    0 -0.21755099838E+02 -0.12348333110E+02 -0.17367133748E+02  0.30452964292E+02  0.00000000000E+00 0.  1.
</event>
<event>
 5    1  0.3144657E-003  0.9118800E+02  0.7818608E-02  0.1130116E+00
         25   -1    0    0    0    0  0.00000000000E+00  0.00000000000E+00  0.99999998245E-14  0.12500000000E+03  0.12500000000E+03 0.  0.
        -11    1    3    3    0    0  0.35438197535E+02  0.38287355045E+02  0.16322726551E+02  0.54664602836E+02  0.51100000000E-03 0.  1.
         23    2    1    0    0    0 -0.32664482264E+00  0.20147147209E+02  0.22000183341E+02  0.95166758397E+02  0.90369738293E+02 0.  0.
         11    1    3    3    0    0 -0.35764842358E+02 -0.18140207836E+02  0.56774567906E+01  0.40502155561E+02  0.51100000000E-03 0. -1.
         22    1    1    0    0    0  0.32664482264E+00 -0.20147147209E+02 -0.22000183341E+02  0.29833241603E+02  0.00000000000E+00 0.  1.
</event>
<event>
 5    1  0.3144657E-003  0.9118800E+02  0.7818608E-02  0.1130116E+00
         25   -1    0    0    0    0  0.00000000000E+00  0.00000000000E+00  0.99999998245E-14  0.12500000000E+03  0.12500000000E+03 0.  0.
        -11    1    3    3    0    0 -0.24863547239E+02  0.12912637162E+02  0.21260376526E+02  0.35170097953E+02  0.51100000000E-03 0.  1.
         23    2    1    0    0    0  0.27698050766E+02 -0.10601770359E+02  0.84925311513E+01  0.94150321941E+02  0.88952686779E+02 0.  0.
         11    1    3    3    0    0  0.52561598005E+02 -0.23514407521E+02 -0.12767845374E+02  0.58980223988E+02  0.51100000000E-03 0. -1.
         22    1    1    0    0    0 -0.27698050766E+02  0.10601770359E+02 -0.84925311513E+01  0.30849678059E+02  0.00000000000E+00 0. -1.
</event>
<event>
 5    1  0.3144657E-003  0.9118800E+02  0.7818608E-02  0.1130116E+00
         25   -1    0    0    0    0  0.00000000000E+00  0.00000000000E+00  0.99999998245E-14  0.12500000000E+03  0.12500000000E+03 0.  0.
        -11    1    3    3    0    0  0.66888369825E+01  0.37437911358E+02  0.12574212539E+02  0.40055568505E+02  0.51100000000E-03 0.  1.
         23    2    1    0    0    0 -0.15288120162E+02  0.48166701069E+01 -0.25553298949E+02  0.94835484155E+02  0.89910350008E+02 0.  0.
         11    1    3    3    0    0 -0.21976957145E+02 -0.32621241251E+02 -0.38127511488E+02  0.54779915650E+02  0.51100000000E-03 0. -1.
         22    1    1    0    0    0  0.15288120162E+02 -0.48166701069E+01  0.25553298949E+02  0.30164515845E+02  0.00000000000E+00 0. -1.
</event>
<event>
 5    1  0.3144657E-003  0.9118800E+02  0.7818608E-02  0.1130116E+00
         25   -1    0    0    0    0  0.00000000000E+00  0.00000000000E+00  0.99999998245E-14  0.12500000000E+03  0.12500000000E+03 0.  0.
        -11    1    3    3    0    0  0.44317532884E+02  0.42561671416E+01 -0.35515409479E+02  0.56951760204E+02  0.51100000000E-03 0. -1.
         23    2    1    0    0    0  0.10588875917E+02  0.15418214939E+02 -0.24556985395E+02  0.94131064534E+02  0.88925621356E+02 0.  0.
         11    1    3    3    0    0 -0.33728656967E+02  0.11162047798E+02  0.10958424084E+02  0.37179304330E+02  0.51100000000E-03 0.  1.
         22    1    1    0    0    0 -0.10588875917E+02 -0.15418214939E+02  0.24556985395E+02  0.30868935466E+02  0.00000000000E+00 0. -1.
</event>
<event>
 5    1  0.3144657E-003  0.9118800E+02  0.7818608E-02  0.1130116E+00
         25   -1    0    0    0    0  0.00000000000E+00  0.00000000000E+00  0.99999998245E-14  0.12500000000E+03  0.12500000000E+03 0.  0.
        -11    1    3    3    0    0  0.14336531644E+02  0.23932668814E+02  0.36280188394E+02  0.45766372440E+02  0.51100000000E-03 0. -1.
         23    2    1    0    0    0 -0.24804570920E+02  0.94795869443E+00  0.15892943122E+02  0.95525417640E+02  0.90864483766E+02 0.  0.
         11    1    3    3    0    0 -0.39141102564E+02 -0.22984710120E+02 -0.20387245272E+02  0.49759045200E+02  0.51100000000E-03 0.  1.
         22    1    1    0    0    0  0.24804570920E+02 -0.94795869443E+00 -0.15892943122E+02  0.29474582360E+02  0.00000000000E+00 0.  1.
</event>
<event>
 5    1  0.3144657E-003  0.9118800E+02  0.7818608E-02  0.1130116E+00
         25   -1    0    0    0    0  0.00000000000E+00  0.00000000000E+00  0.99999998245E-14  0.12500000000E+03  0.12500000000E+03 0.  0.
        -11    1    3    3    0    0  0.40198647538E+02  0.20512957514E+01  0.65311389181E+00  0.40256249653E+02  0.51100000000E-03 0. -1.
         23    2    1    0    0    0 -0.19613177308E+02 -0.11118610760E+02  0.58109701011E+01  0.10171765470E+03  0.99017239277E+02 0.  0.
         11    1    3    3    0    0 -0.59811824846E+02 -0.13169906511E+02  0.51578562092E+01  0.61461405043E+02  0.51100000000E-03 0.  1.
         22    1    1    0    0    0  0.19613177308E+02  0.11118610760E+02 -0.58109701011E+01  0.23282345304E+02  0.00000000000E+00 0.  1.
</event>
<event>
 5    1  0.3144657E-003  0.9118800E+02  0.7818608E-02  0.1130116E+00
         25   -1    0    0    0    0  0.00000000000E+00  0.00000000000E+00  0.99999998245E-14  0.12500000000E+03  0.12500000000E+03 0.  0.
        -11    1    3    3    0    0 -0.31789550638E+02 -0.10673662231E+02  0.38862565098E+02  0.51330318151E+02  0.51100000000E-03 0.  1.
         23    2    1    0    0    0  0.11636215893E+02 -0.10963714403E+02  0.21747892017E+02  0.98007864831E+02  0.94217653376E+02 0.  0.
         11    1    3    3    0    0  0.43425766531E+02 -0.29005217154E+00 -0.17114673082E+02  0.46677546680E+02  0.51100000000E-03 0. -1.
         22    1    1    0    0    0 -0.11636215893E+02  0.10963714403E+02 -0.21747892017E+02  0.26992135169E+02  0.00000000000E+00 0.  1.
</event>
<event>
 5    1  0.3144657E-003  0.9118800E+02  0.7818608E-02  0.1130116E+00
         25   -1    0    0    0    0  0.00000000000E+00  0.00000000000E+00  0.99999998245E-14  0.12500000000E+03  0.12500000000E+03 0.  0.
        -11    1    3    3    0    0  0.30383303170E+02 -0.75441245191E+01 -0.28060343262E+02  0.42040953730E+02  0.51100000000E-03 0. -1.
         23    2    1    0    0    0 -0.77881414543E+00 -0.26064501908E+02  0.12195411827E+02  0.96212973742E+02  0.91805465172E+02 0.  0.
         11    1    3    3    0    0 -0.31162117315E+02 -0.18520377389E+02  0.40255755088E+02  0.54172020012E+02  0.51100000000E-03 0.  1.
         22    1    1    0    0    0  0.77881414543E+00  0.26064501908E+02 -0.12195411827E+02  0.28787026258E+02  0.00000000000E+00 0.  1.
</event>
<event>
 5    1  0.3144657E-003  0.9118800E+02  0.7818608E-02  0.1130116E+00
         25   -1    0    0    0    0  0.00000000000E+00  0.00000000000E+00  0.99999998245E-14  0.12500000000E+03  0.12500000000E+03 0.  0.
        -11    1    3    3    0    0  0.42507782232E+02 -0.26908856376E+02  0.32184790851E+01  0.50411870721E+02  0.51100000000E-03 0. -1.
         23    2    1    0    0    0  0.22547070285E+02  0.85589708375E+01 -0.16642397415E+02  0.95698195415E+02  0.91101859771E+02 0.  0.
         11    1    3    3    0    0 -0.19960711947E+02  0.35467827213E+02 -0.19860876500E+02  0.45286324694E+02  0.51100000000E-03 0.  1.
         22    1    1    0    0    0 -0.22547070285E+02 -0.85589708375E+01  0.16642397415E+02  0.29301804585E+02  0.00000000000E+00 0. -1.
</event>
<event>
 5    1  0.3144657E-003  0.9118800E+02  0.7818608E-02  0.1130116E+00
         25   -1    0    0    0    0  0.00000000000E+00  0.00000000000E+00  0.99999998245E-14  0.12500000000E+03  0.12500000000E+03 0.  0.
        -11    1    3    3    0    0 -0.31385045293E+02 -0.14282496062E+02  0.22125011732E+02  0.40969829219E+02  0.51100000000E-03 0.  1.
         23    2    1    0    0    0  0.10187912667E+02  0.19576854081E+02  0.20906493736E+02  0.94600522035E+02  0.89583092762E+02 0.  0.
         11    1    3    3    0    0  0.41572957960E+02  0.33859350142E+02 -0.12185179964E+01  0.53630692817E+02  0.51100000000E-03 0. -1.
         22    1    1    0    0    0 -0.10187912667E+02 -0.19576854081E+02 -0.20906493736E+02  0.30399477965E+02  0.00000000000E+00 0. -1.
</event>
<event>
 5    1  0.3144657E-003  0.9118800E+02  0.7818608E-02  0.1130116E+00
         25   -1    0    0    0    0  0.00000000000E+00  0.00000000000E+00  0.99999998245E-14  0.12500000000E+03  0.12500000000E+03 0.  0.
        -11    1    3    3    0    0 -0.13542089668E+01 -0.76676405382E+01  0.50941199411E+02  0.51532828285E+02  0.51100000000E-03 0.  1.
         23    2    1    0    0    0 -0.19713102334E+02  0.13602735831E+02  0.16824177103E+02  0.95730668594E+02  0.91146405023E+02 0.  0.
         11    1    3    3    0    0 -0.18358893367E+02  0.21270376369E+02 -0.34117022308E+02  0.44197840309E+02  0.51100000000E-03 0. -1.
         22    1    1    0    0    0  0.19713102334E+02 -0.13602735831E+02 -0.16824177103E+02  0.29269331406E+02  0.00000000000E+00 0.  1.
</event>
<event>
 5    1  0.3144657E-003  0.9118800E+02  0.7818608E-02  0.1130116E+00
         25   -1    0    0    0    0  0.00000000000E+00  0.00000000000E+00  0.99999998245E-14  0.12500000000E+03  0.12500000000E+03 0.  0.
        -11    1    3    3    0    0 -0.48135838171E+01  0.37567094614E+02  0.17824178962E+02  0.41858792897E+02  0.51100000000E-03 0. -1.
         23    2    1    0    0    0  0.16562507843E+02  0.86963763049E+01 -0.22418028782E+02  0.95802198005E+02  0.91244449153E+02 0.  0.
         11    1    3    3    0    0  0.21376091660E+02 -0.28870718309E+02 -0.40242207743E+02  0.53943405108E+02  0.51100000000E-03 0.  1.
         22    1    1    0    0    0 -0.16562507843E+02 -0.86963763049E+01  0.22418028782E+02  0.29197801995E+02  0.00000000000E+00 0.  1.
</event>
<event>
 5    1  0.3144657E-003  0.9118800E+02  0.7818608E-02  0.1130116E+00
         25   -1    0    0    0    0  0.00000000000E+00  0.00000000000E+00  0.99999998245E-14  0.12500000000E+03  0.12500000000E+03 0.  0.
        -11    1    3    3    0    0 -0.25948859078E+02 -0.25255011484E+02 -0.15380907028E+02  0.39341214950E+02  0.51100000000E-03 0. -1.
         23    2    1    0    0    0 -0.13564018615E+02  0.27082670595E+02 -0.27617731657E+01  0.94584855112E+02  0.89561229212E+02 0.  0.
         11    1    3    3    0    0  0.12384840462E+02  0.52337682079E+02  0.12619133862E+02  0.55243640162E+02  0.51100000000E-03 0.  1.
         22    1    1    0    0    0  0.13564018615E+02 -0.27082670595E+02  0.27617731657E+01  0.30415144888E+02  0.00000000000E+00 0.  1.
</event>
<event>
 5    1  0.3144657E-003  0.9118800E+02  0.7818608E-02  0.1130116E+00
         25   -1    0    0    0    0  0.00000000000E+00  0.00000000000E+00  0.99999998245E-14  0.12500000000E+03  0.12500000000E+03 0.  0.
        -11    1    3    3    0    0  0.46010071038E+02  0.46774770836E+01  0.75574235473E+01  0.46860645319E+02  0.51100000000E-03 0.  1.
         23    2    1    0    0    0  0.47263739387E+01  0.23597147006E+02 -0.14030154366E+02  0.97143058513E+02  0.93063229196E+02 0.  0.
         11    1    3    3    0    0 -0.41283697099E+02  0.18919669923E+02 -0.21587577914E+02  0.50282413194E+02  0.51100000000E-03 0. -1.
         22    1    1    0    0    0 -0.47263739387E+01 -0.23597147006E+02  0.14030154366E+02  0.27856941487E+02  0.00000000000E+00 0. -1.
</event>
<event>
 5    1  0.3144657E-003  0.9118800E+02  0.7818608E-02  0.1130116E+00
         25   -1    0    0    0    0  0.00000000000E+00  0.00000000000E+00  0.99999998245E-14  0.12500000000E+03  0.12500000000E+03 0.  0.
        -11    1    3    3    0    0  0.19613676189E+02 -0.37354611022E+02  0.20084393260E+02  0.46727359342E+02  0.51100000000E-03 0.  1.
         23    2    1    0    0    0 -0.18482365233E+02 -0.18820115680E+02 -0.78563810356E+01  0.97476967794E+02  0.93510651525E+02 0.  0.
         11    1    3    3    0    0 -0.38096041421E+02  0.18534495342E+02 -0.27940774295E+02  0.50749608452E+02  0.51100000000E-03 0. -1.
         22    1    1    0    0    0  0.18482365233E+02  0.18820115680E+02  0.78563810356E+01  0.27523032206E+02  0.00000000000E+00 0. -1.
</event>
<event>
 5    1  0.3144657E-003  0.9118800E+02  0.7818608E-02  0.1130116E+00
         25   -1    0    0    0    0  0.00000000000E+00  0.00000000000E+00  0.99999998245E-14  0.12500000000E+03  0.12500000000E+03 0.  0.
        -11    1    3    3    0    0  0.24908857131E+02 -0.37844112546E+02  0.40708566374E+01  0.45488458888E+02  0.51100000000E-03 0. -1.
         23    2    1    0    0    0 -0.21946832391E+02 -0.18391031717E+02  0.26822938972E+01  0.96240858842E+02  0.91843424971E+02 0.  0.
         11    1    3    3    0    0 -0.46855689522E+02  0.19453080829E+02 -0.13885627402E+01  0.50752399954E+02  0.51100000000E-03 0.  1.
         22    1    1    0    0    0  0.21946832391E+02  0.18391031717E+02 -0.26822938972E+01  0.28759141158E+02  0.00000000000E+00 0.  1.
</event>
<event>
 5    1  0.3144657E-003  0.9118800E+02  0.7818608E-02  0.1130116E+00
         25   -1    0    0    0    0  0.00000000000E+00  0.00000000000E+00  0.99999998245E-14  0.12500000000E+03  0.12500000000E+03 0.  0.
        -11    1    3    3    0    0  0.22273203984E+02 -0.84292298777E+00 -0.12465283985E+02  0.25537999921E+02  0.51100000000E-03 0. -1.
         23    2    1    0    0    0 -0.25830908085E+02 -0.28730856602E+01 -0.37163406415E+02  0.79650146527E+02  0.65479283989E+02 0.  0.
         11    1    3    3    0    0 -0.48104112069E+02 -0.20301626724E+01 -0.24698122430E+02  0.54112146606E+02  0.51100000000E-03 0.  1.
         22    1    1    0    0    0  0.25830908085E+02  0.28730856602E+01  0.37163406415E+02  0.45349853473E+02  0.00000000000E+00 0.  1.
</event>
<event>
 5    1  0.3144657E-003  0.9118800E+02  0.7818608E-02  0.1130116E+00
         25   -1    0    0    0    0  0.00000000000E+00  0.00000000000E+00  0.99999998245E-14  0.12500000000E+03  0.12500000000E+03 0.  0.
        -11    1    3    3    0    0 -0.58452554613E+01  0.39697290028E+02  0.20353822931E+02  0.44992443311E+02  0.51100000000E-03 0. -1.
         23    2    1    0    0    0 -0.14685934120E+02 -0.10914089250E+02  0.21986138568E+02  0.96396079040E+02  0.92054439111E+02 0.  0.
         11    1    3    3    0    0 -0.88406786586E+01 -0.50611379278E+02  0.16323156368E+01  0.51403635729E+02  0.51100000000E-03 0.  1.
         22    1    1    0    0    0  0.14685934120E+02  0.10914089250E+02 -0.21986138568E+02  0.28603920960E+02  0.00000000000E+00 0.  1.
</event>
<event>
 5    1  0.3144657E-003  0.9118800E+02  0.7818608E-02  0.1130116E+00
         25   -1    0    0    0    0  0.00000000000E+00  0.00000000000E+00  0.99999998245E-14  0.12500000000E+03  0.12500000000E+03 0.  0.
        -11    1    3    3    0    0 -0.20150542515E+02  0.90031355601E+01  0.35076351921E+02  0.41442143742E+02  0.51100000000E-03 0.  1.
         23    2    1    0    0    0  0.24339580177E+02 -0.11060150708E+02  0.89049477579E+01  0.96821281232E+02  0.92630018395E+02 0.  0.
         11    1    3    3    0    0  0.44490122691E+02 -0.20063286268E+02 -0.26171404163E+02  0.55379137490E+02  0.51100000000E-03 0. -1.
         22    1    1    0    0    0 -0.24339580177E+02  0.11060150708E+02 -0.89049477579E+01  0.28178718768E+02  0.00000000000E+00 0. -1.
</event>
<event>
 5    1  0.3144657E-003  0.9118800E+02  0.7818608E-02  0.1130116E+00
         25   -1    0    0    0    0  0.00000000000E+00  0.00000000000E+00  0.99999998245E-14  0.12500000000E+03  0.12500000000E+03 0.  0.
        -11    1    3    3    0    0  0.19616368098E+02 -0.18837700545E+02  0.44318072822E+02  0.51997619543E+02  0.51100000000E-03 0.  1.
         23    2    1    0    0    0 -0.11817241833E+02 -0.22759544806E+02  0.14303712530E+02  0.95636071849E+02  0.91016580700E+02 0.  0.
         11    1    3    3    0    0 -0.31433609932E+02 -0.39218442606E+01 -0.30014360291E+02  0.43638452306E+02  0.51100000000E-03 0. -1.
         22    1    1    0    0    0  0.11817241833E+02  0.22759544806E+02 -0.14303712530E+02  0.29363928151E+02  0.00000000000E+00 0.  1.
</event>
<event>
 5    1  0.3144657E-003  0.9118800E+02  0.7818608E-02  0.1130116E+00
         25   -1    0    0    0    0  0.00000000000E+00  0.00000000000E+00  0.99999998245E-14  0.12500000000E+03  0.12500000000E+03 0.  0.
        -11    1    3    3    0    0 -0.33042448389E+02 -0.46064403561E+01  0.23160567971E+02  0.40613231801E+02  0.51100000000E-03 0.  1.
         23    2    1    0    0    0 -0.79671129517E+01  0.14704223075E+02 -0.22988255756E+02  0.96572038981E+02  0.92293064448E+02 0.  0.
         11    1    3    3    0    0  0.25075335437E+02  0.19310663431E+02 -0.46148823726E+02  0.55958807180E+02  0.51100000000E-03 0. -1.
         22    1    1    0    0    0  0.79671129517E+01 -0.14704223075E+02  0.22988255756E+02  0.28427961019E+02  0.00000000000E+00 0. -1.
</event>
<event>
 5    1  0.3144657E-003  0.9118800E+02  0.7818608E-02  0.1130116E+00
         25   -1    0    0    0    0  0.00000000000E+00  0.00000000000E+00  0.99999998245E-14  0.12500000000E+03  0.12500000000E+03 0.  0.
        -11    1    3    3    0    0 -0.37647504440E+01 -0.38659683067E+02 -0.31643296711E+02  0.50100326025E+02  0.51100000000E-03 0.  1.
         23    2    1    0    0    0 -0.51293091592E+01 -0.26123408241E+02  0.12195931954E+02  0.95717188885E+02  0.91127916805E+02 0.  0.
         11    1    3    3    0    0 -0.13645587152E+01  0.12536274826E+02  0.43839228665E+02  0.45616862860E+02  0.51100000000E-03 0. -1.
         22    1    1    0    0    0  0.51293091592E+01  0.26123408241E+02 -0.12195931954E+02  0.29282811115E+02  0.00000000000E+00 0. -1.
</event>
<event>
 5    1  0.3144657E-003  0.9118800E+02  0.7818608E-02  0.1130116E+00
         25   -1    0    0    0    0  0.00000000000E+00  0.00000000000E+00  0.99999998245E-14  0.12500000000E+03  0.12500000000E+03 0.  0.
        -11    1    3    3    0    0  0.42953659155E+02 -0.18448226479E+02 -0.13043672143E+01  0.46765962720E+02  0.51100000000E-03 0.  1.
         23    2    1    0    0    0 -0.55701194904E+01 -0.26012333579E+02  0.89458510699E+01  0.96934077946E+02  0.92782107577E+02 0.  0.
         11    1    3    3    0    0 -0.48523778645E+02 -0.75641071004E+01  0.10250218284E+02  0.50168115226E+02  0.51100000000E-03 0. -1.
         22    1    1    0    0    0  0.55701194904E+01  0.26012333579E+02 -0.89458510699E+01  0.28065922054E+02  0.00000000000E+00 0.  1.
</event>
<event>
 5    1  0.3144657E-003  0.9118800E+02  0.7818608E-02  0.1130116E+00
         25   -1    0    0    0    0  0.00000000000E+00  0.00000000000E+00  0.99999998245E-14  0.12500000000E+03  0.12500000000E+03 0.  0.
        -11    1    3    3    0    0 -0.12228461778E+02  0.88577246837E+01  0.47293040956E+02  0.49645002641E+02  0.51100000000E-03 0. -1.
         23    2    1    0    0    0  0.20590747674E+02  0.13322330899E+02  0.13321458032E+02  0.97090778684E+02  0.92992981837E+02 0.  0.
         11    1    3    3    0    0  0.32819209452E+02  0.44646062149E+01 -0.33971582924E+02  0.47445776043E+02  0.51100000000E-03 0.  1.
         22    1    1    0    0    0 -0.20590747674E+02 -0.13322330899E+02 -0.13321458032E+02  0.27909221316E+02  0.00000000000E+00 0.  1.
</event>
<event>
 5    1  0.3144657E-003  0.9118800E+02  0.7818608E-02  0.1130116E+00
         25   -1    0    0    0    0  0.00000000000E+00  0.00000000000E+00  0.99999998245E-14  0.12500000000E+03  0.12500000000E+03 0.  0.
        -11    1    3    3    0    0  0.17013691060E+02 -0.41715934070E+02 -0.38244185641E+02  0.59095706903E+02  0.51100000000E-03 0.  1.
         23    2    1    0    0    0  0.21599362161E+02 -0.15215291843E+02 -0.15155788913E+02  0.94541249382E+02  0.89500348298E+02 0.  0.
         11    1    3    3    0    0  0.45856711013E+01  0.26500642227E+02  0.23088396728E+02  0.35445542479E+02  0.51100000000E-03 0. -1.
         22    1    1    0    0    0 -0.21599362161E+02  0.15215291843E+02  0.15155788913E+02  0.30458750618E+02  0.00000000000E+00 0.  1.
</event>
<event>
 5    1  0.3144657E-003  0.9118800E+02  0.7818608E-02  0.1130116E+00
         25   -1    0    0    0    0  0.00000000000E+00  0.00000000000E+00  0.99999998245E-14  0.12500000000E+03  0.12500000000E+03 0.  0.
        -11    1    3    3    0    0 -0.27575352022E+02 -0.14896614980E+02 -0.13935133954E+02  0.34300104017E+02  0.51100000000E-03 0.  1.
         23    2    1    0    0    0  0.28416259527E+02  0.62728688310E+01  0.57651934368E+00  0.95893899893E+02  0.91369989456E+02 0.  0.
         11    1    3    3    0    0  0.55991611550E+02  0.21169483811E+02  0.14511653297E+02  0.61593795876E+02  0.51100000000E-03 0. -1.
         22    1    1    0    0    0 -0.28416259527E+02 -0.62728688310E+01 -0.57651934368E+00  0.29106100107E+02  0.00000000000E+00 0. -1.
</event>
<event>
 5    1  0.3144657E-003  0.9118800E+02  0.7818608E-02  0.1130116E+00
         25   -1    0    0    0    0  0.00000000000E+00  0.00000000000E+00  0.99999998245E-14  0.12500000000E+03  0.12500000000E+03 0.  0.
        -11    1    3    3    0    0  0.33389476271E+02 -0.31464701043E+02 -0.34565609507E+02  0.57442718409E+02  0.51100000000E-03 0.  1.
         23    2    1    0    0    0  0.13248384743E+02 -0.64685522178E+01 -0.32145579878E+02  0.89634760402E+02  0.82363159850E+02 0.  0.
         11    1    3    3    0    0 -0.20141091528E+02  0.24996148826E+02  0.24200296281E+01  0.32192041993E+02  0.51100000000E-03 0. -1.
         22    1    1    0    0    0 -0.13248384743E+02  0.64685522178E+01  0.32145579878E+02  0.35365239598E+02  0.00000000000E+00 0.  1.
</event>
<event>
 5    1  0.3144657E-003  0.9118800E+02  0.7818608E-02  0.1130116E+00
         25   -1    0    0    0    0  0.00000000000E+00  0.00000000000E+00  0.99999998245E-14  0.12500000000E+03  0.12500000000E+03 0.  0.
        -11    1    3    3    0    0  0.52280092047E+02  0.14558455003E+02 -0.18278592734E+02  0.57264854746E+02  0.51100000000E-03 0.  1.
         23    2    1    0    0    0  0.19695510334E+02 -0.68329077026E+01 -0.19766028886E+02  0.96272005763E+02  0.91885806524E+02 0.  0.
         11    1    3    3    0    0 -0.32584581713E+02 -0.21391362706E+02 -0.14874361522E+01  0.39007151016E+02  0.51100000000E-03 0. -1.
         22    1    1    0    0    0 -0.19695510334E+02  0.68329077026E+01  0.19766028886E+02  0.28727994237E+02  0.00000000000E+00 0.  1.
</event>
<event>
 5    1  0.3144657E-003  0.9118800E+02  0.7818608E-02  0.1130116E+00
         25   -1    0    0    0    0  0.00000000000E+00  0.00000000000E+00  0.99999998245E-14  0.12500000000E+03  0.12500000000E+03 0.  0.
        -11    1    3    3    0    0 -0.32600847420E+02 -0.29984914512E+02  0.18515542015E+02  0.48007662380E+02  0.51100000000E-03 0.  1.
         23    2    1    0    0    0 -0.14562433839E+02 -0.11679319910E+02 -0.22099955129E+02  0.96071138812E+02  0.91612142771E+02 0.  0.
         11    1    3    3    0    0  0.18038413580E+02  0.18305594602E+02 -0.40615497145E+02  0.48063476433E+02  0.51100000000E-03 0. -1.
         22    1    1    0    0    0  0.14562433839E+02  0.11679319910E+02  0.22099955129E+02  0.28928861188E+02  0.00000000000E+00 0. -1.
</event>
<event>
 5    1  0.3144657E-003  0.9118800E+02  0.7818608E-02  0.1130116E+00
         25   -1    0    0    0    0  0.00000000000E+00  0.00000000000E+00  0.99999998245E-14  0.12500000000E+03  0.12500000000E+03 0.  0.
        -11    1    3    3    0    0 -0.42454896684E+02 -0.15432756681E+01 -0.35811648402E+02  0.55563244270E+02  0.51100000000E-03 0.  1.
         23    2    1    0    0    0 -0.22774584960E+02 -0.18021063422E+02 -0.52270286785E+01  0.95491318638E+02  0.90817562505E+02 0.  0.
         11    1    3    3    0    0  0.19680311724E+02 -0.16477787754E+02  0.30584619724E+02  0.39928074368E+02  0.51100000000E-03 0. -1.
         22    1    1    0    0    0  0.22774584960E+02  0.18021063422E+02  0.52270286785E+01  0.29508681362E+02  0.00000000000E+00 0.  1.
</event>
<event>
 5    1  0.3144657E-003  0.9118800E+02  0.7818608E-02  0.1130116E+00
         25   -1    0    0    0    0  0.00000000000E+00  0.00000000000E+00  0.99999998245E-14  0.12500000000E+03  0.12500000000E+03 0.  0.
        -11    1    3    3    0    0  0.36118356649E+02  0.14864093769E+01 -0.46598812741E+02  0.58976219351E+02  0.51100000000E-03 0.  1.
         23    2    1    0    0    0  0.78342567426E+01  0.10792438288E+02 -0.27737377242E+02  0.94223151572E+02  0.89054971186E+02 0.  0.
         11    1    3    3    0    0 -0.28284099907E+02  0.93060289108E+01  0.18861435499E+02  0.35246932220E+02  0.51100000000E-03 0. -1.
         22    1    1    0    0    0 -0.78342567426E+01 -0.10792438288E+02  0.27737377242E+02  0.30776848428E+02  0.00000000000E+00 0.  1.
</event>
<event>
 5    1  0.3144657E-003  0.9118800E+02  0.7818608E-02  0.1130116E+00
         25   -1    0    0    0    0  0.00000000000E+00  0.00000000000E+00  0.99999998245E-14  0.12500000000E+03  0.12500000000E+03 0.  0.
        -11    1    3    3    0    0  0.35693403477E+02 -0.74514455948E+01 -0.45090498442E+02  0.57988758766E+02  0.51100000000E-03 0. -1.
         23    2    1    0    0    0  0.18963131611E+02 -0.17630375111E+02 -0.11950503325E+02  0.96482548908E+02  0.92171781078E+02 0.  0.
         11    1    3    3    0    0 -0.16730271867E+02 -0.10178929517E+02  0.33139995117E+02  0.38493790142E+02  0.51100000000E-03 0.  1.
         22    1    1    0    0    0 -0.18963131611E+02  0.17630375111E+02  0.11950503325E+02  0.28517451092E+02  0.00000000000E+00 0. -1.
</event>
<event>
 5    1  0.3144657E-003  0.9118800E+02  0.7818608E-02  0.1130116E+00
         25   -1    0    0    0    0  0.00000000000E+00  0.00000000000E+00  0.99999998245E-14  0.12500000000E+03  0.12500000000E+03 0.  0.
        -11    1    3    3    0    0  0.19856030747E+02  0.23111199197E+02  0.69289978694E+01  0.31247407846E+02  0.51100000000E-03 0.  1.
         23    2    1    0    0    0 -0.78801780752E+01 -0.31013575764E+02 -0.29621011449E+01  0.92864145704E+02  0.87126554081E+02 0.  0.
         11    1    3    3    0    0 -0.27736208822E+02 -0.54124774960E+02 -0.98910990143E+01  0.61616737858E+02  0.51100000000E-03 0. -1.
         22    1    1    0    0    0  0.78801780752E+01  0.31013575764E+02  0.29621011449E+01  0.32135854296E+02  0.00000000000E+00 0. -1.
</event>
<event>
 5    1  0.3144657E-003  0.9118800E+02  0.7818608E-02  0.1130116E+00
         25   -1    0    0    0    0  0.00000000000E+00  0.00000000000E+00  0.99999998245E-14  0.12500000000E+03  0.12500000000E+03 0.  0.
        -11    1    3    3    0    0  0.21559247158E+02  0.42780600339E+02  0.99745462699E+01  0.48933347290E+02  0.51100000000E-03 0.  1.
         23    2    1    0    0    0  0.26383780023E+02 -0.36996557370E+01  0.12159619050E+02  0.95714378334E+02  0.91124061496E+02 0.  0.
         11    1    3    3    0    0  0.48245328654E+01 -0.46480256076E+02  0.21850727805E+01  0.46781031045E+02  0.51100000000E-03 0. -1.
         22    1    1    0    0    0 -0.26383780023E+02  0.36996557370E+01 -0.12159619050E+02  0.29285621666E+02  0.00000000000E+00 0.  1.
</event>
<event>
 5    1  0.3144657E-003  0.9118800E+02  0.7818608E-02  0.1130116E+00
         25   -1    0    0    0    0  0.00000000000E+00  0.00000000000E+00  0.99999998245E-14  0.12500000000E+03  0.12500000000E+03 0.  0.
        -11    1    3    3    0    0  0.23576646879E+02  0.37326542616E+02  0.23755435295E+02  0.50134317270E+02  0.51100000000E-03 0.  1.
         23    2    1    0    0    0 -0.79569269414E+01  0.70195867463E+00  0.25280337226E+02  0.98487722041E+02  0.94852150794E+02 0.  0.
         11    1    3    3    0    0 -0.31533573820E+02 -0.36624583942E+02  0.15249019309E+01  0.48353404771E+02  0.51100000000E-03 0. -1.
         22    1    1    0    0    0  0.79569269414E+01 -0.70195867463E+00 -0.25280337226E+02  0.26512277959E+02  0.00000000000E+00 0.  1.
</event>
<event>
 5    1  0.3144657E-003  0.9118800E+02  0.7818608E-02  0.1130116E+00
         25   -1    0    0    0    0  0.00000000000E+00  0.00000000000E+00  0.99999998245E-14  0.12500000000E+03  0.12500000000E+03 0.  0.
        -11    1    3    3    0    0  0.55602310544E+01 -0.14019466557E+01  0.36179649218E+02  0.36631252253E+02  0.51100000000E-03 0.  1.
         23    2    1    0    0    0 -0.16848112819E+02 -0.20605054829E+02 -0.14060879635E+02  0.94897914920E+02  0.89997104009E+02 0.  0.
         11    1    3    3    0    0 -0.22408343874E+02 -0.19203108173E+02 -0.50240528853E+02  0.58266662667E+02  0.51100000000E-03 0. -1.
         22    1    1    0    0    0  0.16848112819E+02  0.20605054829E+02  0.14060879635E+02  0.30102085080E+02  0.00000000000E+00 0. -1.
</event>
<event>
 5    1  0.3144657E-003  0.9118800E+02  0.7818608E-02  0.1130116E+00
         25   -1    0    0    0    0  0.00000000000E+00  0.00000000000E+00  0.99999998245E-14  0.12500000000E+03  0.12500000000E+03 0.  0.
        -11    1    3    3    0    0  0.72783721759E+01 -0.59144677926E+02 -0.18099367547E+02  0.62278846605E+02  0.51100000000E-03 0. -1.
         23    2    1    0    0    0  0.56709779640E+01 -0.24505194944E+02 -0.10287901568E+02  0.97824542525E+02  0.93974122136E+02 0.  0.
         11    1    3    3    0    0 -0.16073942119E+01  0.34639482983E+02  0.78114659788E+01  0.35545695920E+02  0.51100000000E-03 0.  1.
         22    1    1    0    0    0 -0.56709779640E+01  0.24505194944E+02  0.10287901568E+02  0.27175457475E+02  0.00000000000E+00 0. -1.
</event>
<event>
 5    1  0.3144657E-003  0.9118800E+02  0.7818608E-02  0.1130116E+00
         25   -1    0    0    0    0  0.00000000000E+00  0.00000000000E+00  0.99999998245E-14  0.12500000000E+03  0.12500000000E+03 0.  0.
        -11    1    3    3    0    0 -0.15504812263E+01  0.18647439418E+02 -0.26516641657E+02  0.32454017839E+02  0.51100000000E-03 0.  1.
         23    2    1    0    0    0 -0.19293862827E+02 -0.90312194539E+01  0.24114655554E+02  0.92823414102E+02  0.87068097059E+02 0.  0.
         11    1    3    3    0    0 -0.17743381600E+02 -0.27678658872E+02  0.50631297211E+02  0.60369396262E+02  0.51100000000E-03 0. -1.
         22    1    1    0    0    0  0.19293862827E+02  0.90312194539E+01 -0.24114655554E+02  0.32176585898E+02  0.00000000000E+00 0. -1.
</event>
<event>
 5    1  0.3144657E-003  0.9118800E+02  0.7818608E-02  0.1130116E+00
         25   -1    0    0    0    0  0.00000000000E+00  0.00000000000E+00  0.99999998245E-14  0.12500000000E+03  0.12500000000E+03 0.  0.
        -11    1    3    3    0    0  0.78502033804E+01 -0.15071368650E+02  0.19459776519E+02  0.25835145607E+02  0.51100000000E-03 0.  1.
         23    2    1    0    0    0 -0.32602472503E+02  0.23992099715E+02  0.13228812347E+02  0.82414280115E+02  0.70558982622E+02 0.  0.
         11    1    3    3    0    0 -0.40452675883E+02  0.39063468365E+02 -0.62309641719E+01  0.56579134507E+02  0.51100000000E-03 0. -1.
         22    1    1    0    0    0  0.32602472503E+02 -0.23992099715E+02 -0.13228812347E+02  0.42585719885E+02  0.00000000000E+00 0. -1.
</event>
<event>
 5    1  0.3144657E-003  0.9118800E+02  0.7818608E-02  0.1130116E+00
         25   -1    0    0    0    0  0.00000000000E+00  0.00000000000E+00  0.99999998245E-14  0.12500000000E+03  0.12500000000E+03 0.  0.
        -11    1    3    3    0    0  0.33649765109E+02  0.27823353073E+02  0.22991084632E+02  0.49346080300E+02  0.51100000000E-03 0.  1.
         23    2    1    0    0    0  0.27594622614E+02 -0.33262434256E+01 -0.10319132961E+02  0.95351870251E+02  0.90625424484E+02 0.  0.
         11    1    3    3    0    0 -0.60551424955E+01 -0.31149596499E+02 -0.33310217593E+02  0.46005789951E+02  0.51100000000E-03 0. -1.
         22    1    1    0    0    0 -0.27594622614E+02  0.33262434256E+01  0.10319132961E+02  0.29648129749E+02  0.00000000000E+00 0. -1.
</event>
<event>
 5    1  0.3144657E-003  0.9118800E+02  0.7818608E-02  0.1130116E+00
         25   -1    0    0    0    0  0.00000000000E+00  0.00000000000E+00  0.99999998245E-14  0.12500000000E+03  0.12500000000E+03 0.  0.
        -11    1    3    3    0    0  0.40007894364E+00 -0.53516679153E+02 -0.86193508663E+01  0.54207824346E+02  0.51100000000E-03 0.  1.
         23    2    1    0    0    0 -0.14145084128E+02 -0.24071586734E+02  0.13684093343E+02  0.93906928368E+02  0.88609999955E+02 0.  0.
         11    1    3    3    0    0 -0.14545163071E+02  0.29445092418E+02  0.22303444209E+02  0.39699104022E+02  0.51100000000E-03 0. -1.
         22    1    1    0    0    0  0.14145084128E+02  0.24071586734E+02 -0.13684093343E+02  0.31093071632E+02  0.00000000000E+00 0.  1.
</event>
<event>
 5    1  0.3144657E-003  0.9118800E+02  0.7818608E-02  0.1130116E+00
         25   -1    0    0    0    0  0.00000000000E+00  0.00000000000E+00  0.99999998245E-14  0.12500000000E+03  0.12500000000E+03 0.  0.
        -11    1    3    3    0    0 -0.10563536513E+02 -0.21573210992E+02  0.34086455656E+02  0.41699858460E+02  0.51100000000E-03 0. -1.
         23    2    1    0    0    0  0.28112169740E+02 -0.74383440865E+01 -0.11525462373E+01  0.95897570324E+02  0.91375010703E+02 0.  0.
         11    1    3    3    0    0  0.38675706252E+02  0.14134866905E+02 -0.35239001893E+02  0.54197711864E+02  0.51100000000E-03 0.  1.
         22    1    1    0    0    0 -0.28112169740E+02  0.74383440865E+01  0.11525462373E+01  0.29102429676E+02  0.00000000000E+00 0.  1.
</event>
<event>
 5    1  0.3144657E-003  0.9118800E+02  0.7818608E-02  0.1130116E+00
         25   -1    0    0    0    0  0.00000000000E+00  0.00000000000E+00  0.99999998245E-14  0.12500000000E+03  0.12500000000E+03 0.  0.
        -11    1    3    3    0    0 -0.21204512428E+02 -0.89137103477E+00 -0.30644248439E+02  0.37275942004E+02  0.51100000000E-03 0.  1.
         23    2    1    0    0    0  0.12038814581E+02  0.22241104931E+02  0.12787457391E+02  0.96660648003E+02  0.92412996926E+02 0.  0.
         11    1    3    3    0    0  0.33243327010E+02  0.23132475966E+02  0.43431705830E+02  0.59384705999E+02  0.51100000000E-03 0. -1.
         22    1    1    0    0    0 -0.12038814581E+02 -0.22241104931E+02 -0.12787457391E+02  0.28339351997E+02  0.00000000000E+00 0. -1.
</event>
<event>
 5    1  0.3144657E-003  0.9118800E+02  0.7818608E-02  0.1130116E+00
         25   -1    0    0    0    0  0.00000000000E+00  0.00000000000E+00  0.99999998245E-14  0.12500000000E+03  0.12500000000E+03 0.  0.
        -11    1    3    3    0    0 -0.29022297094E+02  0.23172657180E+02  0.25371518918E+02  0.44977547086E+02  0.51100000000E-03 0. -1.
         23    2    1    0    0    0  0.21084720714E+02  0.12743162063E+02  0.99359665698E+01  0.98435417213E+02  0.94783196313E+02 0.  0.
         11    1    3    3    0    0  0.50107017808E+02 -0.10429495117E+02 -0.15435552348E+02  0.53457870127E+02  0.51100000000E-03 0.  1.
         22    1    1    0    0    0 -0.21084720714E+02 -0.12743162063E+02 -0.99359665698E+01  0.26564582787E+02  0.00000000000E+00 0.  1.
</event>
<event>
 5    1  0.3144657E-003  0.9118800E+02  0.7818608E-02  0.1130116E+00
         25   -1    0    0    0    0  0.00000000000E+00  0.00000000000E+00  0.99999998245E-14  0.12500000000E+03  0.12500000000E+03 0.  0.
        -11    1    3    3    0    0 -0.45201712039E+02  0.47875362477E+01 -0.72591419471E+01  0.46030537871E+02  0.51100000000E-03 0. -1.
         23    2    1    0    0    0 -0.10583350583E+02 -0.23067556793E+02  0.14781007491E+02  0.95629986918E+02  0.91008223417E+02 0.  0.
         11    1    3    3    0    0  0.34618361457E+02 -0.27855093041E+02  0.22040149438E+02  0.49599449047E+02  0.51100000000E-03 0.  1.
         22    1    1    0    0    0  0.10583350583E+02  0.23067556793E+02 -0.14781007491E+02  0.29370013082E+02  0.00000000000E+00 0. -1.
</event>
<event>
 5    1  0.3144657E-003  0.9118800E+02  0.7818608E-02  0.1130116E+00
         25   -1    0    0    0    0  0.00000000000E+00  0.00000000000E+00  0.99999998245E-14  0.12500000000E+03  0.12500000000E+03 0.  0.
        -11    1    3    3    0    0  0.15211436065E+02 -0.24979806660E+02  0.44044712615E+02  0.52870740845E+02  0.51100000000E-03 0.  1.
         23    2    1    0    0    0 -0.15747615662E+02 -0.19927084861E+02  0.15753491263E+02  0.95112735203E+02  0.90294982146E+02 0.  0.
         11    1    3    3    0    0 -0.30959051727E+02  0.50527217989E+01 -0.28291221352E+02  0.42241994358E+02  0.51100000000E-03 0. -1.
         22    1    1    0    0    0  0.15747615662E+02  0.19927084861E+02 -0.15753491263E+02  0.29887264797E+02  0.00000000000E+00 0.  1.
</event>
<event>
 5    1  0.3144657E-003  0.9118800E+02  0.7818608E-02  0.1130116E+00
         25   -1    0    0    0    0  0.00000000000E+00  0.00000000000E+00  0.99999998245E-14  0.12500000000E+03  0.12500000000E+03 0.  0.
        -11    1    3    3    0    0  0.22251440638E+02 -0.32509642417E+02 -0.24524470032E+02  0.46405313178E+02  0.51100000000E-03 0.  1.
         23    2    1    0    0    0  0.23135312196E+02 -0.56392308841E+01  0.16907320375E+02  0.95795529835E+02  0.91235313660E+02 0.  0.
         11    1    3    3    0    0  0.88387155779E+00  0.26870411532E+02  0.41431790407E+02  0.49390216657E+02  0.51100000000E-03 0. -1.
         22    1    1    0    0    0 -0.23135312196E+02  0.56392308841E+01 -0.16907320375E+02  0.29204470165E+02  0.00000000000E+00 0.  1.
</event>
<event>
 5    1  0.3144657E-003  0.9118800E+02  0.7818608E-02  0.1130116E+00
         25   -1    0    0    0    0  0.00000000000E+00  0.00000000000E+00  0.99999998245E-14  0.12500000000E+03  0.12500000000E+03 0.  0.
        -11    1    3    3    0    0 -0.13251784507E+02 -0.46201144010E+01  0.29142707031E+02  0.32345828527E+02  0.51100000000E-03 0. -1.
         23    2    1    0    0    0 -0.26509080272E+02 -0.22202539529E+02 -0.19186336798E+02  0.85455093651E+02  0.75754692349E+02 0.  0.
         11    1    3    3    0    0 -0.13257295765E+02 -0.17582425128E+02 -0.48329043830E+02  0.53109265125E+02  0.51100000000E-03 0.  1.
         22    1    1    0    0    0  0.26509080272E+02  0.22202539529E+02  0.19186336798E+02  0.39544906349E+02  0.00000000000E+00 0.  1.
</event>
<event>
 5    1  0.3144657E-003  0.9118800E+02  0.7818608E-02  0.1130116E+00
         25   -1    0    0    0    0  0.00000000000E+00  0.00000000000E+00  0.99999998245E-14  0.12500000000E+03  0.12500000000E+03 0.  0.
        -11    1    3    3    0    0 -0.56295132555E+02 -0.70287513712E+01  0.15537400288E+02  0.58821391544E+02  0.51100000000E-03 0. -1.
         23    2    1    0    0    0 -0.23307581996E+02 -0.14948475118E+02 -0.24185920601E+01  0.97205218576E+02  0.93146683484E+02 0.  0.
         11    1    3    3    0    0  0.32987550560E+02 -0.79197237466E+01 -0.17955992349E+02  0.38383827032E+02  0.51100000000E-03 0.  1.
         22    1    1    0    0    0  0.23307581996E+02  0.14948475118E+02  0.24185920601E+01  0.27794781424E+02  0.00000000000E+00 0. -1.
</event>
<event>
 4    1  0.3144657E-003  0.9118800E+02  0.7818608E-02  0.1130116E+00
         25   -1    0    0    0    0  0.00000000000E+00  0.00000000000E+00  0.99999998245E-14  0.12500000000E+03  0.12500000000E+03 0.  0.
        -11    1    1    0    0    0  0.40180522493E+01  0.24270145832E+01 -0.33847020510E+01  0.57871713211E+01  0.51100000000E-03 0. -1.
         11    1    1    0    0    0  0.13376257032E+02 -0.28542313971E+02 -0.48933135684E+02  0.58206869931E+02  0.51100000000E-03 0.  1.
         22    1    1    0    0    0 -0.17394309281E+02  0.26115299388E+02  0.52317837735E+02  0.61005958748E+02  0.00000000000E+00 0.  1.
</event>
<event>
 5    1  0.3144657E-003  0.9118800E+02  0.7818608E-02  0.1130116E+00
         25   -1    0    0    0    0  0.00000000000E+00  0.00000000000E+00  0.99999998245E-14  0.12500000000E+03  0.12500000000E+03 0.  0.
        -11    1    3    3    0    0  0.26569436033E+02 -0.58661176281E+01 -0.29424208853E+02  0.40076555915E+02  0.51100000000E-03 0. -1.
         23    2    1    0    0    0 -0.25579420896E+02 -0.97361037743E+01 -0.10327705129E+02  0.95746624412E+02  0.91168284524E+02 0.  0.
         11    1    3    3    0    0 -0.52148856929E+02 -0.38699861461E+01  0.19096503723E+02  0.55670068497E+02  0.51100000000E-03 0.  1.
         22    1    1    0    0    0  0.25579420896E+02  0.97361037743E+01  0.10327705129E+02  0.29253375588E+02  0.00000000000E+00 0.  1.
</event>
<event>
 5    1  0.3144657E-003  0.9118800E+02  0.7818608E-02  0.1130116E+00
         25   -1    0    0    0    0  0.00000000000E+00  0.00000000000E+00  0.99999998245E-14  0.12500000000E+03  0.12500000000E+03 0.  0.
        -11    1    3    3    0    0  0.81204926403E+01 -0.26405088838E+02 -0.27686283009E+02  0.39111397116E+02  0.51100000000E-03 0.  1.
         23    2    1    0    0    0  0.10664584014E+02  0.18219793756E+02  0.13541215978E+02  0.99918956025E+02  0.96719899742E+02 0.  0.
         11    1    3    3    0    0  0.25440913736E+01  0.44624882594E+02  0.41227498988E+02  0.60807558909E+02  0.51100000000E-03 0. -1.
         22    1    1    0    0    0 -0.10664584014E+02 -0.18219793756E+02 -0.13541215978E+02  0.25081043975E+02  0.00000000000E+00 0. -1.
</event>
<event>
 5    1  0.3144657E-003  0.9118800E+02  0.7818608E-02  0.1130116E+00
         25   -1    0    0    0    0  0.00000000000E+00  0.00000000000E+00  0.99999998245E-14  0.12500000000E+03  0.12500000000E+03 0.  0.
        -11    1    3    3    0    0 -0.98907308977E+01  0.59735493966E+01 -0.42644768052E+02  0.44182418364E+02  0.51100000000E-03 0.  1.
         23    2    1    0    0    0 -0.77808811029E+00  0.28864493879E+02  0.29157946968E+01  0.95978175682E+02  0.91485211485E+02 0.  0.
         11    1    3    3    0    0  0.91126427875E+01  0.22890944483E+02  0.45560562749E+02  0.51795757318E+02  0.51100000000E-03 0. -1.
         22    1    1    0    0    0  0.77808811029E+00 -0.28864493879E+02 -0.29157946968E+01  0.29021824318E+02  0.00000000000E+00 0. -1.
</event>
<event>
 5    1  0.3144657E-003  0.9118800E+02  0.7818608E-02  0.1130116E+00
         25   -1    0    0    0    0  0.00000000000E+00  0.00000000000E+00  0.99999998245E-14  0.12500000000E+03  0.12500000000E+03 0.  0.
        -11    1    3    3    0    0 -0.53266249389E+02 -0.41438704260E+01 -0.40944013685E+01  0.53583851195E+02  0.51100000000E-03 0. -1.
         23    2    1    0    0    0 -0.18781019984E+02 -0.25100193231E+01  0.21337554143E+02  0.96463740164E+02  0.92146269816E+02 0.  0.
         11    1    3    3    0    0  0.34485229405E+02  0.16338511028E+01  0.25431955512E+02  0.42879888969E+02  0.51100000000E-03 0.  1.
         22    1    1    0    0    0  0.18781019984E+02  0.25100193231E+01 -0.21337554143E+02  0.28536259836E+02  0.00000000000E+00 0. -1.
</event>
<event>
 5    1  0.3144657E-003  0.9118800E+02  0.7818608E-02  0.1130116E+00
         25   -1    0    0    0    0  0.00000000000E+00  0.00000000000E+00  0.99999998245E-14  0.12500000000E+03  0.12500000000E+03 0.  0.
        -11    1    3    3    0    0 -0.16099718600E+02 -0.30688369254E+01  0.33292722951E+02  0.37108275368E+02  0.51100000000E-03 0.  1.
         23    2    1    0    0    0 -0.16817216525E+02 -0.12044554093E+02 -0.22970973126E+02  0.94087936638E+02  0.88864977125E+02 0.  0.
         11    1    3    3    0    0 -0.71749792484E+00 -0.89757171672E+01 -0.56263696077E+02  0.56979661270E+02  0.51100000000E-03 0. -1.
         22    1    1    0    0    0  0.16817216525E+02  0.12044554093E+02  0.22970973126E+02  0.30912063362E+02  0.00000000000E+00 0. -1.
</event>
<event>
 5    1  0.3144657E-003  0.9118800E+02  0.7818608E-02  0.1130116E+00
         25   -1    0    0    0    0  0.00000000000E+00  0.00000000000E+00  0.99999998245E-14  0.12500000000E+03  0.12500000000E+03 0.  0.
        -11    1    3    3    0    0  0.42150019777E+02  0.10521878888E+02 -0.79903541832E+01  0.44172161627E+02  0.51100000000E-03 0.  1.
         23    2    1    0    0    0  0.96929030333E+01 -0.17617054687E+02 -0.27155790388E+02  0.91210209580E+02  0.84720436702E+02 0.  0.
         11    1    3    3    0    0 -0.32457116744E+02 -0.28138933574E+02 -0.19165436205E+02  0.47038047953E+02  0.51100000000E-03 0. -1.
         22    1    1    0    0    0 -0.96929030333E+01  0.17617054687E+02  0.27155790388E+02  0.33789790420E+02  0.00000000000E+00 0. -1.
</event>
<event>
 5    1  0.3144657E-003  0.9118800E+02  0.7818608E-02  0.1130116E+00
         25   -1    0    0    0    0  0.00000000000E+00  0.00000000000E+00  0.99999998245E-14  0.12500000000E+03  0.12500000000E+03 0.  0.
        -11    1    3    3    0    0  0.49621493769E+02 -0.75036740427E+01  0.21219460382E+02  0.54487276195E+02  0.51100000000E-03 0. -1.
         23    2    1    0    0    0  0.20510524197E+02 -0.17872440771E+02  0.27822539205E+02  0.86087284472E+02  0.76790761931E+02 0.  0.
         11    1    3    3    0    0 -0.29110969572E+02 -0.10368766728E+02  0.66030788232E+01  0.31600008277E+02  0.51100000000E-03 0.  1.
         22    1    1    0    0    0 -0.20510524197E+02  0.17872440771E+02 -0.27822539205E+02  0.38912715528E+02  0.00000000000E+00 0. -1.
</event>
<event>
 5    1  0.3144657E-003  0.9118800E+02  0.7818608E-02  0.1130116E+00
         25   -1    0    0    0    0  0.00000000000E+00  0.00000000000E+00  0.99999998245E-14  0.12500000000E+03  0.12500000000E+03 0.  0.
        -11    1    3    3    0    0 -0.60464069092E+02 -0.63902255621E+00 -0.67744648671E+00  0.60471240561E+02  0.51100000000E-03 0.  1.
         23    2    1    0    0    0 -0.26779608921E+02  0.30769557251E+01 -0.10983340295E+02  0.95892460178E+02  0.91368019812E+02 0.  0.
         11    1    3    3    0    0  0.33684460172E+02  0.37159782813E+01 -0.10305893808E+02  0.35421219616E+02  0.51100000000E-03 0. -1.
         22    1    1    0    0    0  0.26779608921E+02 -0.30769557251E+01  0.10983340295E+02  0.29107539822E+02  0.00000000000E+00 0.  1.
</event>
<event>
 5    1  0.3144657E-003  0.9118800E+02  0.7818608E-02  0.1130116E+00
         25   -1    0    0    0    0  0.00000000000E+00  0.00000000000E+00  0.99999998245E-14  0.12500000000E+03  0.12500000000E+03 0.  0.
        -11    1    3    3    0    0 -0.13983534966E+02 -0.13224649230E+02 -0.31663686646E+02  0.37054279775E+02  0.51100000000E-03 0.  1.
         23    2    1    0    0    0 -0.15805215160E+02 -0.13746966825E+02  0.24224649073E+02  0.92974735819E+02  0.87285072921E+02 0.  0.
         11    1    3    3    0    0 -0.18216801935E+01 -0.52231759485E+00  0.55888335719E+02  0.55920456044E+02  0.51100000000E-03 0. -1.
         22    1    1    0    0    0  0.15805215160E+02  0.13746966825E+02 -0.24224649073E+02  0.32025264181E+02  0.00000000000E+00 0. -1.
</event>
<event>
 5    1  0.3144657E-003  0.9118800E+02  0.7818608E-02  0.1130116E+00
         25   -1    0    0    0    0  0.00000000000E+00  0.00000000000E+00  0.99999998245E-14  0.12500000000E+03  0.12500000000E+03 0.  0.
        -11    1    3    3    0    0 -0.29660388774E+02 -0.18201783863E+02 -0.33859670132E+02  0.48554308353E+02  0.51100000000E-03 0. -1.
         23    2    1    0    0    0 -0.12199773804E+02 -0.25114527248E+02  0.92582223247E+01  0.95584211036E+02  0.90945328407E+02 0.  0.
         11    1    3    3    0    0  0.17460614969E+02 -0.69127433847E+01  0.43117892456E+02  0.47029902683E+02  0.51100000000E-03 0.  1.
         22    1    1    0    0    0  0.12199773804E+02  0.25114527248E+02 -0.92582223247E+01  0.29415788964E+02  0.00000000000E+00 0.  1.
</event>
<event>
 5    1  0.3144657E-003  0.9118800E+02  0.7818608E-02  0.1130116E+00
         25   -1    0    0    0    0  0.00000000000E+00  0.00000000000E+00  0.99999998245E-14  0.12500000000E+03  0.12500000000E+03 0.  0.
        -11    1    3    3    0    0  0.46840128232E+02 -0.20392392068E+02 -0.89104892737E+00  0.51094434486E+02  0.51100000000E-03 0.  1.
         23    2    1    0    0    0  0.16980870667E+02 -0.25189830114E+02  0.20687744652E+02  0.88245948678E+02  0.80227720705E+02 0.  0.
         11    1    3    3    0    0 -0.29859257565E+02 -0.47974380465E+01  0.21578793579E+02  0.37151514192E+02  0.51100000000E-03 0. -1.
         22    1    1    0    0    0 -0.16980870667E+02  0.25189830114E+02 -0.20687744652E+02  0.36754051322E+02  0.00000000000E+00 0.  1.
</event>
<event>
 5    1  0.3144657E-003  0.9118800E+02  0.7818608E-02  0.1130116E+00
         25   -1    0    0    0    0  0.00000000000E+00  0.00000000000E+00  0.99999998245E-14  0.12500000000E+03  0.12500000000E+03 0.  0.
        -11    1    3    3    0    0  0.14727631654E+02  0.31227681562E+02  0.48377384459E+02  0.59434355025E+02  0.51100000000E-03 0.  1.
         23    2    1    0    0    0 -0.20596930895E+01  0.72074660083E+01  0.30119640193E+02  0.93961594319E+02  0.88687082372E+02 0.  0.
         11    1    3    3    0    0 -0.16787324744E+02 -0.24020215554E+02 -0.18257744266E+02  0.34527239294E+02  0.51100000000E-03 0. -1.
         22    1    1    0    0    0  0.20596930895E+01 -0.72074660083E+01 -0.30119640193E+02  0.31038405681E+02  0.00000000000E+00 0.  1.
</event>
<event>
 5    1  0.3144657E-003  0.9118800E+02  0.7818608E-02  0.1130116E+00
         25   -1    0    0    0    0  0.00000000000E+00  0.00000000000E+00  0.99999998245E-14  0.12500000000E+03  0.12500000000E+03 0.  0.
        -11    1    3    3    0    0 -0.28776475617E+01 -0.50669890520E+02 -0.32579907645E+02  0.60308946627E+02  0.51100000000E-03 0. -1.
         23    2    1    0    0    0 -0.12902187884E+02 -0.24570158872E+02 -0.13652490047E+02  0.94071863236E+02  0.88842364945E+02 0.  0.
         11    1    3    3    0    0 -0.10024540322E+02  0.26099731648E+02  0.18927417599E+02  0.33762916609E+02  0.51100000000E-03 0.  1.
         22    1    1    0    0    0  0.12902187884E+02  0.24570158872E+02  0.13652490047E+02  0.30928136764E+02  0.00000000000E+00 0. -1.
</event>
<event>
 5    1  0.3144657E-003  0.9118800E+02  0.7818608E-02  0.1130116E+00
         25   -1    0    0    0    0  0.00000000000E+00  0.00000000000E+00  0.99999998245E-14  0.12500000000E+03  0.12500000000E+03 0.  0.
        -11    1    3    3    0    0 -0.18181583040E+02 -0.28970159771E+02  0.39895342832E+02  0.52549771636E+02  0.51100000000E-03 0. -1.
         23    2    1    0    0    0 -0.22432373431E+02  0.64534009916E+01  0.23713205385E+02  0.91725777669E+02  0.85477742233E+02 0.  0.
         11    1    3    3    0    0 -0.42507903906E+01  0.35423560763E+02 -0.16182137447E+02  0.39176006033E+02  0.51100000000E-03 0.  1.
         22    1    1    0    0    0  0.22432373431E+02 -0.64534009916E+01 -0.23713205385E+02  0.33274222331E+02  0.00000000000E+00 0. -1.
</event>
<event>
 5    1  0.3144657E-003  0.9118800E+02  0.7818608E-02  0.1130116E+00
         25   -1    0    0    0    0  0.00000000000E+00  0.00000000000E+00  0.99999998245E-14  0.12500000000E+03  0.12500000000E+03 0.  0.
        -11    1    3    3    0    0  0.35952849834E+02  0.21443181700E+02  0.97547190448E+01  0.42983392101E+02  0.51100000000E-03 0. -1.
         23    2    1    0    0    0  0.30728054678E+00  0.94468587462E+01 -0.27499765806E+02  0.95921233160E+02  0.91407375469E+02 0.  0.
         11    1    3    3    0    0 -0.35645569287E+02 -0.11996322954E+02 -0.37254484851E+02  0.52937841059E+02  0.51100000000E-03 0.  1.
         22    1    1    0    0    0 -0.30728054678E+00 -0.94468587462E+01  0.27499765806E+02  0.29078766840E+02  0.00000000000E+00 0. -1.
</event>
<event>
 5    1  0.3144657E-003  0.9118800E+02  0.7818608E-02  0.1130116E+00
         25   -1    0    0    0    0  0.00000000000E+00  0.00000000000E+00  0.99999998245E-14  0.12500000000E+03  0.12500000000E+03 0.  0.
        -11    1    3    3    0    0 -0.14853338520E+02 -0.58366587190E+02  0.12529839201E+01  0.60239938034E+02  0.51100000000E-03 0.  1.
         23    2    1    0    0    0 -0.13257876126E+02 -0.22949925006E+02 -0.87707735820E+01  0.97082320899E+02  0.92981612294E+02 0.  0.
         11    1    3    3    0    0  0.15954623941E+01  0.35416662184E+02 -0.10023757502E+02  0.36842382865E+02  0.51100000000E-03 0. -1.
         22    1    1    0    0    0  0.13257876126E+02  0.22949925006E+02  0.87707735820E+01  0.27917679101E+02  0.00000000000E+00 0.  1.
</event>
<event>
 5    1  0.3144657E-003  0.9118800E+02  0.7818608E-02  0.1130116E+00
         25   -1    0    0    0    0  0.00000000000E+00  0.00000000000E+00  0.99999998245E-14  0.12500000000E+03  0.12500000000E+03 0.  0.
        -11    1    3    3    0    0  0.28022617147E+02 -0.32679244496E+02  0.16680265966E+02  0.46167427539E+02  0.51100000000E-03 0.  1.
         23    2    1    0    0    0  0.16853940764E+02 -0.52074475074E+01 -0.23193776313E+02  0.95860266156E+02  0.91323964758E+02 0.  0.
         11    1    3    3    0    0 -0.11168676383E+02  0.27471796988E+02 -0.39874042279E+02  0.49692838618E+02  0.51100000000E-03 0. -1.
         22    1    1    0    0    0 -0.16853940764E+02  0.52074475074E+01  0.23193776313E+02  0.29139733844E+02  0.00000000000E+00 0.  1.
</event>
<event>
 5    1  0.3144657E-003  0.9118800E+02  0.7818608E-02  0.1130116E+00
         25   -1    0    0    0    0  0.00000000000E+00  0.00000000000E+00  0.99999998245E-14  0.12500000000E+03  0.12500000000E+03 0.  0.
        -11    1    3    3    0    0 -0.23729038345E+02 -0.22580395002E+02  0.13563543121E+02  0.35452943481E+02  0.51100000000E-03 0.  1.
         23    2    1    0    0    0  0.11031632098E+02  0.25405555574E+02  0.12233882545E+02  0.94721178310E+02  0.89751292902E+02 0.  0.
         11    1    3    3    0    0  0.34760670443E+02  0.47985950576E+02 -0.13296605756E+01  0.59268234830E+02  0.51100000000E-03 0. -1.
         22    1    1    0    0    0 -0.11031632098E+02 -0.25405555574E+02 -0.12233882545E+02  0.30278821690E+02  0.00000000000E+00 0. -1.
</event>
<event>
 5    1  0.3144657E-003  0.9118800E+02  0.7818608E-02  0.1130116E+00
         25   -1    0    0    0    0  0.00000000000E+00  0.00000000000E+00  0.99999998245E-14  0.12500000000E+03  0.12500000000E+03 0.  0.
        -11    1    3    3    0    0  0.31923018520E+02 -0.80396529635E+01 -0.22140720424E+01  0.32994200195E+02  0.51100000000E-03 0. -1.
         23    2    1    0    0    0 -0.29660347825E+02  0.11700804719E+01  0.33740407474E+00  0.95314664177E+02  0.90574091463E+02 0.  0.
         11    1    3    3    0    0 -0.61583366345E+02  0.92097334354E+01  0.25514761171E+01  0.62320463982E+02  0.51100000000E-03 0.  1.
         22    1    1    0    0    0  0.29660347825E+02 -0.11700804719E+01 -0.33740407474E+00  0.29685335823E+02  0.00000000000E+00 0.  1.
</event>
<event>
 5    1  0.3144657E-003  0.9118800E+02  0.7818608E-02  0.1130116E+00
         25   -1    0    0    0    0  0.00000000000E+00  0.00000000000E+00  0.99999998245E-14  0.12500000000E+03  0.12500000000E+03 0.  0.
        -11    1    3    3    0    0  0.59009320710E+02 -0.71448699667E+01 -0.11832872745E+02  0.60606649595E+02  0.51100000000E-03 0. -1.
         23    2    1    0    0    0  0.23775581721E+02 -0.32776261972E+01 -0.15788467287E+02  0.96272020277E+02  0.91885826270E+02 0.  0.
         11    1    3    3    0    0 -0.35233738988E+02  0.38672437695E+01 -0.39555945420E+01  0.35665370682E+02  0.51100000000E-03 0.  1.
         22    1    1    0    0    0 -0.23775581721E+02  0.32776261972E+01  0.15788467287E+02  0.28727979723E+02  0.00000000000E+00 0. -1.
</event>
<event>
 5    1  0.3144657E-003  0.9118800E+02  0.7818608E-02  0.1130116E+00
         25   -1    0    0    0    0  0.00000000000E+00  0.00000000000E+00  0.99999998245E-14  0.12500000000E+03  0.12500000000E+03 0.  0.
        -11    1    3    3    0    0  0.79699030365E+01  0.18298547405E+02  0.40595664576E+02  0.45236756892E+02  0.51100000000E-03 0. -1.
         23    2    1    0    0    0  0.28699069555E+02 -0.20177070994E+00 -0.21512771639E+01  0.96219706427E+02  0.91814631768E+02 0.  0.
         11    1    3    3    0    0  0.20729166518E+02 -0.18500318115E+02 -0.42746941740E+02  0.50982949534E+02  0.51100000000E-03 0.  1.
         22    1    1    0    0    0 -0.28699069555E+02  0.20177070994E+00  0.21512771639E+01  0.28780293573E+02  0.00000000000E+00 0.  1.
</event>
<event>
 5    1  0.3144657E-003  0.9118800E+02  0.7818608E-02  0.1130116E+00
         25   -1    0    0    0    0  0.00000000000E+00  0.00000000000E+00  0.99999998245E-14  0.12500000000E+03  0.12500000000E+03 0.  0.
        -11    1    3    3    0    0 -0.60298097372E+01 -0.34787283580E+02 -0.22905145994E+02  0.42085144857E+02  0.51100000000E-03 0.  1.
         23    2    1    0    0    0 -0.21387905253E+02 -0.77792216581E+01  0.19757215877E+02  0.94861878626E+02  0.89947038064E+02 0.  0.
         11    1    3    3    0    0 -0.15358095516E+02  0.27008061922E+02  0.42662361871E+02  0.52776733769E+02  0.51100000000E-03 0. -1.
         22    1    1    0    0    0  0.21387905253E+02  0.77792216581E+01 -0.19757215877E+02  0.30138121374E+02  0.00000000000E+00 0. -1.
</event>
<event>
 5    1  0.3144657E-003  0.9118800E+02  0.7818608E-02  0.1130116E+00
         25   -1    0    0    0    0  0.00000000000E+00  0.00000000000E+00  0.99999998245E-14  0.12500000000E+03  0.12500000000E+03 0.  0.
        -11    1    3    3    0    0 -0.17233096322E+01 -0.10290359531E+02 -0.58302654625E+02  0.59228885115E+02  0.51100000000E-03 0.  1.
         23    2    1    0    0    0 -0.56339242114E+01  0.87597242556E+01 -0.26758639258E+02  0.96285915547E+02  0.91904727227E+02 0.  0.
         11    1    3    3    0    0 -0.39106145793E+01  0.19050083786E+02  0.31544015368E+02  0.37057030432E+02  0.51100000000E-03 0. -1.
         22    1    1    0    0    0  0.56339242114E+01 -0.87597242556E+01  0.26758639258E+02  0.28714084453E+02  0.00000000000E+00 0.  1.
</event>
<event>
 5    1  0.3144657E-003  0.9118800E+02  0.7818608E-02  0.1130116E+00
         25   -1    0    0    0    0  0.00000000000E+00  0.00000000000E+00  0.99999998245E-14  0.12500000000E+03  0.12500000000E+03 0.  0.
        -11    1    3    3    0    0  0.52243534954E+02  0.10279211915E+01  0.32419323537E+02  0.61493545233E+02  0.51100000000E-03 0.  1.
         23    2    1    0    0    0  0.21931729280E+02  0.76098471223E+01  0.17588796814E+02  0.95874816811E+02  0.91343878847E+02 0.  0.
         11    1    3    3    0    0 -0.30311805674E+02  0.65819259308E+01 -0.14830526723E+02  0.34381271578E+02  0.51100000000E-03 0. -1.
         22    1    1    0    0    0 -0.21931729280E+02 -0.76098471223E+01 -0.17588796814E+02  0.29125183189E+02  0.00000000000E+00 0.  1.
</event>
<event>
 5    1  0.3144657E-003  0.9118800E+02  0.7818608E-02  0.1130116E+00
         25   -1    0    0    0    0  0.00000000000E+00  0.00000000000E+00  0.99999998245E-14  0.12500000000E+03  0.12500000000E+03 0.  0.
        -11    1    3    3    0    0  0.28935337756E+02  0.31937422572E+02  0.39205840331E+02  0.58261056014E+02  0.51100000000E-03 0. -1.
         23    2    1    0    0    0  0.26029973298E+02  0.45251676386E+01  0.20160459694E+02  0.91766270340E+02  0.85536936962E+02 0.  0.
         11    1    3    3    0    0 -0.29053644578E+01 -0.27412254933E+02 -0.19045380637E+02  0.33505214326E+02  0.51100000000E-03 0.  1.
         22    1    1    0    0    0 -0.26029973298E+02 -0.45251676386E+01 -0.20160459694E+02  0.33233729660E+02  0.00000000000E+00 0. -1.
</event>
<event>
 5    1  0.3144657E-003  0.9118800E+02  0.7818608E-02  0.1130116E+00
         25   -1    0    0    0    0  0.00000000000E+00  0.00000000000E+00  0.99999998245E-14  0.12500000000E+03  0.12500000000E+03 0.  0.
        -11    1    3    3    0    0 -0.59381985389E+01 -0.33354466936E+02 -0.40631970972E+00  0.33881377812E+02  0.51100000000E-03 0.  1.
         23    2    1    0    0    0 -0.19123475732E+02  0.24106071084E+02 -0.76894688195E+01  0.93283475633E+02  0.87726101636E+02 0.  0.
         11    1    3    3    0    0 -0.13185277193E+02  0.57460538021E+02 -0.72831491098E+01  0.59402097821E+02  0.51100000000E-03 0. -1.
         22    1    1    0    0    0  0.19123475732E+02 -0.24106071084E+02  0.76894688195E+01  0.31716524367E+02  0.00000000000E+00 0. -1.
</event>
<event>
 5    1  0.3144657E-003  0.9118800E+02  0.7818608E-02  0.1130116E+00
         25   -1    0    0    0    0  0.00000000000E+00  0.00000000000E+00  0.99999998245E-14  0.12500000000E+03  0.12500000000E+03 0.  0.
        -11    1    3    3    0    0  0.33663752053E+02  0.18109004679E+02 -0.16955369586E+02  0.41817087546E+02  0.51100000000E-03 0. -1.
         23    2    1    0    0    0 -0.13562491956E+02  0.28925620986E+02 -0.29318499066E+00  0.93051311530E+02  0.87394667358E+02 0.  0.
         11    1    3    3    0    0 -0.47226244009E+02  0.10816616307E+02  0.16662184595E+02  0.51234223984E+02  0.51100000000E-03 0.  1.
         22    1    1    0    0    0  0.13562491956E+02 -0.28925620986E+02  0.29318499066E+00  0.31948688470E+02  0.00000000000E+00 0.  1.
</event>
<event>
 5    1  0.3144657E-003  0.9118800E+02  0.7818608E-02  0.1130116E+00
         25   -1    0    0    0    0  0.00000000000E+00  0.00000000000E+00  0.99999998245E-14  0.12500000000E+03  0.12500000000E+03 0.  0.
        -11    1    3    3    0    0  0.30920427648E+01 -0.33053255241E+02 -0.10435333704E+02  0.34799060335E+02  0.51100000000E-03 0.  1.
         23    2    1    0    0    0  0.55118249618E+01  0.98237446506E+01  0.29487268518E+02  0.93434430497E+02  0.87940932587E+02 0.  0.
         11    1    3    3    0    0  0.24197821970E+01  0.42876999891E+02  0.39922602222E+02  0.58635370162E+02  0.51100000000E-03 0. -1.
         22    1    1    0    0    0 -0.55118249618E+01 -0.98237446506E+01 -0.29487268518E+02  0.31565569503E+02  0.00000000000E+00 0. -1.
</event>
<event>
 5    1  0.3144657E-003  0.9118800E+02  0.7818608E-02  0.1130116E+00
         25   -1    0    0    0    0  0.00000000000E+00  0.00000000000E+00  0.99999998245E-14  0.12500000000E+03  0.12500000000E+03 0.  0.
        -11    1    3    3    0    0 -0.86831682418E+01  0.23030723621E+02  0.47617266858E+02  0.53602385623E+02  0.51100000000E-03 0.  1.
         23    2    1    0    0    0 -0.13316666497E+02 -0.11817797238E+02  0.19282072086E+02  0.98755148275E+02  0.95203923600E+02 0.  0.
         11    1    3    3    0    0 -0.46334982552E+01 -0.34848520858E+02 -0.28335194772E+02  0.45152762652E+02  0.51100000000E-03 0. -1.
         22    1    1    0    0    0  0.13316666497E+02  0.11817797238E+02 -0.19282072086E+02  0.26244851725E+02  0.00000000000E+00 0. -1.
</event>
<event>
 5    1  0.3144657E-003  0.9118800E+02  0.7818608E-02  0.1130116E+00
         25   -1    0    0    0    0  0.00000000000E+00  0.00000000000E+00  0.99999998245E-14  0.12500000000E+03  0.12500000000E+03 0.  0.
        -11    1    3    3    0    0 -0.27609819041E+01 -0.36647693028E+02 -0.43125248161E+02  0.56660951761E+02  0.51100000000E-03 0. -1.
         23    2    1    0    0    0 -0.11983941106E+01 -0.24657988722E+01 -0.32348571018E+02  0.92535459969E+02  0.86653707320E+02 0.  0.
         11    1    3    3    0    0  0.15625877935E+01  0.34181894155E+02  0.10776677143E+02  0.35874508208E+02  0.51100000000E-03 0.  1.
         22    1    1    0    0    0  0.11983941106E+01  0.24657988722E+01  0.32348571018E+02  0.32464540031E+02  0.00000000000E+00 0. -1.
</event>
<event>
 5    1  0.3144657E-003  0.9118800E+02  0.7818608E-02  0.1130116E+00
         25   -1    0    0    0    0  0.00000000000E+00  0.00000000000E+00  0.99999998245E-14  0.12500000000E+03  0.12500000000E+03 0.  0.
        -11    1    3    3    0    0 -0.26932409904E+02  0.34758647481E+02  0.16420054717E+02  0.46937580627E+02  0.51100000000E-03 0. -1.
         23    2    1    0    0    0  0.17970660904E+02  0.14405789525E+02  0.17216705999E+02  0.96244367671E+02  0.91848200406E+02 0.  0.
         11    1    3    3    0    0  0.44903070809E+02 -0.20352857957E+02  0.79665128231E+00  0.49306787044E+02  0.51100000000E-03 0.  1.
         22    1    1    0    0    0 -0.17970660904E+02 -0.14405789525E+02 -0.17216705999E+02  0.28755632329E+02  0.00000000000E+00 0. -1.
</event>
<event>
 5    1  0.3144657E-003  0.9118800E+02  0.7818608E-02  0.1130116E+00
         25   -1    0    0    0    0  0.00000000000E+00  0.00000000000E+00  0.99999998245E-14  0.12500000000E+03  0.12500000000E+03 0.  0.
        -11    1    3    3    0    0 -0.21916967121E+02  0.11324698678E+02 -0.46135537792E+02  0.52317206496E+02  0.51100000000E-03 0.  1.
         23    2    1    0    0    0 -0.12923909574E+01 -0.18533679111E+02 -0.23325739315E+02  0.95179576624E+02  0.90387466807E+02 0.  0.
         11    1    3    3    0    0  0.20624576163E+02 -0.29858377788E+02  0.22809798478E+02  0.42862370127E+02  0.51100000000E-03 0. -1.
         22    1    1    0    0    0  0.12923909574E+01  0.18533679111E+02  0.23325739315E+02  0.29820423376E+02  0.00000000000E+00 0.  1.
</event>
<event>
 5    1  0.3144657E-003  0.9118800E+02  0.7818608E-02  0.1130116E+00
         25   -1    0    0    0    0  0.00000000000E+00  0.00000000000E+00  0.99999998245E-14  0.12500000000E+03  0.12500000000E+03 0.  0.
        -11    1    3    3    0    0 -0.52285111945E+01 -0.19103557424E+01 -0.37086225130E+02  0.37501665070E+02  0.51100000000E-03 0. -1.
         23    2    1    0    0    0  0.20602760421E+02  0.14362252673E+02  0.13425003992E+02  0.96522310996E+02  0.92225689203E+02 0.  0.
         11    1    3    3    0    0  0.25831271616E+02  0.16272608416E+02  0.50511229122E+02  0.59020645926E+02  0.51100000000E-03 0.  1.
         22    1    1    0    0    0 -0.20602760421E+02 -0.14362252673E+02 -0.13425003992E+02  0.28477689004E+02  0.00000000000E+00 0.  1.
</event>
<event>
 5    1  0.3144657E-003  0.9118800E+02  0.7818608E-02  0.1130116E+00
         25   -1    0    0    0    0  0.00000000000E+00  0.00000000000E+00  0.99999998245E-14  0.12500000000E+03  0.12500000000E+03 0.  0.
        -11    1    3    3    0    0 -0.15739697742E+02 -0.42365147368E+02 -0.25905129137E+02  0.52092413194E+02  0.51100000000E-03 0. -1.
         23    2    1    0    0    0  0.45803370153E+01 -0.25461796188E+02  0.10499179826E+02  0.97080198258E+02  0.92978758674E+02 0.  0.
         11    1    3    3    0    0  0.20320034758E+02  0.16903351180E+02  0.36404308963E+02  0.44987785064E+02  0.51100000000E-03 0.  1.
         22    1    1    0    0    0 -0.45803370153E+01  0.25461796188E+02 -0.10499179826E+02  0.27919801742E+02  0.00000000000E+00 0. -1.
</event>
<event>
 5    1  0.3144657E-003  0.9118800E+02  0.7818608E-02  0.1130116E+00
         25   -1    0    0    0    0  0.00000000000E+00  0.00000000000E+00  0.99999998245E-14  0.12500000000E+03  0.12500000000E+03 0.  0.
        -11    1    3    3    0    0  0.32099657243E+02 -0.40254897173E+02  0.62427080746E+01  0.51863437467E+02  0.51100000000E-03 0.  1.
         23    2    1    0    0    0  0.24689836851E+02 -0.23217529758E+01  0.20260568485E+02  0.92977051729E+02  0.87288389447E+02 0.  0.
         11    1    3    3    0    0 -0.74098203919E+01  0.37933144197E+02  0.14017860411E+02  0.41113614262E+02  0.51100000000E-03 0. -1.
         22    1    1    0    0    0 -0.24689836851E+02  0.23217529758E+01 -0.20260568485E+02  0.32022948271E+02  0.00000000000E+00 0.  1.
</event>
<event>
 5    1  0.3144657E-003  0.9118800E+02  0.7818608E-02  0.1130116E+00
         25   -1    0    0    0    0  0.00000000000E+00  0.00000000000E+00  0.99999998245E-14  0.12500000000E+03  0.12500000000E+03 0.  0.
        -11    1    3    3    0    0  0.52603751162E+01 -0.23134777627E+01  0.35873639154E+02  0.36331002080E+02  0.51100000000E-03 0. -1.
         23    2    1    0    0    0  0.10644754143E+02  0.15537600706E+02 -0.21358312750E+02  0.96523600122E+02  0.92227436431E+02 0.  0.
         11    1    3    3    0    0  0.53843790271E+01  0.17851078469E+02 -0.57231951904E+02  0.60192598042E+02  0.51100000000E-03 0.  1.
         22    1    1    0    0    0 -0.10644754143E+02 -0.15537600706E+02  0.21358312750E+02  0.28476399878E+02  0.00000000000E+00 0.  1.
</event>
<event>
 5    1  0.3144657E-003  0.9118800E+02  0.7818608E-02  0.1130116E+00
         25   -1    0    0    0    0  0.00000000000E+00  0.00000000000E+00  0.99999998245E-14  0.12500000000E+03  0.12500000000E+03 0.  0.
        -11    1    3    3    0    0 -0.22150216020E+02 -0.38406276283E+02  0.92571216675E+01  0.45292034945E+02  0.51100000000E-03 0. -1.
         23    2    1    0    0    0  0.11659684063E+02 -0.15530700212E+02 -0.21219298566E+02  0.96235273109E+02  0.91835822407E+02 0.  0.
         11    1    3    3    0    0  0.33809900082E+02  0.22875576071E+02 -0.30476420233E+02  0.50943238164E+02  0.51100000000E-03 0.  1.
         22    1    1    0    0    0 -0.11659684063E+02  0.15530700212E+02  0.21219298566E+02  0.28764726891E+02  0.00000000000E+00 0.  1.
</event>
<event>
 5    1  0.3144657E-003  0.9118800E+02  0.7818608E-02  0.1130116E+00
         25   -1    0    0    0    0  0.00000000000E+00  0.00000000000E+00  0.99999998245E-14  0.12500000000E+03  0.12500000000E+03 0.  0.
        -11    1    3    3    0    0  0.40906389927E+02  0.23329870029E+02 -0.36852018993E+02  0.59797047390E+02  0.51100000000E-03 0. -1.
         23    2    1    0    0    0  0.19787429902E+02  0.21073355613E+02 -0.92007986222E+01  0.94663826968E+02  0.89671381957E+02 0.  0.
         11    1    3    3    0    0 -0.21118960025E+02 -0.22565144159E+01  0.27651220371E+02  0.34866779578E+02  0.51100000000E-03 0.  1.
         22    1    1    0    0    0 -0.19787429902E+02 -0.21073355613E+02  0.92007986222E+01  0.30336173032E+02  0.00000000000E+00 0. -1.
</event>
<event>
 5    1  0.3144657E-003  0.9118800E+02  0.7818608E-02  0.1130116E+00
         25   -1    0    0    0    0  0.00000000000E+00  0.00000000000E+00  0.99999998245E-14  0.12500000000E+03  0.12500000000E+03 0.  0.
        -11    1    3    3    0    0 -0.27158446598E+02 -0.28438431400E+02 -0.52680813071E+01  0.39674655424E+02  0.51100000000E-03 0.  1.
         23    2    1    0    0    0  0.16128090508E+02 -0.11432691748E+02 -0.27426811527E+02  0.91190951884E+02  0.84692018342E+02 0.  0.
         11    1    3    3    0    0  0.43286537105E+02  0.17005739652E+02 -0.22158730219E+02  0.51516296459E+02  0.51100000000E-03 0. -1.
         22    1    1    0    0    0 -0.16128090508E+02  0.11432691748E+02  0.27426811527E+02  0.33809048116E+02  0.00000000000E+00 0. -1.
</event>
<event>
 5    1  0.3144657E-003  0.9118800E+02  0.7818608E-02  0.1130116E+00
         25   -1    0    0    0    0  0.00000000000E+00  0.00000000000E+00  0.99999998245E-14  0.12500000000E+03  0.12500000000E+03 0.  0.
        -11    1    3    3    0    0 -0.47426229192E+02 -0.88295460996E+01  0.35870856493E+01  0.48374324630E+02  0.51100000000E-03 0.  1.
         23    2    1    0    0    0 -0.16849943870E+02  0.24840402834E+02 -0.47400835285E+01  0.94611933046E+02  0.89599013730E+02 0.  0.
         11    1    3    3    0    0  0.30576285322E+02  0.33669948933E+02 -0.83271691777E+01  0.46237608416E+02  0.51100000000E-03 0. -1.
         22    1    1    0    0    0  0.16849943870E+02 -0.24840402834E+02  0.47400835285E+01  0.30388066954E+02  0.00000000000E+00 0.  1.
</event>
<event>
 5    1  0.3144657E-003  0.9118800E+02  0.7818608E-02  0.1130116E+00
         25   -1    0    0    0    0  0.00000000000E+00  0.00000000000E+00  0.99999998245E-14  0.12500000000E+03  0.12500000000E+03 0.  0.
        -11    1    3    3    0    0  0.32774315713E+02  0.90470009206E+00  0.16725402476E+02  0.36806430701E+02  0.51100000000E-03 0. -1.
         23    2    1    0    0    0 -0.15923883901E+02  0.26311523289E+02 -0.72366444179E-01  0.94244974830E+02  0.89085597644E+02 0.  0.
         11    1    3    3    0    0 -0.48698199615E+02  0.25406823197E+02 -0.16797768920E+02  0.57438544129E+02  0.51100000000E-03 0.  1.
         22    1    1    0    0    0  0.15923883901E+02 -0.26311523289E+02  0.72366444179E-01  0.30755025170E+02  0.00000000000E+00 0.  1.
</event>
<event>
 5    1  0.3144657E-003  0.9118800E+02  0.7818608E-02  0.1130116E+00
         25   -1    0    0    0    0  0.00000000000E+00  0.00000000000E+00  0.99999998245E-14  0.12500000000E+03  0.12500000000E+03 0.  0.
        -11    1    3    3    0    0 -0.83054461514E+01  0.54646096911E+02  0.17796871825E+01  0.55302293173E+02  0.51100000000E-03 0. -1.
         23    2    1    0    0    0 -0.16340699890E+02  0.45389501570E+02 -0.13513625816E+02  0.74901662619E+02  0.55681376192E+02 0.  0.
         11    1    3    3    0    0 -0.80352537386E+01 -0.92565953412E+01 -0.15293312998E+02  0.19599369446E+02  0.51100000000E-03 0.  1.
         22    1    1    0    0    0  0.16340699890E+02 -0.45389501570E+02  0.13513625816E+02  0.50098337381E+02  0.00000000000E+00 0. -1.
</event>
<event>
 5    1  0.3144657E-003  0.9118800E+02  0.7818608E-02  0.1130116E+00
         25   -1    0    0    0    0  0.00000000000E+00  0.00000000000E+00  0.99999998245E-14  0.12500000000E+03  0.12500000000E+03 0.  0.
        -11    1    3    3    0    0  0.38095997069E+01  0.50794716728E+02 -0.14385250289E+02  0.52929686600E+02  0.51100000000E-03 0.  1.
         23    2    1    0    0    0  0.59944473585E+00  0.10540105172E+02 -0.27624495975E+02  0.95426939136E+02  0.90728908204E+02 0.  0.
         11    1    3    3    0    0 -0.32101549710E+01 -0.40254611556E+02 -0.13239245686E+02  0.42497252535E+02  0.51100000000E-03 0. -1.
         22    1    1    0    0    0 -0.59944473585E+00 -0.10540105172E+02  0.27624495975E+02  0.29573060864E+02  0.00000000000E+00 0.  1.
</event>
<event>
 5    1  0.3144657E-003  0.9118800E+02  0.7818608E-02  0.1130116E+00
         25   -1    0    0    0    0  0.00000000000E+00  0.00000000000E+00  0.99999998245E-14  0.12500000000E+03  0.12500000000E+03 0.  0.
        -11    1    3    3    0    0 -0.80373294541E+01 -0.32495439937E+02  0.22846496412E+02  0.40527949368E+02  0.51100000000E-03 0.  1.
         23    2    1    0    0    0 -0.70824018377E+01 -0.86158955471E+01 -0.26988876863E+02  0.95797370902E+02  0.91237836042E+02 0.  0.
         11    1    3    3    0    0  0.95492761642E+00  0.23879544390E+02 -0.49835373275E+02  0.55269421534E+02  0.51100000000E-03 0. -1.
         22    1    1    0    0    0  0.70824018377E+01  0.86158955471E+01  0.26988876863E+02  0.29202629098E+02  0.00000000000E+00 0. -1.
</event>
<event>
 5    1  0.3144657E-003  0.9118800E+02  0.7818608E-02  0.1130116E+00
         25   -1    0    0    0    0  0.00000000000E+00  0.00000000000E+00  0.99999998245E-14  0.12500000000E+03  0.12500000000E+03 0.  0.
        -11    1    3    3    0    0 -0.24945507456E+02  0.34935865332E+02 -0.30600057649E+01  0.43036689746E+02  0.51100000000E-03 0.  1.
         23    2    1    0    0    0 -0.13898536917E+02 -0.82722089155E+01  0.24631919932E+02  0.95532556129E+02  0.90874303476E+02 0.  0.
         11    1    3    3    0    0  0.11046970539E+02 -0.43208074247E+02  0.27691925697E+02  0.52495866383E+02  0.51100000000E-03 0. -1.
         22    1    1    0    0    0  0.13898536917E+02  0.82722089155E+01 -0.24631919932E+02  0.29467443871E+02  0.00000000000E+00 0. -1.
</event>
<event>
 5    1  0.3144657E-003  0.9118800E+02  0.7818608E-02  0.1130116E+00
         25   -1    0    0    0    0  0.00000000000E+00  0.00000000000E+00  0.99999998245E-14  0.12500000000E+03  0.12500000000E+03 0.  0.
        -11    1    3    3    0    0 -0.36118593214E+01  0.13080347269E+02 -0.38982141728E+02  0.41276487089E+02  0.51100000000E-03 0.  1.
         23    2    1    0    0    0  0.11995370605E+02 -0.26640390598E+02 -0.60958339176E+01  0.95154422131E+02  0.90352673080E+02 0.  0.
         11    1    3    3    0    0  0.15607229927E+02 -0.39720737867E+02  0.32886307810E+02  0.53877935042E+02  0.51100000000E-03 0. -1.
         22    1    1    0    0    0 -0.11995370605E+02  0.26640390598E+02  0.60958339176E+01  0.29845577869E+02  0.00000000000E+00 0. -1.
</event>
<event>
 5    1  0.3144657E-003  0.9118800E+02  0.7818608E-02  0.1130116E+00
         25   -1    0    0    0    0  0.00000000000E+00  0.00000000000E+00  0.99999998245E-14  0.12500000000E+03  0.12500000000E+03 0.  0.
        -11    1    3    3    0    0  0.16517801419E+02  0.28656602698E+02 -0.48222713688E+02  0.58476223866E+02  0.51100000000E-03 0. -1.
         23    2    1    0    0    0  0.73486730728E+01  0.24422433257E+02 -0.10686291331E+02  0.97347602915E+02  0.93337563332E+02 0.  0.
         11    1    3    3    0    0 -0.91691283460E+01 -0.42341694407E+01  0.37536422358E+02  0.38871379049E+02  0.51100000000E-03 0.  1.
         22    1    1    0    0    0 -0.73486730728E+01 -0.24422433257E+02  0.10686291331E+02  0.27652397085E+02  0.00000000000E+00 0. -1.
</event>
<event>
 5    1  0.3144657E-003  0.9118800E+02  0.7818608E-02  0.1130116E+00
         25   -1    0    0    0    0  0.00000000000E+00  0.00000000000E+00  0.99999998245E-14  0.12500000000E+03  0.12500000000E+03 0.  0.
        -11    1    3    3    0    0 -0.29124974317E+02  0.12757361879E+02  0.10333544663E+02  0.33433464622E+02  0.51100000000E-03 0. -1.
         23    2    1    0    0    0  0.16862716392E+02 -0.49461038796E+01 -0.25265031323E+02  0.94224409746E+02  0.89056737177E+02 0.  0.
         11    1    3    3    0    0  0.45987690708E+02 -0.17703465759E+02 -0.35598575987E+02  0.60790945124E+02  0.51100000000E-03 0.  1.
         22    1    1    0    0    0 -0.16862716392E+02  0.49461038796E+01  0.25265031323E+02  0.30775590254E+02  0.00000000000E+00 0.  1.
</event>
<event>
 5    1  0.3144657E-003  0.9118800E+02  0.7818608E-02  0.1130116E+00
         25   -1    0    0    0    0  0.00000000000E+00  0.00000000000E+00  0.99999998245E-14  0.12500000000E+03  0.12500000000E+03 0.  0.
        -11    1    3    3    0    0  0.36800822887E+01 -0.23043376851E+02  0.50678089560E+02  0.55792553124E+02  0.51100000000E-03 0. -1.
         23    2    1    0    0    0  0.12702489905E+02 -0.25973294790E+02  0.15566963909E+02  0.92162587535E+02  0.86114150310E+02 0.  0.
         11    1    3    3    0    0  0.90224076167E+01 -0.29299179395E+01 -0.35111125651E+02  0.36370034411E+02  0.51100000000E-03 0.  1.
         22    1    1    0    0    0 -0.12702489905E+02  0.25973294790E+02 -0.15566963909E+02  0.32837412465E+02  0.00000000000E+00 0. -1.
</event>
<event>
 5    1  0.3144657E-003  0.9118800E+02  0.7818608E-02  0.1130116E+00
         25   -1    0    0    0    0  0.00000000000E+00  0.00000000000E+00  0.99999998245E-14  0.12500000000E+03  0.12500000000E+03 0.  0.
        -11    1    3    3    0    0 -0.27141766223E+02  0.14722817044E+02 -0.18596215291E+02  0.36045194393E+02  0.51100000000E-03 0. -1.
         23    2    1    0    0    0  0.22655921803E+02 -0.11748429545E+02  0.78008425960E+01  0.98313495270E+02  0.94622269141E+02 0.  0.
         11    1    3    3    0    0  0.49797688026E+02 -0.26471246588E+02  0.26397057887E+02  0.62268300877E+02  0.51100000000E-03 0.  1.
         22    1    1    0    0    0 -0.22655921803E+02  0.11748429545E+02 -0.78008425960E+01  0.26686504730E+02  0.00000000000E+00 0.  1.
</event>
<event>
 5    1  0.3144657E-003  0.9118800E+02  0.7818608E-02  0.1130116E+00
         25   -1    0    0    0    0  0.00000000000E+00  0.00000000000E+00  0.99999998245E-14  0.12500000000E+03  0.12500000000E+03 0.  0.
        -11    1    3    3    0    0 -0.49733246391E+02  0.17859452241E+02 -0.28678572528E+02  0.60123342833E+02  0.51100000000E-03 0.  1.
         23    2    1    0    0    0 -0.26882503328E+02 -0.23527565289E+01 -0.84701530689E+01  0.96716649041E+02  0.92488714231E+02 0.  0.
         11    1    3    3    0    0  0.22850743063E+02 -0.20212208770E+02  0.20208419459E+02  0.36593306207E+02  0.51100000000E-03 0. -1.
         22    1    1    0    0    0  0.26882503328E+02  0.23527565289E+01  0.84701530689E+01  0.28283350959E+02  0.00000000000E+00 0.  1.
</event>
<event>
 5    1  0.3144657E-003  0.9118800E+02  0.7818608E-02  0.1130116E+00
         25   -1    0    0    0    0  0.00000000000E+00  0.00000000000E+00  0.99999998245E-14  0.12500000000E+03  0.12500000000E+03 0.  0.
        -11    1    3    3    0    0  0.91038616609E+01 -0.16950140251E+02 -0.34990772415E+02  0.39931713038E+02  0.51100000000E-03 0. -1.
         23    2    1    0    0    0 -0.23909469489E+02  0.13910765305E+02  0.40547580702E+00  0.97335283604E+02  0.93321063545E+02 0.  0.
         11    1    3    3    0    0 -0.33013331150E+02  0.30860905556E+02  0.35396248222E+02  0.57403570567E+02  0.51100000000E-03 0.  1.
         22    1    1    0    0    0  0.23909469489E+02 -0.13910765305E+02 -0.40547580702E+00  0.27664716396E+02  0.00000000000E+00 0.  1.
</event>
<event>
 5    1  0.3144657E-003  0.9118800E+02  0.7818608E-02  0.1130116E+00
         25   -1    0    0    0    0  0.00000000000E+00  0.00000000000E+00  0.99999998245E-14  0.12500000000E+03  0.12500000000E+03 0.  0.
        -11    1    3    3    0    0  0.59223932280E+01 -0.29177501579E+02  0.36981457894E+02  0.47476621280E+02  0.51100000000E-03 0.  1.
         23    2    1    0    0    0 -0.26715369068E+02 -0.10153718224E+02  0.73458289403E+01  0.95491185367E+02  0.90817379074E+02 0.  0.
         11    1    3    3    0    0 -0.32637762296E+02  0.19023783355E+02 -0.29635628953E+02  0.48014564088E+02  0.51100000000E-03 0. -1.
         22    1    1    0    0    0  0.26715369068E+02  0.10153718224E+02 -0.73458289403E+01  0.29508814633E+02  0.00000000000E+00 0. -1.
</event>
<event>
 5    1  0.3144657E-003  0.9118800E+02  0.7818608E-02  0.1130116E+00
         25   -1    0    0    0    0  0.00000000000E+00  0.00000000000E+00  0.99999998245E-14  0.12500000000E+03  0.12500000000E+03 0.  0.
        -11    1    3    3    0    0  0.10775978383E+02  0.34902483923E+02  0.50374129563E+02  0.62224255910E+02  0.51100000000E-03 0.  1.
         23    2    1    0    0    0  0.91181849703E+01  0.17621907400E+02  0.23169111449E+02  0.94496219203E+02  0.89437435120E+02 0.  0.
         11    1    3    3    0    0 -0.16577934123E+01 -0.17280576523E+02 -0.27205018114E+02  0.32271963293E+02  0.51100000000E-03 0. -1.
         22    1    1    0    0    0 -0.91181849703E+01 -0.17621907400E+02 -0.23169111449E+02  0.30503780797E+02  0.00000000000E+00 0.  1.
</event>
<event>
 5    1  0.3144657E-003  0.9118800E+02  0.7818608E-02  0.1130116E+00
         25   -1    0    0    0    0  0.00000000000E+00  0.00000000000E+00  0.99999998245E-14  0.12500000000E+03  0.12500000000E+03 0.  0.
        -11    1    3    3    0    0  0.17882838677E+02 -0.17282639458E+02  0.28300712752E+02  0.37675136209E+02  0.51100000000E-03 0.  1.
         23    2    1    0    0    0 -0.10708470200E+01 -0.11695299409E+02 -0.26545619895E+02  0.95972484136E+02  0.91477434562E+02 0.  0.
         11    1    3    3    0    0 -0.18953685697E+02  0.55873400489E+01 -0.54846332647E+02  0.58297347928E+02  0.51100000000E-03 0. -1.
         22    1    1    0    0    0  0.10708470200E+01  0.11695299409E+02  0.26545619895E+02  0.29027515864E+02  0.00000000000E+00 0. -1.
</event>
<event>
 5    1  0.3144657E-003  0.9118800E+02  0.7818608E-02  0.1130116E+00
         25   -1    0    0    0    0  0.00000000000E+00  0.00000000000E+00  0.99999998245E-14  0.12500000000E+03  0.12500000000E+03 0.  0.
        -11    1    3    3    0    0 -0.26253463604E+02  0.24562081238E+02  0.11534251628E+02  0.37756842384E+02  0.51100000000E-03 0. -1.
         23    2    1    0    0    0  0.20083716224E+02 -0.14543682552E+02  0.95662304460E+01  0.98422055676E+02  0.94765573490E+02 0.  0.
         11    1    3    3    0    0  0.46337179829E+02 -0.39105763790E+02 -0.19680211816E+01  0.60665213292E+02  0.51100000000E-03 0.  1.
         22    1    1    0    0    0 -0.20083716224E+02  0.14543682552E+02 -0.95662304460E+01  0.26577944324E+02  0.00000000000E+00 0.  1.
</event>
<event>
 5    1  0.3144657E-003  0.9118800E+02  0.7818608E-02  0.1130116E+00
         25   -1    0    0    0    0  0.00000000000E+00  0.00000000000E+00  0.99999998245E-14  0.12500000000E+03  0.12500000000E+03 0.  0.
        -11    1    3    3    0    0 -0.31441363824E+02  0.10317507080E+02 -0.25732551443E+01  0.33190841414E+02  0.51100000000E-03 0. -1.
         23    2    1    0    0    0  0.28042357415E+02 -0.68548323884E+01  0.54520024898E+01  0.95621659890E+02  0.90996785507E+02 0.  0.
         11    1    3    3    0    0  0.59483721239E+02 -0.17172339468E+02  0.80252576342E+01  0.62430818476E+02  0.51100000000E-03 0.  1.
         22    1    1    0    0    0 -0.28042357415E+02  0.68548323884E+01 -0.54520024898E+01  0.29378340110E+02  0.00000000000E+00 0.  1.
</event>
<event>
 5    1  0.3144657E-003  0.9118800E+02  0.7818608E-02  0.1130116E+00
         25   -1    0    0    0    0  0.00000000000E+00  0.00000000000E+00  0.99999998245E-14  0.12500000000E+03  0.12500000000E+03 0.  0.
        -11    1    3    3    0    0  0.36969100292E+02 -0.26393163884E+01  0.69914667748E+01  0.37716852670E+02  0.51100000000E-03 0.  1.
         23    2    1    0    0    0 -0.18444198485E+02 -0.21573974823E+02  0.38061552542E+01  0.96362408180E+02  0.92008706355E+02 0.  0.
         11    1    3    3    0    0 -0.55413298777E+02 -0.18934658435E+02 -0.31853115206E+01  0.58645555510E+02  0.51100000000E-03 0. -1.
         22    1    1    0    0    0  0.18444198485E+02  0.21573974823E+02 -0.38061552542E+01  0.28637591820E+02  0.00000000000E+00 0. -1.
</event>
<event>
 5    1  0.3144657E-003  0.9118800E+02  0.7818608E-02  0.1130116E+00
         25   -1    0    0    0    0  0.00000000000E+00  0.00000000000E+00  0.99999998245E-14  0.12500000000E+03  0.12500000000E+03 0.  0.
        -11    1    3    3    0    0  0.16663887156E+02 -0.28708353734E+02  0.16599797885E+02  0.37113447689E+02  0.51100000000E-03 0. -1.
         23    2    1    0    0    0 -0.20761242230E+02 -0.35770247698E+01 -0.20580985830E+02  0.95548323259E+02  0.90895988992E+02 0.  0.
         11    1    3    3    0    0 -0.37425129386E+02  0.25131328964E+02 -0.37180783714E+02  0.58434875570E+02  0.51100000000E-03 0.  1.
         22    1    1    0    0    0  0.20761242230E+02  0.35770247698E+01  0.20580985830E+02  0.29451676741E+02  0.00000000000E+00 0.  1.
</event>
<event>
 5    1  0.3144657E-003  0.9118800E+02  0.7818608E-02  0.1130116E+00
         25   -1    0    0    0    0  0.00000000000E+00  0.00000000000E+00  0.99999998245E-14  0.12500000000E+03  0.12500000000E+03 0.  0.
        -11    1    3    3    0    0  0.52259526052E+02 -0.24655190701E+02 -0.22278513090E+02  0.61929545755E+02  0.51100000000E-03 0.  1.
         23    2    1    0    0    0  0.24962201618E+02 -0.58228731657E+01 -0.12353257823E+02  0.96546171780E+02  0.92258023743E+02 0.  0.
         11    1    3    3    0    0 -0.27297324434E+02  0.18832317535E+02  0.99252552670E+01  0.34616626025E+02  0.51100000000E-03 0. -1.
         22    1    1    0    0    0 -0.24962201618E+02  0.58228731657E+01  0.12353257823E+02  0.28453828220E+02  0.00000000000E+00 0.  1.
</event>
<event>
 5    1  0.3144657E-003  0.9118800E+02  0.7818608E-02  0.1130116E+00
         25   -1    0    0    0    0  0.00000000000E+00  0.00000000000E+00  0.99999998245E-14  0.12500000000E+03  0.12500000000E+03 0.  0.
        -11    1    3    3    0    0 -0.88277310346E+01  0.30413331792E+02 -0.11393622533E+02  0.33655820011E+02  0.51100000000E-03 0.  1.
         23    2    1    0    0    0 -0.44360496564E+01 -0.25550478908E+02  0.14292830952E+02  0.95389351145E+02  0.90677107289E+02 0.  0.
         11    1    3    3    0    0  0.43916813782E+01 -0.55963810700E+02  0.25686453485E+02  0.61733531134E+02  0.51100000000E-03 0. -1.
         22    1    1    0    0    0  0.44360496564E+01  0.25550478908E+02 -0.14292830952E+02  0.29610648855E+02  0.00000000000E+00 0. -1.
</event>
<event>
 5    1  0.3144657E-003  0.9118800E+02  0.7818608E-02  0.1130116E+00
         25   -1    0    0    0    0  0.00000000000E+00  0.00000000000E+00  0.99999998245E-14  0.12500000000E+03  0.12500000000E+03 0.  0.
        -11    1    3    3    0    0 -0.35264825338E+02  0.28294388299E+02  0.52623694534E+01  0.45517829999E+02  0.51100000000E-03 0. -1.
         23    2    1    0    0    0 -0.17379606606E+02 -0.16856583729E+02  0.16920603082E+02  0.95461856026E+02  0.90777001528E+02 0.  0.
         11    1    3    3    0    0  0.17885218732E+02 -0.45150972028E+02  0.11658233628E+02  0.49944026027E+02  0.51100000000E-03 0.  1.
         22    1    1    0    0    0  0.17379606606E+02  0.16856583729E+02 -0.16920603082E+02  0.29538143974E+02  0.00000000000E+00 0.  1.
</event>
<event>
 5    1  0.3144657E-003  0.9118800E+02  0.7818608E-02  0.1130116E+00
         25   -1    0    0    0    0  0.00000000000E+00  0.00000000000E+00  0.99999998245E-14  0.12500000000E+03  0.12500000000E+03 0.  0.
        -11    1    3    3    0    0  0.31060861177E+02  0.51176123778E+02 -0.13211536728E+02  0.61305117608E+02  0.51100000000E-03 0.  1.
         23    2    1    0    0    0  0.18430969185E+02  0.14438778041E+02 -0.61903905998E+01  0.10078224056E+03  0.97829239701E+02 0.  0.
         11    1    3    3    0    0 -0.12629891992E+02 -0.36737345737E+02  0.70211461284E+01  0.39477122954E+02  0.51100000000E-03 0. -1.
         22    1    1    0    0    0 -0.18430969185E+02 -0.14438778041E+02  0.61903905998E+01  0.24217759438E+02  0.00000000000E+00 0.  1.
</event>
<event>
 5    1  0.3144657E-003  0.9118800E+02  0.7818608E-02  0.1130116E+00
         25   -1    0    0    0    0  0.00000000000E+00  0.00000000000E+00  0.99999998245E-14  0.12500000000E+03  0.12500000000E+03 0.  0.
        -11    1    3    3    0    0 -0.34761939068E+02  0.14525804569E+02 -0.14709188071E+02  0.40444426317E+02  0.51100000000E-03 0.  1.
         23    2    1    0    0    0  0.14376052698E+02  0.23987387334E+02  0.87314773876E+01  0.95703168436E+02  0.91108682951E+02 0.  0.
         11    1    3    3    0    0  0.49137991766E+02  0.94615827649E+01  0.23440665459E+02  0.55258742120E+02  0.51100000000E-03 0. -1.
         22    1    1    0    0    0 -0.14376052698E+02 -0.23987387334E+02 -0.87314773876E+01  0.29296831564E+02  0.00000000000E+00 0.  1.
</event>
<event>
 5    1  0.3144657E-003  0.9118800E+02  0.7818608E-02  0.1130116E+00
         25   -1    0    0    0    0  0.00000000000E+00  0.00000000000E+00  0.99999998245E-14  0.12500000000E+03  0.12500000000E+03 0.  0.
        -11    1    3    3    0    0  0.12886095433E+02  0.45361368358E+01 -0.36975824134E+02  0.39418771715E+02  0.51100000000E-03 0.  1.
         23    2    1    0    0    0 -0.24149590815E+02  0.11093182539E+02  0.72284692833E+01  0.97458899739E+02  0.93486496002E+02 0.  0.
         11    1    3    3    0    0 -0.37035686248E+02  0.65570457033E+01  0.44204293417E+02  0.58040128024E+02  0.51100000000E-03 0. -1.
         22    1    1    0    0    0  0.24149590815E+02 -0.11093182539E+02 -0.72284692833E+01  0.27541100261E+02  0.00000000000E+00 0. -1.
</event>
<event>
 5    1  0.3144657E-003  0.9118800E+02  0.7818608E-02  0.1130116E+00
         25   -1    0    0    0    0  0.00000000000E+00  0.00000000000E+00  0.99999998245E-14  0.12500000000E+03  0.12500000000E+03 0.  0.
        -11    1    3    3    0    0 -0.36622588289E+02  0.72208449413E+01 -0.34786135413E+02  0.51023815928E+02  0.51100000000E-03 0.  1.
         23    2    1    0    0    0 -0.96333648957E+01  0.27801889093E+02 -0.73366277050E+01  0.94675540195E+02  0.89687708460E+02 0.  0.
         11    1    3    3    0    0  0.26989223394E+02  0.20581044152E+02  0.27449507708E+02  0.43651724267E+02  0.51100000000E-03 0. -1.
         22    1    1    0    0    0  0.96333648957E+01 -0.27801889093E+02  0.73366277050E+01  0.30324459805E+02  0.00000000000E+00 0. -1.
</event>
<event>
 5    1  0.3144657E-003  0.9118800E+02  0.7818608E-02  0.1130116E+00
         25   -1    0    0    0    0  0.00000000000E+00  0.00000000000E+00  0.99999998245E-14  0.12500000000E+03  0.12500000000E+03 0.  0.
        -11    1    3    3    0    0  0.28117369957E+02 -0.25922733740E+02 -0.48631081848E+02  0.61867250947E+02  0.51100000000E-03 0. -1.
         23    2    1    0    0    0  0.74972238912E+01 -0.14429589529E+02 -0.24235907297E+02  0.95814376440E+02  0.91261131431E+02 0.  0.
         11    1    3    3    0    0 -0.20620146066E+02  0.11493144211E+02  0.24395174551E+02  0.33947125493E+02  0.51100000000E-03 0.  1.
         22    1    1    0    0    0 -0.74972238912E+01  0.14429589529E+02  0.24235907297E+02  0.29185623560E+02  0.00000000000E+00 0. -1.
</event>
<event>
 5    1  0.3144657E-003  0.9118800E+02  0.7818608E-02  0.1130116E+00
         25   -1    0    0    0    0  0.00000000000E+00  0.00000000000E+00  0.99999998245E-14  0.12500000000E+03  0.12500000000E+03 0.  0.
        -11    1    3    3    0    0 -0.25706224439E+02  0.13960094026E+02  0.49797497542E+02  0.57753657562E+02  0.51100000000E-03 0.  1.
         23    2    1    0    0    0 -0.24047782583E+02 -0.13057146360E+01  0.12987664993E+02  0.97637979244E+02  0.93725635826E+02 0.  0.
         11    1    3    3    0    0  0.16584418560E+01 -0.15265808662E+02 -0.36809832549E+02  0.39884321682E+02  0.51100000000E-03 0. -1.
         22    1    1    0    0    0  0.24047782583E+02  0.13057146360E+01 -0.12987664993E+02  0.27362020756E+02  0.00000000000E+00 0.  1.
</event>
<event>
 5    1  0.3144657E-003  0.9118800E+02  0.7818608E-02  0.1130116E+00
         25   -1    0    0    0    0  0.00000000000E+00  0.00000000000E+00  0.99999998245E-14  0.12500000000E+03  0.12500000000E+03 0.  0.
        -11    1    3    3    0    0 -0.45977030088E+02  0.22751685462E+02  0.11422055687E+02  0.52554636746E+02  0.51100000000E-03 0.  1.
         23    2    1    0    0    0 -0.11614616021E+02  0.67808369643E+00  0.26474723524E+02  0.96081665185E+02  0.91626504333E+02 0.  0.
         11    1    3    3    0    0  0.34362414068E+02 -0.22073601766E+02  0.15052667837E+02  0.43527028439E+02  0.51100000000E-03 0. -1.
         22    1    1    0    0    0  0.11614616021E+02 -0.67808369643E+00 -0.26474723524E+02  0.28918334815E+02  0.00000000000E+00 0.  1.
</event>
<event>
 5    1  0.3144657E-003  0.9118800E+02  0.7818608E-02  0.1130116E+00
         25   -1    0    0    0    0  0.00000000000E+00  0.00000000000E+00  0.99999998245E-14  0.12500000000E+03  0.12500000000E+03 0.  0.
        -11    1    3    3    0    0 -0.23854189142E+02 -0.22548300336E+02  0.17572137391E+02  0.37232085631E+02  0.51100000000E-03 0.  1.
         23    2    1    0    0    0  0.26883724089E+02  0.51435114466E+01  0.11349402740E+02  0.95368947480E+02  0.90648976111E+02 0.  0.
         11    1    3    3    0    0  0.50737913231E+02  0.27691811782E+02 -0.62227346512E+01  0.58136861849E+02  0.51100000000E-03 0. -1.
         22    1    1    0    0    0 -0.26883724089E+02 -0.51435114466E+01 -0.11349402740E+02  0.29631052520E+02  0.00000000000E+00 0. -1.
</event>
<event>
 5    1  0.3144657E-003  0.9118800E+02  0.7818608E-02  0.1130116E+00
         25   -1    0    0    0    0  0.00000000000E+00  0.00000000000E+00  0.99999998245E-14  0.12500000000E+03  0.12500000000E+03 0.  0.
        -11    1    3    3    0    0  0.27147126422E+02  0.19555909701E+02 -0.12100006647E+02  0.35578227026E+02  0.51100000000E-03 0.  1.
         23    2    1    0    0    0 -0.16819440189E+02 -0.87297597639E+01 -0.28856635847E+02  0.90477431929E+02  0.83632278351E+02 0.  0.
         11    1    3    3    0    0 -0.43966566610E+02 -0.28285669465E+02 -0.16756629201E+02  0.54899204903E+02  0.51100000000E-03 0. -1.
         22    1    1    0    0    0  0.16819440189E+02  0.87297597639E+01  0.28856635847E+02  0.34522568071E+02  0.00000000000E+00 0. -1.
</event>
<event>
 5    1  0.3144657E-003  0.9118800E+02  0.7818608E-02  0.1130116E+00
         25   -1    0    0    0    0  0.00000000000E+00  0.00000000000E+00  0.99999998245E-14  0.12500000000E+03  0.12500000000E+03 0.  0.
        -11    1    3    3    0    0 -0.22770356807E+02  0.12991703411E+02  0.20749886901E+02  0.33433984407E+02  0.51100000000E-03 0. -1.
         23    2    1    0    0    0  0.94400745396E+01 -0.24877711015E+02 -0.14800486535E+02  0.94552177183E+02  0.89515609229E+02 0.  0.
         11    1    3    3    0    0  0.32210431347E+02 -0.37869414426E+02 -0.35550373436E+02  0.61118192776E+02  0.51100000000E-03 0.  1.
         22    1    1    0    0    0 -0.94400745396E+01  0.24877711015E+02  0.14800486535E+02  0.30447822817E+02  0.00000000000E+00 0.  1.
</event>
<event>
 5    1  0.3144657E-003  0.9118800E+02  0.7818608E-02  0.1130116E+00
         25   -1    0    0    0    0  0.00000000000E+00  0.00000000000E+00  0.99999998245E-14  0.12500000000E+03  0.12500000000E+03 0.  0.
        -11    1    3    3    0    0  0.43429681632E+01  0.44677412202E+02 -0.34748525276E+02  0.56766121434E+02  0.51100000000E-03 0. -1.
         23    2    1    0    0    0  0.17082316557E+02  0.99267366592E+01 -0.20780846029E+02  0.96326158239E+02  0.91959445190E+02 0.  0.
         11    1    3    3    0    0  0.12739348394E+02 -0.34750675543E+02  0.13967679247E+02  0.39560036805E+02  0.51100000000E-03 0.  1.
         22    1    1    0    0    0 -0.17082316557E+02 -0.99267366592E+01  0.20780846029E+02  0.28673841761E+02  0.00000000000E+00 0. -1.
</event>
<event>
 5    1  0.3144657E-003  0.9118800E+02  0.7818608E-02  0.1130116E+00
         25   -1    0    0    0    0  0.00000000000E+00  0.00000000000E+00  0.99999998245E-14  0.12500000000E+03  0.12500000000E+03 0.  0.
        -11    1    3    3    0    0 -0.36458476901E+02 -0.17794067499E+02 -0.39612460001E+02  0.56700937944E+02  0.51100000000E-03 0. -1.
         23    2    1    0    0    0 -0.12493884634E+02 -0.26169151574E+02 -0.13869949377E+02  0.92855060382E+02  0.87113518443E+02 0.  0.
         11    1    3    3    0    0  0.23964592268E+02 -0.83750840744E+01  0.25742510624E+02  0.36154122439E+02  0.51100000000E-03 0.  1.
         22    1    1    0    0    0  0.12493884634E+02  0.26169151574E+02  0.13869949377E+02  0.32144939618E+02  0.00000000000E+00 0. -1.
</event>
<event>
 5    1  0.3144657E-003  0.9118800E+02  0.7818608E-02  0.1130116E+00
         25   -1    0    0    0    0  0.00000000000E+00  0.00000000000E+00  0.99999998245E-14  0.12500000000E+03  0.12500000000E+03 0.  0.
        -11    1    3    3    0    0  0.45978022808E+02  0.32588868874E+02 -0.19111640047E+02  0.59508551834E+02  0.51100000000E-03 0. -1.
         23    2    1    0    0    0  0.18736754356E+02  0.19200924354E+02 -0.22414076744E+02  0.90040991202E+02  0.82977393310E+02 0.  0.
         11    1    3    3    0    0 -0.27241268452E+02 -0.13387944520E+02 -0.33024366973E+01  0.30532439368E+02  0.51100000000E-03 0.  1.
         22    1    1    0    0    0 -0.18736754356E+02 -0.19200924354E+02  0.22414076744E+02  0.34959008798E+02  0.00000000000E+00 0. -1.
</event>
<event>
 5    1  0.3144657E-003  0.9118800E+02  0.7818608E-02  0.1130116E+00
         25   -1    0    0    0    0  0.00000000000E+00  0.00000000000E+00  0.99999998245E-14  0.12500000000E+03  0.12500000000E+03 0.  0.
        -11    1    3    3    0    0 -0.49299153091E+02 -0.24135254159E+02 -0.21286139325E+02  0.58872886089E+02  0.51100000000E-03 0. -1.
         23    2    1    0    0    0 -0.28556819620E+02 -0.88165312805E+01  0.38295669025E+01  0.94868807636E+02  0.89956666840E+02 0.  0.
         11    1    3    3    0    0  0.20742333471E+02  0.15318722878E+02  0.25115706228E+02  0.35995921547E+02  0.51100000000E-03 0.  1.
         22    1    1    0    0    0  0.28556819620E+02  0.88165312805E+01 -0.38295669025E+01  0.30131192364E+02  0.00000000000E+00 0. -1.
</event>
<event>
 5    1  0.3144657E-003  0.9118800E+02  0.7818608E-02  0.1130116E+00
         25   -1    0    0    0    0  0.00000000000E+00  0.00000000000E+00  0.99999998245E-14  0.12500000000E+03  0.12500000000E+03 0.  0.
        -11    1    3    3    0    0 -0.19428515156E+02 -0.29644990460E+02  0.13871862914E+02  0.38062070904E+02  0.51100000000E-03 0.  1.
         23    2    1    0    0    0  0.64531716967E+01 -0.68160622912E+01 -0.29818809602E+02  0.93738785434E+02  0.88372486433E+02 0.  0.
         11    1    3    3    0    0  0.25881686853E+02  0.22828928169E+02 -0.43690672515E+02  0.55676714530E+02  0.51100000000E-03 0. -1.
         22    1    1    0    0    0 -0.64531716967E+01  0.68160622912E+01  0.29818809602E+02  0.31261214566E+02  0.00000000000E+00 0. -1.
</event>
<event>
 5    1  0.3144657E-003  0.9118800E+02  0.7818608E-02  0.1130116E+00
         25   -1    0    0    0    0  0.00000000000E+00  0.00000000000E+00  0.99999998245E-14  0.12500000000E+03  0.12500000000E+03 0.  0.
        -11    1    3    3    0    0 -0.22685707135E+02  0.46380837386E+02 -0.26830131697E+02  0.58186590826E+02  0.51100000000E-03 0.  1.
         23    2    1    0    0    0 -0.57920685624E+00  0.29462382385E+02 -0.20415961768E+01  0.95461286905E+02  0.90776217845E+02 0.  0.
         11    1    3    3    0    0  0.22106500279E+02 -0.16918455001E+02  0.24788535521E+02  0.37274696078E+02  0.51100000000E-03 0. -1.
         22    1    1    0    0    0  0.57920685624E+00 -0.29462382385E+02  0.20415961768E+01  0.29538713095E+02  0.00000000000E+00 0.  1.
</event>
<event>
 5    1  0.3144657E-003  0.9118800E+02  0.7818608E-02  0.1130116E+00
         25   -1    0    0    0    0  0.00000000000E+00  0.00000000000E+00  0.99999998245E-14  0.12500000000E+03  0.12500000000E+03 0.  0.
        -11    1    3    3    0    0 -0.49487575711E+02  0.15861374638E+02  0.28590257000E+02  0.59312782355E+02  0.51100000000E-03 0.  1.
         23    2    1    0    0    0 -0.28841805127E+02 -0.38771641894E+01  0.71341039249E+01  0.95037063496E+02  0.90190165062E+02 0.  0.
         11    1    3    3    0    0  0.20645770584E+02 -0.19738538827E+02 -0.21456153075E+02  0.35724281141E+02  0.51100000000E-03 0. -1.
         22    1    1    0    0    0  0.28841805127E+02  0.38771641894E+01 -0.71341039249E+01  0.29962936504E+02  0.00000000000E+00 0.  1.
</event>
<event>
 5    1  0.3144657E-003  0.9118800E+02  0.7818608E-02  0.1130116E+00
         25   -1    0    0    0    0  0.00000000000E+00  0.00000000000E+00  0.99999998245E-14  0.12500000000E+03  0.12500000000E+03 0.  0.
        -11    1    3    3    0    0 -0.94047282071E+00  0.52366756683E+01 -0.38040414798E+02  0.38410681059E+02  0.51100000000E-03 0. -1.
         23    2    1    0    0    0 -0.19947542928E+02  0.80815061944E+01  0.17549791810E+02  0.97229324751E+02  0.93179027618E+02 0.  0.
         11    1    3    3    0    0 -0.19007070107E+02  0.28448305261E+01  0.55590206608E+02  0.58818643692E+02  0.51100000000E-03 0.  1.
         22    1    1    0    0    0  0.19947542928E+02 -0.80815061944E+01 -0.17549791810E+02  0.27770675249E+02  0.00000000000E+00 0.  1.
</event>
<event>
 5    1  0.3144657E-003  0.9118800E+02  0.7818608E-02  0.1130116E+00
         25   -1    0    0    0    0  0.00000000000E+00  0.00000000000E+00  0.99999998245E-14  0.12500000000E+03  0.12500000000E+03 0.  0.
        -11    1    3    3    0    0  0.26214286183E+02 -0.23788013592E+02  0.15271123224E+01  0.35431489710E+02  0.51100000000E-03 0. -1.
         23    2    1    0    0    0 -0.14285699632E+02  0.20232795882E+02 -0.13057612682E+02  0.97000919799E+02  0.92872116104E+02 0.  0.
         11    1    3    3    0    0 -0.40499985815E+02  0.44020809474E+02 -0.14584725004E+02  0.61569430089E+02  0.51100000000E-03 0.  1.
         22    1    1    0    0    0  0.14285699632E+02 -0.20232795882E+02  0.13057612682E+02  0.27999080201E+02  0.00000000000E+00 0.  1.
</event>
<event>
 5    1  0.3144657E-003  0.9118800E+02  0.7818608E-02  0.1130116E+00
         25   -1    0    0    0    0  0.00000000000E+00  0.00000000000E+00  0.99999998245E-14  0.12500000000E+03  0.12500000000E+03 0.  0.
        -11    1    3    3    0    0  0.76719388427E+01 -0.26008306072E+02 -0.53114867428E+02  0.59636228691E+02  0.51100000000E-03 0.  1.
         23    2    1    0    0    0  0.13720483600E+02 -0.32578322843E+01 -0.24920098778E+02  0.96366514978E+02  0.92014285546E+02 0.  0.
         11    1    3    3    0    0  0.60485447570E+01  0.22750473788E+02  0.28194768650E+02  0.36730286287E+02  0.51100000000E-03 0. -1.
         22    1    1    0    0    0 -0.13720483600E+02  0.32578322843E+01  0.24920098778E+02  0.28633485022E+02  0.00000000000E+00 0.  1.
</event>
<event>
 5    1  0.3144657E-003  0.9118800E+02  0.7818608E-02  0.1130116E+00
         25   -1    0    0    0    0  0.00000000000E+00  0.00000000000E+00  0.99999998245E-14  0.12500000000E+03  0.12500000000E+03 0.  0.
        -11    1    3    3    0    0  0.85581947473E+01  0.11289190800E+01 -0.36176383700E+02  0.37192040728E+02  0.51100000000E-03 0. -1.
         23    2    1    0    0    0  0.12089681260E+02 -0.21496364522E+02  0.16970661334E+02  0.95062441203E+02  0.90225330704E+02 0.  0.
         11    1    3    3    0    0  0.35314865127E+01 -0.22625283602E+02  0.53147045034E+02  0.57870400475E+02  0.51100000000E-03 0.  1.
         22    1    1    0    0    0 -0.12089681260E+02  0.21496364522E+02 -0.16970661334E+02  0.29937558797E+02  0.00000000000E+00 0.  1.
</event>
<event>
 5    1  0.3144657E-003  0.9118800E+02  0.7818608E-02  0.1130116E+00
         25   -1    0    0    0    0  0.00000000000E+00  0.00000000000E+00  0.99999998245E-14  0.12500000000E+03  0.12500000000E+03 0.  0.
        -11    1    3    3    0    0  0.42752944643E+02 -0.23864342246E+02  0.34606840036E+02  0.59957939291E+02  0.51100000000E-03 0. -1.
         23    2    1    0    0    0  0.19828826630E+02 -0.20036326319E+02  0.71746553567E+01  0.95911988425E+02  0.91394732377E+02 0.  0.
         11    1    3    3    0    0 -0.22924118013E+02  0.38280159271E+01 -0.27432184680E+02  0.35954049134E+02  0.51100000000E-03 0.  1.
         22    1    1    0    0    0 -0.19828826630E+02  0.20036326319E+02 -0.71746553567E+01  0.29088011575E+02  0.00000000000E+00 0. -1.
</event>
<event>
 5    1  0.3144657E-003  0.9118800E+02  0.7818608E-02  0.1130116E+00
         25   -1    0    0    0    0  0.00000000000E+00  0.00000000000E+00  0.99999998245E-14  0.12500000000E+03  0.12500000000E+03 0.  0.
        -11    1    3    3    0    0 -0.40388229024E+02  0.17717091650E+02 -0.16683221557E+02  0.47153305950E+02  0.51100000000E-03 0.  1.
         23    2    1    0    0    0 -0.45029729657E+00  0.29754382023E+02  0.60131098186E+01  0.94640759118E+02  0.89639220097E+02 0.  0.
         11    1    3    3    0    0  0.39937931728E+02  0.12037290373E+02  0.22696331376E+02  0.47487453168E+02  0.51100000000E-03 0. -1.
         22    1    1    0    0    0  0.45029729657E+00 -0.29754382023E+02 -0.60131098186E+01  0.30359240882E+02  0.00000000000E+00 0. -1.
</event>
<event>
 5    1  0.3144657E-003  0.9118800E+02  0.7818608E-02  0.1130116E+00
         25   -1    0    0    0    0  0.00000000000E+00  0.00000000000E+00  0.99999998245E-14  0.12500000000E+03  0.12500000000E+03 0.  0.
        -11    1    3    3    0    0  0.14967166985E+02  0.19153140493E+02  0.54707432411E+02  0.59864530730E+02  0.51100000000E-03 0. -1.
         23    2    1    0    0    0 -0.17997103208E+01  0.83049528967E+00  0.30126596116E+02  0.94808271444E+02  0.89872508928E+02 0.  0.
         11    1    3    3    0    0 -0.16766877306E+02 -0.18322645203E+02 -0.24580836295E+02  0.34943740714E+02  0.51100000000E-03 0.  1.
         22    1    1    0    0    0  0.17997103208E+01 -0.83049528967E+00 -0.30126596116E+02  0.30191728556E+02  0.00000000000E+00 0. -1.
</event>
<event>
 5    1  0.3144657E-003  0.9118800E+02  0.7818608E-02  0.1130116E+00
         25   -1    0    0    0    0  0.00000000000E+00  0.00000000000E+00  0.99999998245E-14  0.12500000000E+03  0.12500000000E+03 0.  0.
        -11    1    3    3    0    0 -0.43659594785E+02 -0.13626462319E+02  0.41780081170E+02  0.61946879461E+02  0.51100000000E-03 0.  1.
         23    2    1    0    0    0 -0.23485009935E+02 -0.12273554339E+01  0.19753994230E+02  0.94287260281E+02  0.89144910512E+02 0.  0.
         11    1    3    3    0    0  0.20174584850E+02  0.12399106885E+02 -0.22026086940E+02  0.32340380820E+02  0.51100000000E-03 0. -1.
         22    1    1    0    0    0  0.23485009935E+02  0.12273554339E+01 -0.19753994230E+02  0.30712739719E+02  0.00000000000E+00 0.  1.
</event>
<event>
 5    1  0.3144657E-003  0.9118800E+02  0.7818608E-02  0.1130116E+00
         25   -1    0    0    0    0  0.00000000000E+00  0.00000000000E+00  0.99999998245E-14  0.12500000000E+03  0.12500000000E+03 0.  0.
        -11    1    3    3    0    0 -0.99445714034E+01  0.26741447161E+02  0.24952630080E+02  0.37902945068E+02  0.51100000000E-03 0.  1.
         23    2    1    0    0    0  0.24888919795E+02 -0.14681808912E+02  0.45302359734E+01  0.95750437961E+02  0.91173513096E+02 0.  0.
         11    1    3    3    0    0  0.34833491198E+02 -0.41423256073E+02 -0.20422394107E+02  0.57847492893E+02  0.51100000000E-03 0. -1.
         22    1    1    0    0    0 -0.24888919795E+02  0.14681808912E+02 -0.45302359734E+01  0.29249562039E+02  0.00000000000E+00 0. -1.
</event>
<event>
 5    1  0.3144657E-003  0.9118800E+02  0.7818608E-02  0.1130116E+00
         25   -1    0    0    0    0  0.00000000000E+00  0.00000000000E+00  0.99999998245E-14  0.12500000000E+03  0.12500000000E+03 0.  0.
        -11    1    3    3    0    0  0.38513690272E+02  0.70453080912E+01  0.12105185786E+02  0.40981413198E+02  0.51100000000E-03 0.  1.
         23    2    1    0    0    0 -0.12665172965E+02  0.82700167221E+01  0.26785843867E+02  0.94238315806E+02  0.89076253578E+02 0.  0.
         11    1    3    3    0    0 -0.51178863237E+02  0.12247086309E+01  0.14680658081E+02  0.53256902608E+02  0.51100000000E-03 0. -1.
         22    1    1    0    0    0  0.12665172965E+02 -0.82700167221E+01 -0.26785843867E+02  0.30761684194E+02  0.00000000000E+00 0. -1.
</event>
<event>
 5    1  0.3144657E-003  0.9118800E+02  0.7818608E-02  0.1130116E+00
         25   -1    0    0    0    0  0.00000000000E+00  0.00000000000E+00  0.99999998245E-14  0.12500000000E+03  0.12500000000E+03 0.  0.
        -11    1    3    3    0    0 -0.55385744531E+02 -0.72743562724E+01 -0.24414837804E+02  0.60963770074E+02  0.51100000000E-03 0.  1.
         23    2    1    0    0    0 -0.26029784184E+02 -0.11883211441E+02 -0.17450872995E+02  0.91484431273E+02  0.85124073083E+02 0.  0.
         11    1    3    3    0    0  0.29355960347E+02 -0.46088551687E+01  0.69639648081E+01  0.30520661198E+02  0.51100000000E-03 0. -1.
         22    1    1    0    0    0  0.26029784184E+02  0.11883211441E+02  0.17450872995E+02  0.33515568727E+02  0.00000000000E+00 0.  1.
</event>
<event>
 5    1  0.3144657E-003  0.9118800E+02  0.7818608E-02  0.1130116E+00
         25   -1    0    0    0    0  0.00000000000E+00  0.00000000000E+00  0.99999998245E-14  0.12500000000E+03  0.12500000000E+03 0.  0.
        -11    1    3    3    0    0  0.24337046708E+02 -0.12074939089E+00 -0.22918951565E+02  0.33430297097E+02  0.51100000000E-03 0. -1.
         23    2    1    0    0    0 -0.19684911361E+02  0.28426842207E+02 -0.68195712176E+00  0.90416099719E+02  0.83540558591E+02 0.  0.
         11    1    3    3    0    0 -0.44021958069E+02  0.28547591598E+02  0.22236994443E+02  0.56985802622E+02  0.51100000000E-03 0.  1.
         22    1    1    0    0    0  0.19684911361E+02 -0.28426842207E+02  0.68195712176E+00  0.34583900281E+02  0.00000000000E+00 0.  1.
</event>
<event>
 5    1  0.3144657E-003  0.9118800E+02  0.7818608E-02  0.1130116E+00
         25   -1    0    0    0    0  0.00000000000E+00  0.00000000000E+00  0.99999998245E-14  0.12500000000E+03  0.12500000000E+03 0.  0.
        -11    1    3    3    0    0  0.11686109594E+02 -0.36141898442E+02 -0.78317522024E+01  0.38783222188E+02  0.51100000000E-03 0. -1.
         23    2    1    0    0    0  0.23920773458E+02  0.18219370843E+02 -0.10834253841E+01  0.94911419320E+02  0.90015858770E+02 0.  0.
         11    1    3    3    0    0  0.12234663864E+02  0.54361269286E+02  0.67483268183E+01  0.56128197132E+02  0.51100000000E-03 0.  1.
         22    1    1    0    0    0 -0.23920773458E+02 -0.18219370843E+02  0.10834253841E+01  0.30088580680E+02  0.00000000000E+00 0. -1.
</event>
<event>
 5    1  0.3144657E-003  0.9118800E+02  0.7818608E-02  0.1130116E+00
         25   -1    0    0    0    0  0.00000000000E+00  0.00000000000E+00  0.99999998245E-14  0.12500000000E+03  0.12500000000E+03 0.  0.
        -11    1    3    3    0    0 -0.23619267014E+01 -0.33675524293E+02 -0.42428727991E+02  0.54220075557E+02  0.51100000000E-03 0. -1.
         23    2    1    0    0    0 -0.18647829148E+02 -0.11075516747E+01 -0.22589703412E+02  0.95686813498E+02  0.91086241411E+02 0.  0.
         11    1    3    3    0    0 -0.16285902447E+02  0.32567972618E+02  0.19839024579E+02  0.41466737941E+02  0.51100000000E-03 0.  1.
         22    1    1    0    0    0  0.18647829148E+02  0.11075516747E+01  0.22589703412E+02  0.29313186502E+02  0.00000000000E+00 0. -1.
</event>
<event>
 5    1  0.3144657E-003  0.9118800E+02  0.7818608E-02  0.1130116E+00
         25   -1    0    0    0    0  0.00000000000E+00  0.00000000000E+00  0.99999998245E-14  0.12500000000E+03  0.12500000000E+03 0.  0.
        -11    1    3    3    0    0  0.12657250463E+02  0.45526203471E+01 -0.35410017793E+02  0.37878776402E+02  0.51100000000E-03 0. -1.
         23    2    1    0    0    0  0.15602601353E+02 -0.27997840062E+02  0.77568534386E+01  0.92022902001E+02  0.85911148871E+02 0.  0.
         11    1    3    3    0    0  0.29453508900E+01 -0.32550460410E+02  0.43166871232E+02  0.54144125600E+02  0.51100000000E-03 0.  1.
         22    1    1    0    0    0 -0.15602601353E+02  0.27997840062E+02 -0.77568534386E+01  0.32977097999E+02  0.00000000000E+00 0.  1.
</event>
<event>
 5    1  0.3144657E-003  0.9118800E+02  0.7818608E-02  0.1130116E+00
         25   -1    0    0    0    0  0.00000000000E+00  0.00000000000E+00  0.99999998245E-14  0.12500000000E+03  0.12500000000E+03 0.  0.
        -11    1    3    3    0    0  0.15756228212E+02 -0.25572304303E+02 -0.12802312813E+02  0.32651197352E+02  0.51100000000E-03 0. -1.
         23    2    1    0    0    0 -0.83951436167E+01  0.19372413771E+02  0.22073805122E+02  0.94454595693E+02  0.89379242128E+02 0.  0.
         11    1    3    3    0    0 -0.24151371829E+02  0.44944718075E+02  0.34876117936E+02  0.61803398342E+02  0.51100000000E-03 0.  1.
         22    1    1    0    0    0  0.83951436167E+01 -0.19372413771E+02 -0.22073805122E+02  0.30545404307E+02  0.00000000000E+00 0.  1.
</event>
<event>
 5    1  0.3144657E-003  0.9118800E+02  0.7818608E-02  0.1130116E+00
         25   -1    0    0    0    0  0.00000000000E+00  0.00000000000E+00  0.99999998245E-14  0.12500000000E+03  0.12500000000E+03 0.  0.
        -11    1    3    3    0    0 -0.31476676946E+02 -0.12212598506E+02  0.18987223041E+02  0.38735557217E+02  0.51100000000E-03 0. -1.
         23    2    1    0    0    0  0.76320736018E+01 -0.19348923978E+02 -0.21225694272E+02  0.95282000339E+02  0.90529001346E+02 0.  0.
         11    1    3    3    0    0  0.39108750548E+02 -0.71363254722E+01 -0.40212917313E+02  0.56546443122E+02  0.51100000000E-03 0.  1.
         22    1    1    0    0    0 -0.76320736018E+01  0.19348923978E+02  0.21225694272E+02  0.29717999661E+02  0.00000000000E+00 0.  1.
</event>
<event>
 5    1  0.3144657E-003  0.9118800E+02  0.7818608E-02  0.1130116E+00
         25   -1    0    0    0    0  0.00000000000E+00  0.00000000000E+00  0.99999998245E-14  0.12500000000E+03  0.12500000000E+03 0.  0.
        -11    1    3    3    0    0 -0.12274173960E+02  0.27649869653E+01  0.54149468224E+02  0.55591954530E+02  0.51100000000E-03 0. -1.
         23    2    1    0    0    0 -0.24546981992E+02  0.38306358564E+01  0.16574976330E+02  0.95134335160E+02  0.90324879131E+02 0.  0.
         11    1    3    3    0    0 -0.12272808032E+02  0.10656488912E+01 -0.37574491894E+02  0.39542380630E+02  0.51100000000E-03 0.  1.
         22    1    1    0    0    0  0.24546981992E+02 -0.38306358564E+01 -0.16574976330E+02  0.29865664840E+02  0.00000000000E+00 0. -1.
</event>
<event>
 5    1  0.3144657E-003  0.9118800E+02  0.7818608E-02  0.1130116E+00
         25   -1    0    0    0    0  0.00000000000E+00  0.00000000000E+00  0.99999998245E-14  0.12500000000E+03  0.12500000000E+03 0.  0.
        -11    1    3    3    0    0  0.38312259264E+02 -0.17238877256E+02  0.33145041179E+02  0.53512632658E+02  0.51100000000E-03 0. -1.
         23    2    1    0    0    0  0.53872354763E+01 -0.27298421458E+02  0.21431573412E+02  0.89878233828E+02  0.82731846691E+02 0.  0.
         11    1    3    3    0    0 -0.32925023788E+02 -0.10059544202E+02 -0.11713467768E+02  0.36365601169E+02  0.51100000000E-03 0.  1.
         22    1    1    0    0    0 -0.53872354763E+01  0.27298421458E+02 -0.21431573412E+02  0.35121766172E+02  0.00000000000E+00 0. -1.
</event>
<event>
 5    1  0.3144657E-003  0.9118800E+02  0.7818608E-02  0.1130116E+00
         25   -1    0    0    0    0  0.00000000000E+00  0.00000000000E+00  0.99999998245E-14  0.12500000000E+03  0.12500000000E+03 0.  0.
        -11    1    3    3    0    0 -0.21268615144E+02  0.23961744686E+02 -0.25413874906E+02  0.40894794737E+02  0.51100000000E-03 0.  1.
         23    2    1    0    0    0  0.24915480192E+02 -0.37196775441E+01 -0.14822764617E+02  0.95771050222E+02  0.91201768380E+02 0.  0.
         11    1    3    3    0    0  0.46184095336E+02 -0.27681422230E+02  0.10591110289E+02  0.54876255485E+02  0.51100000000E-03 0. -1.
         22    1    1    0    0    0 -0.24915480192E+02  0.37196775441E+01  0.14822764617E+02  0.29228949778E+02  0.00000000000E+00 0. -1.
</event>
<event>
 5    1  0.3144657E-003  0.9118800E+02  0.7818608E-02  0.1130116E+00
         25   -1    0    0    0    0  0.00000000000E+00  0.00000000000E+00  0.99999998245E-14  0.12500000000E+03  0.12500000000E+03 0.  0.
        -11    1    3    3    0    0  0.23467282025E+02  0.19007914588E+02  0.31888155366E+02  0.43918886547E+02  0.51100000000E-03 0. -1.
         23    2    1    0    0    0  0.61594161198E+01  0.23382939179E+02 -0.16653666060E+02  0.95639399788E+02  0.91021151097E+02 0.  0.
         11    1    3    3    0    0 -0.17307865905E+02  0.43750245908E+01 -0.48541821426E+02  0.51720513241E+02  0.51100000000E-03 0.  1.
         22    1    1    0    0    0 -0.61594161198E+01 -0.23382939179E+02  0.16653666060E+02  0.29360600212E+02  0.00000000000E+00 0.  1.
</event>
<event>
 5    1  0.3144657E-003  0.9118800E+02  0.7818608E-02  0.1130116E+00
         25   -1    0    0    0    0  0.00000000000E+00  0.00000000000E+00  0.99999998245E-14  0.12500000000E+03  0.12500000000E+03 0.  0.
        -11    1    3    3    0    0  0.17746675031E+02 -0.12792157810E+02  0.40842303557E+02  0.46332251577E+02  0.51100000000E-03 0. -1.
         23    2    1    0    0    0  0.17701312311E+02 -0.21502669146E+02 -0.80611878896E+01  0.96005448992E+02  0.91522468543E+02 0.  0.
         11    1    3    3    0    0 -0.45362720666E-01 -0.87105113366E+01 -0.48903491447E+02  0.49673197415E+02  0.51100000000E-03 0.  1.
         22    1    1    0    0    0 -0.17701312311E+02  0.21502669146E+02  0.80611878896E+01  0.28994551008E+02  0.00000000000E+00 0.  1.
</event>
<event>
 5    1  0.3144657E-003  0.9118800E+02  0.7818608E-02  0.1130116E+00
         25   -1    0    0    0    0  0.00000000000E+00  0.00000000000E+00  0.99999998245E-14  0.12500000000E+03  0.12500000000E+03 0.  0.
        -11    1    3    3    0    0 -0.15737513978E+02 -0.30435572427E+02 -0.43392571225E+02  0.55289317711E+02  0.51100000000E-03 0.  1.
         23    2    1    0    0    0 -0.13194422196E+02 -0.24154069111E+02 -0.18131090529E+01  0.97417411359E+02  0.93431005773E+02 0.  0.
         11    1    3    3    0    0  0.25430917817E+01  0.62815033163E+01  0.41579462172E+02  0.42128093649E+02  0.51100000000E-03 0. -1.
         22    1    1    0    0    0  0.13194422196E+02  0.24154069111E+02  0.18131090529E+01  0.27582588641E+02  0.00000000000E+00 0.  1.
</event>
<event>
 5    1  0.3144657E-003  0.9118800E+02  0.7818608E-02  0.1130116E+00
         25   -1    0    0    0    0  0.00000000000E+00  0.00000000000E+00  0.99999998245E-14  0.12500000000E+03  0.12500000000E+03 0.  0.
        -11    1    3    3    0    0  0.50219371722E+02  0.16396397630E+01  0.10770569649E+01  0.50257673709E+02  0.51100000000E-03 0.  1.
         23    2    1    0    0    0  0.12809536095E+02  0.23508362207E+02 -0.12200757375E+02  0.95579160632E+02  0.90938386603E+02 0.  0.
         11    1    3    3    0    0 -0.37409835627E+02  0.21868722444E+02 -0.13277814340E+02  0.45321486923E+02  0.51100000000E-03 0. -1.
         22    1    1    0    0    0 -0.12809536095E+02 -0.23508362207E+02  0.12200757375E+02  0.29420839368E+02  0.00000000000E+00 0.  1.
</event>
<event>
 5    1  0.3144657E-003  0.9118800E+02  0.7818608E-02  0.1130116E+00
         25   -1    0    0    0    0  0.00000000000E+00  0.00000000000E+00  0.99999998245E-14  0.12500000000E+03  0.12500000000E+03 0.  0.
        -11    1    3    3    0    0 -0.17380290696E+01  0.30916434944E+02  0.20618677673E+02  0.37201835492E+02  0.51100000000E-03 0. -1.
         23    2    1    0    0    0  0.19743186573E+02 -0.20783112879E+02  0.17497180151E+01  0.96280795447E+02  0.91897763095E+02 0.  0.
         11    1    3    3    0    0  0.21481215643E+02 -0.51699547823E+02 -0.18868959658E+02  0.59078959956E+02  0.51100000000E-03 0.  1.
         22    1    1    0    0    0 -0.19743186573E+02  0.20783112879E+02 -0.17497180151E+01  0.28719204553E+02  0.00000000000E+00 0.  1.
</event>
<event>
 5    1  0.3144657E-003  0.9118800E+02  0.7818608E-02  0.1130116E+00
         25   -1    0    0    0    0  0.00000000000E+00  0.00000000000E+00  0.99999998245E-14  0.12500000000E+03  0.12500000000E+03 0.  0.
        -11    1    3    3    0    0 -0.54157232786E+02 -0.27065369472E+02  0.14937522334E+02  0.62359198691E+02  0.51100000000E-03 0. -1.
         23    2    1    0    0    0 -0.27790978031E+02 -0.12101176023E+02  0.48951894904E+01  0.94295931846E+02  0.89157069049E+02 0.  0.
         11    1    3    3    0    0  0.26366254755E+02  0.14964193449E+02 -0.10042332844E+02  0.31936733154E+02  0.51100000000E-03 0.  1.
         22    1    1    0    0    0  0.27790978031E+02  0.12101176023E+02 -0.48951894904E+01  0.30704068154E+02  0.00000000000E+00 0. -1.
</event>
<event>
 5    1  0.3144657E-003  0.9118800E+02  0.7818608E-02  0.1130116E+00
         25   -1    0    0    0    0  0.00000000000E+00  0.00000000000E+00  0.99999998245E-14  0.12500000000E+03  0.12500000000E+03 0.  0.
        -11    1    3    3    0    0  0.12147155029E+02 -0.28835597926E+02  0.10254905382E+02  0.32927316436E+02  0.51100000000E-03 0.  1.
         23    2    1    0    0    0 -0.20541252302E+02  0.21926968000E+02 -0.31977405974E+01  0.94784763500E+02  0.89839806740E+02 0.  0.
         11    1    3    3    0    0 -0.32688407330E+02  0.50762565926E+02 -0.13452645979E+02  0.61857447064E+02  0.51100000000E-03 0. -1.
         22    1    1    0    0    0  0.20541252302E+02 -0.21926968000E+02  0.31977405974E+01  0.30215236500E+02  0.00000000000E+00 0. -1.
</event>
<event>
 5    1  0.3144657E-003  0.9118800E+02  0.7818608E-02  0.1130116E+00
         25   -1    0    0    0    0  0.00000000000E+00  0.00000000000E+00  0.99999998245E-14  0.12500000000E+03  0.12500000000E+03 0.  0.
        -11    1    3    3    0    0 -0.11868187984E+02  0.47583618083E+02 -0.27724228727E+02  0.56335490187E+02  0.51100000000E-03 0. -1.
         23    2    1    0    0    0  0.64371172437E+01  0.28301417666E+02  0.16168302162E+01  0.95930757488E+02  0.91420399102E+02 0.  0.
         11    1    3    3    0    0  0.18305305228E+02 -0.19282200417E+02  0.29341058943E+02  0.39595267300E+02  0.51100000000E-03 0.  1.
         22    1    1    0    0    0 -0.64371172437E+01 -0.28301417666E+02 -0.16168302162E+01  0.29069242512E+02  0.00000000000E+00 0. -1.
</event>
<event>
 5    1  0.3144657E-003  0.9118800E+02  0.7818608E-02  0.1130116E+00
         25   -1    0    0    0    0  0.00000000000E+00  0.00000000000E+00  0.99999998245E-14  0.12500000000E+03  0.12500000000E+03 0.  0.
        -11    1    3    3    0    0  0.54496582583E+01 -0.47571342403E+02  0.26776953970E+02  0.54861066863E+02  0.51100000000E-03 0.  1.
         23    2    1    0    0    0 -0.85276991837E+01 -0.89917882634E+01  0.26332718785E+02  0.95896976306E+02  0.91374198089E+02 0.  0.
         11    1    3    3    0    0 -0.13977357442E+02  0.38579554139E+02 -0.44423518498E+00  0.41035909443E+02  0.51100000000E-03 0. -1.
         22    1    1    0    0    0  0.85276991837E+01  0.89917882634E+01 -0.26332718785E+02  0.29103023694E+02  0.00000000000E+00 0. -1.
</event>
<event>
 5    1  0.3144657E-003  0.9118800E+02  0.7818608E-02  0.1130116E+00
         25   -1    0    0    0    0  0.00000000000E+00  0.00000000000E+00  0.99999998245E-14  0.12500000000E+03  0.12500000000E+03 0.  0.
        -11    1    3    3    0    0 -0.21749079663E+02 -0.38516973026E+02  0.35930418972E+02  0.56987495866E+02  0.51100000000E-03 0. -1.
         23    2    1    0    0    0 -0.21778294752E+02 -0.34318637994E+01  0.18773233223E+02  0.96043030250E+02  0.91573782070E+02 0.  0.
         11    1    3    3    0    0 -0.29215089030E-01  0.35085109227E+02 -0.17157185749E+02  0.39055534384E+02  0.51100000000E-03 0.  1.
         22    1    1    0    0    0  0.21778294752E+02  0.34318637994E+01 -0.18773233223E+02  0.28956969750E+02  0.00000000000E+00 0. -1.
</event>
<event>
 5    1  0.3144657E-003  0.9118800E+02  0.7818608E-02  0.1130116E+00
         25   -1    0    0    0    0  0.00000000000E+00  0.00000000000E+00  0.99999998245E-14  0.12500000000E+03  0.12500000000E+03 0.  0.
        -11    1    3    3    0    0 -0.35473006781E+02 -0.37390067348E+02 -0.30944527223E+02  0.60115847426E+02  0.51100000000E-03 0.  1.
         23    2    1    0    0    0 -0.86816986541E+01 -0.90169720666E+01 -0.21269798607E+02  0.10032041310E+03  0.97237355347E+02 0.  0.
         11    1    3    3    0    0  0.26791308127E+02  0.28373095282E+02  0.96747286154E+01  0.40204565674E+02  0.51100000000E-03 0. -1.
         22    1    1    0    0    0  0.86816986541E+01  0.90169720666E+01  0.21269798607E+02  0.24679586900E+02  0.00000000000E+00 0.  1.
</event>
<event>
 5    1  0.3144657E-003  0.9118800E+02  0.7818608E-02  0.1130116E+00
         25   -1    0    0    0    0  0.00000000000E+00  0.00000000000E+00  0.99999998245E-14  0.12500000000E+03  0.12500000000E+03 0.  0.
        -11    1    3    3    0    0  0.90016364287E+01  0.22603100059E+02 -0.20696463425E+02  0.31941715503E+02  0.51100000000E-03 0.  1.
         23    2    1    0    0    0  0.17343994804E+02 -0.35667731882E+01  0.30323257777E+02  0.89885387814E+02  0.82742654982E+02 0.  0.
         11    1    3    3    0    0  0.83423583751E+01 -0.26169873247E+02  0.51019721203E+02  0.57943672311E+02  0.51100000000E-03 0. -1.
         22    1    1    0    0    0 -0.17343994804E+02  0.35667731882E+01 -0.30323257777E+02  0.35114612186E+02  0.00000000000E+00 0. -1.
</event>
<event>
 5    1  0.3144657E-003  0.9118800E+02  0.7818608E-02  0.1130116E+00
         25   -1    0    0    0    0  0.00000000000E+00  0.00000000000E+00  0.99999998245E-14  0.12500000000E+03  0.12500000000E+03 0.  0.
        -11    1    3    3    0    0 -0.18772011120E+02 -0.33718320411E+01 -0.39021608726E+02  0.43433208500E+02  0.51100000000E-03 0. -1.
         23    2    1    0    0    0 -0.26028036998E+02  0.70773732400E+01  0.11606955212E+02  0.95635577117E+02  0.91015901244E+02 0.  0.
         11    1    3    3    0    0 -0.72560258775E+01  0.10449205281E+02  0.50628563938E+02  0.52202368617E+02  0.51100000000E-03 0.  1.
         22    1    1    0    0    0  0.26028036998E+02 -0.70773732400E+01 -0.11606955212E+02  0.29364422883E+02  0.00000000000E+00 0.  1.
</event>
<event>
 5    1  0.3144657E-003  0.9118800E+02  0.7818608E-02  0.1130116E+00
         25   -1    0    0    0    0  0.00000000000E+00  0.00000000000E+00  0.99999998245E-14  0.12500000000E+03  0.12500000000E+03 0.  0.
        -11    1    3    3    0    0 -0.36936292350E+02  0.20794429786E+02  0.13201028733E+02  0.44395553410E+02  0.51100000000E-03 0. -1.
         23    2    1    0    0    0  0.13480740019E+02  0.18208384980E+02  0.19289899926E+02  0.95244733672E+02  0.90477529907E+02 0.  0.
         11    1    3    3    0    0  0.50417032370E+02 -0.25860448056E+01  0.60888711934E+01  0.50849180262E+02  0.51100000000E-03 0.  1.
         22    1    1    0    0    0 -0.13480740019E+02 -0.18208384980E+02 -0.19289899926E+02  0.29755266328E+02  0.00000000000E+00 0.  1.
</event>
<event>
 5    1  0.3144657E-003  0.9118800E+02  0.7818608E-02  0.1130116E+00
         25   -1    0    0    0    0  0.00000000000E+00  0.00000000000E+00  0.99999998245E-14  0.12500000000E+03  0.12500000000E+03 0.  0.
        -11    1    3    3    0    0  0.11513362574E+02 -0.19855252667E+02 -0.27050524316E+02  0.35475617574E+02  0.51100000000E-03 0. -1.
         23    2    1    0    0    0 -0.13115411796E+01 -0.17523271056E+01  0.29083251498E+02  0.95834501406E+02  0.91288692353E+02 0.  0.
         11    1    3    3    0    0 -0.12824903753E+02  0.18102925562E+02  0.56133775813E+02  0.60358883832E+02  0.51100000000E-03 0.  1.
         22    1    1    0    0    0  0.13115411796E+01  0.17523271056E+01 -0.29083251498E+02  0.29165498594E+02  0.00000000000E+00 0.  1.
</event>
<event>
 5    1  0.3144657E-003  0.9118800E+02  0.7818608E-02  0.1130116E+00
         25   -1    0    0    0    0  0.00000000000E+00  0.00000000000E+00  0.99999998245E-14  0.12500000000E+03  0.12500000000E+03 0.  0.
        -11    1    3    3    0    0  0.19032571313E+02 -0.29148885709E+02  0.39478909890E+02  0.52635355373E+02  0.51100000000E-03 0.  1.
         23    2    1    0    0    0  0.60326288481E+01 -0.33237393903E+02  0.35841804088E+01  0.91029964476E+02  0.84454076983E+02 0.  0.
         11    1    3    3    0    0 -0.12999942465E+02 -0.40885081938E+01 -0.35894729481E+02  0.38394609103E+02  0.51100000000E-03 0. -1.
         22    1    1    0    0    0 -0.60326288481E+01  0.33237393903E+02 -0.35841804088E+01  0.33970035524E+02  0.00000000000E+00 0.  1.
</event>
<event>
 5    1  0.3144657E-003  0.9118800E+02  0.7818608E-02  0.1130116E+00
         25   -1    0    0    0    0  0.00000000000E+00  0.00000000000E+00  0.99999998245E-14  0.12500000000E+03  0.12500000000E+03 0.  0.
        -11    1    3    3    0    0 -0.51991867220E+01 -0.47032122763E+02  0.48120292673E+00  0.47321070050E+02  0.51100000000E-03 0. -1.
         23    2    1    0    0    0 -0.11005677087E+01 -0.76707169814E+01 -0.27915222809E+02  0.96029138557E+02  0.91554817674E+02 0.  0.
         11    1    3    3    0    0  0.40986190133E+01  0.39361405781E+02 -0.28396425735E+02  0.48708068507E+02  0.51100000000E-03 0.  1.
         22    1    1    0    0    0  0.11005677087E+01  0.76707169814E+01  0.27915222809E+02  0.28970861443E+02  0.00000000000E+00 0.  1.
</event>
<event>
 5    1  0.3144657E-003  0.9118800E+02  0.7818608E-02  0.1130116E+00
         25   -1    0    0    0    0  0.00000000000E+00  0.00000000000E+00  0.99999998245E-14  0.12500000000E+03  0.12500000000E+03 0.  0.
        -11    1    3    3    0    0  0.16248672981E+02  0.27029687831E+02 -0.39800426493E+02  0.50780875802E+02  0.51100000000E-03 0.  1.
         23    2    1    0    0    0  0.19260776228E+02  0.21583062946E+02  0.46814125917E+01  0.95696045815E+02  0.91098910277E+02 0.  0.
         11    1    3    3    0    0  0.30121032479E+01 -0.54466248852E+01  0.44481839085E+02  0.44915170013E+02  0.51100000000E-03 0. -1.
         22    1    1    0    0    0 -0.19260776228E+02 -0.21583062946E+02 -0.46814125917E+01  0.29303954185E+02  0.00000000000E+00 0. -1.
</event>
<event>
 5    1  0.3144657E-003  0.9118800E+02  0.7818608E-02  0.1130116E+00
         25   -1    0    0    0    0  0.00000000000E+00  0.00000000000E+00  0.99999998245E-14  0.12500000000E+03  0.12500000000E+03 0.  0.
        -11    1    3    3    0    0  0.29075694687E+02  0.17132134920E+01 -0.37350381254E+02  0.47364354763E+02  0.51100000000E-03 0. -1.
         23    2    1    0    0    0 -0.15271264650E+02  0.12971094604E+02 -0.21059659872E+02  0.95931630710E+02  0.91421593060E+02 0.  0.
         11    1    3    3    0    0 -0.44346959337E+02  0.11257881112E+02  0.16290721382E+02  0.48567275948E+02  0.51100000000E-03 0.  1.
         22    1    1    0    0    0  0.15271264650E+02 -0.12971094604E+02  0.21059659872E+02  0.29068369290E+02  0.00000000000E+00 0.  1.
</event>
<event>
 5    1  0.3144657E-003  0.9118800E+02  0.7818608E-02  0.1130116E+00
         25   -1    0    0    0    0  0.00000000000E+00  0.00000000000E+00  0.99999998245E-14  0.12500000000E+03  0.12500000000E+03 0.  0.
        -11    1    3    3    0    0  0.48686624524E+02  0.70131561898E+00 -0.35907062866E+02  0.60499557148E+02  0.51100000000E-03 0.  1.
         23    2    1    0    0    0  0.24605147426E+02 -0.87433869257E+01 -0.10206635513E+02  0.96963675290E+02  0.92821973812E+02 0.  0.
         11    1    3    3    0    0 -0.24081477099E+02 -0.94447025447E+01  0.25700427354E+02  0.36464118141E+02  0.51100000000E-03 0. -1.
         22    1    1    0    0    0 -0.24605147426E+02  0.87433869257E+01  0.10206635513E+02  0.28036324710E+02  0.00000000000E+00 0.  1.
</event>
<event>
 5    1  0.3144657E-003  0.9118800E+02  0.7818608E-02  0.1130116E+00
         25   -1    0    0    0    0  0.00000000000E+00  0.00000000000E+00  0.99999998245E-14  0.12500000000E+03  0.12500000000E+03 0.  0.
        -11    1    3    3    0    0  0.24929452674E+02  0.23740567322E+02  0.81963797916E+01  0.35387466557E+02  0.51100000000E-03 0.  1.
         23    2    1    0    0    0 -0.25306505305E+02 -0.36992609410E+01 -0.12852929251E+02  0.96376556241E+02  0.92027925438E+02 0.  0.
         11    1    3    3    0    0 -0.50235957979E+02 -0.27439828263E+02 -0.21049309042E+02  0.60989089685E+02  0.51100000000E-03 0. -1.
         22    1    1    0    0    0  0.25306505305E+02  0.36992609410E+01  0.12852929251E+02  0.28623443759E+02  0.00000000000E+00 0. -1.
</event>
<event>
 5    1  0.3144657E-003  0.9118800E+02  0.7818608E-02  0.1130116E+00
         25   -1    0    0    0    0  0.00000000000E+00  0.00000000000E+00  0.99999998245E-14  0.12500000000E+03  0.12500000000E+03 0.  0.
        -11    1    3    3    0    0  0.21643989843E+02  0.30814855114E+02  0.28829869033E+02  0.47425509388E+02  0.51100000000E-03 0.  1.
         23    2    1    0    0    0  0.24045160261E+02 -0.13166280801E+02  0.64235978559E+01  0.96843592354E+02  0.92660121350E+02 0.  0.
         11    1    3    3    0    0  0.24011704177E+01 -0.43981135914E+02 -0.22406271177E+02  0.49418082966E+02  0.51100000000E-03 0. -1.
         22    1    1    0    0    0 -0.24045160261E+02  0.13166280801E+02 -0.64235978559E+01  0.28156407646E+02  0.00000000000E+00 0.  1.
</event>
<event>
 5    1  0.3144657E-003  0.9118800E+02  0.7818608E-02  0.1130116E+00
         25   -1    0    0    0    0  0.00000000000E+00  0.00000000000E+00  0.99999998245E-14  0.12500000000E+03  0.12500000000E+03 0.  0.
        -11    1    3    3    0    0 -0.34553655006E+02  0.10300553012E+02  0.14321018312E+01  0.36084725059E+02  0.51100000000E-03 0.  1.
         23    2    1    0    0    0  0.10212949514E+02 -0.17714446612E+02 -0.22959214682E+02  0.94255382660E+02  0.89100200140E+02 0.  0.
         11    1    3    3    0    0  0.44766604520E+02 -0.28014999624E+02 -0.24391316513E+02  0.58170657601E+02  0.51100000000E-03 0. -1.
         22    1    1    0    0    0 -0.10212949514E+02  0.17714446612E+02  0.22959214682E+02  0.30744617340E+02  0.00000000000E+00 0. -1.
</event>
<event>
 5    1  0.3144657E-003  0.9118800E+02  0.7818608E-02  0.1130116E+00
         25   -1    0    0    0    0  0.00000000000E+00  0.00000000000E+00  0.99999998245E-14  0.12500000000E+03  0.12500000000E+03 0.  0.
        -11    1    3    3    0    0  0.51046681609E+02 -0.31399913542E+01  0.15715846300E+02  0.53503374418E+02  0.51100000000E-03 0.  1.
         23    2    1    0    0    0  0.18834465283E+02 -0.11383599891E+02 -0.14673922026E+02  0.98549150929E+02  0.94933069750E+02 0.  0.
         11    1    3    3    0    0 -0.32212216325E+02 -0.82436085366E+01 -0.30389768326E+02  0.45045776510E+02  0.51100000000E-03 0. -1.
         22    1    1    0    0    0 -0.18834465283E+02  0.11383599891E+02  0.14673922026E+02  0.26450849071E+02  0.00000000000E+00 0.  1.
</event>
<event>
 5    1  0.3144657E-003  0.9118800E+02  0.7818608E-02  0.1130116E+00
         25   -1    0    0    0    0  0.00000000000E+00  0.00000000000E+00  0.99999998245E-14  0.12500000000E+03  0.12500000000E+03 0.  0.
        -11    1    3    3    0    0  0.15832858732E+02  0.24698071967E+02  0.19713917273E+02  0.35345617960E+02  0.51100000000E-03 0.  1.
         23    2    1    0    0    0  0.36221534180E+01 -0.12522487762E+02 -0.26222290700E+02  0.95716195181E+02  0.91126553733E+02 0.  0.
         11    1    3    3    0    0 -0.12210705314E+02 -0.37220559728E+02 -0.45936207973E+02  0.60370577221E+02  0.51100000000E-03 0. -1.
         22    1    1    0    0    0 -0.36221534180E+01  0.12522487762E+02  0.26222290700E+02  0.29283804819E+02  0.00000000000E+00 0. -1.
</event>
<event>
 5    1  0.3144657E-003  0.9118800E+02  0.7818608E-02  0.1130116E+00
         25   -1    0    0    0    0  0.00000000000E+00  0.00000000000E+00  0.99999998245E-14  0.12500000000E+03  0.12500000000E+03 0.  0.
        -11    1    3    3    0    0  0.70118533169E+01 -0.60921032989E+02  0.11256474975E+02  0.62347787263E+02  0.51100000000E-03 0. -1.
         23    2    1    0    0    0  0.53473397862E+01 -0.29792339142E+02  0.80107310013E+01  0.93689469415E+02  0.88302702981E+02 0.  0.
         11    1    3    3    0    0 -0.16645135307E+01  0.31128693847E+02 -0.32457439733E+01  0.31341682152E+02  0.51100000000E-03 0.  1.
         22    1    1    0    0    0 -0.53473397862E+01  0.29792339142E+02 -0.80107310013E+01  0.31310530585E+02  0.00000000000E+00 0. -1.
</event>
<event>
 5    1  0.3144657E-003  0.9118800E+02  0.7818608E-02  0.1130116E+00
         25   -1    0    0    0    0  0.00000000000E+00  0.00000000000E+00  0.99999998245E-14  0.12500000000E+03  0.12500000000E+03 0.  0.
        -11    1    3    3    0    0  0.12946142805E+02 -0.32319020760E+02  0.31276261844E+02  0.46800921696E+02  0.51100000000E-03 0.  1.
         23    2    1    0    0    0 -0.47389885458E+01 -0.24277704703E+02 -0.14358404200E+02  0.96398798465E+02  0.92058131722E+02 0.  0.
         11    1    3    3    0    0 -0.17685131350E+02  0.80413160568E+01 -0.45634666044E+02  0.49597876769E+02  0.51100000000E-03 0. -1.
         22    1    1    0    0    0  0.47389885458E+01  0.24277704703E+02  0.14358404200E+02  0.28601201535E+02  0.00000000000E+00 0. -1.
</event>
<event>
 5    1  0.3144657E-003  0.9118800E+02  0.7818608E-02  0.1130116E+00
         25   -1    0    0    0    0  0.00000000000E+00  0.00000000000E+00  0.99999998245E-14  0.12500000000E+03  0.12500000000E+03 0.  0.
        -11    1    3    3    0    0 -0.21317965488E+02  0.28967122188E+02  0.49780918452E+01  0.36308831145E+02  0.51100000000E-03 0.  1.
         23    2    1    0    0    0 -0.73600847871E+01 -0.22829855608E+02 -0.18342862998E+02  0.94803414463E+02  0.89865753297E+02 0.  0.
         11    1    3    3    0    0  0.13957880701E+02 -0.51796977796E+02 -0.23320954843E+02  0.58494583318E+02  0.51100000000E-03 0. -1.
         22    1    1    0    0    0  0.73600847871E+01  0.22829855608E+02  0.18342862998E+02  0.30196585537E+02  0.00000000000E+00 0. -1.
</event>
<event>
 5    1  0.3144657E-003  0.9118800E+02  0.7818608E-02  0.1130116E+00
         25   -1    0    0    0    0  0.00000000000E+00  0.00000000000E+00  0.99999998245E-14  0.12500000000E+03  0.12500000000E+03 0.  0.
        -11    1    3    3    0    0  0.29795065020E+02 -0.58137969182E+01 -0.32052526878E+02  0.44146467737E+02  0.51100000000E-03 0. -1.
         23    2    1    0    0    0  0.14574332227E+02  0.23514399860E+02  0.81256092011E+01  0.96166622024E+02  0.91742332137E+02 0.  0.
         11    1    3    3    0    0 -0.15220732792E+02  0.29328196778E+02  0.40178136079E+02  0.52020154287E+02  0.51100000000E-03 0.  1.
         22    1    1    0    0    0 -0.14574332227E+02 -0.23514399860E+02 -0.81256092011E+01  0.28833377976E+02  0.00000000000E+00 0.  1.
</event>
<event>
 5    1  0.3144657E-003  0.9118800E+02  0.7818608E-02  0.1130116E+00
         25   -1    0    0    0    0  0.00000000000E+00  0.00000000000E+00  0.99999998245E-14  0.12500000000E+03  0.12500000000E+03 0.  0.
        -11    1    3    3    0    0 -0.47595769946E+02  0.15318013375E+02 -0.18716486036E+02  0.53388254329E+02  0.51100000000E-03 0. -1.
         23    2    1    0    0    0 -0.25210698120E+02 -0.63941761057E+00  0.14027691646E+02  0.96142344386E+02  0.91709247607E+02 0.  0.
         11    1    3    3    0    0  0.22385071825E+02 -0.15957430986E+02  0.32744177682E+02  0.42754090058E+02  0.51100000000E-03 0.  1.
         22    1    1    0    0    0  0.25210698120E+02  0.63941761057E+00 -0.14027691646E+02  0.28857655614E+02  0.00000000000E+00 0. -1.
</event>
<event>
 5    1  0.3144657E-003  0.9118800E+02  0.7818608E-02  0.1130116E+00
         25   -1    0    0    0    0  0.00000000000E+00  0.00000000000E+00  0.99999998245E-14  0.12500000000E+03  0.12500000000E+03 0.  0.
        -11    1    3    3    0    0  0.43146588934E+02 -0.11637402053E+02 -0.43000923712E+02  0.62017229086E+02  0.51100000000E-03 0.  1.
         23    2    1    0    0    0  0.17184953159E+02 -0.34640278272E+01 -0.24283662926E+02  0.95049734743E+02  0.90207725200E+02 0.  0.
         11    1    3    3    0    0 -0.25961635775E+02  0.81733742260E+01  0.18717260786E+02  0.33032505656E+02  0.51100000000E-03 0. -1.
         22    1    1    0    0    0 -0.17184953159E+02  0.34640278272E+01  0.24283662926E+02  0.29950265257E+02  0.00000000000E+00 0.  1.
</event>
<event>
 5    1  0.3144657E-003  0.9118800E+02  0.7818608E-02  0.1130116E+00
         25   -1    0    0    0    0  0.00000000000E+00  0.00000000000E+00  0.99999998245E-14  0.12500000000E+03  0.12500000000E+03 0.  0.
        -11    1    3    3    0    0 -0.21531234926E+01  0.36265474362E+02  0.47521927326E+02  0.59817674215E+02  0.51100000000E-03 0. -1.
         23    2    1    0    0    0  0.11506109991E+02  0.19394056115E+02  0.20098292586E+02  0.94793024902E+02  0.89851300633E+02 0.  0.
         11    1    3    3    0    0  0.13659233484E+02 -0.16871418247E+02 -0.27423634740E+02  0.34975350687E+02  0.51100000000E-03 0.  1.
         22    1    1    0    0    0 -0.11506109991E+02 -0.19394056115E+02 -0.20098292586E+02  0.30206975098E+02  0.00000000000E+00 0. -1.
</event>
<event>
 5    1  0.3144657E-003  0.9118800E+02  0.7818608E-02  0.1130116E+00
         25   -1    0    0    0    0  0.00000000000E+00  0.00000000000E+00  0.99999998245E-14  0.12500000000E+03  0.12500000000E+03 0.  0.
        -11    1    3    3    0    0  0.32630615205E+02 -0.29158229149E+02 -0.15061438833E+01  0.43786160432E+02  0.51100000000E-03 0.  1.
         23    2    1    0    0    0 -0.18447913589E+02 -0.13017965947E+02  0.12550510825E+02  0.99167689318E+02  0.95744045923E+02 0.  0.
         11    1    3    3    0    0 -0.51078528793E+02  0.16140263202E+02  0.14056654708E+02  0.55381528886E+02  0.51100000000E-03 0. -1.
         22    1    1    0    0    0  0.18447913589E+02  0.13017965947E+02 -0.12550510825E+02  0.25832310682E+02  0.00000000000E+00 0.  1.
</event>
<event>
 5    1  0.3144657E-003  0.9118800E+02  0.7818608E-02  0.1130116E+00
         25   -1    0    0    0    0  0.00000000000E+00  0.00000000000E+00  0.99999998245E-14  0.12500000000E+03  0.12500000000E+03 0.  0.
        -11    1    3    3    0    0  0.23444676135E+02 -0.24376781453E+02 -0.28115821267E+02  0.43981583860E+02  0.51100000000E-03 0. -1.
         23    2    1    0    0    0  0.39377704650E+02 -0.48996787389E+01  0.43757899574E+01  0.85078101085E+02  0.75130055711E+02 0.  0.
         11    1    3    3    0    0  0.15933028515E+02  0.19477102714E+02  0.32491611224E+02  0.41096517224E+02  0.51100000000E-03 0.  1.
         22    1    1    0    0    0 -0.39377704650E+02  0.48996787389E+01 -0.43757899574E+01  0.39921898915E+02  0.00000000000E+00 0.  1.
</event>
<event>
 5    1  0.3144657E-003  0.9118800E+02  0.7818608E-02  0.1130116E+00
         25   -1    0    0    0    0  0.00000000000E+00  0.00000000000E+00  0.99999998245E-14  0.12500000000E+03  0.12500000000E+03 0.  0.
        -11    1    3    3    0    0  0.13528051660E+02  0.31446659050E+02  0.52063580241E+01  0.34626676296E+02  0.51100000000E-03 0.  1.
         23    2    1    0    0    0 -0.17735696287E+01 -0.25418240879E+02  0.16577103990E+02  0.94602090609E+02  0.89585281449E+02 0.  0.
         11    1    3    3    0    0 -0.15301621289E+02 -0.56864899929E+02  0.11370745966E+02  0.59975414314E+02  0.51100000000E-03 0. -1.
         22    1    1    0    0    0  0.17735696287E+01  0.25418240879E+02 -0.16577103990E+02  0.30397909391E+02  0.00000000000E+00 0. -1.
</event>
<event>
 5    1  0.3144657E-003  0.9118800E+02  0.7818608E-02  0.1130116E+00
         25   -1    0    0    0    0  0.00000000000E+00  0.00000000000E+00  0.99999998245E-14  0.12500000000E+03  0.12500000000E+03 0.  0.
        -11    1    3    3    0    0 -0.47902220391E+02 -0.11506146747E+02  0.98422457216E+01  0.50238271591E+02  0.51100000000E-03 0.  1.
         23    2    1    0    0    0 -0.14274414979E+02 -0.18710711113E+02 -0.18708382140E+02  0.94935848663E+02  0.90049776045E+02 0.  0.
         11    1    3    3    0    0  0.33627805412E+02 -0.72045643653E+01 -0.28550627861E+02  0.44697577072E+02  0.51100000000E-03 0. -1.
         22    1    1    0    0    0  0.14274414979E+02  0.18710711113E+02  0.18708382140E+02  0.30064151337E+02  0.00000000000E+00 0.  1.
</event>
<event>
 5    1  0.3144657E-003  0.9118800E+02  0.7818608E-02  0.1130116E+00
         25   -1    0    0    0    0  0.00000000000E+00  0.00000000000E+00  0.99999998245E-14  0.12500000000E+03  0.12500000000E+03 0.  0.
        -11    1    3    3    0    0  0.32746661287E+02 -0.27557860944E+02 -0.15197707511E+02  0.45417505866E+02  0.51100000000E-03 0.  1.
         23    2    1    0    0    0  0.26041847485E+02  0.16598575880E+02  0.36678693114E+01  0.93901064215E+02  0.88601727149E+02 0.  0.
         11    1    3    3    0    0 -0.67048138017E+01  0.44156436824E+02  0.18865576822E+02  0.48483558349E+02  0.51100000000E-03 0. -1.
         22    1    1    0    0    0 -0.26041847485E+02 -0.16598575880E+02 -0.36678693114E+01  0.31098935785E+02  0.00000000000E+00 0. -1.
</event>
<event>
 5    1  0.3144657E-003  0.9118800E+02  0.7818608E-02  0.1130116E+00
         25   -1    0    0    0    0  0.00000000000E+00  0.00000000000E+00  0.99999998245E-14  0.12500000000E+03  0.12500000000E+03 0.  0.
        -11    1    3    3    0    0  0.35987484586E+02 -0.36923105258E+02 -0.19956299792E+02  0.55287147244E+02  0.51100000000E-03 0.  1.
         23    2    1    0    0    0 -0.48369897635E+00 -0.28026599486E+02 -0.15158356639E+02  0.93133088957E+02  0.87511554890E+02 0.  0.
         11    1    3    3    0    0 -0.36471183562E+02  0.88965057724E+01  0.47979431537E+01  0.37845941713E+02  0.51100000000E-03 0. -1.
         22    1    1    0    0    0  0.48369897635E+00  0.28026599486E+02  0.15158356639E+02  0.31866911043E+02  0.00000000000E+00 0.  1.
</event>
<event>
 5    1  0.3144657E-003  0.9118800E+02  0.7818608E-02  0.1130116E+00
         25   -1    0    0    0    0  0.00000000000E+00  0.00000000000E+00  0.99999998245E-14  0.12500000000E+03  0.12500000000E+03 0.  0.
        -11    1    3    3    0    0 -0.26075280667E+01  0.32924670998E+02  0.81044883129E+01  0.34007585830E+02  0.51100000000E-03 0.  1.
         23    2    1    0    0    0  0.32219687551E+01 -0.28060209027E+02 -0.40559319972E+01  0.96465687363E+02  0.92148911230E+02 0.  0.
         11    1    3    3    0    0  0.58294968217E+01 -0.60984880024E+02 -0.12160420310E+02  0.62458101533E+02  0.51100000000E-03 0. -1.
         22    1    1    0    0    0 -0.32219687551E+01  0.28060209027E+02  0.40559319972E+01  0.28534312637E+02  0.00000000000E+00 0. -1.
</event>
<event>
 5    1  0.3144657E-003  0.9118800E+02  0.7818608E-02  0.1130116E+00
         25   -1    0    0    0    0  0.00000000000E+00  0.00000000000E+00  0.99999998245E-14  0.12500000000E+03  0.12500000000E+03 0.  0.
        -11    1    3    3    0    0 -0.49304079538E+02  0.15510385983E+02  0.11578212386E+02  0.52967153357E+02  0.51100000000E-03 0. -1.
         23    2    1    0    0    0 -0.15895161910E+02  0.21343586814E+02 -0.13512406301E+02  0.95153894822E+02  0.90351943562E+02 0.  0.
         11    1    3    3    0    0  0.33408917629E+02  0.58332008317E+01 -0.25090618687E+02  0.42186741465E+02  0.51100000000E-03 0.  1.
         22    1    1    0    0    0  0.15895161910E+02 -0.21343586814E+02  0.13512406301E+02  0.29846105178E+02  0.00000000000E+00 0. -1.
</event>
<event>
 5    1  0.3144657E-003  0.9118800E+02  0.7818608E-02  0.1130116E+00
         25   -1    0    0    0    0  0.00000000000E+00  0.00000000000E+00  0.99999998245E-14  0.12500000000E+03  0.12500000000E+03 0.  0.
        -11    1    3    3    0    0  0.36861831547E+02  0.42284574278E+01  0.26443217801E+02  0.45562245831E+02  0.51100000000E-03 0.  1.
         23    2    1    0    0    0 -0.12030349091E+02 -0.50687410452E+01  0.26642665673E+02  0.95330940878E+02  0.90596551918E+02 0.  0.
         11    1    3    3    0    0 -0.48892180637E+02 -0.92971984730E+01  0.19944787176E+00  0.49768695047E+02  0.51100000000E-03 0. -1.
         22    1    1    0    0    0  0.12030349091E+02  0.50687410452E+01 -0.26642665673E+02  0.29669059122E+02  0.00000000000E+00 0. -1.
</event>
<event>
 5    1  0.3144657E-003  0.9118800E+02  0.7818608E-02  0.1130116E+00
         25   -1    0    0    0    0  0.00000000000E+00  0.00000000000E+00  0.99999998245E-14  0.12500000000E+03  0.12500000000E+03 0.  0.
        -11    1    3    3    0    0 -0.10494704790E+02 -0.42320901498E+02  0.42133696662E+02  0.60633702897E+02  0.51100000000E-03 0.  1.
         23    2    1    0    0    0 -0.14052085352E+01 -0.23187742422E+02  0.87381512284E+01  0.10018062659E+03  0.97057491453E+02 0.  0.
         11    1    3    3    0    0  0.90894962551E+01  0.19133159077E+02 -0.33395545434E+02  0.39546923692E+02  0.51100000000E-03 0. -1.
         22    1    1    0    0    0  0.14052085352E+01  0.23187742422E+02 -0.87381512284E+01  0.24819373411E+02  0.00000000000E+00 0.  1.
</event>
<event>
 5    1  0.3144657E-003  0.9118800E+02  0.7818608E-02  0.1130116E+00
         25   -1    0    0    0    0  0.00000000000E+00  0.00000000000E+00  0.99999998245E-14  0.12500000000E+03  0.12500000000E+03 0.  0.
        -11    1    3    3    0    0 -0.32970753308E+02  0.12022787053E+02  0.35785633780E+02  0.50122146477E+02  0.51100000000E-03 0. -1.
         23    2    1    0    0    0 -0.14354773428E+02  0.21922860129E+02 -0.70482528449E+01  0.97864245273E+02  0.94026918052E+02 0.  0.
         11    1    3    3    0    0  0.18615979880E+02  0.99000730760E+01 -0.42833886625E+02  0.47742098796E+02  0.51100000000E-03 0.  1.
         22    1    1    0    0    0  0.14354773428E+02 -0.21922860129E+02  0.70482528449E+01  0.27135754727E+02  0.00000000000E+00 0.  1.
</event>
<event>
 5    1  0.3144657E-003  0.9118800E+02  0.7818608E-02  0.1130116E+00
         25   -1    0    0    0    0  0.00000000000E+00  0.00000000000E+00  0.99999998245E-14  0.12500000000E+03  0.12500000000E+03 0.  0.
        -11    1    3    3    0    0  0.34099461781E+02 -0.35660929315E+02 -0.15808408208E+02  0.51811011800E+02  0.51100000000E-03 0.  1.
         23    2    1    0    0    0 -0.63475228680E+01 -0.29367260132E+02 -0.25135310708E+01  0.94849629312E+02  0.89930013499E+02 0.  0.
         11    1    3    3    0    0 -0.40446984649E+02  0.62936691832E+01  0.13294877137E+02  0.43038617512E+02  0.51100000000E-03 0. -1.
         22    1    1    0    0    0  0.63475228680E+01  0.29367260132E+02  0.25135310708E+01  0.30150370688E+02  0.00000000000E+00 0.  1.
</event>
<event>
 5    1  0.3144657E-003  0.9118800E+02  0.7818608E-02  0.1130116E+00
         25   -1    0    0    0    0  0.00000000000E+00  0.00000000000E+00  0.99999998245E-14  0.12500000000E+03  0.12500000000E+03 0.  0.
        -11    1    3    3    0    0 -0.38882049935E+02  0.39328626451E+02  0.61336661833E+01  0.55643297231E+02  0.51100000000E-03 0.  1.
         23    2    1    0    0    0 -0.92044996749E+01  0.30043975374E+02  0.17836123524E+02  0.88868426925E+02  0.81191789801E+02 0.  0.
         11    1    3    3    0    0  0.29677550260E+02 -0.92846510775E+01  0.11702457341E+02  0.33225129693E+02  0.51100000000E-03 0. -1.
         22    1    1    0    0    0  0.92044996749E+01 -0.30043975374E+02 -0.17836123524E+02  0.36131573075E+02  0.00000000000E+00 0. -1.
</event>
<event>
 5    1  0.3144657E-003  0.9118800E+02  0.7818608E-02  0.1130116E+00
         25   -1    0    0    0    0  0.00000000000E+00  0.00000000000E+00  0.99999998245E-14  0.12500000000E+03  0.12500000000E+03 0.  0.
        -11    1    3    3    0    0 -0.21511523026E+02 -0.13438254612E+02  0.54758191160E+02  0.60347260164E+02  0.51100000000E-03 0.  1.
         23    2    1    0    0    0 -0.55931397225E+01  0.38598592896E+01  0.28976406906E+02  0.95237374396E+02  0.90467362065E+02 0.  0.
         11    1    3    3    0    0  0.15918383303E+02  0.17298113902E+02 -0.25781784254E+02  0.34890114232E+02  0.51100000000E-03 0. -1.
         22    1    1    0    0    0  0.55931397225E+01 -0.38598592896E+01 -0.28976406906E+02  0.29762625604E+02  0.00000000000E+00 0.  1.
</event>
<event>
 5    1  0.3144657E-003  0.9118800E+02  0.7818608E-02  0.1130116E+00
         25   -1    0    0    0    0  0.00000000000E+00  0.00000000000E+00  0.99999998245E-14  0.12500000000E+03  0.12500000000E+03 0.  0.
        -11    1    3    3    0    0  0.25207656218E+02 -0.19769030653E+01  0.48776190085E+02  0.54940429533E+02  0.51100000000E-03 0. -1.
         23    2    1    0    0    0 -0.31552559535E+01 -0.17084942317E+02  0.23222357934E+02  0.95997779359E+02  0.91511992874E+02 0.  0.
         11    1    3    3    0    0 -0.28362912172E+02 -0.15108039252E+02 -0.25553832151E+02  0.41057349826E+02  0.51100000000E-03 0.  1.
         22    1    1    0    0    0  0.31552559535E+01  0.17084942317E+02 -0.23222357934E+02  0.29002220641E+02  0.00000000000E+00 0. -1.
</event>
<event>
 5    1  0.3144657E-003  0.9118800E+02  0.7818608E-02  0.1130116E+00
         25   -1    0    0    0    0  0.00000000000E+00  0.00000000000E+00  0.99999998245E-14  0.12500000000E+03  0.12500000000E+03 0.  0.
        -11    1    3    3    0    0  0.44575930790E+02 -0.14007043212E+02 -0.70368413241E+01  0.47251751306E+02  0.51100000000E-03 0.  1.
         23    2    1    0    0    0 -0.16057721854E+00 -0.25536287427E+02 -0.16749954255E+02  0.94460047018E+02  0.89386865671E+02 0.  0.
         11    1    3    3    0    0 -0.44736508009E+02 -0.11529244214E+02 -0.97131129311E+01  0.47208295712E+02  0.51100000000E-03 0. -1.
         22    1    1    0    0    0  0.16057721854E+00  0.25536287427E+02  0.16749954255E+02  0.30539952982E+02  0.00000000000E+00 0.  1.
</event>
<event>
 5    1  0.3144657E-003  0.9118800E+02  0.7818608E-02  0.1130116E+00
         25   -1    0    0    0    0  0.00000000000E+00  0.00000000000E+00  0.99999998245E-14  0.12500000000E+03  0.12500000000E+03 0.  0.
        -11    1    3    3    0    0  0.25719547167E+02 -0.44758624547E+01 -0.24676495414E+02  0.35922943607E+02  0.51100000000E-03 0.  1.
         23    2    1    0    0    0 -0.28603729605E+02 -0.29296395061E+01  0.14248944253E+01  0.96211348433E+02  0.91803252165E+02 0.  0.
         11    1    3    3    0    0 -0.54323276772E+02  0.15462229485E+01  0.26101389839E+02  0.60288404826E+02  0.51100000000E-03 0. -1.
         22    1    1    0    0    0  0.28603729605E+02  0.29296395061E+01 -0.14248944253E+01  0.28788651567E+02  0.00000000000E+00 0. -1.
</event>
<event>
 5    1  0.3144657E-003  0.9118800E+02  0.7818608E-02  0.1130116E+00
         25   -1    0    0    0    0  0.00000000000E+00  0.00000000000E+00  0.99999998245E-14  0.12500000000E+03  0.12500000000E+03 0.  0.
        -11    1    3    3    0    0 -0.29939012129E+02  0.95521547942E+01 -0.11812196045E+02  0.33572549563E+02  0.51100000000E-03 0. -1.
         23    2    1    0    0    0  0.24525589035E+02 -0.16824167908E+02  0.14640666598E+00  0.95258134251E+02  0.90496041696E+02 0.  0.
         11    1    3    3    0    0  0.54464601164E+02 -0.26376322703E+02  0.11958602711E+02  0.61685584688E+02  0.51100000000E-03 0.  1.
         22    1    1    0    0    0 -0.24525589035E+02  0.16824167908E+02 -0.14640666598E+00  0.29741865749E+02  0.00000000000E+00 0.  1.
</event>
<event>
 5    1  0.3144657E-003  0.9118800E+02  0.7818608E-02  0.1130116E+00
         25   -1    0    0    0    0  0.00000000000E+00  0.00000000000E+00  0.99999998245E-14  0.12500000000E+03  0.12500000000E+03 0.  0.
        -11    1    3    3    0    0  0.27694372151E+02 -0.27428846305E+02 -0.21214492905E+02  0.44377635899E+02  0.51100000000E-03 0.  1.
         23    2    1    0    0    0  0.17915013679E+02  0.21435360739E+02 -0.82993784252E+01  0.95857212086E+02  0.91319784393E+02 0.  0.
         11    1    3    3    0    0 -0.97793584714E+01  0.48864207044E+02  0.12915114480E+02  0.51479576188E+02  0.51100000000E-03 0. -1.
         22    1    1    0    0    0 -0.17915013679E+02 -0.21435360739E+02  0.82993784252E+01  0.29142787914E+02  0.00000000000E+00 0. -1.
</event>
<event>
 5    1  0.3144657E-003  0.9118800E+02  0.7818608E-02  0.1130116E+00
         25   -1    0    0    0    0  0.00000000000E+00  0.00000000000E+00  0.99999998245E-14  0.12500000000E+03  0.12500000000E+03 0.  0.
        -11    1    3    3    0    0 -0.34416665304E+02  0.13276366243E+02  0.94721925815E+01  0.38085314543E+02  0.51100000000E-03 0. -1.
         23    2    1    0    0    0  0.17466979919E+02  0.54607742866E+01 -0.19693839145E+02  0.98115752874E+02  0.94360681528E+02 0.  0.
         11    1    3    3    0    0  0.51883645223E+02 -0.78155919566E+01 -0.29166031726E+02  0.60030438331E+02  0.51100000000E-03 0.  1.
         22    1    1    0    0    0 -0.17466979919E+02 -0.54607742866E+01  0.19693839145E+02  0.26884247126E+02  0.00000000000E+00 0.  1.
</event>
<event>
 5    1  0.3144657E-003  0.9118800E+02  0.7818608E-02  0.1130116E+00
         25   -1    0    0    0    0  0.00000000000E+00  0.00000000000E+00  0.99999998245E-14  0.12500000000E+03  0.12500000000E+03 0.  0.
        -11    1    3    3    0    0  0.25971337889E+02 -0.54893272615E+02  0.11740148048E+02  0.61851538757E+02  0.51100000000E-03 0.  1.
         23    2    1    0    0    0  0.10446509007E+02 -0.27571133736E+02  0.11708593729E+02  0.93276378943E+02  0.87715989054E+02 0.  0.
         11    1    3    3    0    0 -0.15524828883E+02  0.27322138879E+02 -0.31554319214E-01  0.31424840186E+02  0.51100000000E-03 0. -1.
         22    1    1    0    0    0 -0.10446509007E+02  0.27571133736E+02 -0.11708593729E+02  0.31723621057E+02  0.00000000000E+00 0.  1.
</event>
<event>
 5    1  0.3144657E-003  0.9118800E+02  0.7818608E-02  0.1130116E+00
         25   -1    0    0    0    0  0.00000000000E+00  0.00000000000E+00  0.99999998245E-14  0.12500000000E+03  0.12500000000E+03 0.  0.
        -11    1    3    3    0    0 -0.50527216797E+02  0.16914903895E+02 -0.23868841467E+02  0.58385231046E+02  0.51100000000E-03 0. -1.
         23    2    1    0    0    0 -0.26175495081E+02 -0.41311536786E+01  0.74514713849E-01  0.98500405175E+02  0.94868863669E+02 0.  0.
         11    1    3    3    0    0  0.24351721717E+02 -0.21046057574E+02  0.23943356180E+02  0.40115174129E+02  0.51100000000E-03 0.  1.
         22    1    1    0    0    0  0.26175495081E+02  0.41311536786E+01 -0.74514713849E-01  0.26499594825E+02  0.00000000000E+00 0. -1.
</event>
<event>
 5    1  0.3144657E-003  0.9118800E+02  0.7818608E-02  0.1130116E+00
         25   -1    0    0    0    0  0.00000000000E+00  0.00000000000E+00  0.99999998245E-14  0.12500000000E+03  0.12500000000E+03 0.  0.
        -11    1    3    3    0    0 -0.20062101883E+02 -0.72465547385E+01  0.34825191211E+02  0.40838638942E+02  0.51100000000E-03 0. -1.
         23    2    1    0    0    0  0.17934511018E+02 -0.26698135426E+02  0.23982163517E+02  0.84880412668E+02  0.74800422239E+02 0.  0.
         11    1    3    3    0    0  0.37996612901E+02 -0.19451580687E+02 -0.10843027693E+02  0.44041773726E+02  0.51100000000E-03 0.  1.
         22    1    1    0    0    0 -0.17934511018E+02  0.26698135426E+02 -0.23982163517E+02  0.40119587332E+02  0.00000000000E+00 0.  1.
</event>
<event>
 5    1  0.3144657E-003  0.9118800E+02  0.7818608E-02  0.1130116E+00
         25   -1    0    0    0    0  0.00000000000E+00  0.00000000000E+00  0.99999998245E-14  0.12500000000E+03  0.12500000000E+03 0.  0.
        -11    1    3    3    0    0 -0.27890942439E+02 -0.58073770907E+01 -0.39133573564E+02  0.48405236069E+02  0.51100000000E-03 0.  1.
         23    2    1    0    0    0 -0.16445641221E+02  0.20714756329E+02  0.17827304332E+01  0.98490787021E+02  0.94856189863E+02 0.  0.
         11    1    3    3    0    0  0.11445301218E+02  0.26522133420E+02  0.40916303997E+02  0.50085550952E+02  0.51100000000E-03 0. -1.
         22    1    1    0    0    0  0.16445641221E+02 -0.20714756329E+02 -0.17827304332E+01  0.26509212979E+02  0.00000000000E+00 0. -1.
</event>
<event>
 5    1  0.3144657E-003  0.9118800E+02  0.7818608E-02  0.1130116E+00
         25   -1    0    0    0    0  0.00000000000E+00  0.00000000000E+00  0.99999998245E-14  0.12500000000E+03  0.12500000000E+03 0.  0.
        -11    1    3    3    0    0 -0.65751129104E+01  0.34288549474E+02 -0.19598380016E+01  0.34968238447E+02  0.51100000000E-03 0. -1.
         23    2    1    0    0    0 -0.18358280255E+02 -0.19722145751E+02  0.16684059993E+02  0.93308560387E+02  0.87761837359E+02 0.  0.
         11    1    3    3    0    0 -0.11783167344E+02 -0.54010695225E+02  0.18643897994E+02  0.58340321940E+02  0.51100000000E-03 0.  1.
         22    1    1    0    0    0  0.18358280255E+02  0.19722145751E+02 -0.16684059993E+02  0.31691439613E+02  0.00000000000E+00 0.  1.
</event>
<event>
 5    1  0.3144657E-003  0.9118800E+02  0.7818608E-02  0.1130116E+00
         25   -1    0    0    0    0  0.00000000000E+00  0.00000000000E+00  0.99999998245E-14  0.12500000000E+03  0.12500000000E+03 0.  0.
        -11    1    3    3    0    0  0.57345151139E+01  0.12716532651E+02  0.33334462750E+02  0.36135595655E+02  0.51100000000E-03 0. -1.
         23    2    1    0    0    0  0.53599192437E+01  0.36671496065E+02 -0.10837853799E+02  0.86386706526E+02  0.77276624095E+02 0.  0.
         11    1    3    3    0    0 -0.37459587018E+00  0.23954963414E+02 -0.44172316549E+02  0.50251110871E+02  0.51100000000E-03 0.  1.
         22    1    1    0    0    0 -0.53599192437E+01 -0.36671496065E+02  0.10837853799E+02  0.38613293474E+02  0.00000000000E+00 0.  1.
</event>
<event>
 5    1  0.3144657E-003  0.9118800E+02  0.7818608E-02  0.1130116E+00
         25   -1    0    0    0    0  0.00000000000E+00  0.00000000000E+00  0.99999998245E-14  0.12500000000E+03  0.12500000000E+03 0.  0.
        -11    1    3    3    0    0 -0.15768507959E+02  0.31093631962E+02 -0.68311772657E+01  0.35526395468E+02  0.51100000000E-03 0.  1.
         23    2    1    0    0    0 -0.23780582587E+01 -0.28208845069E+02 -0.12298324331E+00  0.96690827881E+02  0.92453809928E+02 0.  0.
         11    1    3    3    0    0  0.13390449701E+02 -0.59302477030E+02  0.67081940224E+01  0.61164432413E+02  0.51100000000E-03 0. -1.
         22    1    1    0    0    0  0.23780582587E+01  0.28208845069E+02  0.12298324331E+00  0.28309172119E+02  0.00000000000E+00 0. -1.
</event>
<event>
 5    1  0.3144657E-003  0.9118800E+02  0.7818608E-02  0.1130116E+00
         25   -1    0    0    0    0  0.00000000000E+00  0.00000000000E+00  0.99999998245E-14  0.12500000000E+03  0.12500000000E+03 0.  0.
        -11    1    3    3    0    0 -0.30260851645E+02  0.15399279646E+02 -0.35167720107E+02  0.48883795819E+02  0.51100000000E-03 0. -1.
         23    2    1    0    0    0  0.84261983620E+01 -0.49044025100E+01 -0.30683749995E+02  0.92804557829E+02  0.87041021693E+02 0.  0.
         11    1    3    3    0    0  0.38687050007E+02 -0.20303682155E+02  0.44839701118E+01  0.43920762010E+02  0.51100000000E-03 0.  1.
         22    1    1    0    0    0 -0.84261983620E+01  0.49044025100E+01  0.30683749995E+02  0.32195442171E+02  0.00000000000E+00 0. -1.
</event>
<event>
 5    1  0.3144657E-003  0.9118800E+02  0.7818608E-02  0.1130116E+00
         25   -1    0    0    0    0  0.00000000000E+00  0.00000000000E+00  0.99999998245E-14  0.12500000000E+03  0.12500000000E+03 0.  0.
        -11    1    3    3    0    0 -0.42305142039E+02  0.11959357880E+02 -0.56376830929E+01  0.44323072488E+02  0.51100000000E-03 0.  1.
         23    2    1    0    0    0 -0.11528099163E+02 -0.25592753112E+02  0.97967235516E+01  0.95270185428E+02  0.90512686166E+02 0.  0.
         11    1    3    3    0    0  0.30777042876E+02 -0.37552110992E+02  0.15434406645E+02  0.50947112940E+02  0.51100000000E-03 0. -1.
         22    1    1    0    0    0  0.11528099163E+02  0.25592753112E+02 -0.97967235516E+01  0.29729814572E+02  0.00000000000E+00 0.  1.
</event>
<event>
 5    1  0.3144657E-003  0.9118800E+02  0.7818608E-02  0.1130116E+00
         25   -1    0    0    0    0  0.00000000000E+00  0.00000000000E+00  0.99999998245E-14  0.12500000000E+03  0.12500000000E+03 0.  0.
        -11    1    3    3    0    0 -0.34549469424E+02  0.17281588382E+02 -0.47140535493E+01  0.38917109806E+02  0.51100000000E-03 0. -1.
         23    2    1    0    0    0  0.14641751262E+02  0.57039287568E+01 -0.26693146366E+02  0.94025175607E+02  0.88776651782E+02 0.  0.
         11    1    3    3    0    0  0.49191220686E+02 -0.11577659625E+02 -0.21979092817E+02  0.55108065801E+02  0.51100000000E-03 0.  1.
         22    1    1    0    0    0 -0.14641751262E+02 -0.57039287568E+01  0.26693146366E+02  0.30974824393E+02  0.00000000000E+00 0.  1.
</event>
<event>
 5    1  0.3144657E-003  0.9118800E+02  0.7818608E-02  0.1130116E+00
         25   -1    0    0    0    0  0.00000000000E+00  0.00000000000E+00  0.99999998245E-14  0.12500000000E+03  0.12500000000E+03 0.  0.
        -11    1    3    3    0    0 -0.16982709386E+02 -0.34313256454E+02  0.20764304472E+02  0.43554199878E+02  0.51100000000E-03 0.  1.
         23    2    1    0    0    0  0.46883274713E+01  0.10309776231E+02  0.29024398910E+02  0.93844139676E+02  0.88521381141E+02 0.  0.
         11    1    3    3    0    0  0.21671036857E+02  0.44623032685E+02  0.82600944385E+01  0.50289939798E+02  0.51100000000E-03 0. -1.
         22    1    1    0    0    0 -0.46883274713E+01 -0.10309776231E+02 -0.29024398910E+02  0.31155860324E+02  0.00000000000E+00 0.  1.
</event>
<event>
 5    1  0.3144657E-003  0.9118800E+02  0.7818608E-02  0.1130116E+00
         25   -1    0    0    0    0  0.00000000000E+00  0.00000000000E+00  0.99999998245E-14  0.12500000000E+03  0.12500000000E+03 0.  0.
        -11    1    3    3    0    0  0.27582039476E+02  0.19522072517E+02 -0.34889949566E+02  0.48571481324E+02  0.51100000000E-03 0.  1.
         23    2    1    0    0    0  0.23462583569E+02 -0.18351670895E+02 -0.17528943044E+02  0.90437874825E+02  0.83573133878E+02 0.  0.
         11    1    3    3    0    0 -0.41194559069E+01 -0.37873743413E+02  0.17361006522E+02  0.41866393501E+02  0.51100000000E-03 0. -1.
         22    1    1    0    0    0 -0.23462583569E+02  0.18351670895E+02  0.17528943044E+02  0.34562125175E+02  0.00000000000E+00 0. -1.
</event>
<event>
 5    1  0.3144657E-003  0.9118800E+02  0.7818608E-02  0.1130116E+00
         25   -1    0    0    0    0  0.00000000000E+00  0.00000000000E+00  0.99999998245E-14  0.12500000000E+03  0.12500000000E+03 0.  0.
        -11    1    3    3    0    0  0.19331503054E+02  0.15133586800E+02 -0.56640840664E+02  0.61732627444E+02  0.51100000000E-03 0. -1.
         23    2    1    0    0    0  0.15046439549E+02  0.79987628591E+01 -0.23074565113E+02  0.96315315837E+02  0.91944705988E+02 0.  0.
         11    1    3    3    0    0 -0.42850635057E+01 -0.71348239404E+01  0.33566275550E+02  0.34582688393E+02  0.51100000000E-03 0.  1.
         22    1    1    0    0    0 -0.15046439549E+02 -0.79987628591E+01  0.23074565113E+02  0.28684684163E+02  0.00000000000E+00 0. -1.
</event>
<event>
 5    1  0.3144657E-003  0.9118800E+02  0.7818608E-02  0.1130116E+00
         25   -1    0    0    0    0  0.00000000000E+00  0.00000000000E+00  0.99999998245E-14  0.12500000000E+03  0.12500000000E+03 0.  0.
        -11    1    3    3    0    0  0.48590971899E+02  0.69678156104E+01  0.17339919259E+01  0.49118629182E+02  0.51100000000E-03 0. -1.
         23    2    1    0    0    0  0.10606601000E+02  0.15610859119E+02 -0.22988465274E+02  0.95256623546E+02  0.90493954972E+02 0.  0.
         11    1    3    3    0    0 -0.37984370899E+02  0.86430435090E+01 -0.24722457200E+02  0.46137994364E+02  0.51100000000E-03 0.  1.
         22    1    1    0    0    0 -0.10606601000E+02 -0.15610859119E+02  0.22988465274E+02  0.29743376454E+02  0.00000000000E+00 0. -1.
</event>
<event>
 5    1  0.3144657E-003  0.9118800E+02  0.7818608E-02  0.1130116E+00
         25   -1    0    0    0    0  0.00000000000E+00  0.00000000000E+00  0.99999998245E-14  0.12500000000E+03  0.12500000000E+03 0.  0.
        -11    1    3    3    0    0 -0.26801774309E+02  0.31290932394E+02 -0.23810722943E+02  0.47585797078E+02  0.51100000000E-03 0.  1.
         23    2    1    0    0    0  0.17989551123E+02  0.21095152066E+02 -0.88784390993E+01  0.95888901238E+02  0.91363150720E+02 0.  0.
         11    1    3    3    0    0  0.44791325432E+02 -0.10195780329E+02  0.14932283844E+02  0.48303104160E+02  0.51100000000E-03 0. -1.
         22    1    1    0    0    0 -0.17989551123E+02 -0.21095152066E+02  0.88784390993E+01  0.29111098762E+02  0.00000000000E+00 0. -1.
</event>
<event>
 5    1  0.3144657E-003  0.9118800E+02  0.7818608E-02  0.1130116E+00
         25   -1    0    0    0    0  0.00000000000E+00  0.00000000000E+00  0.99999998245E-14  0.12500000000E+03  0.12500000000E+03 0.  0.
        -11    1    3    3    0    0 -0.29443441707E+02  0.37027178637E+02  0.26162317438E+02  0.54059181193E+02  0.51100000000E-03 0. -1.
         23    2    1    0    0    0 -0.23409589509E+02  0.21101613820E+02 -0.82209703299E+01  0.92428980059E+02  0.86499971184E+02 0.  0.
         11    1    3    3    0    0  0.60338521973E+01 -0.15925564816E+02 -0.34383287768E+02  0.38369798866E+02  0.51100000000E-03 0.  1.
         22    1    1    0    0    0  0.23409589509E+02 -0.21101613820E+02  0.82209703299E+01  0.32571019941E+02  0.00000000000E+00 0. -1.
</event>
<event>
 5    1  0.3144657E-003  0.9118800E+02  0.7818608E-02  0.1130116E+00
         25   -1    0    0    0    0  0.00000000000E+00  0.00000000000E+00  0.99999998245E-14  0.12500000000E+03  0.12500000000E+03 0.  0.
        -11    1    3    3    0    0 -0.78697321860E+01 -0.23264987218E+02 -0.25640347802E+02  0.35505207373E+02  0.51100000000E-03 0. -1.
         23    2    1    0    0    0  0.21359417692E+02  0.14845790042E+02  0.11832658343E+02  0.96423191053E+02  0.92091246942E+02 0.  0.
         11    1    3    3    0    0  0.29229149878E+02  0.38110777260E+02  0.37473006145E+02  0.60917983681E+02  0.51100000000E-03 0.  1.
         22    1    1    0    0    0 -0.21359417692E+02 -0.14845790042E+02 -0.11832658343E+02  0.28576808947E+02  0.00000000000E+00 0.  1.
</event>
<event>
 5    1  0.3144657E-003  0.9118800E+02  0.7818608E-02  0.1130116E+00
         25   -1    0    0    0    0  0.00000000000E+00  0.00000000000E+00  0.99999998245E-14  0.12500000000E+03  0.12500000000E+03 0.  0.
        -11    1    3    3    0    0 -0.10228877056E+02  0.47447134600E+01 -0.35146223068E+02  0.36910692595E+02  0.51100000000E-03 0.  1.
         23    2    1    0    0    0 -0.15209046328E+02  0.76657396205E+01  0.23575703450E+02  0.95915769783E+02  0.91399903970E+02 0.  0.
         11    1    3    3    0    0 -0.49801692729E+01  0.29210261605E+01  0.58721926518E+02  0.59005077188E+02  0.51100000000E-03 0. -1.
         22    1    1    0    0    0  0.15209046328E+02 -0.76657396205E+01 -0.23575703450E+02  0.29084230217E+02  0.00000000000E+00 0. -1.
</event>
<event>
 5    1  0.3144657E-003  0.9118800E+02  0.7818608E-02  0.1130116E+00
         25   -1    0    0    0    0  0.00000000000E+00  0.00000000000E+00  0.99999998245E-14  0.12500000000E+03  0.12500000000E+03 0.  0.
        -11    1    3    3    0    0  0.20061258337E+02  0.27509332363E+01 -0.11490811895E+02  0.23282192294E+02  0.51100000000E-03 0. -1.
         23    2    1    0    0    0  0.93425166757E+01 -0.27336426064E+02  0.34956300490E+02  0.79651287210E+02  0.65481461518E+02 0.  0.
         11    1    3    3    0    0 -0.10718741662E+02 -0.30087359300E+02  0.46447112385E+02  0.56369094916E+02  0.51100000000E-03 0.  1.
         22    1    1    0    0    0 -0.93425166757E+01  0.27336426064E+02 -0.34956300490E+02  0.45348712790E+02  0.00000000000E+00 0.  1.
</event>
<event>
 5    1  0.3144657E-003  0.9118800E+02  0.7818608E-02  0.1130116E+00
         25   -1    0    0    0    0  0.00000000000E+00  0.00000000000E+00  0.99999998245E-14  0.12500000000E+03  0.12500000000E+03 0.  0.
        -11    1    3    3    0    0  0.47343959453E+02 -0.59631692581E+01  0.30818908528E+02  0.56805061459E+02  0.51100000000E-03 0.  1.
         23    2    1    0    0    0  0.12381679936E+02  0.10570274785E+02  0.23882305395E+02  0.96096691919E+02  0.91647002022E+02 0.  0.
         11    1    3    3    0    0 -0.34962279516E+02  0.16533444043E+02 -0.69366031332E+01  0.39291630459E+02  0.51100000000E-03 0. -1.
         22    1    1    0    0    0 -0.12381679936E+02 -0.10570274785E+02 -0.23882305395E+02  0.28903308081E+02  0.00000000000E+00 0.  1.
</event>
<event>
 5    1  0.3144657E-003  0.9118800E+02  0.7818608E-02  0.1130116E+00
         25   -1    0    0    0    0  0.00000000000E+00  0.00000000000E+00  0.99999998245E-14  0.12500000000E+03  0.12500000000E+03 0.  0.
        -11    1    3    3    0    0  0.12043182699E+01  0.55607841312E+02 -0.22538045078E+02  0.60013714050E+02  0.51100000000E-03 0. -1.
         23    2    1    0    0    0  0.11606430991E+02  0.22501383414E+02 -0.15154530806E+02  0.95492690738E+02  0.90819451026E+02 0.  0.
         11    1    3    3    0    0  0.10402112721E+02 -0.33106457898E+02  0.73835142723E+01  0.35478976688E+02  0.51100000000E-03 0.  1.
         22    1    1    0    0    0 -0.11606430991E+02 -0.22501383414E+02  0.15154530806E+02  0.29507309262E+02  0.00000000000E+00 0. -1.
</event>
<event>
 5    1  0.3144657E-003  0.9118800E+02  0.7818608E-02  0.1130116E+00
         25   -1    0    0    0    0  0.00000000000E+00  0.00000000000E+00  0.99999998245E-14  0.12500000000E+03  0.12500000000E+03 0.  0.
        -11    1    3    3    0    0 -0.55462780632E+02  0.23349952616E+02 -0.23827319072E+01  0.60224726933E+02  0.51100000000E-03 0.  1.
         23    2    1    0    0    0 -0.26552249360E+02  0.52462489899E+01 -0.11591153285E+02  0.95556835955E+02  0.90907694882E+02 0.  0.
         11    1    3    3    0    0  0.28910531272E+02 -0.18103703626E+02 -0.92084213778E+01  0.35332109022E+02  0.51100000000E-03 0. -1.
         22    1    1    0    0    0  0.26552249360E+02 -0.52462489899E+01  0.11591153285E+02  0.29443164045E+02  0.00000000000E+00 0.  1.
</event>
<event>
 5    1  0.3144657E-003  0.9118800E+02  0.7818608E-02  0.1130116E+00
         25   -1    0    0    0    0  0.00000000000E+00  0.00000000000E+00  0.99999998245E-14  0.12500000000E+03  0.12500000000E+03 0.  0.
        -11    1    3    3    0    0 -0.25040551865E+02  0.10325321392E+02 -0.51080614991E+02  0.57817564180E+02  0.51100000000E-03 0.  1.
         23    2    1    0    0    0 -0.25312634364E+01  0.19238038789E+02 -0.23842521818E+02  0.94259549814E+02  0.89106046111E+02 0.  0.
         11    1    3    3    0    0  0.22509288429E+02  0.89127173963E+01  0.27238093173E+02  0.36441985634E+02  0.51100000000E-03 0. -1.
         22    1    1    0    0    0  0.25312634364E+01 -0.19238038789E+02  0.23842521818E+02  0.30740450186E+02  0.00000000000E+00 0.  1.
</event>
<event>
 5    1  0.3144657E-003  0.9118800E+02  0.7818608E-02  0.1130116E+00
         25   -1    0    0    0    0  0.00000000000E+00  0.00000000000E+00  0.99999998245E-14  0.12500000000E+03  0.12500000000E+03 0.  0.
        -11    1    3    3    0    0  0.22005811650E+02 -0.23548537326E+02  0.15416704827E+02  0.35727638385E+02  0.51100000000E-03 0. -1.
         23    2    1    0    0    0 -0.11865365568E+02  0.97353885719E+00 -0.27123480751E+02  0.95378759546E+02  0.90662505406E+02 0.  0.
         11    1    3    3    0    0 -0.33871177219E+02  0.24522076183E+02 -0.42540185578E+02  0.59651121161E+02  0.51100000000E-03 0.  1.
         22    1    1    0    0    0  0.11865365568E+02 -0.97353885719E+00  0.27123480751E+02  0.29621240454E+02  0.00000000000E+00 0.  1.
</event>
<event>
 5    1  0.3144657E-003  0.9118800E+02  0.7818608E-02  0.1130116E+00
         25   -1    0    0    0    0  0.00000000000E+00  0.00000000000E+00  0.99999998245E-14  0.12500000000E+03  0.12500000000E+03 0.  0.
        -11    1    3    3    0    0  0.50549312283E+02 -0.10360658441E+01  0.22297510899E+01  0.50609072259E+02  0.51100000000E-03 0.  1.
         23    2    1    0    0    0  0.14103952932E+02  0.15826075404E+02 -0.19437621058E+02  0.96238788910E+02  0.91840607726E+02 0.  0.
         11    1    3    3    0    0 -0.36445359350E+02  0.16862141248E+02 -0.21667372147E+02  0.45629716651E+02  0.51100000000E-03 0. -1.
         22    1    1    0    0    0 -0.14103952932E+02 -0.15826075404E+02  0.19437621058E+02  0.28761211090E+02  0.00000000000E+00 0.  1.
</event>
<event>
 5    1  0.3144657E-003  0.9118800E+02  0.7818608E-02  0.1130116E+00
         25   -1    0    0    0    0  0.00000000000E+00  0.00000000000E+00  0.99999998245E-14  0.12500000000E+03  0.12500000000E+03 0.  0.
        -11    1    3    3    0    0  0.27499183069E+02  0.33139445309E+02 -0.17279235921E+02  0.46400429945E+02  0.51100000000E-03 0.  1.
         23    2    1    0    0    0  0.61434403696E+01 -0.10294213869E+02 -0.26721354631E+02  0.95712741814E+02  0.91121816561E+02 0.  0.
         11    1    3    3    0    0 -0.21355742699E+02 -0.43433659178E+02 -0.94421187104E+01  0.49312311868E+02  0.51100000000E-03 0. -1.
         22    1    1    0    0    0 -0.61434403696E+01  0.10294213869E+02  0.26721354631E+02  0.29287258186E+02  0.00000000000E+00 0. -1.
</event>
<event>
 5    1  0.3144657E-003  0.9118800E+02  0.7818608E-02  0.1130116E+00
         25   -1    0    0    0    0  0.00000000000E+00  0.00000000000E+00  0.99999998245E-14  0.12500000000E+03  0.12500000000E+03 0.  0.
        -11    1    3    3    0    0 -0.15883670731E+02 -0.33879139500E+02 -0.45430034241E+02  0.58855544349E+02  0.51100000000E-03 0.  1.
         23    2    1    0    0    0  0.35841399356E+01 -0.24030816290E+02 -0.14501283406E+02  0.96704887152E+02  0.92472816482E+02 0.  0.
         11    1    3    3    0    0  0.19467810666E+02  0.98483232102E+01  0.30928750835E+02  0.37849342804E+02  0.51100000000E-03 0. -1.
         22    1    1    0    0    0 -0.35841399356E+01  0.24030816290E+02  0.14501283406E+02  0.28295112848E+02  0.00000000000E+00 0.  1.
</event>
<event>
 5    1  0.3144657E-003  0.9118800E+02  0.7818608E-02  0.1130116E+00
         25   -1    0    0    0    0  0.00000000000E+00  0.00000000000E+00  0.99999998245E-14  0.12500000000E+03  0.12500000000E+03 0.  0.
        -11    1    3    3    0    0 -0.32366234936E+02 -0.23487522374E+02  0.40849464222E+02  0.57165685500E+02  0.51100000000E-03 0.  1.
         23    2    1    0    0    0 -0.46667154095E+01 -0.25445120525E+02  0.15041268896E+02  0.95075559132E+02  0.90243502719E+02 0.  0.
         11    1    3    3    0    0  0.27699519527E+02 -0.19575981510E+01 -0.25808195326E+02  0.37909873632E+02  0.51100000000E-03 0. -1.
         22    1    1    0    0    0  0.46667154095E+01  0.25445120525E+02 -0.15041268896E+02  0.29924440868E+02  0.00000000000E+00 0.  1.
</event>
<event>
 5    1  0.3144657E-003  0.9118800E+02  0.7818608E-02  0.1130116E+00
         25   -1    0    0    0    0  0.00000000000E+00  0.00000000000E+00  0.99999998245E-14  0.12500000000E+03  0.12500000000E+03 0.  0.
        -11    1    3    3    0    0  0.14618733465E+02 -0.35810632694E+02  0.36982369128E+02  0.53514525211E+02  0.51100000000E-03 0.  1.
         23    2    1    0    0    0  0.12733071493E+02  0.41840765218E+01  0.27117617005E+02  0.94750987487E+02  0.89792799665E+02 0.  0.
         11    1    3    3    0    0 -0.18856619715E+01  0.39994709215E+02 -0.98647521223E+01  0.41236462275E+02  0.51100000000E-03 0. -1.
         22    1    1    0    0    0 -0.12733071493E+02 -0.41840765218E+01 -0.27117617005E+02  0.30249012513E+02  0.00000000000E+00 0.  1.
</event>
<event>
 5    1  0.3144657E-003  0.9118800E+02  0.7818608E-02  0.1130116E+00
         25   -1    0    0    0    0  0.00000000000E+00  0.00000000000E+00  0.99999998245E-14  0.12500000000E+03  0.12500000000E+03 0.  0.
        -11    1    3    3    0    0  0.22249301773E+02  0.17438746518E+02  0.29346824703E+02  0.40747729138E+02  0.51100000000E-03 0. -1.
         23    2    1    0    0    0 -0.23053589373E+01 -0.27439568341E+02  0.68994672232E+01  0.96612551391E+02  0.92347917397E+02 0.  0.
         11    1    3    3    0    0 -0.24554660710E+02 -0.44878314859E+02 -0.22447357480E+02  0.55864822252E+02  0.51100000000E-03 0.  1.
         22    1    1    0    0    0  0.23053589373E+01  0.27439568341E+02 -0.68994672232E+01  0.28387448609E+02  0.00000000000E+00 0.  1.
</event>
<event>
 5    1  0.3144657E-003  0.9118800E+02  0.7818608E-02  0.1130116E+00
         25   -1    0    0    0    0  0.00000000000E+00  0.00000000000E+00  0.99999998245E-14  0.12500000000E+03  0.12500000000E+03 0.  0.
        -11    1    3    3    0    0 -0.19212316455E+02  0.52737130545E+02  0.22212267272E+02  0.60363091864E+02  0.51100000000E-03 0. -1.
         23    2    1    0    0    0 -0.18879196377E+02  0.18947656822E+02  0.12162119925E+02  0.95617098238E+02  0.90990519064E+02 0.  0.
         11    1    3    3    0    0  0.33312007828E+00 -0.33789473724E+02 -0.10050147347E+02  0.35254006375E+02  0.51100000000E-03 0.  1.
         22    1    1    0    0    0  0.18879196377E+02 -0.18947656822E+02 -0.12162119925E+02  0.29382901762E+02  0.00000000000E+00 0. -1.
</event>
<event>
 5    1  0.3144657E-003  0.9118800E+02  0.7818608E-02  0.1130116E+00
         25   -1    0    0    0    0  0.00000000000E+00  0.00000000000E+00  0.99999998245E-14  0.12500000000E+03  0.12500000000E+03 0.  0.
        -11    1    3    3    0    0  0.38833648947E+02 -0.30132684987E+02  0.90865587813E+01  0.49985963488E+02  0.51100000000E-03 0.  1.
         23    2    1    0    0    0  0.10665363793E+02 -0.14139978434E+01  0.28415607681E+02  0.94615857184E+02  0.89604488147E+02 0.  0.
         11    1    3    3    0    0 -0.28168285154E+02  0.28718687143E+02  0.19329048900E+02  0.44629893697E+02  0.51100000000E-03 0. -1.
         22    1    1    0    0    0 -0.10665363793E+02  0.14139978434E+01 -0.28415607681E+02  0.30384142816E+02  0.00000000000E+00 0. -1.
</event>
<event>
 5    1  0.3144657E-003  0.9118800E+02  0.7818608E-02  0.1130116E+00
         25   -1    0    0    0    0  0.00000000000E+00  0.00000000000E+00  0.99999998245E-14  0.12500000000E+03  0.12500000000E+03 0.  0.
        -11    1    3    3    0    0 -0.25089916582E+02  0.24561726662E+02 -0.39075658737E+02  0.52532746328E+02  0.51100000000E-03 0. -1.
         23    2    1    0    0    0  0.49706087406E+01 -0.35716011302E+01 -0.29590577309E+02  0.94783025443E+02  0.89837388434E+02 0.  0.
         11    1    3    3    0    0  0.30060525323E+02 -0.28133327792E+02  0.94850814275E+01  0.42250279115E+02  0.51100000000E-03 0.  1.
         22    1    1    0    0    0 -0.49706087406E+01  0.35716011302E+01  0.29590577309E+02  0.30216974557E+02  0.00000000000E+00 0. -1.
</event>
<event>
 5    1  0.3144657E-003  0.9118800E+02  0.7818608E-02  0.1130116E+00
         25   -1    0    0    0    0  0.00000000000E+00  0.00000000000E+00  0.99999998245E-14  0.12500000000E+03  0.12500000000E+03 0.  0.
        -11    1    3    3    0    0  0.42602299690E+02  0.50524105145E+01 -0.65518886015E+00  0.42905851158E+02  0.51100000000E-03 0.  1.
         23    2    1    0    0    0 -0.15167528417E+01  0.18932057623E+02 -0.23739877527E+02  0.94597613087E+02  0.89579033661E+02 0.  0.
         11    1    3    3    0    0 -0.44119052532E+02  0.13879647108E+02 -0.23084688667E+02  0.51691761929E+02  0.51100000000E-03 0. -1.
         22    1    1    0    0    0  0.15167528417E+01 -0.18932057623E+02  0.23739877527E+02  0.30402386913E+02  0.00000000000E+00 0. -1.
</event>
<event>
 5    1  0.3144657E-003  0.9118800E+02  0.7818608E-02  0.1130116E+00
         25   -1    0    0    0    0  0.00000000000E+00  0.00000000000E+00  0.99999998245E-14  0.12500000000E+03  0.12500000000E+03 0.  0.
        -11    1    3    3    0    0 -0.27756375160E+01  0.56442630867E+02 -0.15000791584E+02  0.58467927030E+02  0.51100000000E-03 0.  1.
         23    2    1    0    0    0 -0.16025260657E+02  0.21383497666E+02 -0.10785568511E+02  0.96183486684E+02  0.91765307557E+02 0.  0.
         11    1    3    3    0    0 -0.13249623141E+02 -0.35059133201E+02  0.42152230731E+01  0.37715559654E+02  0.51100000000E-03 0. -1.
         22    1    1    0    0    0  0.16025260657E+02 -0.21383497666E+02  0.10785568511E+02  0.28816513316E+02  0.00000000000E+00 0.  1.
</event>
<event>
 5    1  0.3144657E-003  0.9118800E+02  0.7818608E-02  0.1130116E+00
         25   -1    0    0    0    0  0.00000000000E+00  0.00000000000E+00  0.99999998245E-14  0.12500000000E+03  0.12500000000E+03 0.  0.
        -11    1    3    3    0    0  0.42149222224E+02 -0.28022162234E+02  0.15249006980E+02  0.52861429460E+02  0.51100000000E-03 0.  1.
         23    2    1    0    0    0  0.24130609071E+01 -0.17774207276E+02  0.24214264228E+02  0.94865702276E+02  0.89952351659E+02 0.  0.
         11    1    3    3    0    0 -0.39736161317E+02  0.10247954958E+02  0.89652572477E+01  0.42004272816E+02  0.51100000000E-03 0. -1.
         22    1    1    0    0    0 -0.24130609071E+01  0.17774207276E+02 -0.24214264228E+02  0.30134297724E+02  0.00000000000E+00 0.  1.
</event>
<event>
 5    1  0.3144657E-003  0.9118800E+02  0.7818608E-02  0.1130116E+00
         25   -1    0    0    0    0  0.00000000000E+00  0.00000000000E+00  0.99999998245E-14  0.12500000000E+03  0.12500000000E+03 0.  0.
        -11    1    3    3    0    0  0.49461172852E+02 -0.37361854992E+02  0.22296960435E+01  0.62026505407E+02  0.51100000000E-03 0. -1.
         23    2    1    0    0    0  0.23402224638E+02 -0.14704632868E+02  0.58561984897E+01  0.96747824747E+02  0.92530839112E+02 0.  0.
         11    1    3    3    0    0 -0.26058948214E+02  0.22657222124E+02  0.36265024462E+01  0.34721319339E+02  0.51100000000E-03 0.  1.
         22    1    1    0    0    0 -0.23402224638E+02  0.14704632868E+02 -0.58561984897E+01  0.28252175253E+02  0.00000000000E+00 0. -1.
</event>
<event>
 5    1  0.3144657E-003  0.9118800E+02  0.7818608E-02  0.1130116E+00
         25   -1    0    0    0    0  0.00000000000E+00  0.00000000000E+00  0.99999998245E-14  0.12500000000E+03  0.12500000000E+03 0.  0.
        -11    1    3    3    0    0 -0.17436631486E+02 -0.19348169253E+02 -0.28590320717E+02  0.38675498833E+02  0.51100000000E-03 0. -1.
         23    2    1    0    0    0  0.28296315630E+02  0.45072865670E+01 -0.17468919531E+02  0.91441688660E+02  0.85061284760E+02 0.  0.
         11    1    3    3    0    0  0.45732947115E+02  0.23855455820E+02  0.11121401185E+02  0.52766189827E+02  0.51100000000E-03 0.  1.
         22    1    1    0    0    0 -0.28296315630E+02 -0.45072865670E+01  0.17468919531E+02  0.33558311340E+02  0.00000000000E+00 0.  1.
</event>
<event>
 5    1  0.3144657E-003  0.9118800E+02  0.7818608E-02  0.1130116E+00
         25   -1    0    0    0    0  0.00000000000E+00  0.00000000000E+00  0.99999998245E-14  0.12500000000E+03  0.12500000000E+03 0.  0.
        -11    1    3    3    0    0  0.30392067310E+02 -0.22725127924E+02  0.13229713066E+02  0.40188736016E+02  0.51100000000E-03 0.  1.
         23    2    1    0    0    0  0.13273982521E+02  0.22032085442E+02 -0.14419171123E+02  0.95512309403E+02  0.90846449302E+02 0.  0.
         11    1    3    3    0    0 -0.17118084788E+02  0.44757213366E+02 -0.27648884189E+02  0.55323573386E+02  0.51100000000E-03 0. -1.
         22    1    1    0    0    0 -0.13273982521E+02 -0.22032085442E+02  0.14419171123E+02  0.29487690597E+02  0.00000000000E+00 0.  1.
</event>
<event>
 5    1  0.3144657E-003  0.9118800E+02  0.7818608E-02  0.1130116E+00
         25   -1    0    0    0    0  0.00000000000E+00  0.00000000000E+00  0.99999998245E-14  0.12500000000E+03  0.12500000000E+03 0.  0.
        -11    1    3    3    0    0  0.25817303739E+02 -0.16534208510E+02 -0.40185190125E+02  0.50544660737E+02  0.51100000000E-03 0. -1.
         23    2    1    0    0    0  0.11522002806E+02 -0.24128784613E+02  0.43312236149E+01  0.97912838954E+02  0.94091496632E+02 0.  0.
         11    1    3    3    0    0 -0.14295300933E+02 -0.75945761034E+01  0.44516413740E+02  0.47368178216E+02  0.51100000000E-03 0.  1.
         22    1    1    0    0    0 -0.11522002806E+02  0.24128784613E+02 -0.43312236149E+01  0.27087161046E+02  0.00000000000E+00 0.  1.
</event>
<event>
 5    1  0.3144657E-003  0.9118800E+02  0.7818608E-02  0.1130116E+00
         25   -1    0    0    0    0  0.00000000000E+00  0.00000000000E+00  0.99999998245E-14  0.12500000000E+03  0.12500000000E+03 0.  0.
        -11    1    3    3    0    0  0.34704349136E+02 -0.25638009405E+01  0.11449139582E+02  0.36633969504E+02  0.51100000000E-03 0.  1.
         23    2    1    0    0    0 -0.95853554509E+01  0.10071623273E+02 -0.25682986746E+02  0.95794992849E+02  0.91234577943E+02 0.  0.
         11    1    3    3    0    0 -0.44289704586E+02  0.12635424213E+02 -0.37132126328E+02  0.59161023346E+02  0.51100000000E-03 0. -1.
         22    1    1    0    0    0  0.95853554509E+01 -0.10071623273E+02  0.25682986746E+02  0.29205007151E+02  0.00000000000E+00 0. -1.
</event>
<event>
 5    1  0.3144657E-003  0.9118800E+02  0.7818608E-02  0.1130116E+00
         25   -1    0    0    0    0  0.00000000000E+00  0.00000000000E+00  0.99999998245E-14  0.12500000000E+03  0.12500000000E+03 0.  0.
        -11    1    3    3    0    0  0.28883481955E+02 -0.52040289290E+02 -0.15403019971E+02  0.61479266942E+02  0.51100000000E-03 0.  1.
         23    2    1    0    0    0  0.19556854597E+02 -0.21143267029E+02 -0.30453533476E+01  0.96038258350E+02  0.91567268101E+02 0.  0.
         11    1    3    3    0    0 -0.93266273574E+01  0.30897022261E+02  0.12357666624E+02  0.34558991408E+02  0.51100000000E-03 0. -1.
         22    1    1    0    0    0 -0.19556854597E+02  0.21143267029E+02  0.30453533476E+01  0.28961741650E+02  0.00000000000E+00 0.  1.
</event>
<event>
 5    1  0.3144657E-003  0.9118800E+02  0.7818608E-02  0.1130116E+00
         25   -1    0    0    0    0  0.00000000000E+00  0.00000000000E+00  0.99999998245E-14  0.12500000000E+03  0.12500000000E+03 0.  0.
        -11    1    3    3    0    0 -0.24283079267E+02 -0.62269478100E+01 -0.22302423646E+02  0.33553552993E+02  0.51100000000E-03 0. -1.
         23    2    1    0    0    0  0.23840817022E+02  0.14981797530E+02  0.98216061762E+01  0.95178820255E+02  0.90386420793E+02 0.  0.
         11    1    3    3    0    0  0.48123896288E+02  0.21208745340E+02  0.32124029823E+02  0.61625267262E+02  0.51100000000E-03 0.  1.
         22    1    1    0    0    0 -0.23840817022E+02 -0.14981797530E+02 -0.98216061762E+01  0.29821179745E+02  0.00000000000E+00 0.  1.
</event>
<event>
 5    1  0.3144657E-003  0.9118800E+02  0.7818608E-02  0.1130116E+00
         25   -1    0    0    0    0  0.00000000000E+00  0.00000000000E+00  0.99999998245E-14  0.12500000000E+03  0.12500000000E+03 0.  0.
        -11    1    3    3    0    0 -0.29171467258E+02 -0.17581710440E+00 -0.16395801471E+02  0.33463827034E+02  0.51100000000E-03 0.  1.
         23    2    1    0    0    0 -0.26703733413E+02 -0.68543241292E+01  0.32218056116E+02  0.82596294061E+02  0.70880699173E+02 0.  0.
         11    1    3    3    0    0  0.24677338453E+01 -0.66785070248E+01  0.48613857587E+02  0.49132467027E+02  0.51100000000E-03 0. -1.
         22    1    1    0    0    0  0.26703733413E+02  0.68543241292E+01 -0.32218056116E+02  0.42403705939E+02  0.00000000000E+00 0. -1.
</event>
<event>
 5    1  0.3144657E-003  0.9118800E+02  0.7818608E-02  0.1130116E+00
         25   -1    0    0    0    0  0.00000000000E+00  0.00000000000E+00  0.99999998245E-14  0.12500000000E+03  0.12500000000E+03 0.  0.
        -11    1    3    3    0    0 -0.30813575795E+02  0.95171961920E+01 -0.48720944044E+02  0.58427595068E+02  0.51100000000E-03 0.  1.
         23    2    1    0    0    0 -0.15061713009E+01  0.13453494385E+02 -0.25882841846E+02  0.95790642506E+02  0.91228617366E+02 0.  0.
         11    1    3    3    0    0  0.29307404494E+02  0.39362981931E+01  0.22838102197E+02  0.37363047438E+02  0.51100000000E-03 0. -1.
         22    1    1    0    0    0  0.15061713009E+01 -0.13453494385E+02  0.25882841846E+02  0.29209357494E+02  0.00000000000E+00 0.  1.
</event>
<event>
 5    1  0.3144657E-003  0.9118800E+02  0.7818608E-02  0.1130116E+00
         25   -1    0    0    0    0  0.00000000000E+00  0.00000000000E+00  0.99999998245E-14  0.12500000000E+03  0.12500000000E+03 0.  0.
        -11    1    3    3    0    0  0.67104448186E+01  0.24640080370E+02  0.31478708852E+02  0.40534833681E+02  0.51100000000E-03 0.  1.
         23    2    1    0    0    0 -0.74673753343E+01 -0.25298208797E+02  0.12541608504E+02  0.95792928825E+02  0.91231749991E+02 0.  0.
         11    1    3    3    0    0 -0.14177820153E+02 -0.49938289166E+02 -0.18937100348E+02  0.55258095145E+02  0.51100000000E-03 0. -1.
         22    1    1    0    0    0  0.74673753343E+01  0.25298208797E+02 -0.12541608504E+02  0.29207071175E+02  0.00000000000E+00 0. -1.
</event>
<event>
 5    1  0.3144657E-003  0.9118800E+02  0.7818608E-02  0.1130116E+00
         25   -1    0    0    0    0  0.00000000000E+00  0.00000000000E+00  0.99999998245E-14  0.12500000000E+03  0.12500000000E+03 0.  0.
        -11    1    3    3    0    0  0.21442379328E+01  0.14136829139E+02  0.26379831722E+02  0.30005719727E+02  0.51100000000E-03 0. -1.
         23    2    1    0    0    0  0.12110380575E+02 -0.74994650938E+01 -0.30316901378E+02  0.91503465798E+02  0.85152019645E+02 0.  0.
         11    1    3    3    0    0  0.99661426424E+01 -0.21636294233E+02 -0.56696733100E+02  0.61497746071E+02  0.51100000000E-03 0.  1.
         22    1    1    0    0    0 -0.12110380575E+02  0.74994650938E+01  0.30316901378E+02  0.33496534202E+02  0.00000000000E+00 0.  1.
</event>
<event>
 5    1  0.3144657E-003  0.9118800E+02  0.7818608E-02  0.1130116E+00
         25   -1    0    0    0    0  0.00000000000E+00  0.00000000000E+00  0.99999998245E-14  0.12500000000E+03  0.12500000000E+03 0.  0.
        -11    1    3    3    0    0  0.22604471218E+02 -0.16892660978E+02 -0.35290217516E+02  0.45185435336E+02  0.51100000000E-03 0. -1.
         23    2    1    0    0    0  0.91939298522E+01 -0.25984392265E+02  0.11824223065E+02  0.95007847050E+02  0.90149663130E+02 0.  0.
         11    1    3    3    0    0 -0.13410541365E+02 -0.90917312869E+01  0.47114440581E+02  0.49822411714E+02  0.51100000000E-03 0.  1.
         22    1    1    0    0    0 -0.91939298522E+01  0.25984392265E+02 -0.11824223065E+02  0.29992152950E+02  0.00000000000E+00 0. -1.
</event>
<event>
 5    1  0.3144657E-003  0.9118800E+02  0.7818608E-02  0.1130116E+00
         25   -1    0    0    0    0  0.00000000000E+00  0.00000000000E+00  0.99999998245E-14  0.12500000000E+03  0.12500000000E+03 0.  0.
        -11    1    3    3    0    0 -0.37630330228E+02 -0.24672189431E+02  0.22375688181E+02  0.50253657641E+02  0.51100000000E-03 0.  1.
         23    2    1    0    0    0 -0.31041092469E+01 -0.34596500140E+02  0.59353712218E+01  0.89761073404E+02  0.82554638579E+02 0.  0.
         11    1    3    3    0    0  0.34526220981E+02 -0.99243107085E+01 -0.16440316959E+02  0.39507415763E+02  0.51100000000E-03 0. -1.
         22    1    1    0    0    0  0.31041092469E+01  0.34596500140E+02 -0.59353712218E+01  0.35238926596E+02  0.00000000000E+00 0.  1.
</event>
<event>
 5    1  0.3144657E-003  0.9118800E+02  0.7818608E-02  0.1130116E+00
         25   -1    0    0    0    0  0.00000000000E+00  0.00000000000E+00  0.99999998245E-14  0.12500000000E+03  0.12500000000E+03 0.  0.
        -11    1    3    3    0    0  0.10130260797E+02 -0.72342350793E+00 -0.35027559875E+02  0.36470199841E+02  0.51100000000E-03 0. -1.
         23    2    1    0    0    0  0.54214718939E+01 -0.16796092728E+02  0.22510006776E+02  0.96395778397E+02  0.92054030869E+02 0.  0.
         11    1    3    3    0    0 -0.47087889029E+01 -0.16072669221E+02  0.57537566652E+02  0.59925578556E+02  0.51100000000E-03 0.  1.
         22    1    1    0    0    0 -0.54214718939E+01  0.16796092728E+02 -0.22510006776E+02  0.28604221603E+02  0.00000000000E+00 0.  1.
</event>
<event>
 5    1  0.3144657E-003  0.9118800E+02  0.7818608E-02  0.1130116E+00
         25   -1    0    0    0    0  0.00000000000E+00  0.00000000000E+00  0.99999998245E-14  0.12500000000E+03  0.12500000000E+03 0.  0.
        -11    1    3    3    0    0  0.42025412005E+02  0.21479459224E+02  0.25509384228E+02  0.53649148239E+02  0.51100000000E-03 0. -1.
         23    2    1    0    0    0  0.26997109922E+01  0.26747732172E+02  0.11961491568E+02  0.95575403209E+02  0.90933221664E+02 0.  0.
         11    1    3    3    0    0 -0.39325701013E+02  0.52682729484E+01 -0.13547892661E+02  0.41926254970E+02  0.51100000000E-03 0.  1.
         22    1    1    0    0    0 -0.26997109922E+01 -0.26747732172E+02 -0.11961491568E+02  0.29424596791E+02  0.00000000000E+00 0.  1.
</event>
<event>
 5    1  0.3144657E-003  0.9118800E+02  0.7818608E-02  0.1130116E+00
         25   -1    0    0    0    0  0.00000000000E+00  0.00000000000E+00  0.99999998245E-14  0.12500000000E+03  0.12500000000E+03 0.  0.
        -11    1    3    3    0    0  0.66626885771E+01  0.54374136809E+02  0.28703428911E+02  0.61845169612E+02  0.51100000000E-03 0. -1.
         23    2    1    0    0    0  0.84395456771E+01  0.22329076771E+02  0.15433085518E+02  0.96574769494E+02  0.92296762530E+02 0.  0.
         11    1    3    3    0    0  0.17768571000E+01 -0.32045060037E+02 -0.13270343393E+02  0.34729599882E+02  0.51100000000E-03 0.  1.
         22    1    1    0    0    0 -0.84395456771E+01 -0.22329076771E+02 -0.15433085518E+02  0.28425230506E+02  0.00000000000E+00 0. -1.
</event>
<event>
 5    1  0.3144657E-003  0.9118800E+02  0.7818608E-02  0.1130116E+00
         25   -1    0    0    0    0  0.00000000000E+00  0.00000000000E+00  0.99999998245E-14  0.12500000000E+03  0.12500000000E+03 0.  0.
        -11    1    3    3    0    0  0.32749597680E+02 -0.44359328258E+01  0.31305225437E+02  0.45521761699E+02  0.51100000000E-03 0.  1.
         23    2    1    0    0    0 -0.30858191865E-01  0.27304896669E+02  0.95384201421E+01  0.96077002349E+02  0.91620142912E+02 0.  0.
         11    1    3    3    0    0 -0.32780455872E+02  0.31740829495E+02 -0.21766805295E+02  0.50555240650E+02  0.51100000000E-03 0. -1.
         22    1    1    0    0    0  0.30858191865E-01 -0.27304896669E+02 -0.95384201421E+01  0.28922997651E+02  0.00000000000E+00 0. -1.
</event>
<event>
 5    1  0.3144657E-003  0.9118800E+02  0.7818608E-02  0.1130116E+00
         25   -1    0    0    0    0  0.00000000000E+00  0.00000000000E+00  0.99999998245E-14  0.12500000000E+03  0.12500000000E+03 0.  0.
        -11    1    3    3    0    0 -0.12581818688E+02 -0.32800558580E+02 -0.92437741284E+01  0.36326659151E+02  0.51100000000E-03 0.  1.
         23    2    1    0    0    0  0.55876541618E+01  0.24128703477E+02 -0.14474002815E+02  0.96313540337E+02  0.91942292141E+02 0.  0.
         11    1    3    3    0    0  0.18169472850E+02  0.56929262057E+02 -0.52302286871E+01  0.59986881186E+02  0.51100000000E-03 0. -1.
         22    1    1    0    0    0 -0.55876541618E+01 -0.24128703477E+02  0.14474002815E+02  0.28686459663E+02  0.00000000000E+00 0. -1.
</event>
<event>
 5    1  0.3144657E-003  0.9118800E+02  0.7818608E-02  0.1130116E+00
         25   -1    0    0    0    0  0.00000000000E+00  0.00000000000E+00  0.99999998245E-14  0.12500000000E+03  0.12500000000E+03 0.  0.
        -11    1    3    3    0    0  0.20829957657E+02 -0.16884431390E+02 -0.25003047389E+02  0.36662290413E+02  0.51100000000E-03 0. -1.
         23    2    1    0    0    0  0.15390918773E+02  0.18862337979E+02  0.19361050102E+02  0.93895041621E+02  0.88593230019E+02 0.  0.
         11    1    3    3    0    0 -0.54390388837E+01  0.35746769369E+02  0.44364097491E+02  0.57232751207E+02  0.51100000000E-03 0.  1.
         22    1    1    0    0    0 -0.15390918773E+02 -0.18862337979E+02 -0.19361050102E+02  0.31104958379E+02  0.00000000000E+00 0.  1.
</event>
<event>
 5    1  0.3144657E-003  0.9118800E+02  0.7818608E-02  0.1130116E+00
         25   -1    0    0    0    0  0.00000000000E+00  0.00000000000E+00  0.99999998245E-14  0.12500000000E+03  0.12500000000E+03 0.  0.
        -11    1    3    3    0    0 -0.37045253051E+02  0.92549623242E+01  0.21579328271E+01  0.38244761413E+02  0.51100000000E-03 0. -1.
         23    2    1    0    0    0  0.17972973526E+02  0.36892123608E+01  0.21414198870E+02  0.96800603226E+02  0.92602110162E+02 0.  0.
         11    1    3    3    0    0  0.55018226576E+02 -0.55657499634E+01  0.19256266042E+02  0.58555841813E+02  0.51100000000E-03 0.  1.
         22    1    1    0    0    0 -0.17972973526E+02 -0.36892123608E+01 -0.21414198870E+02  0.28199396774E+02  0.00000000000E+00 0.  1.
</event>
<event>
 5    1  0.3144657E-003  0.9118800E+02  0.7818608E-02  0.1130116E+00
         25   -1    0    0    0    0  0.00000000000E+00  0.00000000000E+00  0.99999998245E-14  0.12500000000E+03  0.12500000000E+03 0.  0.
        -11    1    3    3    0    0 -0.28894559610E+01 -0.25304844068E+02 -0.46918736997E+02  0.53385878008E+02  0.51100000000E-03 0. -1.
         23    2    1    0    0    0 -0.96687255307E+01  0.35932468994E+01 -0.39765796566E+02  0.83918200463E+02  0.73174791533E+02 0.  0.
         11    1    3    3    0    0 -0.67792695697E+01  0.28898090967E+02  0.71529404312E+01  0.30532322455E+02  0.51100000000E-03 0.  1.
         22    1    1    0    0    0  0.96687255307E+01 -0.35932468994E+01  0.39765796566E+02  0.41081799537E+02  0.00000000000E+00 0. -1.
</event>
<event>
 5    1  0.3144657E-003  0.9118800E+02  0.7818608E-02  0.1130116E+00
         25   -1    0    0    0    0  0.00000000000E+00  0.00000000000E+00  0.99999998245E-14  0.12500000000E+03  0.12500000000E+03 0.  0.
        -11    1    3    3    0    0 -0.28392618070E+02  0.13311903863E+02 -0.46299144833E+02  0.55919212779E+02  0.51100000000E-03 0.  1.
         23    2    1    0    0    0 -0.22486451094E+02  0.18267503449E+02 -0.80593216139E+01  0.94928504693E+02  0.90039581148E+02 0.  0.
         11    1    3    3    0    0  0.59061669753E+01  0.49555995870E+01  0.38239823219E+02  0.39009291915E+02  0.51100000000E-03 0. -1.
         22    1    1    0    0    0  0.22486451094E+02 -0.18267503449E+02  0.80593216139E+01  0.30071495307E+02  0.00000000000E+00 0.  1.
</event>
<event>
 5    1  0.3144657E-003  0.9118800E+02  0.7818608E-02  0.1130116E+00
         25   -1    0    0    0    0  0.00000000000E+00  0.00000000000E+00  0.99999998245E-14  0.12500000000E+03  0.12500000000E+03 0.  0.
        -11    1    3    3    0    0  0.11806805003E+02 -0.31742407061E+02 -0.40361359591E+01  0.34106765372E+02  0.51100000000E-03 0.  1.
         23    2    1    0    0    0 -0.18387085758E+02  0.20581743160E+02  0.91193947418E+01  0.95933585797E+02  0.91424266195E+02 0.  0.
         11    1    3    3    0    0 -0.30193890761E+02  0.52324150220E+02  0.13155530701E+02  0.61826820425E+02  0.51100000000E-03 0. -1.
         22    1    1    0    0    0  0.18387085758E+02 -0.20581743160E+02 -0.91193947418E+01  0.29066414203E+02  0.00000000000E+00 0. -1.
</event>
<event>
 5    1  0.3144657E-003  0.9118800E+02  0.7818608E-02  0.1130116E+00
         25   -1    0    0    0    0  0.00000000000E+00  0.00000000000E+00  0.99999998245E-14  0.12500000000E+03  0.12500000000E+03 0.  0.
        -11    1    3    3    0    0 -0.36770924123E+02  0.78584986704E+01 -0.71885861124E+00  0.37608158957E+02  0.51100000000E-03 0. -1.
         23    2    1    0    0    0  0.20326122061E+02  0.15402924645E+02  0.12347639696E+02  0.96665118110E+02  0.92419043100E+02 0.  0.
         11    1    3    3    0    0  0.57097046183E+02  0.75444259744E+01  0.13066498307E+02  0.59056959153E+02  0.51100000000E-03 0.  1.
         22    1    1    0    0    0 -0.20326122061E+02 -0.15402924645E+02 -0.12347639696E+02  0.28334881890E+02  0.00000000000E+00 0.  1.
</event>
<event>
 5    1  0.3144657E-003  0.9118800E+02  0.7818608E-02  0.1130116E+00
         25   -1    0    0    0    0  0.00000000000E+00  0.00000000000E+00  0.99999998245E-14  0.12500000000E+03  0.12500000000E+03 0.  0.
        -11    1    3    3    0    0  0.11238651134E+02  0.41322326868E+02 -0.17035929292E+02  0.46087578199E+02  0.51100000000E-03 0.  1.
         23    2    1    0    0    0 -0.26348818379E+02  0.10448045073E+02 -0.47135926300E+01  0.96266050892E+02  0.91877705256E+02 0.  0.
         11    1    3    3    0    0 -0.37587469513E+02 -0.30874281795E+02  0.12322336662E+02  0.50178472694E+02  0.51100000000E-03 0. -1.
         22    1    1    0    0    0  0.26348818379E+02 -0.10448045073E+02  0.47135926300E+01  0.28733949108E+02  0.00000000000E+00 0.  1.
</event>
<event>
 5    1  0.3144657E-003  0.9118800E+02  0.7818608E-02  0.1130116E+00
         25   -1    0    0    0    0  0.00000000000E+00  0.00000000000E+00  0.99999998245E-14  0.12500000000E+03  0.12500000000E+03 0.  0.
        -11    1    3    3    0    0  0.48921035738E+02 -0.36610158342E+02 -0.57306451031E+01  0.61371098451E+02  0.51100000000E-03 0.  1.
         23    2    1    0    0    0  0.25565215322E+02 -0.10670101476E+02  0.23448575794E+01  0.97198387510E+02  0.93137515951E+02 0.  0.
         11    1    3    3    0    0 -0.23355820415E+02  0.25940056866E+02  0.80755026825E+01  0.35827289059E+02  0.51100000000E-03 0. -1.
         22    1    1    0    0    0 -0.25565215322E+02  0.10670101476E+02 -0.23448575794E+01  0.27801612490E+02  0.00000000000E+00 0.  1.
</event>
<event>
 5    1  0.3144657E-003  0.9118800E+02  0.7818608E-02  0.1130116E+00
         25   -1    0    0    0    0  0.00000000000E+00  0.00000000000E+00  0.99999998245E-14  0.12500000000E+03  0.12500000000E+03 0.  0.
        -11    1    3    3    0    0  0.50799557720E+02  0.14169726975E+02  0.24388338817E+02  0.58104795823E+02  0.51100000000E-03 0.  1.
         23    2    1    0    0    0  0.28822930482E+02  0.42555085442E+01 -0.42675358825E+01  0.95553734752E+02  0.90903430562E+02 0.  0.
         11    1    3    3    0    0 -0.21976627238E+02 -0.99142184304E+01 -0.28655874700E+02  0.37448938929E+02  0.51100000000E-03 0. -1.
         22    1    1    0    0    0 -0.28822930482E+02 -0.42555085442E+01  0.42675358825E+01  0.29446265248E+02  0.00000000000E+00 0.  1.
</event>
<event>
 5    1  0.3144657E-003  0.9118800E+02  0.7818608E-02  0.1130116E+00
         25   -1    0    0    0    0  0.00000000000E+00  0.00000000000E+00  0.99999998245E-14  0.12500000000E+03  0.12500000000E+03 0.  0.
        -11    1    3    3    0    0  0.74376554822E+01 -0.41222501796E+02  0.19247551172E+02  0.46098607352E+02  0.51100000000E-03 0.  1.
         23    2    1    0    0    0 -0.21279881461E+02 -0.16921551119E+02 -0.12265968028E+02  0.95173397463E+02  0.90378921025E+02 0.  0.
         11    1    3    3    0    0 -0.28717536943E+02  0.24300950677E+02 -0.31513519200E+02  0.49074790111E+02  0.51100000000E-03 0. -1.
         22    1    1    0    0    0  0.21279881461E+02  0.16921551119E+02  0.12265968028E+02  0.29826602537E+02  0.00000000000E+00 0. -1.
</event>
<event>
 5    1  0.3144657E-003  0.9118800E+02  0.7818608E-02  0.1130116E+00
         25   -1    0    0    0    0  0.00000000000E+00  0.00000000000E+00  0.99999998245E-14  0.12500000000E+03  0.12500000000E+03 0.  0.
        -11    1    3    3    0    0 -0.51540792781E+02 -0.27693542854E+02 -0.58178978461E+01  0.58798244633E+02  0.51100000000E-03 0.  1.
         23    2    1    0    0    0 -0.14607226067E+02 -0.24703523712E+02 -0.36632644223E-01  0.96300932435E+02  0.91925149489E+02 0.  0.
         11    1    3    3    0    0  0.36933566715E+02  0.29900191420E+01  0.57812652019E+01  0.37502687801E+02  0.51100000000E-03 0. -1.
         22    1    1    0    0    0  0.14607226067E+02  0.24703523712E+02  0.36632644223E-01  0.28699067565E+02  0.00000000000E+00 0.  1.
</event>
<event>
 5    1  0.3144657E-003  0.9118800E+02  0.7818608E-02  0.1130116E+00
         25   -1    0    0    0    0  0.00000000000E+00  0.00000000000E+00  0.99999998245E-14  0.12500000000E+03  0.12500000000E+03 0.  0.
        -11    1    3    3    0    0 -0.63775330447E+01 -0.25262939750E+02 -0.39074506468E+02  0.46964945529E+02  0.51100000000E-03 0.  1.
         23    2    1    0    0    0 -0.17410548097E+02  0.16584564817E+02 -0.17041011658E+02  0.95528470458E+02  0.90868683354E+02 0.  0.
         11    1    3    3    0    0 -0.11033015053E+02  0.41847504568E+02  0.22033494810E+02  0.48563524929E+02  0.51100000000E-03 0. -1.
         22    1    1    0    0    0  0.17410548097E+02 -0.16584564817E+02  0.17041011658E+02  0.29471529542E+02  0.00000000000E+00 0. -1.
</event>
<event>
 5    1  0.3144657E-003  0.9118800E+02  0.7818608E-02  0.1130116E+00
         25   -1    0    0    0    0  0.00000000000E+00  0.00000000000E+00  0.99999998245E-14  0.12500000000E+03  0.12500000000E+03 0.  0.
        -11    1    3    3    0    0  0.14338152541E+02 -0.97344662963E+01 -0.34692135421E+02  0.38779978245E+02  0.51100000000E-03 0.  1.
         23    2    1    0    0    0 -0.10399447368E+02 -0.21593379844E+02  0.15835091510E+02  0.96274180921E+02  0.91888765527E+02 0.  0.
         11    1    3    3    0    0 -0.24737599910E+02 -0.11858913548E+02  0.50527226930E+02  0.57494202676E+02  0.51100000000E-03 0. -1.
         22    1    1    0    0    0  0.10399447368E+02  0.21593379844E+02 -0.15835091510E+02  0.28725819079E+02  0.00000000000E+00 0. -1.
</event>
<event>
 5    1  0.3144657E-003  0.9118800E+02  0.7818608E-02  0.1130116E+00
         25   -1    0    0    0    0  0.00000000000E+00  0.00000000000E+00  0.99999998245E-14  0.12500000000E+03  0.12500000000E+03 0.  0.
        -11    1    3    3    0    0  0.19618425632E+02 -0.48684799999E+02 -0.19522387908E+02  0.56001928584E+02  0.51100000000E-03 0. -1.
         23    2    1    0    0    0 -0.11889663971E+02 -0.21236092272E+02 -0.85238649987E+01  0.99212561220E+02  0.95802611160E+02 0.  0.
         11    1    3    3    0    0 -0.31508089603E+02  0.27448707728E+02  0.10998522909E+02  0.43210632636E+02  0.51100000000E-03 0.  1.
         22    1    1    0    0    0  0.11889663971E+02  0.21236092272E+02  0.85238649987E+01  0.25787438780E+02  0.00000000000E+00 0. -1.
</event>
<event>
 5    1  0.3144657E-003  0.9118800E+02  0.7818608E-02  0.1130116E+00
         25   -1    0    0    0    0  0.00000000000E+00  0.00000000000E+00  0.99999998245E-14  0.12500000000E+03  0.12500000000E+03 0.  0.
        -11    1    3    3    0    0 -0.27711292414E+02  0.14834362872E+02  0.48981924183E+02  0.58199681666E+02  0.51100000000E-03 0. -1.
         23    2    1    0    0    0 -0.43939137454E+01 -0.74379395102E+01  0.25464903221E+02  0.98109653810E+02  0.94352601726E+02 0.  0.
         11    1    3    3    0    0  0.23317378669E+02 -0.22272302382E+02 -0.23517020961E+02  0.39909972144E+02  0.51100000000E-03 0.  1.
         22    1    1    0    0    0  0.43939137454E+01  0.74379395102E+01 -0.25464903221E+02  0.26890346190E+02  0.00000000000E+00 0. -1.
</event>
<event>
 5    1  0.3144657E-003  0.9118800E+02  0.7818608E-02  0.1130116E+00
         25   -1    0    0    0    0  0.00000000000E+00  0.00000000000E+00  0.99999998245E-14  0.12500000000E+03  0.12500000000E+03 0.  0.
        -11    1    3    3    0    0  0.25610516204E+02  0.12281303427E+02  0.45622059015E+02  0.53741057145E+02  0.51100000000E-03 0.  1.
         23    2    1    0    0    0 -0.10014424061E+02  0.10500265273E+02  0.27859056118E+02  0.93588676120E+02  0.88159906024E+02 0.  0.
         11    1    3    3    0    0 -0.35624940265E+02 -0.17810381542E+01 -0.17763002896E+02  0.39847618975E+02  0.51100000000E-03 0. -1.
         22    1    1    0    0    0  0.10014424061E+02 -0.10500265273E+02 -0.27859056118E+02  0.31411323880E+02  0.00000000000E+00 0.  1.
</event>
<event>
 5    1  0.3144657E-003  0.9118800E+02  0.7818608E-02  0.1130116E+00
         25   -1    0    0    0    0  0.00000000000E+00  0.00000000000E+00  0.99999998245E-14  0.12500000000E+03  0.12500000000E+03 0.  0.
        -11    1    3    3    0    0  0.40222767189E+02  0.97920468027E+01  0.11472809554E+02  0.42957892642E+02  0.51100000000E-03 0.  1.
         23    2    1    0    0    0  0.10999851390E+02 -0.21138750850E+02 -0.18353111228E+02  0.94922097649E+02  0.90030685947E+02 0.  0.
         11    1    3    3    0    0 -0.29222915799E+02 -0.30930797653E+02 -0.29825920782E+02  0.51964205007E+02  0.51100000000E-03 0. -1.
         22    1    1    0    0    0 -0.10999851390E+02  0.21138750850E+02  0.18353111228E+02  0.30077902351E+02  0.00000000000E+00 0.  1.
</event>
<event>
 5    1  0.3144657E-003  0.9118800E+02  0.7818608E-02  0.1130116E+00
         25   -1    0    0    0    0  0.00000000000E+00  0.00000000000E+00  0.99999998245E-14  0.12500000000E+03  0.12500000000E+03 0.  0.
        -11    1    3    3    0    0  0.53048292182E+02  0.65183286472E+01 -0.28049292011E+02  0.60360356977E+02  0.51100000000E-03 0.  1.
         23    2    1    0    0    0  0.19206572894E+02  0.72432447186E+01 -0.22293287607E+02  0.94695747679E+02  0.89715867715E+02 0.  0.
         11    1    3    3    0    0 -0.33841719288E+02  0.72491607146E+00  0.57560044043E+01  0.34335390702E+02  0.51100000000E-03 0. -1.
         22    1    1    0    0    0 -0.19206572894E+02 -0.72432447186E+01  0.22293287607E+02  0.30304252321E+02  0.00000000000E+00 0.  1.
</event>
<event>
 5    1  0.3144657E-003  0.9118800E+02  0.7818608E-02  0.1130116E+00
         25   -1    0    0    0    0  0.00000000000E+00  0.00000000000E+00  0.99999998245E-14  0.12500000000E+03  0.12500000000E+03 0.  0.
        -11    1    3    3    0    0 -0.10273446865E+02  0.36064899119E+02  0.20879453248E+02  0.42920533864E+02  0.51100000000E-03 0. -1.
         23    2    1    0    0    0  0.24795933052E+02  0.11351667336E+02 -0.10185853516E+02  0.95889001064E+02  0.91363287299E+02 0.  0.
         11    1    3    3    0    0  0.35069379917E+02 -0.24713231784E+02 -0.31065306764E+02  0.52968467200E+02  0.51100000000E-03 0.  1.
         22    1    1    0    0    0 -0.24795933052E+02 -0.11351667336E+02  0.10185853516E+02  0.29110998936E+02  0.00000000000E+00 0. -1.
</event>
<event>
 5    1  0.3144657E-003  0.9118800E+02  0.7818608E-02  0.1130116E+00
         25   -1    0    0    0    0  0.00000000000E+00  0.00000000000E+00  0.99999998245E-14  0.12500000000E+03  0.12500000000E+03 0.  0.
        -11    1    3    3    0    0 -0.12325277273E+02 -0.21702814603E+02 -0.21950370766E+02  0.33237680403E+02  0.51100000000E-03 0. -1.
         23    2    1    0    0    0  0.17475763473E+02  0.14996380173E+02  0.18503743218E+02  0.95458804351E+02  0.90772799273E+02 0.  0.
         11    1    3    3    0    0  0.29801040746E+02  0.36699194777E+02  0.40454113984E+02  0.62221123948E+02  0.51100000000E-03 0.  1.
         22    1    1    0    0    0 -0.17475763473E+02 -0.14996380173E+02 -0.18503743218E+02  0.29541195649E+02  0.00000000000E+00 0.  1.
</event>
<event>
 5    1  0.3144657E-003  0.9118800E+02  0.7818608E-02  0.1130116E+00
         25   -1    0    0    0    0  0.00000000000E+00  0.00000000000E+00  0.99999998245E-14  0.12500000000E+03  0.12500000000E+03 0.  0.
        -11    1    3    3    0    0 -0.40184010223E+02  0.38155127957E+02 -0.21845154997E+00  0.55413140935E+02  0.51100000000E-03 0.  1.
         23    2    1    0    0    0 -0.13728126035E+02  0.15323445384E+02  0.20432222384E+02  0.96004394568E+02  0.91521028414E+02 0.  0.
         11    1    3    3    0    0  0.26455884188E+02 -0.22831682573E+02  0.20650673934E+02  0.40591253632E+02  0.51100000000E-03 0. -1.
         22    1    1    0    0    0  0.13728126035E+02 -0.15323445384E+02 -0.20432222384E+02  0.28995605432E+02  0.00000000000E+00 0. -1.
</event>
<event>
 5    1  0.3144657E-003  0.9118800E+02  0.7818608E-02  0.1130116E+00
         25   -1    0    0    0    0  0.00000000000E+00  0.00000000000E+00  0.99999998245E-14  0.12500000000E+03  0.12500000000E+03 0.  0.
        -11    1    3    3    0    0 -0.30006851235E+01  0.50565887894E+02  0.10454210050E+02  0.51722370766E+02  0.51100000000E-03 0. -1.
         23    2    1    0    0    0 -0.17553077719E+02  0.17400909917E+02 -0.15089658790E+02  0.96041408775E+02  0.91571568697E+02 0.  0.
         11    1    3    3    0    0 -0.14552392596E+02 -0.33164977976E+02 -0.25543868839E+02  0.44319038008E+02  0.51100000000E-03 0.  1.
         22    1    1    0    0    0  0.17553077719E+02 -0.17400909917E+02  0.15089658790E+02  0.28958591225E+02  0.00000000000E+00 0.  1.
</event>
<event>
 5    1  0.3144657E-003  0.9118800E+02  0.7818608E-02  0.1130116E+00
         25   -1    0    0    0    0  0.00000000000E+00  0.00000000000E+00  0.99999998245E-14  0.12500000000E+03  0.12500000000E+03 0.  0.
        -11    1    3    3    0    0 -0.36423546471E+02  0.19438332837E+02  0.84157764651E+01  0.42134888333E+02  0.51100000000E-03 0. -1.
         23    2    1    0    0    0  0.49463534222E+01  0.12525573579E+02 -0.25557758499E+02  0.96111327044E+02  0.91666961120E+02 0.  0.
         11    1    3    3    0    0  0.41369899893E+02 -0.69127592583E+01 -0.33973534964E+02  0.53976438711E+02  0.51100000000E-03 0.  1.
         22    1    1    0    0    0 -0.49463534222E+01 -0.12525573579E+02  0.25557758499E+02  0.28888672956E+02  0.00000000000E+00 0.  1.
</event>
<event>
 5    1  0.3144657E-003  0.9118800E+02  0.7818608E-02  0.1130116E+00
         25   -1    0    0    0    0  0.00000000000E+00  0.00000000000E+00  0.99999998245E-14  0.12500000000E+03  0.12500000000E+03 0.  0.
        -11    1    3    3    0    0 -0.25247828419E+02 -0.31537964290E+02 -0.34378374843E+02  0.53046853710E+02  0.51100000000E-03 0.  1.
         23    2    1    0    0    0  0.11408401466E+02 -0.13796364700E+02 -0.23974817062E+02  0.95078717339E+02  0.90247877175E+02 0.  0.
         11    1    3    3    0    0  0.36656229885E+02  0.17741599589E+02  0.10403557781E+02  0.42031863629E+02  0.51100000000E-03 0. -1.
         22    1    1    0    0    0 -0.11408401466E+02  0.13796364700E+02  0.23974817062E+02  0.29921282661E+02  0.00000000000E+00 0.  1.
</event>
<event>
 5    1  0.3144657E-003  0.9118800E+02  0.7818608E-02  0.1130116E+00
         25   -1    0    0    0    0  0.00000000000E+00  0.00000000000E+00  0.99999998245E-14  0.12500000000E+03  0.12500000000E+03 0.  0.
        -11    1    3    3    0    0 -0.84772681311E+01  0.15234923409E+02  0.34782548031E+02  0.38907487891E+02  0.51100000000E-03 0.  1.
         23    2    1    0    0    0 -0.14014674274E+02 -0.50619741639E+01 -0.21413235588E+02  0.98912429477E+02  0.95410205792E+02 0.  0.
         11    1    3    3    0    0 -0.55374061431E+01 -0.20296897573E+02 -0.56195783619E+02  0.60004941585E+02  0.51100000000E-03 0. -1.
         22    1    1    0    0    0  0.14014674274E+02  0.50619741639E+01  0.21413235588E+02  0.26087570523E+02  0.00000000000E+00 0. -1.
</event>
<event>
 5    1  0.3144657E-003  0.9118800E+02  0.7818608E-02  0.1130116E+00
         25   -1    0    0    0    0  0.00000000000E+00  0.00000000000E+00  0.99999998245E-14  0.12500000000E+03  0.12500000000E+03 0.  0.
        -11    1    3    3    0    0  0.36613968384E+02 -0.31204390362E+02 -0.64135700568E+01  0.48532777995E+02  0.51100000000E-03 0.  1.
         23    2    1    0    0    0  0.22508815248E+02  0.14775325323E+02 -0.87633927068E+01  0.96684738144E+02  0.92445576076E+02 0.  0.
         11    1    3    3    0    0 -0.14105153137E+02  0.45979715685E+02 -0.23498226500E+01  0.48151960149E+02  0.51100000000E-03 0. -1.
         22    1    1    0    0    0 -0.22508815248E+02 -0.14775325323E+02  0.87633927068E+01  0.28315261856E+02  0.00000000000E+00 0.  1.
</event>
<event>
 5    1  0.3144657E-003  0.9118800E+02  0.7818608E-02  0.1130116E+00
         25   -1    0    0    0    0  0.00000000000E+00  0.00000000000E+00  0.99999998245E-14  0.12500000000E+03  0.12500000000E+03 0.  0.
        -11    1    3    3    0    0  0.66306949462E+01 -0.34410891368E+02  0.90942372942E+01  0.36204705667E+02  0.51100000000E-03 0.  1.
         23    2    1    0    0    0 -0.26053334012E+02  0.13202847492E+02 -0.42667372458E+01  0.95482269028E+02  0.90805105897E+02 0.  0.
         11    1    3    3    0    0 -0.32684028958E+02  0.47613738860E+02 -0.13360974540E+02  0.59277563361E+02  0.51100000000E-03 0. -1.
         22    1    1    0    0    0  0.26053334012E+02 -0.13202847492E+02  0.42667372458E+01  0.29517730972E+02  0.00000000000E+00 0.  1.
</event>
<event>
 5    1  0.3144657E-003  0.9118800E+02  0.7818608E-02  0.1130116E+00
         25   -1    0    0    0    0  0.00000000000E+00  0.00000000000E+00  0.99999998245E-14  0.12500000000E+03  0.12500000000E+03 0.  0.
        -11    1    3    3    0    0 -0.12488973972E+01  0.22845607963E+02 -0.38749269825E+02  0.44999860668E+02  0.51100000000E-03 0. -1.
         23    2    1    0    0    0 -0.17107524490E+02  0.22549589250E+02  0.89874843109E+01  0.95302756967E+02  0.90557657002E+02 0.  0.
         11    1    3    3    0    0 -0.15858627093E+02 -0.29601871255E+00  0.47736754136E+02  0.50302896299E+02  0.51100000000E-03 0.  1.
         22    1    1    0    0    0  0.17107524490E+02 -0.22549589250E+02 -0.89874843109E+01  0.29697243033E+02  0.00000000000E+00 0.  1.
</event>
<event>
 5    1  0.3144657E-003  0.9118800E+02  0.7818608E-02  0.1130116E+00
         25   -1    0    0    0    0  0.00000000000E+00  0.00000000000E+00  0.99999998245E-14  0.12500000000E+03  0.12500000000E+03 0.  0.
        -11    1    3    3    0    0 -0.13501176723E+02 -0.25728485172E+02 -0.28732553287E+02  0.40863141593E+02  0.51100000000E-03 0.  1.
         23    2    1    0    0    0  0.15270086589E+02  0.18206619353E+02 -0.19661002191E+02  0.94158282476E+02  0.88963872549E+02 0.  0.
         11    1    3    3    0    0  0.28771263313E+02  0.43935104525E+02  0.90715510964E+01  0.53295140883E+02  0.51100000000E-03 0. -1.
         22    1    1    0    0    0 -0.15270086589E+02 -0.18206619353E+02  0.19661002191E+02  0.30841717524E+02  0.00000000000E+00 0.  1.
</event>
<event>
 5    1  0.3144657E-003  0.9118800E+02  0.7818608E-02  0.1130116E+00
         25   -1    0    0    0    0  0.00000000000E+00  0.00000000000E+00  0.99999998245E-14  0.12500000000E+03  0.12500000000E+03 0.  0.
        -11    1    3    3    0    0  0.42269831751E+02  0.18976405348E+02  0.93839942448E+01  0.47274749967E+02  0.51100000000E-03 0.  1.
         23    2    1    0    0    0  0.20300468314E+02 -0.22113747204E+02 -0.80539557441E+00  0.94970423060E+02  0.90097756715E+02 0.  0.
         11    1    3    3    0    0 -0.21969363438E+02 -0.41090152552E+02 -0.10189389819E+02  0.47695673093E+02  0.51100000000E-03 0. -1.
         22    1    1    0    0    0 -0.20300468314E+02  0.22113747204E+02  0.80539557441E+00  0.30029576940E+02  0.00000000000E+00 0.  1.
</event>
<event>
 5    1  0.3144657E-003  0.9118800E+02  0.7818608E-02  0.1130116E+00
         25   -1    0    0    0    0  0.00000000000E+00  0.00000000000E+00  0.99999998245E-14  0.12500000000E+03  0.12500000000E+03 0.  0.
        -11    1    3    3    0    0  0.57736739299E+02  0.20846213503E+02 -0.73008960514E+01  0.61817463275E+02  0.51100000000E-03 0.  1.
         23    2    1    0    0    0  0.26641391432E+02  0.82947299480E+01  0.30977860351E+01  0.96925766962E+02  0.92770909990E+02 0.  0.
         11    1    3    3    0    0 -0.31095347867E+02 -0.12551483555E+02  0.10398682086E+02  0.35108303687E+02  0.51100000000E-03 0. -1.
         22    1    1    0    0    0 -0.26641391432E+02 -0.82947299480E+01 -0.30977860351E+01  0.28074233038E+02  0.00000000000E+00 0.  1.
</event>
<event>
 5    1  0.3144657E-003  0.9118800E+02  0.7818608E-02  0.1130116E+00
         25   -1    0    0    0    0  0.00000000000E+00  0.00000000000E+00  0.99999998245E-14  0.12500000000E+03  0.12500000000E+03 0.  0.
        -11    1    3    3    0    0  0.37816851539E+02 -0.21380859255E+02 -0.44139645944E+02  0.61931928334E+02  0.51100000000E-03 0.  1.
         23    2    1    0    0    0  0.17026776618E+02 -0.15586088552E+02 -0.18705086103E+02  0.95289437493E+02  0.90539269786E+02 0.  0.
         11    1    3    3    0    0 -0.20790074922E+02  0.57947707030E+01  0.25434559841E+02  0.33357509159E+02  0.51100000000E-03 0. -1.
         22    1    1    0    0    0 -0.17026776618E+02  0.15586088552E+02  0.18705086103E+02  0.29710562507E+02  0.00000000000E+00 0.  1.
</event>
<event>
 5    1  0.3144657E-003  0.9118800E+02  0.7818608E-02  0.1130116E+00
         25   -1    0    0    0    0  0.00000000000E+00  0.00000000000E+00  0.99999998245E-14  0.12500000000E+03  0.12500000000E+03 0.  0.
        -11    1    3    3    0    0 -0.88437298833E+01 -0.41888194873E+02  0.36408060790E+02  0.56199460128E+02  0.51100000000E-03 0.  1.
         23    2    1    0    0    0  0.15203786767E+02 -0.21209332371E+02  0.11711643411E+02  0.96396617279E+02  0.92055169979E+02 0.  0.
         11    1    3    3    0    0  0.24047516650E+02  0.20678862502E+02 -0.24696417379E+02  0.40197157151E+02  0.51100000000E-03 0. -1.
         22    1    1    0    0    0 -0.15203786767E+02  0.21209332371E+02 -0.11711643411E+02  0.28603382721E+02  0.00000000000E+00 0. -1.
</event>
<event>
 5    1  0.3144657E-003  0.9118800E+02  0.7818608E-02  0.1130116E+00
         25   -1    0    0    0    0  0.00000000000E+00  0.00000000000E+00  0.99999998245E-14  0.12500000000E+03  0.12500000000E+03 0.  0.
        -11    1    3    3    0    0  0.93708374563E+01 -0.86302313257E+01 -0.43415137463E+02  0.45245636790E+02  0.51100000000E-03 0. -1.
         23    2    1    0    0    0  0.29476636509E+02  0.17383612059E+01  0.13917777294E+01  0.95439366637E+02  0.90746028339E+02 0.  0.
         11    1    3    3    0    0  0.20105799053E+02  0.10368592532E+02  0.44806915192E+02  0.50193729847E+02  0.51100000000E-03 0.  1.
         22    1    1    0    0    0 -0.29476636509E+02 -0.17383612059E+01 -0.13917777294E+01  0.29560633363E+02  0.00000000000E+00 0.  1.
</event>
<event>
 5    1  0.3144657E-003  0.9118800E+02  0.7818608E-02  0.1130116E+00
         25   -1    0    0    0    0  0.00000000000E+00  0.00000000000E+00  0.99999998245E-14  0.12500000000E+03  0.12500000000E+03 0.  0.
        -11    1    3    3    0    0  0.94628357988E+01 -0.28522713829E+02  0.20528045067E+02  0.36393558497E+02  0.51100000000E-03 0.  1.
         23    2    1    0    0    0  0.25778937203E+01  0.27130684242E+02 -0.37298709401E+01  0.97493064498E+02  0.93532166256E+02 0.  0.
         11    1    3    3    0    0 -0.68849420785E+01  0.55653398071E+02 -0.24257916007E+02  0.61099506001E+02  0.51100000000E-03 0. -1.
         22    1    1    0    0    0 -0.25778937203E+01 -0.27130684242E+02  0.37298709401E+01  0.27506935502E+02  0.00000000000E+00 0. -1.
</event>
<event>
 5    1  0.3144657E-003  0.9118800E+02  0.7818608E-02  0.1130116E+00
         25   -1    0    0    0    0  0.00000000000E+00  0.00000000000E+00  0.99999998245E-14  0.12500000000E+03  0.12500000000E+03 0.  0.
        -11    1    3    3    0    0 -0.15247674603E+02  0.30474622136E+02 -0.16901433874E+02  0.38037516249E+02  0.51100000000E-03 0.  1.
         23    2    1    0    0    0  0.25865339211E+02  0.16269026584E+01  0.12491276382E+02  0.96230318556E+02  0.91829078396E+02 0.  0.
         11    1    3    3    0    0  0.41113013814E+02 -0.28847719477E+02  0.29392710256E+02  0.58192802307E+02  0.51100000000E-03 0. -1.
         22    1    1    0    0    0 -0.25865339211E+02 -0.16269026584E+01 -0.12491276382E+02  0.28769681444E+02  0.00000000000E+00 0. -1.
</event>
<event>
 5    1  0.3144657E-003  0.9118800E+02  0.7818608E-02  0.1130116E+00
         25   -1    0    0    0    0  0.00000000000E+00  0.00000000000E+00  0.99999998245E-14  0.12500000000E+03  0.12500000000E+03 0.  0.
        -11    1    3    3    0    0  0.33930923874E+02  0.61536603888E+01 -0.11332528219E+02  0.36298778591E+02  0.51100000000E-03 0.  1.
         23    2    1    0    0    0 -0.21570608158E+02 -0.15632856426E+02 -0.11650463729E+02  0.95924053903E+02  0.91411232766E+02 0.  0.
         11    1    3    3    0    0 -0.55501532032E+02 -0.21786516815E+02 -0.31793550950E+00  0.59625275312E+02  0.51100000000E-03 0. -1.
         22    1    1    0    0    0  0.21570608158E+02  0.15632856426E+02  0.11650463729E+02  0.29075946097E+02  0.00000000000E+00 0. -1.
</event>
<event>
 5    1  0.3144657E-003  0.9118800E+02  0.7818608E-02  0.1130116E+00
         25   -1    0    0    0    0  0.00000000000E+00  0.00000000000E+00  0.99999998245E-14  0.12500000000E+03  0.12500000000E+03 0.  0.
        -11    1    3    3    0    0  0.24719806729E+02  0.25758212673E+02  0.71742533331E+01  0.36414616241E+02  0.51100000000E-03 0.  1.
         23    2    1    0    0    0 -0.28428544275E+02  0.45097850779E+01 -0.69895703477E+01  0.95379493848E+02  0.90663517812E+02 0.  0.
         11    1    3    3    0    0 -0.53148351004E+02 -0.21248427595E+02 -0.14163823681E+02  0.58964877607E+02  0.51100000000E-03 0. -1.
         22    1    1    0    0    0  0.28428544275E+02 -0.45097850779E+01  0.69895703477E+01  0.29620506152E+02  0.00000000000E+00 0. -1.
</event>
<event>
 5    1  0.3144657E-003  0.9118800E+02  0.7818608E-02  0.1130116E+00
         25   -1    0    0    0    0  0.00000000000E+00  0.00000000000E+00  0.99999998245E-14  0.12500000000E+03  0.12500000000E+03 0.  0.
        -11    1    3    3    0    0  0.20358094174E+02  0.22204439950E+02 -0.19986858436E+02  0.36151952400E+02  0.51100000000E-03 0. -1.
         23    2    1    0    0    0  0.35047179019E+01 -0.30719593860E+02 -0.50157344093E+01  0.93676940026E+02  0.88284964781E+02 0.  0.
         11    1    3    3    0    0 -0.16853376272E+02 -0.52924033810E+02  0.14971124027E+02  0.57524987626E+02  0.51100000000E-03 0.  1.
         22    1    1    0    0    0 -0.35047179019E+01  0.30719593860E+02  0.50157344093E+01  0.31323059974E+02  0.00000000000E+00 0.  1.
</event>
<event>
 5    1  0.3144657E-003  0.9118800E+02  0.7818608E-02  0.1130116E+00
         25   -1    0    0    0    0  0.00000000000E+00  0.00000000000E+00  0.99999998245E-14  0.12500000000E+03  0.12500000000E+03 0.  0.
        -11    1    3    3    0    0 -0.29075615767E+02 -0.12903064839E+02 -0.24928571732E+02  0.40414282170E+02  0.51100000000E-03 0. -1.
         23    2    1    0    0    0 -0.16930075986E+02  0.51317922534E+01  0.24712279235E+02  0.94608232865E+02  0.89593851442E+02 0.  0.
         11    1    3    3    0    0  0.12145539781E+02  0.18034857092E+02  0.49640850967E+02  0.54193950695E+02  0.51100000000E-03 0.  1.
         22    1    1    0    0    0  0.16930075986E+02 -0.51317922534E+01 -0.24712279235E+02  0.30391767135E+02  0.00000000000E+00 0.  1.
</event>
<event>
 5    1  0.3144657E-003  0.9118800E+02  0.7818608E-02  0.1130116E+00
         25   -1    0    0    0    0  0.00000000000E+00  0.00000000000E+00  0.99999998245E-14  0.12500000000E+03  0.12500000000E+03 0.  0.
        -11    1    3    3    0    0  0.23009404399E+02  0.26812992279E+02  0.27343356578E+02  0.44676933589E+02  0.51100000000E-03 0.  1.
         23    2    1    0    0    0  0.27398526515E+02 -0.13971877823E+02 -0.47608795624E+00  0.94240947920E+02  0.89079947127E+02 0.  0.
         11    1    3    3    0    0  0.43891221163E+01 -0.40784870102E+02 -0.27819444534E+02  0.49564014331E+02  0.51100000000E-03 0. -1.
         22    1    1    0    0    0 -0.27398526515E+02  0.13971877823E+02  0.47608795624E+00  0.30759052080E+02  0.00000000000E+00 0. -1.
</event>
<event>
 5    1  0.3144657E-003  0.9118800E+02  0.7818608E-02  0.1130116E+00
         25   -1    0    0    0    0  0.00000000000E+00  0.00000000000E+00  0.99999998245E-14  0.12500000000E+03  0.12500000000E+03 0.  0.
        -11    1    3    3    0    0  0.23000681147E+02  0.40824734116E+02 -0.32482219316E+02  0.57015654174E+02  0.51100000000E-03 0. -1.
         23    2    1    0    0    0 -0.80018008213E+00  0.35217129119E+02 -0.20448304239E+02  0.84268935469E+02  0.73771497662E+02 0.  0.
         11    1    3    3    0    0 -0.23800861229E+02 -0.56076049970E+01  0.12033915077E+02  0.27253281295E+02  0.51100000000E-03 0.  1.
         22    1    1    0    0    0  0.80018008213E+00 -0.35217129119E+02  0.20448304239E+02  0.40731064531E+02  0.00000000000E+00 0. -1.
</event>
<event>
 5    1  0.3144657E-003  0.9118800E+02  0.7818608E-02  0.1130116E+00
         25   -1    0    0    0    0  0.00000000000E+00  0.00000000000E+00  0.99999998245E-14  0.12500000000E+03  0.12500000000E+03 0.  0.
        -11    1    3    3    0    0 -0.15515708070E+02 -0.20201580157E+02  0.24976016802E+02  0.35674114612E+02  0.51100000000E-03 0.  1.
         23    2    1    0    0    0 -0.68306643995E+01  0.67854036224E+01 -0.27798506171E+02  0.95581355847E+02  0.90941404001E+02 0.  0.
         11    1    3    3    0    0  0.86850436706E+01  0.26986983780E+02 -0.52774522973E+02  0.59907241235E+02  0.51100000000E-03 0. -1.
         22    1    1    0    0    0  0.68306643995E+01 -0.67854036224E+01  0.27798506171E+02  0.29418644153E+02  0.00000000000E+00 0. -1.
</event>
<event>
 5    1  0.3144657E-003  0.9118800E+02  0.7818608E-02  0.1130116E+00
         25   -1    0    0    0    0  0.00000000000E+00  0.00000000000E+00  0.99999998245E-14  0.12500000000E+03  0.12500000000E+03 0.  0.
        -11    1    3    3    0    0  0.16475573531E+02 -0.41485696315E+02  0.49978806611E+01  0.44916437229E+02  0.51100000000E-03 0.  1.
         23    2    1    0    0    0  0.28004253181E+02  0.59145558493E+01  0.11547657992E+02  0.94136290369E+02  0.88932966847E+02 0.  0.
         11    1    3    3    0    0  0.11528679650E+02  0.47400252165E+02  0.65497773314E+01  0.49219853140E+02  0.51100000000E-03 0. -1.
         22    1    1    0    0    0 -0.28004253181E+02 -0.59145558493E+01 -0.11547657992E+02  0.30863709631E+02  0.00000000000E+00 0. -1.
</event>
<event>
 5    1  0.3144657E-003  0.9118800E+02  0.7818608E-02  0.1130116E+00
         25   -1    0    0    0    0  0.00000000000E+00  0.00000000000E+00  0.99999998245E-14  0.12500000000E+03  0.12500000000E+03 0.  0.
        -11    1    3    3    0    0 -0.27446859189E+02 -0.49366341679E+02  0.19203060387E+02  0.59658388334E+02  0.51100000000E-03 0.  1.
         23    2    1    0    0    0 -0.45322216868E+01 -0.20962762167E+02 -0.43808717333E+01  0.10311003727E+03  0.10075966117E+03 0.  0.
         11    1    3    3    0    0  0.22914637502E+02  0.28403579512E+02 -0.23583932120E+02  0.43451648939E+02  0.51100000000E-03 0. -1.
         22    1    1    0    0    0  0.45322216868E+01  0.20962762167E+02  0.43808717333E+01  0.21889962728E+02  0.00000000000E+00 0.  1.
</event>
<event>
 5    1  0.3144657E-003  0.9118800E+02  0.7818608E-02  0.1130116E+00
         25   -1    0    0    0    0  0.00000000000E+00  0.00000000000E+00  0.99999998245E-14  0.12500000000E+03  0.12500000000E+03 0.  0.
        -11    1    3    3    0    0  0.25734190030E+02 -0.53650391499E+01 -0.47344481897E+02  0.54152859093E+02  0.51100000000E-03 0. -1.
         23    2    1    0    0    0  0.29655197835E+02 -0.14489428108E+02 -0.13645385469E+02  0.89284865531E+02  0.81830412334E+02 0.  0.
         11    1    3    3    0    0  0.39210078053E+01 -0.91243889583E+01  0.33699096428E+02  0.35132006438E+02  0.51100000000E-03 0.  1.
         22    1    1    0    0    0 -0.29655197835E+02  0.14489428108E+02  0.13645385469E+02  0.35715134469E+02  0.00000000000E+00 0. -1.
</event>
<event>
 5    1  0.3144657E-003  0.9118800E+02  0.7818608E-02  0.1130116E+00
         25   -1    0    0    0    0  0.00000000000E+00  0.00000000000E+00  0.99999998245E-14  0.12500000000E+03  0.12500000000E+03 0.  0.
        -11    1    3    3    0    0  0.26304088021E+02 -0.17237447242E+02 -0.30488418271E+02  0.43801578544E+02  0.51100000000E-03 0.  1.
         23    2    1    0    0    0 -0.21770995343E+02 -0.16082110890E+02 -0.13014793809E+02  0.94966761966E+02  0.90092677236E+02 0.  0.
         11    1    3    3    0    0 -0.48075083363E+02  0.11553363524E+01  0.17473624462E+02  0.51165183422E+02  0.51100000000E-03 0. -1.
         22    1    1    0    0    0  0.21770995343E+02  0.16082110890E+02  0.13014793809E+02  0.30033238034E+02  0.00000000000E+00 0. -1.
</event>
<event>
 5    1  0.3144657E-003  0.9118800E+02  0.7818608E-02  0.1130116E+00
         25   -1    0    0    0    0  0.00000000000E+00  0.00000000000E+00  0.99999998245E-14  0.12500000000E+03  0.12500000000E+03 0.  0.
        -11    1    3    3    0    0  0.55151574413E+02 -0.18773471609E+02  0.17452066000E+02  0.60817053566E+02  0.51100000000E-03 0. -1.
         23    2    1    0    0    0  0.18055855455E+02  0.18859470808E+01  0.11022427807E+02  0.10376171788E+03  0.10156490275E+03 0.  0.
         11    1    3    3    0    0 -0.37095718958E+02  0.20659418690E+02 -0.64296381928E+01  0.42944664315E+02  0.51100000000E-03 0.  1.
         22    1    1    0    0    0 -0.18055855455E+02 -0.18859470808E+01 -0.11022427807E+02  0.21238282119E+02  0.00000000000E+00 0. -1.
</event>
<event>
 5    1  0.3144657E-003  0.9118800E+02  0.7818608E-02  0.1130116E+00
         25   -1    0    0    0    0  0.00000000000E+00  0.00000000000E+00  0.99999998245E-14  0.12500000000E+03  0.12500000000E+03 0.  0.
        -11    1    3    3    0    0 -0.28227821783E+00  0.12736795570E+02 -0.16087941665E+02  0.20521391514E+02  0.51100000000E-03 0.  1.
         23    2    1    0    0    0  0.47365843964E+02 -0.11583807762E+02 -0.52454869438E+00  0.76235433684E+02  0.58599133278E+02 0.  0.
         11    1    3    3    0    0  0.47648122182E+02 -0.24320603332E+02  0.15563392970E+02  0.55714042170E+02  0.51100000000E-03 0. -1.
         22    1    1    0    0    0 -0.47365843964E+02  0.11583807762E+02  0.52454869438E+00  0.48764566316E+02  0.00000000000E+00 0. -1.
</event>
<event>
 5    1  0.3144657E-003  0.9118800E+02  0.7818608E-02  0.1130116E+00
         25   -1    0    0    0    0  0.00000000000E+00  0.00000000000E+00  0.99999998245E-14  0.12500000000E+03  0.12500000000E+03 0.  0.
        -11    1    3    3    0    0  0.32769388058E+02 -0.22082725691E+02 -0.24257510107E+00  0.39516305629E+02  0.51100000000E-03 0.  1.
         23    2    1    0    0    0 -0.24290835371E+02 -0.35230682681E+01 -0.58098424786E+01  0.99776777314E+02  0.96535974272E+02 0.  0.
         11    1    3    3    0    0 -0.57060223429E+02  0.18559657423E+02 -0.55672673775E+01  0.60260471685E+02  0.51100000000E-03 0. -1.
         22    1    1    0    0    0  0.24290835371E+02  0.35230682681E+01  0.58098424786E+01  0.25223222686E+02  0.00000000000E+00 0. -1.
</event>
<event>
 5    1  0.3144657E-003  0.9118800E+02  0.7818608E-02  0.1130116E+00
         25   -1    0    0    0    0  0.00000000000E+00  0.00000000000E+00  0.99999998245E-14  0.12500000000E+03  0.12500000000E+03 0.  0.
        -11    1    3    3    0    0 -0.11657560639E+02 -0.53815256203E+02  0.19620577129E+02  0.58454662495E+02  0.51100000000E-03 0. -1.
         23    2    1    0    0    0 -0.15915303791E+02 -0.10372955577E+02  0.11315332488E+02  0.10288819656E+03  0.10048407406E+03 0.  0.
         11    1    3    3    0    0 -0.42577431522E+01  0.43442300626E+02 -0.83052446414E+01  0.44433534062E+02  0.51100000000E-03 0.  1.
         22    1    1    0    0    0  0.15915303791E+02  0.10372955577E+02 -0.11315332488E+02  0.22111803443E+02  0.00000000000E+00 0. -1.
</event>
<event>
 5    1  0.3144657E-003  0.9118800E+02  0.7818608E-02  0.1130116E+00
         25   -1    0    0    0    0  0.00000000000E+00  0.00000000000E+00  0.99999998245E-14  0.12500000000E+03  0.12500000000E+03 0.  0.
        -11    1    3    3    0    0 -0.47264145308E+02 -0.12255169077E+02  0.42235582750E+00  0.48828956424E+02  0.51100000000E-03 0.  1.
         23    2    1    0    0    0 -0.14405834826E+02 -0.13161462834E+01  0.28254124136E+02  0.93257979763E+02  0.87689765313E+02 0.  0.
         11    1    3    3    0    0  0.32858310482E+02  0.10939022793E+02  0.27831768308E+02  0.44429023338E+02  0.51100000000E-03 0. -1.
         22    1    1    0    0    0  0.14405834826E+02  0.13161462834E+01 -0.28254124136E+02  0.31742020237E+02  0.00000000000E+00 0. -1.
</event>
<event>
 5    1  0.3144657E-003  0.9118800E+02  0.7818608E-02  0.1130116E+00
         25   -1    0    0    0    0  0.00000000000E+00  0.00000000000E+00  0.99999998245E-14  0.12500000000E+03  0.12500000000E+03 0.  0.
        -11    1    3    3    0    0 -0.44858563205E+02 -0.12561590874E+02  0.39412203352E+02  0.61019718382E+02  0.51100000000E-03 0.  1.
         23    2    1    0    0    0 -0.13589057972E+02 -0.76098922843E+01  0.24388227842E+02  0.96062850616E+02  0.91600833261E+02 0.  0.
         11    1    3    3    0    0  0.31269505233E+02  0.49516985893E+01 -0.15023975510E+02  0.35043132234E+02  0.51100000000E-03 0. -1.
         22    1    1    0    0    0  0.13589057972E+02  0.76098922843E+01 -0.24388227842E+02  0.28937149384E+02  0.00000000000E+00 0.  1.
</event>
<event>
 5    1  0.3144657E-003  0.9118800E+02  0.7818608E-02  0.1130116E+00
         25   -1    0    0    0    0  0.00000000000E+00  0.00000000000E+00  0.99999998245E-14  0.12500000000E+03  0.12500000000E+03 0.  0.
        -11    1    3    3    0    0 -0.36198708952E+02 -0.29325903161E+02  0.39825216867E+02  0.61289501750E+02  0.51100000000E-03 0. -1.
         23    2    1    0    0    0 -0.17506383742E+02 -0.20073343773E+02  0.12738673735E+02  0.95475664097E+02  0.90796013262E+02 0.  0.
         11    1    3    3    0    0  0.18692325209E+02  0.92525593880E+01 -0.27086543132E+02  0.34186162348E+02  0.51100000000E-03 0.  1.
         22    1    1    0    0    0  0.17506383742E+02  0.20073343773E+02 -0.12738673735E+02  0.29524335903E+02  0.00000000000E+00 0. -1.
</event>
<event>
 5    1  0.3144657E-003  0.9118800E+02  0.7818608E-02  0.1130116E+00
         25   -1    0    0    0    0  0.00000000000E+00  0.00000000000E+00  0.99999998245E-14  0.12500000000E+03  0.12500000000E+03 0.  0.
        -11    1    3    3    0    0  0.16034881195E+02 -0.31915086734E+02  0.14265435806E+02  0.38460276067E+02  0.51100000000E-03 0. -1.
         23    2    1    0    0    0  0.11998173174E+02  0.20497955857E+02  0.23218187073E+02  0.91785446491E+02  0.85564955577E+02 0.  0.
         11    1    3    3    0    0 -0.40367080212E+01  0.52413042591E+02  0.89527512667E+01  0.53325170424E+02  0.51100000000E-03 0.  1.
         22    1    1    0    0    0 -0.11998173174E+02 -0.20497955857E+02 -0.23218187073E+02  0.33214553509E+02  0.00000000000E+00 0.  1.
</event>
<event>
 5    1  0.3144657E-003  0.9118800E+02  0.7818608E-02  0.1130116E+00
         25   -1    0    0    0    0  0.00000000000E+00  0.00000000000E+00  0.99999998245E-14  0.12500000000E+03  0.12500000000E+03 0.  0.
        -11    1    3    3    0    0 -0.54069964776E+02  0.11641298897E+02 -0.20780317720E+02  0.59083860197E+02  0.51100000000E-03 0. -1.
         23    2    1    0    0    0 -0.18578661475E+02  0.26812472572E+00 -0.21786235193E+02  0.96366477741E+02  0.92014234960E+02 0.  0.
         11    1    3    3    0    0  0.35491303302E+02 -0.11373174171E+02 -0.10059174728E+01  0.37282617545E+02  0.51100000000E-03 0.  1.
         22    1    1    0    0    0  0.18578661475E+02 -0.26812472572E+00  0.21786235193E+02  0.28633522259E+02  0.00000000000E+00 0. -1.
</event>
<event>
 5    1  0.3144657E-003  0.9118800E+02  0.7818608E-02  0.1130116E+00
         25   -1    0    0    0    0  0.00000000000E+00  0.00000000000E+00  0.99999998245E-14  0.12500000000E+03  0.12500000000E+03 0.  0.
        -11    1    3    3    0    0 -0.59576980257E+02 -0.75019394514E+01  0.65363491969E+01  0.60402148415E+02  0.51100000000E-03 0.  1.
         23    2    1    0    0    0 -0.26744793293E+02  0.53812389109E+01  0.10229552605E+02  0.95864361222E+02  0.91329569722E+02 0.  0.
         11    1    3    3    0    0  0.32832186964E+02  0.12883178362E+02  0.36932034076E+01  0.35462212808E+02  0.51100000000E-03 0. -1.
         22    1    1    0    0    0  0.26744793293E+02 -0.53812389109E+01 -0.10229552605E+02  0.29135638778E+02  0.00000000000E+00 0.  1.
</event>
<event>
 5    1  0.3144657E-003  0.9118800E+02  0.7818608E-02  0.1130116E+00
         25   -1    0    0    0    0  0.00000000000E+00  0.00000000000E+00  0.99999998245E-14  0.12500000000E+03  0.12500000000E+03 0.  0.
        -11    1    3    3    0    0 -0.14158382695E+02  0.30433306748E+02  0.15456958804E+02  0.36953532117E+02  0.51100000000E-03 0.  1.
         23    2    1    0    0    0  0.72178466074E+01 -0.24719423156E+02 -0.33721508121E+01  0.99028504242E+02  0.95562158098E+02 0.  0.
         11    1    3    3    0    0  0.21376229303E+02 -0.55152729905E+02 -0.18829109616E+02  0.62074972125E+02  0.51100000000E-03 0. -1.
         22    1    1    0    0    0 -0.72178466074E+01  0.24719423156E+02  0.33721508121E+01  0.25971495758E+02  0.00000000000E+00 0. -1.
</event>
<event>
 5    1  0.3144657E-003  0.9118800E+02  0.7818608E-02  0.1130116E+00
         25   -1    0    0    0    0  0.00000000000E+00  0.00000000000E+00  0.99999998245E-14  0.12500000000E+03  0.12500000000E+03 0.  0.
        -11    1    3    3    0    0  0.39880863119E+02  0.34572064448E+02  0.21836905808E+02  0.57118835237E+02  0.51100000000E-03 0. -1.
         23    2    1    0    0    0  0.12655445642E+02  0.17648327550E+02 -0.88996998773E+01  0.10153026571E+03  0.98780394956E+02 0.  0.
         11    1    3    3    0    0 -0.27225417477E+02 -0.16923736898E+02 -0.30736605685E+02  0.44411430474E+02  0.51100000000E-03 0.  1.
         22    1    1    0    0    0 -0.12655445642E+02 -0.17648327550E+02  0.88996998773E+01  0.23469734289E+02  0.00000000000E+00 0. -1.
</event>
<event>
 5    1  0.3144657E-003  0.9118800E+02  0.7818608E-02  0.1130116E+00
         25   -1    0    0    0    0  0.00000000000E+00  0.00000000000E+00  0.99999998245E-14  0.12500000000E+03  0.12500000000E+03 0.  0.
        -11    1    3    3    0    0  0.11311915013E+02 -0.51248897980E+02 -0.30640212531E+02  0.60771963845E+02  0.51100000000E-03 0.  1.
         23    2    1    0    0    0  0.15179256361E+02 -0.21273962099E+02 -0.12395316464E+02  0.96075353808E+02  0.91617893733E+02 0.  0.
         11    1    3    3    0    0  0.38673413484E+01  0.29974935880E+02  0.18244896067E+02  0.35303389963E+02  0.51100000000E-03 0. -1.
         22    1    1    0    0    0 -0.15179256361E+02  0.21273962099E+02  0.12395316464E+02  0.28924646192E+02  0.00000000000E+00 0.  1.
</event>
<event>
 5    1  0.3144657E-003  0.9118800E+02  0.7818608E-02  0.1130116E+00
         25   -1    0    0    0    0  0.00000000000E+00  0.00000000000E+00  0.99999998245E-14  0.12500000000E+03  0.12500000000E+03 0.  0.
        -11    1    3    3    0    0 -0.17997602611E+02 -0.11463178104E+02  0.40263874096E+02  0.45568604428E+02  0.51100000000E-03 0.  1.
         23    2    1    0    0    0 -0.72168627627E+01  0.26624326521E+02  0.90842909241E+01  0.95957579088E+02  0.91457065184E+02 0.  0.
         11    1    3    3    0    0  0.10780739849E+02  0.38087504625E+02 -0.31179583172E+02  0.50388974660E+02  0.51100000000E-03 0. -1.
         22    1    1    0    0    0  0.72168627627E+01 -0.26624326521E+02 -0.90842909241E+01  0.29042420912E+02  0.00000000000E+00 0. -1.
</event>
<event>
 5    1  0.3144657E-003  0.9118800E+02  0.7818608E-02  0.1130116E+00
         25   -1    0    0    0    0  0.00000000000E+00  0.00000000000E+00  0.99999998245E-14  0.12500000000E+03  0.12500000000E+03 0.  0.
        -11    1    3    3    0    0 -0.12675819909E+02  0.50883014181E+02  0.31457976103E+02  0.61150321367E+02  0.51100000000E-03 0. -1.
         23    2    1    0    0    0  0.27818143795E+01  0.26222467680E+02  0.13160984738E+02  0.95528525287E+02  0.90868758777E+02 0.  0.
         11    1    3    3    0    0  0.15457634289E+02 -0.24660546500E+02 -0.18296991366E+02  0.34378203920E+02  0.51100000000E-03 0.  1.
         22    1    1    0    0    0 -0.27818143795E+01 -0.26222467680E+02 -0.13160984738E+02  0.29471474713E+02  0.00000000000E+00 0. -1.
</event>
<event>
 5    1  0.3144657E-003  0.9118800E+02  0.7818608E-02  0.1130116E+00
         25   -1    0    0    0    0  0.00000000000E+00  0.00000000000E+00  0.99999998245E-14  0.12500000000E+03  0.12500000000E+03 0.  0.
        -11    1    3    3    0    0 -0.27128555411E+02  0.84285534547E+00  0.25841021954E+02  0.37475689983E+02  0.51100000000E-03 0.  1.
         23    2    1    0    0    0  0.25238440636E+02  0.65350648693E+01 -0.49110070146E+01  0.98470696419E+02  0.94829711087E+02 0.  0.
         11    1    3    3    0    0  0.52366996047E+02  0.56922095239E+01 -0.30752028969E+02  0.60995006436E+02  0.51100000000E-03 0. -1.
         22    1    1    0    0    0 -0.25238440636E+02 -0.65350648693E+01  0.49110070146E+01  0.26529303581E+02  0.00000000000E+00 0. -1.
</event>
<event>
 5    1  0.3144657E-003  0.9118800E+02  0.7818608E-02  0.1130116E+00
         25   -1    0    0    0    0  0.00000000000E+00  0.00000000000E+00  0.99999998245E-14  0.12500000000E+03  0.12500000000E+03 0.  0.
        -11    1    3    3    0    0  0.49976193447E+02 -0.75690895020E+01  0.10646939538E+02  0.51655283845E+02  0.51100000000E-03 0.  1.
         23    2    1    0    0    0  0.18138230825E+02 -0.15732836059E+02 -0.17789512460E+02  0.95117157071E+02  0.90301103359E+02 0.  0.
         11    1    3    3    0    0 -0.31837962623E+02 -0.81637465571E+01 -0.28436451998E+02  0.43461873226E+02  0.51100000000E-03 0. -1.
         22    1    1    0    0    0 -0.18138230825E+02  0.15732836059E+02  0.17789512460E+02  0.29882842929E+02  0.00000000000E+00 0. -1.
</event>
<event>
 5    1  0.3144657E-003  0.9118800E+02  0.7818608E-02  0.1130116E+00
         25   -1    0    0    0    0  0.00000000000E+00  0.00000000000E+00  0.99999998245E-14  0.12500000000E+03  0.12500000000E+03 0.  0.
        -11    1    3    3    0    0 -0.34020930670E+02  0.30378226225E+02 -0.11834524249E+02  0.47120232562E+02  0.51100000000E-03 0.  1.
         23    2    1    0    0    0 -0.18553545846E+02 -0.86311493234E+01  0.17298137252E+02  0.98205292416E+02  0.94479220489E+02 0.  0.
         11    1    3    3    0    0  0.15467384824E+02 -0.39009375548E+02  0.29132661501E+02  0.51085059855E+02  0.51100000000E-03 0. -1.
         22    1    1    0    0    0  0.18553545846E+02  0.86311493234E+01 -0.17298137252E+02  0.26794707584E+02  0.00000000000E+00 0.  1.
</event>
<event>
 5    1  0.3144657E-003  0.9118800E+02  0.7818608E-02  0.1130116E+00
         25   -1    0    0    0    0  0.00000000000E+00  0.00000000000E+00  0.99999998245E-14  0.12500000000E+03  0.12500000000E+03 0.  0.
        -11    1    3    3    0    0  0.42120779338E+02 -0.16938559295E+02 -0.33595284525E+01  0.45523194909E+02  0.51100000000E-03 0.  1.
         23    2    1    0    0    0  0.46223963742E+01 -0.99503722300E+01  0.28015298600E+02  0.94912902908E+02  0.90017918922E+02 0.  0.
         11    1    3    3    0    0 -0.37498382964E+02  0.69881870651E+01  0.31374827053E+02  0.49389707999E+02  0.51100000000E-03 0. -1.
         22    1    1    0    0    0 -0.46223963742E+01  0.99503722300E+01 -0.28015298600E+02  0.30087097092E+02  0.00000000000E+00 0. -1.
</event>
<event>
 5    1  0.3144657E-003  0.9118800E+02  0.7818608E-02  0.1130116E+00
         25   -1    0    0    0    0  0.00000000000E+00  0.00000000000E+00  0.99999998245E-14  0.12500000000E+03  0.12500000000E+03 0.  0.
        -11    1    3    3    0    0 -0.33212922392E+02 -0.20346490321E+02 -0.17081546282E+02  0.42530660774E+02  0.51100000000E-03 0. -1.
         23    2    1    0    0    0 -0.57926595711E+01 -0.52339470767E+01  0.27165724379E+02  0.96734726466E+02  0.92513142940E+02 0.  0.
         11    1    3    3    0    0  0.27420262821E+02  0.15112543244E+02  0.44247270661E+02  0.54204065693E+02  0.51100000000E-03 0.  1.
         22    1    1    0    0    0  0.57926595711E+01  0.52339470767E+01 -0.27165724379E+02  0.28265273534E+02  0.00000000000E+00 0. -1.
</event>
<event>
 5    1  0.3144657E-003  0.9118800E+02  0.7818608E-02  0.1130116E+00
         25   -1    0    0    0    0  0.00000000000E+00  0.00000000000E+00  0.99999998245E-14  0.12500000000E+03  0.12500000000E+03 0.  0.
        -11    1    3    3    0    0 -0.26575407651E+02  0.50781909427E+01 -0.33648379655E+02  0.43177005092E+02  0.51100000000E-03 0. -1.
         23    2    1    0    0    0  0.15411381814E+02 -0.20322580052E+02 -0.10993616391E+02  0.97226315499E+02  0.93174990608E+02 0.  0.
         11    1    3    3    0    0  0.41986789465E+02 -0.25400770995E+02  0.22654763263E+02  0.54049310407E+02  0.51100000000E-03 0.  1.
         22    1    1    0    0    0 -0.15411381814E+02  0.20322580052E+02  0.10993616391E+02  0.27773684501E+02  0.00000000000E+00 0.  1.
</event>
<event>
 5    1  0.3144657E-003  0.9118800E+02  0.7818608E-02  0.1130116E+00
         25   -1    0    0    0    0  0.00000000000E+00  0.00000000000E+00  0.99999998245E-14  0.12500000000E+03  0.12500000000E+03 0.  0.
        -11    1    3    3    0    0  0.20657975941E+02 -0.22383291752E+02  0.21063386458E+02  0.37032822860E+02  0.51100000000E-03 0.  1.
         23    2    1    0    0    0 -0.93406528118E+01 -0.66071807932E+01 -0.26902575862E+02  0.95765581569E+02  0.91194272804E+02 0.  0.
         11    1    3    3    0    0 -0.29998628753E+02  0.15776110959E+02 -0.47965962320E+02  0.58732758709E+02  0.51100000000E-03 0. -1.
         22    1    1    0    0    0  0.93406528118E+01  0.66071807932E+01  0.26902575862E+02  0.29234418431E+02  0.00000000000E+00 0. -1.
</event>
<event>
 5    1  0.3144657E-003  0.9118800E+02  0.7818608E-02  0.1130116E+00
         25   -1    0    0    0    0  0.00000000000E+00  0.00000000000E+00  0.99999998245E-14  0.12500000000E+03  0.12500000000E+03 0.  0.
        -11    1    3    3    0    0  0.37403612751E+02  0.58777831580E+01 -0.47073128816E+02  0.60410744396E+02  0.51100000000E-03 0.  1.
         23    2    1    0    0    0  0.17293515205E+02 -0.39470329698E+01 -0.77813360258E+01  0.10563007672E+03  0.10383890976E+03 0.  0.
         11    1    3    3    0    0 -0.20110097546E+02 -0.98248161278E+01  0.39291792790E+02  0.45219332328E+02  0.51100000000E-03 0. -1.
         22    1    1    0    0    0 -0.17293515205E+02  0.39470329698E+01  0.77813360258E+01  0.19369923277E+02  0.00000000000E+00 0.  1.
</event>
<event>
 5    1  0.3144657E-003  0.9118800E+02  0.7818608E-02  0.1130116E+00
         25   -1    0    0    0    0  0.00000000000E+00  0.00000000000E+00  0.99999998245E-14  0.12500000000E+03  0.12500000000E+03 0.  0.
        -11    1    3    3    0    0  0.33175357569E+02 -0.68336195690E+00  0.73442201509E+01  0.33985421923E+02  0.51100000000E-03 0.  1.
         23    2    1    0    0    0 -0.25663385659E+02 -0.33148747826E+01 -0.12666614080E+02  0.96189570108E+02  0.91773593843E+02 0.  0.
         11    1    3    3    0    0 -0.58838743229E+02 -0.26315128257E+01 -0.20010834231E+02  0.62204148184E+02  0.51100000000E-03 0. -1.
         22    1    1    0    0    0  0.25663385659E+02  0.33148747826E+01  0.12666614080E+02  0.28810429892E+02  0.00000000000E+00 0. -1.
</event>
<event>
 5    1  0.3144657E-003  0.9118800E+02  0.7818608E-02  0.1130116E+00
         25   -1    0    0    0    0  0.00000000000E+00  0.00000000000E+00  0.99999998245E-14  0.12500000000E+03  0.12500000000E+03 0.  0.
        -11    1    3    3    0    0 -0.25868647200E+02 -0.37197087690E+02 -0.56974164184E+01  0.45664765353E+02  0.51100000000E-03 0. -1.
         23    2    1    0    0    0 -0.11937077522E+01 -0.19335856948E+01 -0.29880877744E+02  0.95032842201E+02  0.90184314325E+02 0.  0.
         11    1    3    3    0    0  0.24674939448E+02  0.35263501996E+02 -0.24183461325E+02  0.49368076848E+02  0.51100000000E-03 0.  1.
         22    1    1    0    0    0  0.11937077522E+01  0.19335856948E+01  0.29880877744E+02  0.29967157799E+02  0.00000000000E+00 0. -1.
</event>
<event>
 5    1  0.3144657E-003  0.9118800E+02  0.7818608E-02  0.1130116E+00
         25   -1    0    0    0    0  0.00000000000E+00  0.00000000000E+00  0.99999998245E-14  0.12500000000E+03  0.12500000000E+03 0.  0.
        -11    1    3    3    0    0  0.97596099295E+01  0.37197107036E+02 -0.31462528229E+02  0.49686672667E+02  0.51100000000E-03 0.  1.
         23    2    1    0    0    0 -0.14408594842E+02 -0.13531382940E+01 -0.25640396873E+02  0.95557368658E+02  0.90908427356E+02 0.  0.
         11    1    3    3    0    0 -0.24168204772E+02 -0.38550245330E+02  0.58221313562E+01  0.45870695991E+02  0.51100000000E-03 0. -1.
         22    1    1    0    0    0  0.14408594842E+02  0.13531382940E+01  0.25640396873E+02  0.29442631342E+02  0.00000000000E+00 0.  1.
</event>
<event>
 5    1  0.3144657E-003  0.9118800E+02  0.7818608E-02  0.1130116E+00
         25   -1    0    0    0    0  0.00000000000E+00  0.00000000000E+00  0.99999998245E-14  0.12500000000E+03  0.12500000000E+03 0.  0.
        -11    1    3    3    0    0  0.14793692779E+02  0.38689576287E+02 -0.31158264981E+02  0.51832172791E+02  0.51100000000E-03 0.  1.
         23    2    1    0    0    0 -0.17628179300E+02  0.13514368459E+02 -0.21681007446E+02  0.93960397165E+02  0.88685395028E+02 0.  0.
         11    1    3    3    0    0 -0.32421872079E+02 -0.25175207828E+02  0.94772575347E+01  0.42128224374E+02  0.51100000000E-03 0. -1.
         22    1    1    0    0    0  0.17628179300E+02 -0.13514368459E+02  0.21681007446E+02  0.31039602835E+02  0.00000000000E+00 0. -1.
</event>
<event>
 5    1  0.3144657E-003  0.9118800E+02  0.7818608E-02  0.1130116E+00
         25   -1    0    0    0    0  0.00000000000E+00  0.00000000000E+00  0.99999998245E-14  0.12500000000E+03  0.12500000000E+03 0.  0.
        -11    1    3    3    0    0  0.29222027554E+02 -0.86128841093E+01 -0.49187737591E+02  0.57857948431E+02  0.51100000000E-03 0. -1.
         23    2    1    0    0    0  0.19719302576E+02  0.11940207789E+02 -0.25326612940E+02  0.90753003356E+02  0.84043148674E+02 0.  0.
         11    1    3    3    0    0 -0.95027249789E+01  0.20553091898E+02  0.23861124652E+02  0.32895054925E+02  0.51100000000E-03 0.  1.
         22    1    1    0    0    0 -0.19719302576E+02 -0.11940207789E+02  0.25326612940E+02  0.34246996644E+02  0.00000000000E+00 0. -1.
</event>
<event>
 5    1  0.3144657E-003  0.9118800E+02  0.7818608E-02  0.1130116E+00
         25   -1    0    0    0    0  0.00000000000E+00  0.00000000000E+00  0.99999998245E-14  0.12500000000E+03  0.12500000000E+03 0.  0.
        -11    1    3    3    0    0 -0.41757386460E+02 -0.35783663125E+02  0.12834084381E+02  0.56470023842E+02  0.51100000000E-03 0.  1.
         23    2    1    0    0    0  0.97664618974E+00 -0.22148345067E+02  0.72599787193E+01  0.10167168420E+03  0.98959188812E+02 0.  0.
         11    1    3    3    0    0  0.42734032649E+02  0.13635318058E+02 -0.55741056620E+01  0.45201660359E+02  0.51100000000E-03 0. -1.
         22    1    1    0    0    0 -0.97664618974E+00  0.22148345067E+02 -0.72599787193E+01  0.23328315799E+02  0.00000000000E+00 0.  1.
</event>
<event>
 5    1  0.3144657E-003  0.9118800E+02  0.7818608E-02  0.1130116E+00
         25   -1    0    0    0    0  0.00000000000E+00  0.00000000000E+00  0.99999998245E-14  0.12500000000E+03  0.12500000000E+03 0.  0.
        -11    1    3    3    0    0  0.40535900076E+02 -0.23915751436E+02 -0.27271845077E+02  0.54395550331E+02  0.51100000000E-03 0.  1.
         23    2    1    0    0    0  0.18404206342E+01 -0.22627074394E+02 -0.21851969114E+02  0.93489998446E+02  0.88019881911E+02 0.  0.
         11    1    3    3    0    0 -0.38695479441E+02  0.12886770419E+01  0.54198759622E+01  0.39094448115E+02  0.51100000000E-03 0. -1.
         22    1    1    0    0    0 -0.18404206342E+01  0.22627074394E+02  0.21851969114E+02  0.31510001554E+02  0.00000000000E+00 0.  1.
</event>
<event>
 5    1  0.3144657E-003  0.9118800E+02  0.7818608E-02  0.1130116E+00
         25   -1    0    0    0    0  0.00000000000E+00  0.00000000000E+00  0.99999998245E-14  0.12500000000E+03  0.12500000000E+03 0.  0.
        -11    1    3    3    0    0 -0.18492318931E+02 -0.27109687231E+02  0.51882994975E+01  0.33223778429E+02  0.51100000000E-03 0. -1.
         23    2    1    0    0    0  0.15620988832E+02  0.23339097464E+02 -0.85284447646E+01  0.95649307800E+02  0.91034756824E+02 0.  0.
         11    1    3    3    0    0  0.34113307762E+02  0.50448784695E+02 -0.13716744262E+02  0.62425529370E+02  0.51100000000E-03 0.  1.
         22    1    1    0    0    0 -0.15620988832E+02 -0.23339097464E+02  0.85284447646E+01  0.29350692200E+02  0.00000000000E+00 0.  1.
</event>
<event>
 5    1  0.3144657E-003  0.9118800E+02  0.7818608E-02  0.1130116E+00
         25   -1    0    0    0    0  0.00000000000E+00  0.00000000000E+00  0.99999998245E-14  0.12500000000E+03  0.12500000000E+03 0.  0.
        -11    1    3    3    0    0 -0.90889663205E+01  0.55246295477E+02 -0.15546418054E+02  0.58107259334E+02  0.51100000000E-03 0. -1.
         23    2    1    0    0    0 -0.20106907413E+02  0.22519481831E+02 -0.38511634560E+01  0.94565706060E+02  0.89534499022E+02 0.  0.
         11    1    3    3    0    0 -0.11017941092E+02 -0.32726813646E+02  0.11695254598E+02  0.36458446727E+02  0.51100000000E-03 0.  1.
         22    1    1    0    0    0  0.20106907413E+02 -0.22519481831E+02  0.38511634560E+01  0.30434293940E+02  0.00000000000E+00 0. -1.
</event>
<event>
 5    1  0.3144657E-003  0.9118800E+02  0.7818608E-02  0.1130116E+00
         25   -1    0    0    0    0  0.00000000000E+00  0.00000000000E+00  0.99999998245E-14  0.12500000000E+03  0.12500000000E+03 0.  0.
        -11    1    3    3    0    0  0.76661599596E+01  0.38991059724E+02  0.41311338812E+02  0.57321021115E+02  0.51100000000E-03 0.  1.
         23    2    1    0    0    0 -0.75969779228E+01  0.69977562905E+01  0.27948954709E+02  0.95203578470E+02  0.90420653711E+02 0.  0.
         11    1    3    3    0    0 -0.15263137882E+02 -0.31993303434E+02 -0.13362384103E+02  0.37882557355E+02  0.51100000000E-03 0. -1.
         22    1    1    0    0    0  0.75969779228E+01 -0.69977562905E+01 -0.27948954709E+02  0.29796421530E+02  0.00000000000E+00 0.  1.
</event>
<event>
 5    1  0.3144657E-003  0.9118800E+02  0.7818608E-02  0.1130116E+00
         25   -1    0    0    0    0  0.00000000000E+00  0.00000000000E+00  0.99999998245E-14  0.12500000000E+03  0.12500000000E+03 0.  0.
        -11    1    3    3    0    0 -0.45730427889E+02 -0.18131001659E+02  0.67934285266E+01  0.49660406034E+02  0.51100000000E-03 0.  1.
         23    2    1    0    0    0 -0.17153701813E+02  0.17468102644E+02  0.15347326638E+02  0.96104939335E+02  0.91658250222E+02 0.  0.
         11    1    3    3    0    0  0.28576726075E+02  0.35599104303E+02  0.85538981118E+01  0.46444533301E+02  0.51100000000E-03 0. -1.
         22    1    1    0    0    0  0.17153701813E+02 -0.17468102644E+02 -0.15347326638E+02  0.28895060665E+02  0.00000000000E+00 0.  1.
</event>
<event>
 5    1  0.3144657E-003  0.9118800E+02  0.7818608E-02  0.1130116E+00
         25   -1    0    0    0    0  0.00000000000E+00  0.00000000000E+00  0.99999998245E-14  0.12500000000E+03  0.12500000000E+03 0.  0.
        -11    1    3    3    0    0 -0.11159303250E+02  0.87666527092E+01  0.41937459290E+02  0.44273408957E+02  0.51100000000E-03 0.  1.
         23    2    1    0    0    0 -0.27885912689E+02 -0.57769062408E+01 -0.49118422318E+01  0.96101505812E+02  0.91653567596E+02 0.  0.
         11    1    3    3    0    0 -0.16726609439E+02 -0.14543558950E+02 -0.46849301522E+02  0.51828096855E+02  0.51100000000E-03 0. -1.
         22    1    1    0    0    0  0.27885912689E+02  0.57769062408E+01  0.49118422318E+01  0.28898494188E+02  0.00000000000E+00 0. -1.
</event>
<event>
 5    1  0.3144657E-003  0.9118800E+02  0.7818608E-02  0.1130116E+00
         25   -1    0    0    0    0  0.00000000000E+00  0.00000000000E+00  0.99999998245E-14  0.12500000000E+03  0.12500000000E+03 0.  0.
        -11    1    3    3    0    0  0.40271319209E+02  0.46678731268E+02 -0.46321711372E+01  0.61823459248E+02  0.51100000000E-03 0.  1.
         23    2    1    0    0    0  0.20274342309E+02  0.19229744453E+02 -0.79552027585E+01  0.95946303528E+02  0.91441652883E+02 0.  0.
         11    1    3    3    0    0 -0.19996976900E+02 -0.27448986815E+02 -0.33230316214E+01  0.34122844280E+02  0.51100000000E-03 0. -1.
         22    1    1    0    0    0 -0.20274342309E+02 -0.19229744453E+02  0.79552027585E+01  0.29053696472E+02  0.00000000000E+00 0.  1.
</event>
<event>
 5    1  0.3144657E-003  0.9118800E+02  0.7818608E-02  0.1130116E+00
         25   -1    0    0    0    0  0.00000000000E+00  0.00000000000E+00  0.99999998245E-14  0.12500000000E+03  0.12500000000E+03 0.  0.
        -11    1    3    3    0    0 -0.96684556305E+01 -0.19279283986E+02 -0.39915191495E+02  0.45369508898E+02  0.51100000000E-03 0.  1.
         23    2    1    0    0    0  0.18822272111E+02  0.15170832671E+02 -0.15021662269E+02  0.96538052970E+02  0.92247022947E+02 0.  0.
         11    1    3    3    0    0  0.28490727742E+02  0.34450116658E+02  0.24893529225E+02  0.51168544073E+02  0.51100000000E-03 0. -1.
         22    1    1    0    0    0 -0.18822272111E+02 -0.15170832671E+02  0.15021662269E+02  0.28461947030E+02  0.00000000000E+00 0. -1.
</event>
<event>
 5    1  0.3144657E-003  0.9118800E+02  0.7818608E-02  0.1130116E+00
         25   -1    0    0    0    0  0.00000000000E+00  0.00000000000E+00  0.99999998245E-14  0.12500000000E+03  0.12500000000E+03 0.  0.
        -11    1    3    3    0    0 -0.21118386105E+02 -0.86407472950E+01  0.42449219832E+02  0.48193205020E+02  0.51100000000E-03 0.  1.
         23    2    1    0    0    0  0.11485753915E+02  0.18240386044E+02  0.17241350712E+02  0.97397492860E+02  0.93404353298E+02 0.  0.
         11    1    3    3    0    0  0.32604140020E+02  0.26881133339E+02 -0.25207869120E+02  0.49204287840E+02  0.51100000000E-03 0. -1.
         22    1    1    0    0    0 -0.11485753915E+02 -0.18240386044E+02 -0.17241350712E+02  0.27602507140E+02  0.00000000000E+00 0.  1.
</event>
<event>
 5    1  0.3144657E-003  0.9118800E+02  0.7818608E-02  0.1130116E+00
         25   -1    0    0    0    0  0.00000000000E+00  0.00000000000E+00  0.99999998245E-14  0.12500000000E+03  0.12500000000E+03 0.  0.
        -11    1    3    3    0    0  0.21316590130E+02 -0.28724447818E+01 -0.53388310207E+02  0.57558314958E+02  0.51100000000E-03 0. -1.
         23    2    1    0    0    0  0.15381283741E+02 -0.18229140636E+02 -0.38243324439E+02  0.79928530953E+02  0.66008580793E+02 0.  0.
         11    1    3    3    0    0 -0.59353063891E+01 -0.15356695854E+02  0.15144985768E+02  0.22370215995E+02  0.51100000000E-03 0.  1.
         22    1    1    0    0    0 -0.15381283741E+02  0.18229140636E+02  0.38243324439E+02  0.45071469047E+02  0.00000000000E+00 0. -1.
</event>
<event>
 5    1  0.3144657E-003  0.9118800E+02  0.7818608E-02  0.1130116E+00
         25   -1    0    0    0    0  0.00000000000E+00  0.00000000000E+00  0.99999998245E-14  0.12500000000E+03  0.12500000000E+03 0.  0.
        -11    1    3    3    0    0 -0.39891272108E+02 -0.47060509993E+02  0.97865590489E+01  0.62464245209E+02  0.51100000000E-03 0. -1.
         23    2    1    0    0    0 -0.16949252230E+02 -0.21161502495E+02  0.30067504395E+01  0.97721310750E+02  0.93836707569E+02 0.  0.
         11    1    3    3    0    0  0.22942019879E+02  0.25899007498E+02 -0.67798086094E+01  0.35257065541E+02  0.51100000000E-03 0.  1.
         22    1    1    0    0    0  0.16949252230E+02  0.21161502495E+02 -0.30067504395E+01  0.27278689250E+02  0.00000000000E+00 0. -1.
</event>
<event>
 5    1  0.3144657E-003  0.9118800E+02  0.7818608E-02  0.1130116E+00
         25   -1    0    0    0    0  0.00000000000E+00  0.00000000000E+00  0.99999998245E-14  0.12500000000E+03  0.12500000000E+03 0.  0.
        -11    1    3    3    0    0  0.93620691202E+01  0.28781585159E+02 -0.15314964897E+02  0.33920143463E+02  0.51100000000E-03 0. -1.
         23    2    1    0    0    0 -0.21278604505E+02 -0.15747552988E+02  0.13619460141E+02  0.95229979353E+02  0.90457143655E+02 0.  0.
         11    1    3    3    0    0 -0.30640673625E+02 -0.44529138147E+02  0.28934425038E+02  0.61309835890E+02  0.51100000000E-03 0.  1.
         22    1    1    0    0    0  0.21278604505E+02  0.15747552988E+02 -0.13619460141E+02  0.29770020647E+02  0.00000000000E+00 0.  1.
</event>
<event>
 5    1  0.3144657E-003  0.9118800E+02  0.7818608E-02  0.1130116E+00
         25   -1    0    0    0    0  0.00000000000E+00  0.00000000000E+00  0.99999998245E-14  0.12500000000E+03  0.12500000000E+03 0.  0.
        -11    1    3    3    0    0  0.39040066302E+02 -0.47112778475E+01  0.39232898458E+02  0.55547666355E+02  0.51100000000E-03 0. -1.
         23    2    1    0    0    0  0.19037482383E+02 -0.21083741377E+02  0.92716167664E+01  0.95118354071E+02  0.90302760300E+02 0.  0.
         11    1    3    3    0    0 -0.20002583919E+02 -0.16372463530E+02 -0.29961281691E+02  0.39570687716E+02  0.51100000000E-03 0.  1.
         22    1    1    0    0    0 -0.19037482383E+02  0.21083741377E+02 -0.92716167664E+01  0.29881645929E+02  0.00000000000E+00 0. -1.
</event>
<event>
 5    1  0.3144657E-003  0.9118800E+02  0.7818608E-02  0.1130116E+00
         25   -1    0    0    0    0  0.00000000000E+00  0.00000000000E+00  0.99999998245E-14  0.12500000000E+03  0.12500000000E+03 0.  0.
        -11    1    3    3    0    0 -0.29574047186E+02  0.34758533767E+01  0.86751082964E+01  0.31015533654E+02  0.51100000000E-03 0. -1.
         23    2    1    0    0    0  0.23115602809E+02  0.24170571989E+02 -0.90834271926E+01  0.90343740925E+02  0.83432219384E+02 0.  0.
         11    1    3    3    0    0  0.52689649995E+02  0.20694718612E+02 -0.17758535489E+02  0.59328207271E+02  0.51100000000E-03 0.  1.
         22    1    1    0    0    0 -0.23115602809E+02 -0.24170571989E+02  0.90834271926E+01  0.34656259075E+02  0.00000000000E+00 0.  1.
</event>
<event>
 5    1  0.3144657E-003  0.9118800E+02  0.7818608E-02  0.1130116E+00
         25   -1    0    0    0    0  0.00000000000E+00  0.00000000000E+00  0.99999998245E-14  0.12500000000E+03  0.12500000000E+03 0.  0.
        -11    1    3    3    0    0  0.33025503192E+02  0.90824326346E+01  0.13216856706E+02  0.36713209409E+02  0.51100000000E-03 0.  1.
         23    2    1    0    0    0 -0.55985221627E+01 -0.84699273544E+00 -0.29388534981E+02  0.95070970022E+02  0.90237145930E+02 0.  0.
         11    1    3    3    0    0 -0.38624025355E+02 -0.99294253701E+01 -0.42605391687E+02  0.58357760614E+02  0.51100000000E-03 0. -1.
         22    1    1    0    0    0  0.55985221627E+01  0.84699273544E+00  0.29388534981E+02  0.29929029978E+02  0.00000000000E+00 0. -1.
</event>
<event>
 5    1  0.3144657E-003  0.9118800E+02  0.7818608E-02  0.1130116E+00
         25   -1    0    0    0    0  0.00000000000E+00  0.00000000000E+00  0.99999998245E-14  0.12500000000E+03  0.12500000000E+03 0.  0.
        -11    1    3    3    0    0 -0.44176037367E+02 -0.12231950065E+02  0.35253009280E+02  0.57826616219E+02  0.51100000000E-03 0.  1.
         23    2    1    0    0    0 -0.25606543971E+02  0.10284449798E+02  0.13180429559E+02  0.94419144467E+02  0.89329648587E+02 0.  0.
         11    1    3    3    0    0  0.18569493396E+02  0.22516399863E+02 -0.22072579720E+02  0.36592528247E+02  0.51100000000E-03 0. -1.
         22    1    1    0    0    0  0.25606543971E+02 -0.10284449798E+02 -0.13180429559E+02  0.30580855533E+02  0.00000000000E+00 0.  1.
</event>
<event>
 5    1  0.3144657E-003  0.9118800E+02  0.7818608E-02  0.1130116E+00
         25   -1    0    0    0    0  0.00000000000E+00  0.00000000000E+00  0.99999998245E-14  0.12500000000E+03  0.12500000000E+03 0.  0.
        -11    1    3    3    0    0 -0.52066769000E+02 -0.18543970460E+02  0.96085470299E+01  0.56099478169E+02  0.51100000000E-03 0.  1.
         23    2    1    0    0    0 -0.26153856107E+02 -0.32808062148E+00  0.22694399809E+02  0.90371000464E+02  0.83473050238E+02 0.  0.
         11    1    3    3    0    0  0.25912912893E+02  0.18215889839E+02  0.13085852779E+02  0.34271522296E+02  0.51100000000E-03 0. -1.
         22    1    1    0    0    0  0.26153856107E+02  0.32808062148E+00 -0.22694399809E+02  0.34628999536E+02  0.00000000000E+00 0.  1.
</event>
<event>
 5    1  0.3144657E-003  0.9118800E+02  0.7818608E-02  0.1130116E+00
         25   -1    0    0    0    0  0.00000000000E+00  0.00000000000E+00  0.99999998245E-14  0.12500000000E+03  0.12500000000E+03 0.  0.
        -11    1    3    3    0    0 -0.25724204953E+02 -0.18730256947E+01  0.33974662999E+02  0.42655839833E+02  0.51100000000E-03 0. -1.
         23    2    1    0    0    0  0.11038328942E+02  0.25350191188E+02  0.47318288676E+01  0.96948848445E+02  0.92802004888E+02 0.  0.
         11    1    3    3    0    0  0.36762533895E+02  0.27223216883E+02 -0.29242834131E+02  0.54293008612E+02  0.51100000000E-03 0.  1.
         22    1    1    0    0    0 -0.11038328942E+02 -0.25350191188E+02 -0.47318288676E+01  0.28051151555E+02  0.00000000000E+00 0.  1.
</event>
<event>
 5    1  0.3144657E-003  0.9118800E+02  0.7818608E-02  0.1130116E+00
         25   -1    0    0    0    0  0.00000000000E+00  0.00000000000E+00  0.99999998245E-14  0.12500000000E+03  0.12500000000E+03 0.  0.
        -11    1    3    3    0    0 -0.14225044495E+02 -0.21199116354E+00 -0.46700906930E+02  0.48819786352E+02  0.51100000000E-03 0.  1.
         23    2    1    0    0    0 -0.22448824967E+02  0.18312685880E+02 -0.44381277280E+01  0.95691278017E+02  0.91092367981E+02 0.  0.
         11    1    3    3    0    0 -0.82237804716E+01  0.18524677043E+02  0.42262779202E+02  0.46871491665E+02  0.51100000000E-03 0. -1.
         22    1    1    0    0    0  0.22448824967E+02 -0.18312685880E+02  0.44381277280E+01  0.29308721983E+02  0.00000000000E+00 0.  1.
</event>
<event>
 5    1  0.3144657E-003  0.9118800E+02  0.7818608E-02  0.1130116E+00
         25   -1    0    0    0    0  0.00000000000E+00  0.00000000000E+00  0.99999998245E-14  0.12500000000E+03  0.12500000000E+03 0.  0.
        -11    1    3    3    0    0  0.91131414086E+01  0.49029247446E+00 -0.59409567263E+02  0.60106459018E+02  0.51100000000E-03 0. -1.
         23    2    1    0    0    0 -0.41844916061E+01  0.90182555929E+01 -0.28440838391E+02  0.94871604883E+02  0.89960553693E+02 0.  0.
         11    1    3    3    0    0 -0.13297633015E+02  0.85279631185E+01  0.30968728872E+02  0.34765145864E+02  0.51100000000E-03 0.  1.
         22    1    1    0    0    0  0.41844916061E+01 -0.90182555929E+01  0.28440838391E+02  0.30128395117E+02  0.00000000000E+00 0. -1.
</event>
<event>
 5    1  0.3144657E-003  0.9118800E+02  0.7818608E-02  0.1130116E+00
         25   -1    0    0    0    0  0.00000000000E+00  0.00000000000E+00  0.99999998245E-14  0.12500000000E+03  0.12500000000E+03 0.  0.
        -11    1    3    3    0    0 -0.28477719618E+01 -0.15644216880E+02  0.34506593106E+02  0.37994161328E+02  0.51100000000E-03 0.  1.
         23    2    1    0    0    0  0.13136341094E+02 -0.20514209416E+02 -0.19036640513E+02  0.94084147637E+02  0.88859647250E+02 0.  0.
         11    1    3    3    0    0  0.15984113055E+02 -0.48699925351E+01 -0.53543233620E+02  0.56089986309E+02  0.51100000000E-03 0. -1.
         22    1    1    0    0    0 -0.13136341094E+02  0.20514209416E+02  0.19036640513E+02  0.30915852363E+02  0.00000000000E+00 0. -1.
</event>
<event>
 5    1  0.3144657E-003  0.9118800E+02  0.7818608E-02  0.1130116E+00
         25   -1    0    0    0    0  0.00000000000E+00  0.00000000000E+00  0.99999998245E-14  0.12500000000E+03  0.12500000000E+03 0.  0.
        -11    1    3    3    0    0  0.33954411883E+02  0.53698850682E+01  0.23198809206E+02  0.41471948361E+02  0.51100000000E-03 0.  1.
         23    2    1    0    0    0  0.12524987753E+02  0.32734466617E+01 -0.26429722108E+02  0.95570066565E+02  0.90925885430E+02 0.  0.
         11    1    3    3    0    0 -0.21429424130E+02 -0.20964384064E+01 -0.49628531314E+02  0.54098118204E+02  0.51100000000E-03 0. -1.
         22    1    1    0    0    0 -0.12524987753E+02 -0.32734466617E+01  0.26429722108E+02  0.29429933435E+02  0.00000000000E+00 0. -1.
</event>
<event>
 5    1  0.3144657E-003  0.9118800E+02  0.7818608E-02  0.1130116E+00
         25   -1    0    0    0    0  0.00000000000E+00  0.00000000000E+00  0.99999998245E-14  0.12500000000E+03  0.12500000000E+03 0.  0.
        -11    1    3    3    0    0 -0.13526000592E+02  0.27453526918E+01 -0.25138881321E+02  0.28678441515E+02  0.51100000000E-03 0. -1.
         23    2    1    0    0    0  0.30170876762E+02 -0.87230743716E+01  0.15976122355E+02  0.89763508736E+02  0.82558325952E+02 0.  0.
         11    1    3    3    0    0  0.43696877354E+02 -0.11468427063E+02  0.41115003676E+02  0.61085067221E+02  0.51100000000E-03 0.  1.
         22    1    1    0    0    0 -0.30170876762E+02  0.87230743716E+01 -0.15976122355E+02  0.35236491264E+02  0.00000000000E+00 0.  1.
</event>
<event>
 5    1  0.3144657E-003  0.9118800E+02  0.7818608E-02  0.1130116E+00
         25   -1    0    0    0    0  0.00000000000E+00  0.00000000000E+00  0.99999998245E-14  0.12500000000E+03  0.12500000000E+03 0.  0.
        -11    1    3    3    0    0 -0.62064958111E+01  0.30282549114E+02  0.41815369463E+02  0.52000754751E+02  0.51100000000E-03 0.  1.
         23    2    1    0    0    0  0.78865172997E+01 -0.63320977487E+01  0.30550048495E+02  0.92819290249E+02  0.87062176416E+02 0.  0.
         11    1    3    3    0    0  0.14093013111E+02 -0.36614646863E+02 -0.11265320968E+02  0.40818535498E+02  0.51100000000E-03 0. -1.
         22    1    1    0    0    0 -0.78865172997E+01  0.63320977487E+01 -0.30550048495E+02  0.32180709751E+02  0.00000000000E+00 0.  1.
</event>
<event>
 5    1  0.3144657E-003  0.9118800E+02  0.7818608E-02  0.1130116E+00
         25   -1    0    0    0    0  0.00000000000E+00  0.00000000000E+00  0.99999998245E-14  0.12500000000E+03  0.12500000000E+03 0.  0.
        -11    1    3    3    0    0 -0.29556325966E+02 -0.21403077305E+02 -0.27645799336E+02  0.45781637628E+02  0.51100000000E-03 0.  1.
         23    2    1    0    0    0  0.12485551972E+02 -0.12091054622E+02  0.11649050307E+02  0.10407673584E+03  0.10195187081E+03 0.  0.
         11    1    3    3    0    0  0.42041877939E+02  0.93120226831E+01  0.39294849643E+02  0.58295098214E+02  0.51100000000E-03 0. -1.
         22    1    1    0    0    0 -0.12485551972E+02  0.12091054622E+02 -0.11649050307E+02  0.20923264157E+02  0.00000000000E+00 0. -1.
</event>
<event>
 5    1  0.3144657E-003  0.9118800E+02  0.7818608E-02  0.1130116E+00
         25   -1    0    0    0    0  0.00000000000E+00  0.00000000000E+00  0.99999998245E-14  0.12500000000E+03  0.12500000000E+03 0.  0.
        -11    1    3    3    0    0 -0.17824397822E+02 -0.25272765557E+02 -0.12941202098E+02  0.33524566345E+02  0.51100000000E-03 0.  1.
         23    2    1    0    0    0 -0.91819488390E+01  0.29691800088E+02  0.78881240024E+01  0.92935476345E+02  0.87228831737E+02 0.  0.
         11    1    3    3    0    0  0.86424489830E+01  0.54964565645E+02  0.20829326100E+02  0.59410910000E+02  0.51100000000E-03 0. -1.
         22    1    1    0    0    0  0.91819488390E+01 -0.29691800088E+02 -0.78881240024E+01  0.32064523655E+02  0.00000000000E+00 0. -1.
</event>
<event>
 5    1  0.3144657E-003  0.9118800E+02  0.7818608E-02  0.1130116E+00
         25   -1    0    0    0    0  0.00000000000E+00  0.00000000000E+00  0.99999998245E-14  0.12500000000E+03  0.12500000000E+03 0.  0.
        -11    1    3    3    0    0 -0.47559442506E+02 -0.66140187990E+01  0.72311007344E+01  0.48558569113E+02  0.51100000000E-03 0.  1.
         23    2    1    0    0    0 -0.14000400897E+02  0.16823357290E+02 -0.18016320744E+02  0.96651730407E+02  0.92400933987E+02 0.  0.
         11    1    3    3    0    0  0.33559041610E+02  0.23437376089E+02 -0.25247421478E+02  0.48093161294E+02  0.51100000000E-03 0. -1.
         22    1    1    0    0    0  0.14000400897E+02 -0.16823357290E+02  0.18016320744E+02  0.28348269593E+02  0.00000000000E+00 0.  1.
</event>
<event>
 5    1  0.3144657E-003  0.9118800E+02  0.7818608E-02  0.1130116E+00
         25   -1    0    0    0    0  0.00000000000E+00  0.00000000000E+00  0.99999998245E-14  0.12500000000E+03  0.12500000000E+03 0.  0.
        -11    1    3    3    0    0  0.33330601430E+02  0.52420347715E+01  0.17354086465E+02  0.37941695238E+02  0.51100000000E-03 0.  1.
         23    2    1    0    0    0 -0.78908653728E+01  0.18208440233E+02 -0.21277230724E+02  0.95904749540E+02  0.91384831264E+02 0.  0.
         11    1    3    3    0    0 -0.41221466803E+02  0.12966405461E+02 -0.38631317189E+02  0.57963054302E+02  0.51100000000E-03 0. -1.
         22    1    1    0    0    0  0.78908653728E+01 -0.18208440233E+02  0.21277230724E+02  0.29095250460E+02  0.00000000000E+00 0. -1.
</event>
<event>
 5    1  0.3144657E-003  0.9118800E+02  0.7818608E-02  0.1130116E+00
         25   -1    0    0    0    0  0.00000000000E+00  0.00000000000E+00  0.99999998245E-14  0.12500000000E+03  0.12500000000E+03 0.  0.
        -11    1    3    3    0    0 -0.42394663190E+02 -0.36709917599E+02  0.11632424020E+02  0.57273369081E+02  0.51100000000E-03 0.  1.
         23    2    1    0    0    0 -0.60623458725E+01 -0.27343407285E+02  0.11310542555E+02  0.94794994913E+02  0.89854041246E+02 0.  0.
         11    1    3    3    0    0  0.36332317317E+02  0.93665103138E+01 -0.32188146576E+00  0.37521625832E+02  0.51100000000E-03 0. -1.
         22    1    1    0    0    0  0.60623458725E+01  0.27343407285E+02 -0.11310542555E+02  0.30205005087E+02  0.00000000000E+00 0.  1.
</event>
<event>
 5    1  0.3144657E-003  0.9118800E+02  0.7818608E-02  0.1130116E+00
         25   -1    0    0    0    0  0.00000000000E+00  0.00000000000E+00  0.99999998245E-14  0.12500000000E+03  0.12500000000E+03 0.  0.
        -11    1    3    3    0    0  0.32618655016E+02  0.31034162978E+02  0.36879358441E+02  0.58199510360E+02  0.51100000000E-03 0. -1.
         23    2    1    0    0    0  0.25161029586E+02  0.19454620259E+01  0.21001389567E+02  0.92168298916E+02  0.86122440333E+02 0.  0.
         11    1    3    3    0    0 -0.74576254300E+01 -0.29088700952E+02 -0.15877968874E+02  0.33968788556E+02  0.51100000000E-03 0.  1.
         22    1    1    0    0    0 -0.25161029586E+02 -0.19454620259E+01 -0.21001389567E+02  0.32831701084E+02  0.00000000000E+00 0. -1.
</event>
<event>
 5    1  0.3144657E-003  0.9118800E+02  0.7818608E-02  0.1130116E+00
         25   -1    0    0    0    0  0.00000000000E+00  0.00000000000E+00  0.99999998245E-14  0.12500000000E+03  0.12500000000E+03 0.  0.
        -11    1    3    3    0    0 -0.16489597792E+01  0.10424100656E+02  0.34109811549E+02  0.35705184315E+02  0.51100000000E-03 0.  1.
         23    2    1    0    0    0 -0.49630620053E+01 -0.20777432099E+02 -0.18354126513E+02  0.96836057997E+02  0.92649956822E+02 0.  0.
         11    1    3    3    0    0 -0.33141022261E+01 -0.31201532755E+02 -0.52463938062E+02  0.61130873681E+02  0.51100000000E-03 0. -1.
         22    1    1    0    0    0  0.49630620053E+01  0.20777432099E+02  0.18354126513E+02  0.28163942003E+02  0.00000000000E+00 0. -1.
</event>
<event>
 5    1  0.3144657E-003  0.9118800E+02  0.7818608E-02  0.1130116E+00
         25   -1    0    0    0    0  0.00000000000E+00  0.00000000000E+00  0.99999998245E-14  0.12500000000E+03  0.12500000000E+03 0.  0.
        -11    1    3    3    0    0 -0.24844317136E+02  0.39959135739E+02 -0.95859352651E+01  0.48019400019E+02  0.51100000000E-03 0.  1.
         23    2    1    0    0    0 -0.15624053881E+02 -0.56443836962E+01 -0.23171697275E+02  0.96488639429E+02  0.92180040450E+02 0.  0.
         11    1    3    3    0    0  0.92202632544E+01 -0.45603519436E+02 -0.13585762010E+02  0.48469239411E+02  0.51100000000E-03 0. -1.
         22    1    1    0    0    0  0.15624053881E+02  0.56443836962E+01  0.23171697275E+02  0.28511360571E+02  0.00000000000E+00 0. -1.
</event>
<event>
 5    1  0.3144657E-003  0.9118800E+02  0.7818608E-02  0.1130116E+00
         25   -1    0    0    0    0  0.00000000000E+00  0.00000000000E+00  0.99999998245E-14  0.12500000000E+03  0.12500000000E+03 0.  0.
        -11    1    3    3    0    0 -0.37793648190E+01 -0.94725311049E+01 -0.50164122371E+02  0.51190346917E+02  0.51100000000E-03 0. -1.
         23    2    1    0    0    0  0.20313089081E+02 -0.13703211667E+02 -0.93493302141E+01  0.98773876126E+02  0.95228509552E+02 0.  0.
         11    1    3    3    0    0  0.24092453900E+02 -0.42306805623E+01  0.40814792157E+02  0.47583529209E+02  0.51100000000E-03 0.  1.
         22    1    1    0    0    0 -0.20313089081E+02  0.13703211667E+02  0.93493302141E+01  0.26226123874E+02  0.00000000000E+00 0. -1.
</event>
<event>
 5    1  0.3144657E-003  0.9118800E+02  0.7818608E-02  0.1130116E+00
         25   -1    0    0    0    0  0.00000000000E+00  0.00000000000E+00  0.99999998245E-14  0.12500000000E+03  0.12500000000E+03 0.  0.
        -11    1    3    3    0    0  0.16662914581E+01 -0.59148526890E+02 -0.56389055685E+01  0.59440070800E+02  0.51100000000E-03 0.  1.
         23    2    1    0    0    0  0.85337588362E+01 -0.23505981999E+02 -0.13502788661E+02  0.96580261591E+02  0.92304200326E+02 0.  0.
         11    1    3    3    0    0  0.68674673781E+01  0.35642544891E+02 -0.78638830921E+01  0.37140190791E+02  0.51100000000E-03 0. -1.
         22    1    1    0    0    0 -0.85337588362E+01  0.23505981999E+02  0.13502788661E+02  0.28419738409E+02  0.00000000000E+00 0.  1.
</event>
<event>
 5    1  0.3144657E-003  0.9118800E+02  0.7818608E-02  0.1130116E+00
         25   -1    0    0    0    0  0.00000000000E+00  0.00000000000E+00  0.99999998245E-14  0.12500000000E+03  0.12500000000E+03 0.  0.
        -11    1    3    3    0    0 -0.15815841104E+02  0.57911578107E+02 -0.59314379906E+00  0.60035352323E+02  0.51100000000E-03 0. -1.
         23    2    1    0    0    0  0.84583375640E+00  0.28345664713E+02  0.89040904838E+01  0.95276693150E+02  0.90521673026E+02 0.  0.
         11    1    3    3    0    0  0.16661674860E+02 -0.29565913394E+02  0.94972342828E+01  0.35241340827E+02  0.51100000000E-03 0.  1.
         22    1    1    0    0    0 -0.84583375640E+00 -0.28345664713E+02 -0.89040904838E+01  0.29723306850E+02  0.00000000000E+00 0. -1.
</event>
<event>
 5    1  0.3144657E-003  0.9118800E+02  0.7818608E-02  0.1130116E+00
         25   -1    0    0    0    0  0.00000000000E+00  0.00000000000E+00  0.99999998245E-14  0.12500000000E+03  0.12500000000E+03 0.  0.
        -11    1    3    3    0    0  0.20766704818E+01  0.28079245530E+02  0.35886157703E+02  0.45613297455E+02  0.51100000000E-03 0.  1.
         23    2    1    0    0    0 -0.26335536133E+02 -0.31724067978E+01  0.48314470493E+01  0.98037664995E+02  0.94257181418E+02 0.  0.
         11    1    3    3    0    0 -0.28412206615E+02 -0.31251652327E+02 -0.31054710653E+02  0.52424367540E+02  0.51100000000E-03 0. -1.
         22    1    1    0    0    0  0.26335536133E+02  0.31724067978E+01 -0.48314470493E+01  0.26962335005E+02  0.00000000000E+00 0.  1.
</event>
<event>
 5    1  0.3144657E-003  0.9118800E+02  0.7818608E-02  0.1130116E+00
         25   -1    0    0    0    0  0.00000000000E+00  0.00000000000E+00  0.99999998245E-14  0.12500000000E+03  0.12500000000E+03 0.  0.
        -11    1    3    3    0    0 -0.31719712835E+02 -0.12453653301E+02 -0.10295718630E+02  0.35598251154E+02  0.51100000000E-03 0.  1.
         23    2    1    0    0    0  0.17208345452E+02  0.22018848767E+02 -0.95896724084E+01  0.95454802910E+02  0.90767288862E+02 0.  0.
         11    1    3    3    0    0  0.48928058287E+02  0.34472502068E+02  0.70604622154E+00  0.59856551755E+02  0.51100000000E-03 0. -1.
         22    1    1    0    0    0 -0.17208345452E+02 -0.22018848767E+02  0.95896724084E+01  0.29545197090E+02  0.00000000000E+00 0. -1.
</event>
<event>
 5    1  0.3144657E-003  0.9118800E+02  0.7818608E-02  0.1130116E+00
         25   -1    0    0    0    0  0.00000000000E+00  0.00000000000E+00  0.99999998245E-14  0.12500000000E+03  0.12500000000E+03 0.  0.
        -11    1    3    3    0    0 -0.54472150799E+02  0.46803104444E+01  0.25522561512E+02  0.60336735617E+02  0.51100000000E-03 0.  1.
         23    2    1    0    0    0 -0.21884292009E+02 -0.48358787696E+01  0.20445432220E+02  0.94663163335E+02  0.89670456861E+02 0.  0.
         11    1    3    3    0    0  0.32587858791E+02 -0.95161892140E+01 -0.50771292917E+01  0.34326427717E+02  0.51100000000E-03 0. -1.
         22    1    1    0    0    0  0.21884292009E+02  0.48358787696E+01 -0.20445432220E+02  0.30336836665E+02  0.00000000000E+00 0.  1.
</event>
<event>
 5    1  0.3144657E-003  0.9118800E+02  0.7818608E-02  0.1130116E+00
         25   -1    0    0    0    0  0.00000000000E+00  0.00000000000E+00  0.99999998245E-14  0.12500000000E+03  0.12500000000E+03 0.  0.
        -11    1    3    3    0    0 -0.19452363842E+02  0.15710070561E+02 -0.46714649964E+02  0.52985463078E+02  0.51100000000E-03 0.  1.
         23    2    1    0    0    0 -0.28394425666E+02  0.57275332338E+01 -0.65839679049E+01  0.95294837499E+02  0.90546724815E+02 0.  0.
         11    1    3    3    0    0 -0.89420618240E+01 -0.99825373274E+01  0.40130682059E+02  0.42309374421E+02  0.51100000000E-03 0. -1.
         22    1    1    0    0    0  0.28394425666E+02 -0.57275332338E+01  0.65839679049E+01  0.29705162501E+02  0.00000000000E+00 0.  1.
</event>
<event>
 5    1  0.3144657E-003  0.9118800E+02  0.7818608E-02  0.1130116E+00
         25   -1    0    0    0    0  0.00000000000E+00  0.00000000000E+00  0.99999998245E-14  0.12500000000E+03  0.12500000000E+03 0.  0.
        -11    1    3    3    0    0 -0.18381744150E+02 -0.20843300450E+02  0.16982962215E+02  0.32569198601E+02  0.51100000000E-03 0. -1.
         23    2    1    0    0    0  0.83597484443E+01  0.24860582837E+02 -0.15347481350E+02  0.94611200142E+02  0.89597991246E+02 0.  0.
         11    1    3    3    0    0  0.26741492595E+02  0.45703883287E+02 -0.32330443565E+02  0.62042001540E+02  0.51100000000E-03 0.  1.
         22    1    1    0    0    0 -0.83597484443E+01 -0.24860582837E+02  0.15347481350E+02  0.30388799858E+02  0.00000000000E+00 0.  1.
</event>
<event>
 5    1  0.3144657E-003  0.9118800E+02  0.7818608E-02  0.1130116E+00
         25   -1    0    0    0    0  0.00000000000E+00  0.00000000000E+00  0.99999998245E-14  0.12500000000E+03  0.12500000000E+03 0.  0.
        -11    1    3    3    0    0  0.24909853257E+02 -0.33244713738E+02 -0.27630880148E+02  0.49891655804E+02  0.51100000000E-03 0.  1.
         23    2    1    0    0    0  0.29336479098E+02  0.10433652682E+01  0.22103865503E+01  0.95561871227E+02  0.90914618223E+02 0.  0.
         11    1    3    3    0    0  0.44266258411E+01  0.34288079006E+02  0.29841266699E+02  0.45670215422E+02  0.51100000000E-03 0. -1.
         22    1    1    0    0    0 -0.29336479098E+02 -0.10433652682E+01 -0.22103865503E+01  0.29438128773E+02  0.00000000000E+00 0. -1.
</event>
<event>
 5    1  0.3144657E-003  0.9118800E+02  0.7818608E-02  0.1130116E+00
         25   -1    0    0    0    0  0.00000000000E+00  0.00000000000E+00  0.99999998245E-14  0.12500000000E+03  0.12500000000E+03 0.  0.
        -11    1    3    3    0    0 -0.49339029758E+02  0.15479512612E+02  0.19212963271E+02  0.55164237746E+02  0.51100000000E-03 0.  1.
         23    2    1    0    0    0 -0.19406108399E+02 -0.12926313397E+02  0.16335118074E+02  0.96530319571E+02  0.92236543153E+02 0.  0.
         11    1    3    3    0    0  0.29932921359E+02 -0.28405826008E+02 -0.28778451978E+01  0.41366081825E+02  0.51100000000E-03 0. -1.
         22    1    1    0    0    0  0.19406108399E+02  0.12926313397E+02 -0.16335118074E+02  0.28469680429E+02  0.00000000000E+00 0.  1.
</event>
<event>
 5    1  0.3144657E-003  0.9118800E+02  0.7818608E-02  0.1130116E+00
         25   -1    0    0    0    0  0.00000000000E+00  0.00000000000E+00  0.99999998245E-14  0.12500000000E+03  0.12500000000E+03 0.  0.
        -11    1    3    3    0    0 -0.20054456668E+02 -0.38689856319E+02  0.33295788428E+02  0.54842462942E+02  0.51100000000E-03 0.  1.
         23    2    1    0    0    0 -0.18894200402E+02 -0.18142359824E+02 -0.50140091530E+01  0.98330235910E+02  0.94644381648E+02 0.  0.
         11    1    3    3    0    0  0.11602562659E+01  0.20547496494E+02 -0.38309797581E+02  0.43487772968E+02  0.51100000000E-03 0. -1.
         22    1    1    0    0    0  0.18894200402E+02  0.18142359824E+02  0.50140091530E+01  0.26669764090E+02  0.00000000000E+00 0.  1.
</event>
<event>
 5    1  0.3144657E-003  0.9118800E+02  0.7818608E-02  0.1130116E+00
         25   -1    0    0    0    0  0.00000000000E+00  0.00000000000E+00  0.99999998245E-14  0.12500000000E+03  0.12500000000E+03 0.  0.
        -11    1    3    3    0    0 -0.11045698538E+02  0.97194003737E+00 -0.40404298454E+02  0.41898203511E+02  0.51100000000E-03 0.  1.
         23    2    1    0    0    0 -0.21123804946E+02  0.12352101339E+01  0.15541989971E+02  0.98745584529E+02  0.95191365849E+02 0.  0.
         11    1    3    3    0    0 -0.10078106407E+02  0.26327009656E+00  0.55946288425E+02  0.56847381018E+02  0.51100000000E-03 0. -1.
         22    1    1    0    0    0  0.21123804946E+02 -0.12352101339E+01 -0.15541989971E+02  0.26254415471E+02  0.00000000000E+00 0. -1.
</event>
<event>
 5    1  0.3144657E-003  0.9118800E+02  0.7818608E-02  0.1130116E+00
         25   -1    0    0    0    0  0.00000000000E+00  0.00000000000E+00  0.99999998245E-14  0.12500000000E+03  0.12500000000E+03 0.  0.
        -11    1    3    3    0    0 -0.19082049809E+02  0.22041142070E+02 -0.51864947858E+02  0.59497137622E+02  0.51100000000E-03 0. -1.
         23    2    1    0    0    0  0.58002090450E+00  0.19886532362E+02 -0.21787245730E+02  0.95495853340E+02  0.90823803791E+02 0.  0.
         11    1    3    3    0    0  0.19662070714E+02 -0.21546097078E+01  0.30077702128E+02  0.35998715718E+02  0.51100000000E-03 0.  1.
         22    1    1    0    0    0 -0.58002090450E+00 -0.19886532362E+02  0.21787245730E+02  0.29504146660E+02  0.00000000000E+00 0. -1.
</event>
<event>
 5    1  0.3144657E-003  0.9118800E+02  0.7818608E-02  0.1130116E+00
         25   -1    0    0    0    0  0.00000000000E+00  0.00000000000E+00  0.99999998245E-14  0.12500000000E+03  0.12500000000E+03 0.  0.
        -11    1    3    3    0    0  0.54298227936E+02  0.58635872363E+01  0.13264919921E+02  0.56201755427E+02  0.51100000000E-03 0.  1.
         23    2    1    0    0    0  0.25624479066E+02  0.22413224730E-01 -0.13655794712E+02  0.95963899040E+02  0.91465702643E+02 0.  0.
         11    1    3    3    0    0 -0.28673748870E+02 -0.58411740116E+01 -0.26920714633E+02  0.39762143613E+02  0.51100000000E-03 0. -1.
         22    1    1    0    0    0 -0.25624479066E+02 -0.22413224730E-01  0.13655794712E+02  0.29036100960E+02  0.00000000000E+00 0.  1.
</event>
<event>
 5    1  0.3144657E-003  0.9118800E+02  0.7818608E-02  0.1130116E+00
         25   -1    0    0    0    0  0.00000000000E+00  0.00000000000E+00  0.99999998245E-14  0.12500000000E+03  0.12500000000E+03 0.  0.
        -11    1    3    3    0    0  0.30324049940E+02  0.11500283848E+00  0.14189972365E+02  0.33480091792E+02  0.51100000000E-03 0. -1.
         23    2    1    0    0    0 -0.26061457556E+02 -0.10708408839E+02  0.18875823934E+02  0.91085897933E+02  0.84536823238E+02 0.  0.
         11    1    3    3    0    0 -0.56385507496E+02 -0.10823411678E+02  0.46858515696E+01  0.57605806141E+02  0.51100000000E-03 0.  1.
         22    1    1    0    0    0  0.26061457556E+02  0.10708408839E+02 -0.18875823934E+02  0.33914102067E+02  0.00000000000E+00 0.  1.
</event>
<event>
 5    1  0.3144657E-003  0.9118800E+02  0.7818608E-02  0.1130116E+00
         25   -1    0    0    0    0  0.00000000000E+00  0.00000000000E+00  0.99999998245E-14  0.12500000000E+03  0.12500000000E+03 0.  0.
        -11    1    3    3    0    0  0.16487412669E+02  0.46816387845E+02  0.33009100296E+02  0.59608805138E+02  0.51100000000E-03 0. -1.
         23    2    1    0    0    0  0.51951503175E+01  0.28441024176E+02  0.39161944729E+01  0.95824359096E+02  0.91274803610E+02 0.  0.
         11    1    3    3    0    0 -0.11292262351E+02 -0.18375363670E+02 -0.29092905823E+02  0.36215553958E+02  0.51100000000E-03 0.  1.
         22    1    1    0    0    0 -0.51951503175E+01 -0.28441024176E+02 -0.39161944729E+01  0.29175640904E+02  0.00000000000E+00 0. -1.
</event>
<event>
 5    1  0.3144657E-003  0.9118800E+02  0.7818608E-02  0.1130116E+00
         25   -1    0    0    0    0  0.00000000000E+00  0.00000000000E+00  0.99999998245E-14  0.12500000000E+03  0.12500000000E+03 0.  0.
        -11    1    3    3    0    0 -0.29490959973E+02 -0.39088522606E+02 -0.15533526238E+02  0.51370417142E+02  0.51100000000E-03 0.  1.
         23    2    1    0    0    0 -0.29117127569E+02  0.35008763180E+01 -0.49283732308E+01  0.95261941631E+02  0.90501300586E+02 0.  0.
         11    1    3    3    0    0  0.37383240417E+00  0.42589398924E+02  0.10605153007E+02  0.43891524489E+02  0.51100000000E-03 0. -1.
         22    1    1    0    0    0  0.29117127569E+02 -0.35008763180E+01  0.49283732308E+01  0.29738058369E+02  0.00000000000E+00 0. -1.
</event>
<event>
 5    1  0.3144657E-003  0.9118800E+02  0.7818608E-02  0.1130116E+00
         25   -1    0    0    0    0  0.00000000000E+00  0.00000000000E+00  0.99999998245E-14  0.12500000000E+03  0.12500000000E+03 0.  0.
        -11    1    3    3    0    0  0.53343447391E+02  0.97557538224E+01 -0.19672933450E+02  0.57686414544E+02  0.51100000000E-03 0.  1.
         23    2    1    0    0    0  0.24044849408E+02  0.76442672073E+01  0.84885610179E+01  0.98379607960E+02  0.94709566518E+02 0.  0.
         11    1    3    3    0    0 -0.29298597983E+02 -0.21114866152E+01  0.28161494468E+02  0.40693193416E+02  0.51100000000E-03 0. -1.
         22    1    1    0    0    0 -0.24044849408E+02 -0.76442672073E+01 -0.84885610179E+01  0.26620392040E+02  0.00000000000E+00 0.  1.
</event>
<event>
 5    1  0.3144657E-003  0.9118800E+02  0.7818608E-02  0.1130116E+00
         25   -1    0    0    0    0  0.00000000000E+00  0.00000000000E+00  0.99999998245E-14  0.12500000000E+03  0.12500000000E+03 0.  0.
        -11    1    3    3    0    0 -0.27744285252E+02  0.80899616512E+01 -0.30891018378E+02  0.42301865921E+02  0.51100000000E-03 0.  1.
         23    2    1    0    0    0 -0.70739506176E+01  0.21213674358E+02  0.17546268703E+02  0.96575850012E+02  0.92298225894E+02 0.  0.
         11    1    3    3    0    0  0.20670334635E+02  0.13123712707E+02  0.48437287081E+02  0.54273984092E+02  0.51100000000E-03 0. -1.
         22    1    1    0    0    0  0.70739506176E+01 -0.21213674358E+02 -0.17546268703E+02  0.28424149988E+02  0.00000000000E+00 0. -1.
</event>
<event>
 5    1  0.3144657E-003  0.9118800E+02  0.7818608E-02  0.1130116E+00
         25   -1    0    0    0    0  0.00000000000E+00  0.00000000000E+00  0.99999998245E-14  0.12500000000E+03  0.12500000000E+03 0.  0.
        -11    1    3    3    0    0  0.27342899335E+02 -0.19290224925E+02  0.28279528900E+02  0.43811855436E+02  0.51100000000E-03 0. -1.
         23    2    1    0    0    0 -0.15702658267E+02  0.10028084213E+02  0.21843962887E+02  0.96289467712E+02  0.91909558415E+02 0.  0.
         11    1    3    3    0    0 -0.43045557602E+02  0.29318309138E+02 -0.64355660129E+01  0.52477612276E+02  0.51100000000E-03 0.  1.
         22    1    1    0    0    0  0.15702658267E+02 -0.10028084213E+02 -0.21843962887E+02  0.28710532288E+02  0.00000000000E+00 0.  1.
</event>
<event>
 5    1  0.3144657E-003  0.9118800E+02  0.7818608E-02  0.1130116E+00
         25   -1    0    0    0    0  0.00000000000E+00  0.00000000000E+00  0.99999998245E-14  0.12500000000E+03  0.12500000000E+03 0.  0.
        -11    1    3    3    0    0  0.29244268033E+02  0.49502919712E+02 -0.11532514743E+02  0.58640985405E+02  0.51100000000E-03 0. -1.
         23    2    1    0    0    0  0.23323041565E+01  0.27023807759E+02 -0.15216420549E+02  0.93899111222E+02  0.88598971808E+02 0.  0.
         11    1    3    3    0    0 -0.26911963876E+02 -0.22479111952E+02 -0.36839058055E+01  0.35258125817E+02  0.51100000000E-03 0.  1.
         22    1    1    0    0    0 -0.23323041565E+01 -0.27023807759E+02  0.15216420549E+02  0.31100888778E+02  0.00000000000E+00 0. -1.
</event>
<event>
 5    1  0.3144657E-003  0.9118800E+02  0.7818608E-02  0.1130116E+00
         25   -1    0    0    0    0  0.00000000000E+00  0.00000000000E+00  0.99999998245E-14  0.12500000000E+03  0.12500000000E+03 0.  0.
        -11    1    3    3    0    0 -0.15889340872E+02 -0.56664457441E+02  0.18805032831E+02  0.61781559955E+02  0.51100000000E-03 0.  1.
         23    2    1    0    0    0 -0.82225978001E+01 -0.23835352029E+02  0.14882944347E+02  0.95721387441E+02  0.91133675775E+02 0.  0.
         11    1    3    3    0    0  0.76667430716E+01  0.32829105412E+02 -0.39220884834E+01  0.33939827486E+02  0.51100000000E-03 0. -1.
         22    1    1    0    0    0  0.82225978001E+01  0.23835352029E+02 -0.14882944347E+02  0.29278612559E+02  0.00000000000E+00 0.  1.
</event>
<event>
 5    1  0.3144657E-003  0.9118800E+02  0.7818608E-02  0.1130116E+00
         25   -1    0    0    0    0  0.00000000000E+00  0.00000000000E+00  0.99999998245E-14  0.12500000000E+03  0.12500000000E+03 0.  0.
        -11    1    3    3    0    0 -0.53612382770E+02 -0.18313316237E+02 -0.40796911166E+01  0.56800607548E+02  0.51100000000E-03 0.  1.
         23    2    1    0    0    0 -0.33297696906E+02 -0.65296400832E+01 -0.20407795572E+02  0.85403902478E+02  0.75670176552E+02 0.  0.
         11    1    3    3    0    0  0.20314685864E+02  0.11783676154E+02 -0.16328104456E+02  0.28603294930E+02  0.51100000000E-03 0. -1.
         22    1    1    0    0    0  0.33297696906E+02  0.65296400832E+01  0.20407795572E+02  0.39596097522E+02  0.00000000000E+00 0.  1.
</event>
<event>
 5    1  0.3144657E-003  0.9118800E+02  0.7818608E-02  0.1130116E+00
         25   -1    0    0    0    0  0.00000000000E+00  0.00000000000E+00  0.99999998245E-14  0.12500000000E+03  0.12500000000E+03 0.  0.
        -11    1    3    3    0    0 -0.24615201545E+02 -0.20159114123E+02 -0.46307956649E+02  0.56184738840E+02  0.51100000000E-03 0.  1.
         23    2    1    0    0    0 -0.29353097433E+02 -0.86263369122E+01 -0.12984601654E+02  0.91764207583E+02  0.85533922486E+02 0.  0.
         11    1    3    3    0    0 -0.47378958886E+01  0.11532777211E+02  0.33323354995E+02  0.35579468743E+02  0.51100000000E-03 0. -1.
         22    1    1    0    0    0  0.29353097433E+02  0.86263369122E+01  0.12984601654E+02  0.33235792417E+02  0.00000000000E+00 0.  1.
</event>
<event>
 5    1  0.3144657E-003  0.9118800E+02  0.7818608E-02  0.1130116E+00
         25   -1    0    0    0    0  0.00000000000E+00  0.00000000000E+00  0.99999998245E-14  0.12500000000E+03  0.12500000000E+03 0.  0.
        -11    1    3    3    0    0  0.16035540238E+01 -0.53293613503E+01 -0.34240136234E+02  0.34689485547E+02  0.51100000000E-03 0.  1.
         23    2    1    0    0    0  0.15014725518E+02  0.72573504849E+00  0.25054083712E+02  0.95782269348E+02  0.91217143877E+02 0.  0.
         11    1    3    3    0    0  0.13411171495E+02  0.60550963987E+01  0.59294219947E+02  0.61092783801E+02  0.51100000000E-03 0. -1.
         22    1    1    0    0    0 -0.15014725518E+02 -0.72573504849E+00 -0.25054083712E+02  0.29217730652E+02  0.00000000000E+00 0. -1.
</event>
<event>
 5    1  0.3144657E-003  0.9118800E+02  0.7818608E-02  0.1130116E+00
         25   -1    0    0    0    0  0.00000000000E+00  0.00000000000E+00  0.99999998245E-14  0.12500000000E+03  0.12500000000E+03 0.  0.
        -11    1    3    3    0    0  0.51843589065E+02  0.25942072006E+02  0.20657737637E+02  0.61542594613E+02  0.51100000000E-03 0. -1.
         23    2    1    0    0    0  0.28810460956E+02  0.59105612360E+01  0.86591498201E+01  0.94341261112E+02  0.89220598955E+02 0.  0.
         11    1    3    3    0    0 -0.23033128109E+02 -0.20031510770E+02 -0.11998587817E+02  0.32798666499E+02  0.51100000000E-03 0.  1.
         22    1    1    0    0    0 -0.28810460956E+02 -0.59105612360E+01 -0.86591498201E+01  0.30658738888E+02  0.00000000000E+00 0. -1.
</event>
<event>
 5    1  0.3144657E-003  0.9118800E+02  0.7818608E-02  0.1130116E+00
         25   -1    0    0    0    0  0.00000000000E+00  0.00000000000E+00  0.99999998245E-14  0.12500000000E+03  0.12500000000E+03 0.  0.
        -11    1    3    3    0    0 -0.18536905024E+02 -0.53053375068E+02  0.83610174170E+01  0.56817110684E+02  0.51100000000E-03 0. -1.
         23    2    1    0    0    0  0.23093820269E+01 -0.25254790440E+02  0.19173870279E+02  0.93207312366E+02  0.87617510188E+02 0.  0.
         11    1    3    3    0    0  0.20846287051E+02  0.27798584629E+02  0.10812852862E+02  0.36390201682E+02  0.51100000000E-03 0.  1.
         22    1    1    0    0    0 -0.23093820269E+01  0.25254790440E+02 -0.19173870279E+02  0.31792687634E+02  0.00000000000E+00 0. -1.
</event>
<event>
 5    1  0.3144657E-003  0.9118800E+02  0.7818608E-02  0.1130116E+00
         25   -1    0    0    0    0  0.00000000000E+00  0.00000000000E+00  0.99999998245E-14  0.12500000000E+03  0.12500000000E+03 0.  0.
        -11    1    3    3    0    0 -0.10411001885E+02  0.23592098508E+02 -0.53492825830E+02  0.59383991848E+02  0.51100000000E-03 0. -1.
         23    2    1    0    0    0  0.91833578231E+01  0.12201304534E+02 -0.19685308967E+02  0.10008580159E+03  0.96935289744E+02 0.  0.
         11    1    3    3    0    0  0.19594359708E+02 -0.11390793974E+02  0.33807516863E+02  0.40701809744E+02  0.51100000000E-03 0.  1.
         22    1    1    0    0    0 -0.91833578231E+01 -0.12201304534E+02  0.19685308967E+02  0.24914198409E+02  0.00000000000E+00 0. -1.
</event>
<event>
 5    1  0.3144657E-003  0.9118800E+02  0.7818608E-02  0.1130116E+00
         25   -1    0    0    0    0  0.00000000000E+00  0.00000000000E+00  0.99999998245E-14  0.12500000000E+03  0.12500000000E+03 0.  0.
        -11    1    3    3    0    0 -0.48149087094E+01  0.35502010195E+02  0.37951465820E+02  0.52190897980E+02  0.51100000000E-03 0. -1.
         23    2    1    0    0    0 -0.25796318627E+02  0.70374965573E+01  0.15133469646E+02  0.94275444413E+02  0.89128340628E+02 0.  0.
         11    1    3    3    0    0 -0.20981409918E+02 -0.28464513638E+02 -0.22817996174E+02  0.42084546433E+02  0.51100000000E-03 0.  1.
         22    1    1    0    0    0  0.25796318627E+02 -0.70374965573E+01 -0.15133469646E+02  0.30724555587E+02  0.00000000000E+00 0. -1.
</event>
<event>
 5    1  0.3144657E-003  0.9118800E+02  0.7818608E-02  0.1130116E+00
         25   -1    0    0    0    0  0.00000000000E+00  0.00000000000E+00  0.99999998245E-14  0.12500000000E+03  0.12500000000E+03 0.  0.
        -11    1    3    3    0    0  0.44939714180E+02 -0.32187961717E+02  0.25260346825E+02  0.60776047190E+02  0.51100000000E-03 0. -1.
         23    2    1    0    0    0  0.20461513306E+02 -0.81445268934E+01  0.19534471945E+02  0.95561887981E+02  0.90914641259E+02 0.  0.
         11    1    3    3    0    0 -0.24478200874E+02  0.24043434824E+02 -0.57258748802E+01  0.34785840791E+02  0.51100000000E-03 0.  1.
         22    1    1    0    0    0 -0.20461513306E+02  0.81445268934E+01 -0.19534471945E+02  0.29438112019E+02  0.00000000000E+00 0. -1.
</event>
<event>
 5    1  0.3144657E-003  0.9118800E+02  0.7818608E-02  0.1130116E+00
         25   -1    0    0    0    0  0.00000000000E+00  0.00000000000E+00  0.99999998245E-14  0.12500000000E+03  0.12500000000E+03 0.  0.
        -11    1    3    3    0    0 -0.29619825427E+02 -0.25825544005E+00  0.39895303980E+02  0.49689395590E+02  0.51100000000E-03 0.  1.
         23    2    1    0    0    0 -0.14146631447E+01  0.25575780128E+02  0.16723315188E+02  0.94409297625E+02  0.89315868725E+02 0.  0.
         11    1    3    3    0    0  0.28205162282E+02  0.25834035568E+02 -0.23171988792E+02  0.44719902034E+02  0.51100000000E-03 0. -1.
         22    1    1    0    0    0  0.14146631447E+01 -0.25575780128E+02 -0.16723315188E+02  0.30590702375E+02  0.00000000000E+00 0.  1.
</event>
<event>
 5    1  0.3144657E-003  0.9118800E+02  0.7818608E-02  0.1130116E+00
         25   -1    0    0    0    0  0.00000000000E+00  0.00000000000E+00  0.99999998245E-14  0.12500000000E+03  0.12500000000E+03 0.  0.
        -11    1    3    3    0    0  0.13179308398E+02 -0.37196448781E+02 -0.37773554114E+02  0.54627020442E+02  0.51100000000E-03 0.  1.
         23    2    1    0    0    0  0.75689093828E+00  0.25101778070E+01 -0.27359621279E+02  0.97515044969E+02  0.93561537195E+02 0.  0.
         11    1    3    3    0    0 -0.12422417459E+02  0.39706626588E+02  0.10413932835E+02  0.42888024527E+02  0.51100000000E-03 0. -1.
         22    1    1    0    0    0 -0.75689093828E+00 -0.25101778070E+01  0.27359621279E+02  0.27484955031E+02  0.00000000000E+00 0.  1.
</event>
<event>
 5    1  0.3144657E-003  0.9118800E+02  0.7818608E-02  0.1130116E+00
         25   -1    0    0    0    0  0.00000000000E+00  0.00000000000E+00  0.99999998245E-14  0.12500000000E+03  0.12500000000E+03 0.  0.
        -11    1    3    3    0    0 -0.74272748562E+01  0.36640895474E+02 -0.19351375899E+02  0.42097451020E+02  0.51100000000E-03 0.  1.
         23    2    1    0    0    0 -0.14534111214E+02  0.86422019280E+01  0.24875076024E+02  0.94921811056E+02  0.90030288037E+02 0.  0.
         11    1    3    3    0    0 -0.71068363577E+01 -0.27998693546E+02  0.44226451923E+02  0.52824360036E+02  0.51100000000E-03 0. -1.
         22    1    1    0    0    0  0.14534111214E+02 -0.86422019280E+01 -0.24875076024E+02  0.30078188944E+02  0.00000000000E+00 0.  1.
</event>
<event>
 5    1  0.3144657E-003  0.9118800E+02  0.7818608E-02  0.1130116E+00
         25   -1    0    0    0    0  0.00000000000E+00  0.00000000000E+00  0.99999998245E-14  0.12500000000E+03  0.12500000000E+03 0.  0.
        -11    1    3    3    0    0  0.36184951492E+02  0.53353118206E+01 -0.27653604463E+02  0.45853441602E+02  0.51100000000E-03 0. -1.
         23    2    1    0    0    0 -0.15687230034E+02  0.74144968037E+01 -0.20315396107E+02  0.98283352231E+02  0.94582440536E+02 0.  0.
         11    1    3    3    0    0 -0.51872181526E+02  0.20791849832E+01  0.73382083551E+01  0.52429910629E+02  0.51100000000E-03 0.  1.
         22    1    1    0    0    0  0.15687230034E+02 -0.74144968037E+01  0.20315396107E+02  0.26716647769E+02  0.00000000000E+00 0.  1.
</event>
<event>
 5    1  0.3144657E-003  0.9118800E+02  0.7818608E-02  0.1130116E+00
         25   -1    0    0    0    0  0.00000000000E+00  0.00000000000E+00  0.99999998245E-14  0.12500000000E+03  0.12500000000E+03 0.  0.
        -11    1    3    3    0    0  0.21749252805E+02 -0.55808184501E+02  0.17559283603E+02  0.62417240373E+02  0.51100000000E-03 0. -1.
         23    2    1    0    0    0  0.10944469020E+02 -0.25773579455E+02  0.60113651493E+01  0.96360947798E+02  0.92006722306E+02 0.  0.
         11    1    3    3    0    0 -0.10804783785E+02  0.30034605046E+02 -0.11547918454E+02  0.33943707425E+02  0.51100000000E-03 0.  1.
         22    1    1    0    0    0 -0.10944469020E+02  0.25773579455E+02 -0.60113651493E+01  0.28639052202E+02  0.00000000000E+00 0. -1.
</event>
<event>
 5    1  0.3144657E-003  0.9118800E+02  0.7818608E-02  0.1130116E+00
         25   -1    0    0    0    0  0.00000000000E+00  0.00000000000E+00  0.99999998245E-14  0.12500000000E+03  0.12500000000E+03 0.  0.
        -11    1    3    3    0    0  0.81236597741E+00 -0.87679828520E+01 -0.57183922859E+02  0.57857916447E+02  0.51100000000E-03 0.  1.
         23    2    1    0    0    0  0.78073365993E+01  0.11229083141E+02 -0.26989762606E+02  0.94742866982E+02  0.89781494449E+02 0.  0.
         11    1    3    3    0    0  0.69949706219E+01  0.19997065993E+02  0.30194160253E+02  0.36884950535E+02  0.51100000000E-03 0. -1.
         22    1    1    0    0    0 -0.78073365993E+01 -0.11229083141E+02  0.26989762606E+02  0.30257133018E+02  0.00000000000E+00 0.  1.
</event>
<event>
 5    1  0.3144657E-003  0.9118800E+02  0.7818608E-02  0.1130116E+00
         25   -1    0    0    0    0  0.00000000000E+00  0.00000000000E+00  0.99999998245E-14  0.12500000000E+03  0.12500000000E+03 0.  0.
        -11    1    3    3    0    0  0.89054691796E+01 -0.52892507811E+02  0.22808156791E+02  0.58284961871E+02  0.51100000000E-03 0.  1.
         23    2    1    0    0    0  0.48814192308E+01 -0.13754305093E+02  0.23152818888E+02  0.97630999565E+02  0.93716326706E+02 0.  0.
         11    1    3    3    0    0 -0.40240499488E+01  0.39138202718E+02  0.34466209733E+00  0.39346037694E+02  0.51100000000E-03 0. -1.
         22    1    1    0    0    0 -0.48814192308E+01  0.13754305093E+02 -0.23152818888E+02  0.27369000435E+02  0.00000000000E+00 0.  1.
</event>
<event>
 5    1  0.3144657E-003  0.9118800E+02  0.7818608E-02  0.1130116E+00
         25   -1    0    0    0    0  0.00000000000E+00  0.00000000000E+00  0.99999998245E-14  0.12500000000E+03  0.12500000000E+03 0.  0.
        -11    1    3    3    0    0  0.74098950634E+00 -0.35656174942E+00  0.47436714550E+02  0.47443841426E+02  0.51100000000E-03 0. -1.
         23    2    1    0    0    0  0.23947309704E+02 -0.15196582320E+02  0.80307314201E+01  0.95522849469E+02  0.90860950729E+02 0.  0.
         11    1    3    3    0    0  0.23206320198E+02 -0.14840020570E+02 -0.39405983130E+02  0.48079008043E+02  0.51100000000E-03 0.  1.
         22    1    1    0    0    0 -0.23947309704E+02  0.15196582320E+02 -0.80307314201E+01  0.29477150531E+02  0.00000000000E+00 0. -1.
</event>
<event>
 5    1  0.3144657E-003  0.9118800E+02  0.7818608E-02  0.1130116E+00
         25   -1    0    0    0    0  0.00000000000E+00  0.00000000000E+00  0.99999998245E-14  0.12500000000E+03  0.12500000000E+03 0.  0.
        -11    1    3    3    0    0 -0.31127122368E+02 -0.51899165052E+02  0.56903860336E+01  0.60784879480E+02  0.51100000000E-03 0. -1.
         23    2    1    0    0    0 -0.21942371372E+02 -0.16680782635E+02  0.27704579086E+01  0.97298165985E+02  0.93271332661E+02 0.  0.
         11    1    3    3    0    0  0.91847509963E+01  0.35218382416E+02 -0.29199281250E+01  0.36513286505E+02  0.51100000000E-03 0.  1.
         22    1    1    0    0    0  0.21942371372E+02  0.16680782635E+02 -0.27704579086E+01  0.27701834015E+02  0.00000000000E+00 0. -1.
</event>
<event>
 5    1  0.3144657E-003  0.9118800E+02  0.7818608E-02  0.1130116E+00
         25   -1    0    0    0    0  0.00000000000E+00  0.00000000000E+00  0.99999998245E-14  0.12500000000E+03  0.12500000000E+03 0.  0.
        -11    1    3    3    0    0 -0.28264123068E+02  0.11780417413E+02  0.27231835211E+02  0.40978186105E+02  0.51100000000E-03 0. -1.
         23    2    1    0    0    0  0.15962904173E+02 -0.18889204532E+02  0.14670414738E+02  0.96245219075E+02  0.91849359109E+02 0.  0.
         11    1    3    3    0    0  0.44227027241E+02 -0.30669621944E+02 -0.12561420473E+02  0.55267032970E+02  0.51100000000E-03 0.  1.
         22    1    1    0    0    0 -0.15962904173E+02  0.18889204532E+02 -0.14670414738E+02  0.28754780925E+02  0.00000000000E+00 0.  1.
</event>
<event>
 5    1  0.3144657E-003  0.9118800E+02  0.7818608E-02  0.1130116E+00
         25   -1    0    0    0    0  0.00000000000E+00  0.00000000000E+00  0.99999998245E-14  0.12500000000E+03  0.12500000000E+03 0.  0.
        -11    1    3    3    0    0  0.20213738802E+02 -0.26756080627E+02  0.20080303438E+02  0.39085824454E+02  0.51100000000E-03 0.  1.
         23    2    1    0    0    0  0.18277148292E+02  0.22909059758E+02 -0.58029361692E+01  0.95124370519E+02  0.90311088078E+02 0.  0.
         11    1    3    3    0    0 -0.19365905100E+01  0.49665140385E+02 -0.25883239607E+02  0.56038546065E+02  0.51100000000E-03 0. -1.
         22    1    1    0    0    0 -0.18277148292E+02 -0.22909059758E+02  0.58029361692E+01  0.29875629481E+02  0.00000000000E+00 0. -1.
</event>
<event>
 5    1  0.3144657E-003  0.9118800E+02  0.7818608E-02  0.1130116E+00
         25   -1    0    0    0    0  0.00000000000E+00  0.00000000000E+00  0.99999998245E-14  0.12500000000E+03  0.12500000000E+03 0.  0.
        -11    1    3    3    0    0  0.40701148450E+02 -0.10858475227E+01  0.28853102932E+02  0.49902546018E+02  0.51100000000E-03 0.  1.
         23    2    1    0    0    0  0.24856699061E+01 -0.23193844966E+02  0.18443913325E+02  0.95262633978E+02  0.90502256848E+02 0.  0.
         11    1    3    3    0    0 -0.38215478544E+02 -0.22107997443E+02 -0.10409189607E+02  0.45360087961E+02  0.51100000000E-03 0. -1.
         22    1    1    0    0    0 -0.24856699061E+01  0.23193844966E+02 -0.18443913325E+02  0.29737366022E+02  0.00000000000E+00 0.  1.
</event>
<event>
 5    1  0.3144657E-003  0.9118800E+02  0.7818608E-02  0.1130116E+00
         25   -1    0    0    0    0  0.00000000000E+00  0.00000000000E+00  0.99999998245E-14  0.12500000000E+03  0.12500000000E+03 0.  0.
        -11    1    3    3    0    0 -0.18462616733E+02  0.50748436692E+02  0.17821386032E+02  0.56867159624E+02  0.51100000000E-03 0.  1.
         23    2    1    0    0    0  0.92573755470E+01  0.24965642134E+02  0.83551852391E+00  0.98360173042E+02  0.94683912363E+02 0.  0.
         11    1    3    3    0    0  0.27719992280E+02 -0.25782794558E+02 -0.16985867508E+02  0.41493013418E+02  0.51100000000E-03 0. -1.
         22    1    1    0    0    0 -0.92573755470E+01 -0.24965642134E+02 -0.83551852391E+00  0.26639826958E+02  0.00000000000E+00 0.  1.
</event>
<event>
 5    1  0.3144657E-003  0.9118800E+02  0.7818608E-02  0.1130116E+00
         25   -1    0    0    0    0  0.00000000000E+00  0.00000000000E+00  0.99999998245E-14  0.12500000000E+03  0.12500000000E+03 0.  0.
        -11    1    3    3    0    0 -0.23849936695E+01 -0.34489254201E+02  0.11737217118E+02  0.36509712626E+02  0.51100000000E-03 0. -1.
         23    2    1    0    0    0 -0.10576030154E+02  0.25197407747E+02  0.59472858061E+01  0.97033377403E+02  0.92915791719E+02 0.  0.
         11    1    3    3    0    0 -0.81910364845E+01  0.59686661948E+02 -0.57899313124E+01  0.60523664777E+02  0.51100000000E-03 0.  1.
         22    1    1    0    0    0  0.10576030154E+02 -0.25197407747E+02 -0.59472858061E+01  0.27966622597E+02  0.00000000000E+00 0.  1.
</event>
<event>
 5    1  0.3144657E-003  0.9118800E+02  0.7818608E-02  0.1130116E+00
         25   -1    0    0    0    0  0.00000000000E+00  0.00000000000E+00  0.99999998245E-14  0.12500000000E+03  0.12500000000E+03 0.  0.
        -11    1    3    3    0    0 -0.11491052305E+02 -0.12682441250E+02 -0.31902739008E+02  0.36203223000E+02  0.51100000000E-03 0. -1.
         23    2    1    0    0    0  0.13481955671E+02 -0.25628849186E+02  0.16119359978E+02  0.91857356692E+02  0.85669943230E+02 0.  0.
         11    1    3    3    0    0  0.24973007976E+02 -0.12946407936E+02  0.48022098986E+02  0.55654133692E+02  0.51100000000E-03 0.  1.
         22    1    1    0    0    0 -0.13481955671E+02  0.25628849186E+02 -0.16119359978E+02  0.33142643308E+02  0.00000000000E+00 0.  1.
</event>
<event>
 5    1  0.3144657E-003  0.9118800E+02  0.7818608E-02  0.1130116E+00
         25   -1    0    0    0    0  0.00000000000E+00  0.00000000000E+00  0.99999998245E-14  0.12500000000E+03  0.12500000000E+03 0.  0.
        -11    1    3    3    0    0 -0.34530938239E+02 -0.27775379340E+02  0.26153511326E+02  0.51457395465E+02  0.51100000000E-03 0.  1.
         23    2    1    0    0    0  0.93478219571E+01 -0.22604664427E+02  0.75134393870E+01  0.99410853851E+02  0.96060988246E+02 0.  0.
         11    1    3    3    0    0  0.43878760196E+02  0.51707149134E+01 -0.18640071939E+02  0.47953458386E+02  0.51100000000E-03 0. -1.
         22    1    1    0    0    0 -0.93478219571E+01  0.22604664427E+02 -0.75134393870E+01  0.25589146149E+02  0.00000000000E+00 0. -1.
</event>
<event>
 5    1  0.3144657E-003  0.9118800E+02  0.7818608E-02  0.1130116E+00
         25   -1    0    0    0    0  0.00000000000E+00  0.00000000000E+00  0.99999998245E-14  0.12500000000E+03  0.12500000000E+03 0.  0.
        -11    1    3    3    0    0  0.12750820195E+02 -0.69669560687E+01  0.31183545721E+02  0.34402549564E+02  0.51100000000E-03 0.  1.
         23    2    1    0    0    0  0.90241574795E+01  0.17752908816E+02 -0.23300729510E+02  0.94348324918E+02  0.89230494952E+02 0.  0.
         11    1    3    3    0    0 -0.37266627157E+01  0.24719864885E+02 -0.54484275232E+02  0.59945775353E+02  0.51100000000E-03 0. -1.
         22    1    1    0    0    0 -0.90241574795E+01 -0.17752908816E+02  0.23300729510E+02  0.30651675082E+02  0.00000000000E+00 0. -1.
</event>
<event>
 5    1  0.3144657E-003  0.9118800E+02  0.7818608E-02  0.1130116E+00
         25   -1    0    0    0    0  0.00000000000E+00  0.00000000000E+00  0.99999998245E-14  0.12500000000E+03  0.12500000000E+03 0.  0.
        -11    1    3    3    0    0  0.30870924479E+02  0.23984549335E+02 -0.15243713830E+02  0.41960021408E+02  0.51100000000E-03 0. -1.
         23    2    1    0    0    0 -0.12561191364E+02  0.19862014529E+02  0.16817944286E+02  0.96101446409E+02  0.91653486580E+02 0.  0.
         11    1    3    3    0    0 -0.43432115843E+02 -0.41225348058E+01  0.32061658116E+02  0.54141425002E+02  0.51100000000E-03 0.  1.
         22    1    1    0    0    0  0.12561191364E+02 -0.19862014529E+02 -0.16817944286E+02  0.28898553591E+02  0.00000000000E+00 0. -1.
</event>
<event>
 5    1  0.3144657E-003  0.9118800E+02  0.7818608E-02  0.1130116E+00
         25   -1    0    0    0    0  0.00000000000E+00  0.00000000000E+00  0.99999998245E-14  0.12500000000E+03  0.12500000000E+03 0.  0.
        -11    1    3    3    0    0 -0.52137440024E+02  0.89079567712E+01  0.28939107867E+02  0.60292091608E+02  0.51100000000E-03 0. -1.
         23    2    1    0    0    0 -0.23711178999E+02  0.14907223886E+02  0.88001540313E+01  0.95642070160E+02  0.91024818264E+02 0.  0.
         11    1    3    3    0    0  0.28426261025E+02  0.59992671148E+01 -0.20138953836E+02  0.35349978552E+02  0.51100000000E-03 0.  1.
         22    1    1    0    0    0  0.23711178999E+02 -0.14907223886E+02 -0.88001540313E+01  0.29357929840E+02  0.00000000000E+00 0. -1.
</event>
<event>
 5    1  0.3144657E-003  0.9118800E+02  0.7818608E-02  0.1130116E+00
         25   -1    0    0    0    0  0.00000000000E+00  0.00000000000E+00  0.99999998245E-14  0.12500000000E+03  0.12500000000E+03 0.  0.
        -11    1    3    3    0    0  0.27209428716E+02  0.15338495005E+02 -0.39717510292E+02  0.50528240263E+02  0.51100000000E-03 0.  1.
         23    2    1    0    0    0  0.27009446886E+02 -0.69310383471E+01  0.11737315926E+01  0.97090733448E+02  0.92992921031E+02 0.  0.
         11    1    3    3    0    0 -0.19998182996E+00 -0.22269533352E+02  0.40891241884E+02  0.46562493185E+02  0.51100000000E-03 0. -1.
         22    1    1    0    0    0 -0.27009446886E+02  0.69310383471E+01 -0.11737315926E+01  0.27909266552E+02  0.00000000000E+00 0.  1.
</event>
<event>
 5    1  0.3144657E-003  0.9118800E+02  0.7818608E-02  0.1130116E+00
         25   -1    0    0    0    0  0.00000000000E+00  0.00000000000E+00  0.99999998245E-14  0.12500000000E+03  0.12500000000E+03 0.  0.
        -11    1    3    3    0    0  0.36373308772E+02  0.17443503120E+01 -0.12809503966E+02  0.38602379993E+02  0.51100000000E-03 0. -1.
         23    2    1    0    0    0 -0.11702507518E+02 -0.22671624142E+02  0.10582901198E+02  0.97378468159E+02  0.93378889691E+02 0.  0.
         11    1    3    3    0    0 -0.48075816290E+02 -0.24415974454E+02  0.23392405164E+02  0.58776088166E+02  0.51100000000E-03 0.  1.
         22    1    1    0    0    0  0.11702507518E+02  0.22671624142E+02 -0.10582901198E+02  0.27621531841E+02  0.00000000000E+00 0.  1.
</event>
<event>
 5    1  0.3144657E-003  0.9118800E+02  0.7818608E-02  0.1130116E+00
         25   -1    0    0    0    0  0.00000000000E+00  0.00000000000E+00  0.99999998245E-14  0.12500000000E+03  0.12500000000E+03 0.  0.
        -11    1    3    3    0    0 -0.26741581596E+02 -0.31591500895E+02 -0.37304302562E+02  0.55720248608E+02  0.51100000000E-03 0.  1.
         23    2    1    0    0    0 -0.25346608638E+02 -0.14172241196E+02 -0.10789718793E+01  0.95940282687E+02  0.91433422072E+02 0.  0.
         11    1    3    3    0    0  0.13949729575E+01  0.17419259699E+02  0.36225330683E+02  0.40220034079E+02  0.51100000000E-03 0. -1.
         22    1    1    0    0    0  0.25346608638E+02  0.14172241196E+02  0.10789718793E+01  0.29059717313E+02  0.00000000000E+00 0.  1.
</event>
<event>
 5    1  0.3144657E-003  0.9118800E+02  0.7818608E-02  0.1130116E+00
         25   -1    0    0    0    0  0.00000000000E+00  0.00000000000E+00  0.99999998245E-14  0.12500000000E+03  0.12500000000E+03 0.  0.
        -11    1    3    3    0    0  0.21656235801E+02  0.18166443600E+02  0.26316453242E+02  0.38620822540E+02  0.51100000000E-03 0. -1.
         23    2    1    0    0    0  0.23237148408E+02 -0.53033584545E+00 -0.23556630556E+02  0.91906780673E+02  0.85742026850E+02 0.  0.
         11    1    3    3    0    0  0.15809126065E+01 -0.18696779446E+02 -0.49873083799E+02  0.53285958133E+02  0.51100000000E-03 0.  1.
         22    1    1    0    0    0 -0.23237148408E+02  0.53033584545E+00  0.23556630556E+02  0.33093219327E+02  0.00000000000E+00 0.  1.
</event>
<event>
 5    1  0.3144657E-003  0.9118800E+02  0.7818608E-02  0.1130116E+00
         25   -1    0    0    0    0  0.00000000000E+00  0.00000000000E+00  0.99999998245E-14  0.12500000000E+03  0.12500000000E+03 0.  0.
        -11    1    3    3    0    0 -0.40348944900E+02 -0.20654591159E+02 -0.41566875186E+02  0.61501663420E+02  0.51100000000E-03 0.  1.
         23    2    1    0    0    0 -0.14338686030E+02 -0.16086623367E+02 -0.20044247049E+02  0.95569587020E+02  0.90925226176E+02 0.  0.
         11    1    3    3    0    0  0.26010258870E+02  0.45679677922E+01  0.21522628137E+02  0.34067923600E+02  0.51100000000E-03 0. -1.
         22    1    1    0    0    0  0.14338686030E+02  0.16086623367E+02  0.20044247049E+02  0.29430412980E+02  0.00000000000E+00 0.  1.
</event>
<event>
 5    1  0.3144657E-003  0.9118800E+02  0.7818608E-02  0.1130116E+00
         25   -1    0    0    0    0  0.00000000000E+00  0.00000000000E+00  0.99999998245E-14  0.12500000000E+03  0.12500000000E+03 0.  0.
        -11    1    3    3    0    0  0.55986814343E+01  0.34801559747E+02 -0.28263133234E+02  0.45180731458E+02  0.51100000000E-03 0.  1.
         23    2    1    0    0    0  0.20468486120E+02  0.15344230297E+02  0.15326851331E+02  0.95178586566E+02  0.90386097612E+02 0.  0.
         11    1    3    3    0    0  0.14869804686E+02 -0.19457329450E+02  0.43589984565E+02  0.49997855108E+02  0.51100000000E-03 0. -1.
         22    1    1    0    0    0 -0.20468486120E+02 -0.15344230297E+02 -0.15326851331E+02  0.29821413434E+02  0.00000000000E+00 0.  1.
</event>
<event>
 5    1  0.3144657E-003  0.9118800E+02  0.7818608E-02  0.1130116E+00
         25   -1    0    0    0    0  0.00000000000E+00  0.00000000000E+00  0.99999998245E-14  0.12500000000E+03  0.12500000000E+03 0.  0.
        -11    1    3    3    0    0  0.16803171095E+02  0.30270211996E+02  0.27357730176E+01  0.34729191574E+02  0.51100000000E-03 0.  1.
         23    2    1    0    0    0 -0.25050039111E+02  0.15782784508E+01 -0.22401153544E+02  0.91357659083E+02  0.84937711122E+02 0.  0.
         11    1    3    3    0    0 -0.41853210206E+02 -0.28691933546E+02 -0.25136926561E+02  0.56628467508E+02  0.51100000000E-03 0. -1.
         22    1    1    0    0    0  0.25050039111E+02 -0.15782784508E+01  0.22401153544E+02  0.33642340917E+02  0.00000000000E+00 0. -1.
</event>
<event>
 5    1  0.3144657E-003  0.9118800E+02  0.7818608E-02  0.1130116E+00
         25   -1    0    0    0    0  0.00000000000E+00  0.00000000000E+00  0.99999998245E-14  0.12500000000E+03  0.12500000000E+03 0.  0.
        -11    1    3    3    0    0  0.31289452507E+02 -0.36415461907E+01  0.27381471666E+02  0.41737701035E+02  0.51100000000E-03 0.  1.
         23    2    1    0    0    0 -0.18499477891E+02  0.14029592000E+02  0.18504886794E+02  0.95310086407E+02  0.90567773528E+02 0.  0.
         11    1    3    3    0    0 -0.49788930398E+02  0.17671138190E+02 -0.88765848720E+01  0.53572385372E+02  0.51100000000E-03 0. -1.
         22    1    1    0    0    0  0.18499477891E+02 -0.14029592000E+02 -0.18504886794E+02  0.29689913593E+02  0.00000000000E+00 0. -1.
</event>
<event>
 5    1  0.3144657E-003  0.9118800E+02  0.7818608E-02  0.1130116E+00
         25   -1    0    0    0    0  0.00000000000E+00  0.00000000000E+00  0.99999998245E-14  0.12500000000E+03  0.12500000000E+03 0.  0.
        -11    1    3    3    0    0  0.16649843677E+02  0.35238290499E+01  0.29839709836E+02  0.34351753216E+02  0.51100000000E-03 0.  1.
         23    2    1    0    0    0 -0.92699037283E+01  0.58773734164E+01 -0.26447764242E+02  0.96365076099E+02  0.92012330830E+02 0.  0.
         11    1    3    3    0    0 -0.25919747406E+02  0.23535443665E+01 -0.56287474078E+02  0.62013322883E+02  0.51100000000E-03 0. -1.
         22    1    1    0    0    0  0.92699037283E+01 -0.58773734164E+01  0.26447764242E+02  0.28634923901E+02  0.00000000000E+00 0. -1.
</event>
<event>
 5    1  0.3144657E-003  0.9118800E+02  0.7818608E-02  0.1130116E+00
         25   -1    0    0    0    0  0.00000000000E+00  0.00000000000E+00  0.99999998245E-14  0.12500000000E+03  0.12500000000E+03 0.  0.
        -11    1    3    3    0    0 -0.40283479352E+02  0.26942617008E+02  0.30708851258E+01  0.48560206503E+02  0.51100000000E-03 0. -1.
         23    2    1    0    0    0 -0.24694627379E+02 -0.14454551905E+02 -0.10004888727E+02  0.94687354279E+02  0.89704172532E+02 0.  0.
         11    1    3    3    0    0  0.15588851973E+02 -0.41397168913E+02 -0.13075773853E+02  0.46127147776E+02  0.51100000000E-03 0.  1.
         22    1    1    0    0    0  0.24694627379E+02  0.14454551905E+02  0.10004888727E+02  0.30312645721E+02  0.00000000000E+00 0. -1.
</event>
<event>
 5    1  0.3144657E-003  0.9118800E+02  0.7818608E-02  0.1130116E+00
         25   -1    0    0    0    0  0.00000000000E+00  0.00000000000E+00  0.99999998245E-14  0.12500000000E+03  0.12500000000E+03 0.  0.
        -11    1    3    3    0    0  0.14543287182E+02 -0.16042402748E+02  0.27779157273E+02  0.35221406375E+02  0.51100000000E-03 0.  1.
         23    2    1    0    0    0 -0.28758317096E+02 -0.66082712728E+01 -0.10396515967E+02  0.93714258908E+02  0.88337787650E+02 0.  0.
         11    1    3    3    0    0 -0.43301604278E+02  0.94341314754E+01 -0.38175673241E+02  0.58492852532E+02  0.51100000000E-03 0. -1.
         22    1    1    0    0    0  0.28758317096E+02  0.66082712728E+01  0.10396515967E+02  0.31285741092E+02  0.00000000000E+00 0. -1.
</event>
<event>
 5    1  0.3144657E-003  0.9118800E+02  0.7818608E-02  0.1130116E+00
         25   -1    0    0    0    0  0.00000000000E+00  0.00000000000E+00  0.99999998245E-14  0.12500000000E+03  0.12500000000E+03 0.  0.
        -11    1    3    3    0    0  0.56025447318E+02  0.20419596475E+01  0.24791526612E+02  0.61299593297E+02  0.51100000000E-03 0. -1.
         23    2    1    0    0    0  0.27446707157E+02  0.66485418580E+01  0.51187166095E+01  0.96299371046E+02  0.91923026286E+02 0.  0.
         11    1    3    3    0    0 -0.28578740161E+02  0.46065822105E+01 -0.19672810002E+02  0.34999777749E+02  0.51100000000E-03 0.  1.
         22    1    1    0    0    0 -0.27446707157E+02 -0.66485418580E+01 -0.51187166095E+01  0.28700628954E+02  0.00000000000E+00 0. -1.
</event>
<event>
 5    1  0.3144657E-003  0.9118800E+02  0.7818608E-02  0.1130116E+00
         25   -1    0    0    0    0  0.00000000000E+00  0.00000000000E+00  0.99999998245E-14  0.12500000000E+03  0.12500000000E+03 0.  0.
        -11    1    3    3    0    0  0.18529611042E+00 -0.32527133531E+01 -0.42214282380E+02  0.42339817145E+02  0.51100000000E-03 0.  1.
         23    2    1    0    0    0 -0.29026967737E+02  0.40543888664E+01  0.17627221174E+01  0.95638288293E+02  0.91019624660E+02 0.  0.
         11    1    3    3    0    0 -0.29212263847E+02  0.73071022194E+01  0.43977004497E+02  0.53298471148E+02  0.51100000000E-03 0. -1.
         22    1    1    0    0    0  0.29026967737E+02 -0.40543888664E+01 -0.17627221174E+01  0.29361711707E+02  0.00000000000E+00 0. -1.
</event>
<event>
 5    1  0.3144657E-003  0.9118800E+02  0.7818608E-02  0.1130116E+00
         25   -1    0    0    0    0  0.00000000000E+00  0.00000000000E+00  0.99999998245E-14  0.12500000000E+03  0.12500000000E+03 0.  0.
        -11    1    3    3    0    0  0.30244724625E+02  0.36673469347E+02 -0.26870973265E+02  0.54605273794E+02  0.51100000000E-03 0.  1.
         23    2    1    0    0    0  0.22476475893E+02 -0.36785662463E+01 -0.16168046050E+02  0.97069201027E+02  0.92963972897E+02 0.  0.
         11    1    3    3    0    0 -0.77682487325E+01 -0.40352035593E+02  0.10702927216E+02  0.42463927234E+02  0.51100000000E-03 0. -1.
         22    1    1    0    0    0 -0.22476475893E+02  0.36785662463E+01  0.16168046050E+02  0.27930798973E+02  0.00000000000E+00 0.  1.
</event>
<event>
 5    1  0.3144657E-003  0.9118800E+02  0.7818608E-02  0.1130116E+00
         25   -1    0    0    0    0  0.00000000000E+00  0.00000000000E+00  0.99999998245E-14  0.12500000000E+03  0.12500000000E+03 0.  0.
        -11    1    3    3    0    0  0.44018922582E+02 -0.94450036275E+01 -0.18142710739E+02  0.48538969829E+02  0.51100000000E-03 0.  1.
         23    2    1    0    0    0  0.66758424250E+00  0.51618647875E+01 -0.28984239213E+02  0.95552136927E+02  0.90901233390E+02 0.  0.
         11    1    3    3    0    0 -0.43351338340E+02  0.14606868415E+02 -0.10841528474E+02  0.47013167098E+02  0.51100000000E-03 0. -1.
         22    1    1    0    0    0 -0.66758424250E+00 -0.51618647875E+01  0.28984239213E+02  0.29447863073E+02  0.00000000000E+00 0.  1.
</event>
<event>
 5    1  0.3144657E-003  0.9118800E+02  0.7818608E-02  0.1130116E+00
         25   -1    0    0    0    0  0.00000000000E+00  0.00000000000E+00  0.99999998245E-14  0.12500000000E+03  0.12500000000E+03 0.  0.
        -11    1    3    3    0    0 -0.58864943592E+02 -0.20217571530E+02  0.16690316982E+01  0.62262488303E+02  0.51100000000E-03 0.  1.
         23    2    1    0    0    0 -0.26143574926E+02 -0.12976740267E+02  0.84918906368E-01  0.95812853701E+02  0.91259045718E+02 0.  0.
         11    1    3    3    0    0  0.32721368666E+02  0.72408312636E+01 -0.15841127918E+01  0.33550365398E+02  0.51100000000E-03 0. -1.
         22    1    1    0    0    0  0.26143574926E+02  0.12976740267E+02 -0.84918906368E-01  0.29187146299E+02  0.00000000000E+00 0.  1.
</event>
<event>
 5    1  0.3144657E-003  0.9118800E+02  0.7818608E-02  0.1130116E+00
         25   -1    0    0    0    0  0.00000000000E+00  0.00000000000E+00  0.99999998245E-14  0.12500000000E+03  0.12500000000E+03 0.  0.
        -11    1    3    3    0    0 -0.49060337242E+01 -0.12451863384E+02  0.45907062376E+02  0.47818160200E+02  0.51100000000E-03 0. -1.
         23    2    1    0    0    0  0.18429720741E+02  0.16390069189E+02  0.14776791630E+02  0.96248607938E+02  0.91853970979E+02 0.  0.
         11    1    3    3    0    0  0.23335754465E+02  0.28841932574E+02 -0.31130270747E+02  0.48430447738E+02  0.51100000000E-03 0.  1.
         22    1    1    0    0    0 -0.18429720741E+02 -0.16390069189E+02 -0.14776791630E+02  0.28751392062E+02  0.00000000000E+00 0. -1.
</event>
<event>
 5    1  0.3144657E-003  0.9118800E+02  0.7818608E-02  0.1130116E+00
         25   -1    0    0    0    0  0.00000000000E+00  0.00000000000E+00  0.99999998245E-14  0.12500000000E+03  0.12500000000E+03 0.  0.
        -11    1    3    3    0    0 -0.19203823993E+02  0.17451966419E+02 -0.33604405149E+02  0.42457202375E+02  0.51100000000E-03 0. -1.
         23    2    1    0    0    0 -0.90252954053E+01  0.20509024267E+02  0.18690474728E+02  0.95821071317E+02  0.91270300915E+02 0.  0.
         11    1    3    3    0    0  0.10178528588E+02  0.30570578481E+01  0.52294879876E+02  0.53363868942E+02  0.51100000000E-03 0.  1.
         22    1    1    0    0    0  0.90252954053E+01 -0.20509024267E+02 -0.18690474728E+02  0.29178928683E+02  0.00000000000E+00 0.  1.
</event>
<event>
 5    1  0.3144657E-003  0.9118800E+02  0.7818608E-02  0.1130116E+00
         25   -1    0    0    0    0  0.00000000000E+00  0.00000000000E+00  0.99999998245E-14  0.12500000000E+03  0.12500000000E+03 0.  0.
        -11    1    3    3    0    0  0.22191896101E+02 -0.83137935749E+01  0.36462844791E+02  0.43487221878E+02  0.51100000000E-03 0. -1.
         23    2    1    0    0    0  0.17969500912E+02 -0.21791209783E+02 -0.12255239974E+02  0.94211192072E+02  0.89038182921E+02 0.  0.
         11    1    3    3    0    0 -0.42223951885E+01 -0.13477416208E+02 -0.48718084765E+02  0.50723970194E+02  0.51100000000E-03 0.  1.
         22    1    1    0    0    0 -0.17969500912E+02  0.21791209783E+02  0.12255239974E+02  0.30788807928E+02  0.00000000000E+00 0.  1.
</event>
<event>
 5    1  0.3144657E-003  0.9118800E+02  0.7818608E-02  0.1130116E+00
         25   -1    0    0    0    0  0.00000000000E+00  0.00000000000E+00  0.99999998245E-14  0.12500000000E+03  0.12500000000E+03 0.  0.
        -11    1    3    3    0    0 -0.18604714319E+02  0.28141754676E+02  0.43335607773E+01  0.34012843168E+02  0.51100000000E-03 0.  1.
         23    2    1    0    0    0 -0.34079985723E+01 -0.29896161880E+02  0.71462911270E+01  0.94073240934E+02  0.88844303327E+02 0.  0.
         11    1    3    3    0    0  0.15196715746E+02 -0.58037916556E+02  0.28127303496E+01  0.60060397767E+02  0.51100000000E-03 0. -1.
         22    1    1    0    0    0  0.34079985723E+01  0.29896161880E+02 -0.71462911270E+01  0.30926759066E+02  0.00000000000E+00 0. -1.
</event>
<event>
 5    1  0.3144657E-003  0.9118800E+02  0.7818608E-02  0.1130116E+00
         25   -1    0    0    0    0  0.00000000000E+00  0.00000000000E+00  0.99999998245E-14  0.12500000000E+03  0.12500000000E+03 0.  0.
        -11    1    3    3    0    0 -0.37050839895E+01 -0.20997980676E+02  0.63856860870E+01  0.22258028370E+02  0.51100000000E-03 0.  1.
         23    2    1    0    0    0 -0.29311441847E+02  0.29216056894E+02  0.18102106060E+02  0.79828937943E+02  0.65819711984E+02 0.  0.
         11    1    3    3    0    0 -0.25606357858E+02  0.50214037570E+02  0.11716419973E+02  0.57570909573E+02  0.51100000000E-03 0. -1.
         22    1    1    0    0    0  0.29311441847E+02 -0.29216056894E+02 -0.18102106060E+02  0.45171062057E+02  0.00000000000E+00 0. -1.
</event>
<event>
 5    1  0.3144657E-003  0.9118800E+02  0.7818608E-02  0.1130116E+00
         25   -1    0    0    0    0  0.00000000000E+00  0.00000000000E+00  0.99999998245E-14  0.12500000000E+03  0.12500000000E+03 0.  0.
        -11    1    3    3    0    0  0.18550598709E+02  0.31857385546E+02 -0.14038964932E+01  0.36891579688E+02  0.51100000000E-03 0. -1.
         23    2    1    0    0    0 -0.76544911958E+01 -0.15814814653E+02  0.22618326990E+02  0.96359324138E+02  0.92004516382E+02 0.  0.
         11    1    3    3    0    0 -0.26205089904E+02 -0.47672200199E+02  0.24022223483E+02  0.59467744450E+02  0.51100000000E-03 0.  1.
         22    1    1    0    0    0  0.76544911958E+01  0.15814814653E+02 -0.22618326990E+02  0.28640675862E+02  0.00000000000E+00 0.  1.
</event>
<event>
 5    1  0.3144657E-003  0.9118800E+02  0.7818608E-02  0.1130116E+00
         25   -1    0    0    0    0  0.00000000000E+00  0.00000000000E+00  0.99999998245E-14  0.12500000000E+03  0.12500000000E+03 0.  0.
        -11    1    3    3    0    0 -0.35090955261E+02 -0.27598692600E+02  0.52504954428E+01  0.44951425750E+02  0.51100000000E-03 0.  1.
         23    2    1    0    0    0 -0.18199141356E+02  0.18795517055E+02  0.14355750141E+02  0.95157617897E+02  0.90357094211E+02 0.  0.
         11    1    3    3    0    0  0.16891813905E+02  0.46394209655E+02  0.91052546987E+01  0.50206192147E+02  0.51100000000E-03 0. -1.
         22    1    1    0    0    0  0.18199141356E+02 -0.18795517055E+02 -0.14355750141E+02  0.29842382103E+02  0.00000000000E+00 0. -1.
</event>
<event>
 5    1  0.3144657E-003  0.9118800E+02  0.7818608E-02  0.1130116E+00
         25   -1    0    0    0    0  0.00000000000E+00  0.00000000000E+00  0.99999998245E-14  0.12500000000E+03  0.12500000000E+03 0.  0.
        -11    1    3    3    0    0  0.30119753350E+02  0.37429885200E+02 -0.11029125593E+01  0.48056344683E+02  0.51100000000E-03 0. -1.
         23    2    1    0    0    0 -0.22539030229E+01  0.13993644878E+02 -0.26173362344E+02  0.95235136953E+02  0.90464270506E+02 0.  0.
         11    1    3    3    0    0 -0.32373656373E+02 -0.23436240322E+02 -0.25070449785E+02  0.47178792270E+02  0.51100000000E-03 0.  1.
         22    1    1    0    0    0  0.22539030229E+01 -0.13993644878E+02  0.26173362344E+02  0.29764863047E+02  0.00000000000E+00 0.  1.
</event>
<event>
 5    1  0.3144657E-003  0.9118800E+02  0.7818608E-02  0.1130116E+00
         25   -1    0    0    0    0  0.00000000000E+00  0.00000000000E+00  0.99999998245E-14  0.12500000000E+03  0.12500000000E+03 0.  0.
        -11    1    3    3    0    0  0.32063880313E+02 -0.71960763736E+01  0.35029888414E+02  0.48030917318E+02  0.51100000000E-03 0. -1.
         23    2    1    0    0    0 -0.10581231185E+02  0.10188372671E+02  0.26259979882E+02  0.94910933307E+02  0.90015183868E+02 0.  0.
         11    1    3    3    0    0 -0.42645111497E+02  0.17384449044E+02 -0.87699085317E+01  0.46880015989E+02  0.51100000000E-03 0.  1.
         22    1    1    0    0    0  0.10581231185E+02 -0.10188372671E+02 -0.26259979882E+02  0.30089066693E+02  0.00000000000E+00 0.  1.
</event>
<event>
 5    1  0.3144657E-003  0.9118800E+02  0.7818608E-02  0.1130116E+00
         25   -1    0    0    0    0  0.00000000000E+00  0.00000000000E+00  0.99999998245E-14  0.12500000000E+03  0.12500000000E+03 0.  0.
        -11    1    3    3    0    0  0.28226988329E+02  0.24299551664E+02  0.23173787524E+02  0.43866336862E+02  0.51100000000E-03 0. -1.
         23    2    1    0    0    0  0.21843282335E+02 -0.78444853644E+01 -0.17378641952E+02  0.96005481037E+02  0.91522512309E+02 0.  0.
         11    1    3    3    0    0 -0.63837059935E+01 -0.32144037029E+02 -0.40552429476E+02  0.52139144176E+02  0.51100000000E-03 0.  1.
         22    1    1    0    0    0 -0.21843282335E+02  0.78444853644E+01  0.17378641952E+02  0.28994518963E+02  0.00000000000E+00 0.  1.
</event>
<event>
 5    1  0.3144657E-003  0.9118800E+02  0.7818608E-02  0.1130116E+00
         25   -1    0    0    0    0  0.00000000000E+00  0.00000000000E+00  0.99999998245E-14  0.12500000000E+03  0.12500000000E+03 0.  0.
        -11    1    3    3    0    0  0.36243221349E+02  0.50064974216E+02  0.75979038519E+01  0.62271991137E+02  0.51100000000E-03 0. -1.
         23    2    1    0    0    0  0.15657371756E+02  0.25548330254E+02  0.66886456820E+01  0.94298070906E+02  0.89160068003E+02 0.  0.
         11    1    3    3    0    0 -0.20585849594E+02 -0.24516643962E+02 -0.90925816991E+00  0.32026079768E+02  0.51100000000E-03 0.  1.
         22    1    1    0    0    0 -0.15657371756E+02 -0.25548330254E+02 -0.66886456820E+01  0.30701929094E+02  0.00000000000E+00 0. -1.
</event>
<event>
 5    1  0.3144657E-003  0.9118800E+02  0.7818608E-02  0.1130116E+00
         25   -1    0    0    0    0  0.00000000000E+00  0.00000000000E+00  0.99999998245E-14  0.12500000000E+03  0.12500000000E+03 0.  0.
        -11    1    3    3    0    0 -0.50464803522E+02 -0.56514144042E+00  0.28492102665E+02  0.57955290474E+02  0.51100000000E-03 0. -1.
         23    2    1    0    0    0 -0.22847565464E+02  0.11238232481E+02 -0.26520020996E+00  0.99536703904E+02  0.96224612111E+02 0.  0.
         11    1    3    3    0    0  0.27617238059E+02  0.11803373922E+02 -0.28757302875E+02  0.41581413430E+02  0.51100000000E-03 0.  1.
         22    1    1    0    0    0  0.22847565464E+02 -0.11238232481E+02  0.26520020996E+00  0.25463296096E+02  0.00000000000E+00 0. -1.
</event>
<event>
 5    1  0.3144657E-003  0.9118800E+02  0.7818608E-02  0.1130116E+00
         25   -1    0    0    0    0  0.00000000000E+00  0.00000000000E+00  0.99999998245E-14  0.12500000000E+03  0.12500000000E+03 0.  0.
        -11    1    3    3    0    0  0.18881248763E+02 -0.23359826788E+02 -0.15475220842E+02  0.33788541294E+02  0.51100000000E-03 0. -1.
         23    2    1    0    0    0  0.11523631552E+01  0.11430381361E+02  0.29495854932E+02  0.93345821491E+02  0.87814892659E+02 0.  0.
         11    1    3    3    0    0 -0.17728885608E+02  0.34790208149E+02  0.44971075774E+02  0.59557280197E+02  0.51100000000E-03 0.  1.
         22    1    1    0    0    0 -0.11523631552E+01 -0.11430381361E+02 -0.29495854932E+02  0.31654178509E+02  0.00000000000E+00 0.  1.
</event>
<event>
 5    1  0.3144657E-003  0.9118800E+02  0.7818608E-02  0.1130116E+00
         25   -1    0    0    0    0  0.00000000000E+00  0.00000000000E+00  0.99999998245E-14  0.12500000000E+03  0.12500000000E+03 0.  0.
        -11    1    3    3    0    0 -0.33114024759E+01 -0.38961454216E+02 -0.11202111271E+02  0.40674901329E+02  0.51100000000E-03 0.  1.
         23    2    1    0    0    0 -0.38523870568E+02 -0.17249613554E+02 -0.57345769658E+01  0.82402780088E+02  0.70538606606E+02 0.  0.
         11    1    3    3    0    0 -0.35212468092E+02  0.21711840662E+02  0.54675343054E+01  0.41727878758E+02  0.51100000000E-03 0. -1.
         22    1    1    0    0    0  0.38523870568E+02  0.17249613554E+02  0.57345769658E+01  0.42597219912E+02  0.00000000000E+00 0. -1.
</event>
<event>
 5    1  0.3144657E-003  0.9118800E+02  0.7818608E-02  0.1130116E+00
         25   -1    0    0    0    0  0.00000000000E+00  0.00000000000E+00  0.99999998245E-14  0.12500000000E+03  0.12500000000E+03 0.  0.
        -11    1    3    3    0    0  0.43991464336E+01  0.60198600543E+02 -0.91748307535E+00  0.60366097871E+02  0.51100000000E-03 0.  1.
         23    2    1    0    0    0  0.17131337506E+01  0.36009048461E+02 -0.11857724989E+02  0.87050137810E+02  0.78342417964E+02 0.  0.
         11    1    3    3    0    0 -0.26860126830E+01 -0.24189552082E+02 -0.10940241914E+02  0.26684039939E+02  0.51100000000E-03 0. -1.
         22    1    1    0    0    0 -0.17131337506E+01 -0.36009048461E+02  0.11857724989E+02  0.37949862190E+02  0.00000000000E+00 0.  1.
</event>
<event>
 5    1  0.3144657E-003  0.9118800E+02  0.7818608E-02  0.1130116E+00
         25   -1    0    0    0    0  0.00000000000E+00  0.00000000000E+00  0.99999998245E-14  0.12500000000E+03  0.12500000000E+03 0.  0.
        -11    1    3    3    0    0 -0.35682073639E+02  0.31797682938E+02  0.88958801269E+01  0.48615220897E+02  0.51100000000E-03 0. -1.
         23    2    1    0    0    0 -0.10655618129E+02 -0.45505730031E+01  0.26461216231E+02  0.96113223150E+02  0.91669546675E+02 0.  0.
         11    1    3    3    0    0  0.25026455509E+02 -0.36348255941E+02  0.17565336104E+02  0.47498002253E+02  0.51100000000E-03 0.  1.
         22    1    1    0    0    0  0.10655618129E+02  0.45505730031E+01 -0.26461216231E+02  0.28886776850E+02  0.00000000000E+00 0. -1.
</event>
<event>
 5    1  0.3144657E-003  0.9118800E+02  0.7818608E-02  0.1130116E+00
         25   -1    0    0    0    0  0.00000000000E+00  0.00000000000E+00  0.99999998245E-14  0.12500000000E+03  0.12500000000E+03 0.  0.
        -11    1    3    3    0    0 -0.27405386800E+02 -0.45587294718E+02 -0.26400658670E+02  0.59382248558E+02  0.51100000000E-03 0. -1.
         23    2    1    0    0    0 -0.83607185446E+01 -0.42833023903E+01 -0.16625573738E+02  0.10590397957E+03  0.10416810881E+03 0.  0.
         11    1    3    3    0    0  0.19044668255E+02  0.41303992327E+02  0.97750849322E+01  0.46521731017E+02  0.51100000000E-03 0.  1.
         22    1    1    0    0    0  0.83607185446E+01  0.42833023903E+01  0.16625573738E+02  0.19096020425E+02  0.00000000000E+00 0. -1.
</event>
<event>
 5    1  0.3144657E-003  0.9118800E+02  0.7818608E-02  0.1130116E+00
         25   -1    0    0    0    0  0.00000000000E+00  0.00000000000E+00  0.99999998245E-14  0.12500000000E+03  0.12500000000E+03 0.  0.
        -11    1    3    3    0    0 -0.15329727909E+02 -0.48324510995E+02  0.16499474828E+02  0.53315022185E+02  0.51100000000E-03 0.  1.
         23    2    1    0    0    0  0.14711176304E+02 -0.17573778313E+02  0.17257266688E+02  0.96310809597E+02  0.91938579493E+02 0.  0.
         11    1    3    3    0    0  0.30040904213E+02  0.30750732682E+02  0.75779186005E+00  0.42995787413E+02  0.51100000000E-03 0. -1.
         22    1    1    0    0    0 -0.14711176304E+02  0.17573778313E+02 -0.17257266688E+02  0.28689190403E+02  0.00000000000E+00 0. -1.
</event>
<event>
 5    1  0.3144657E-003  0.9118800E+02  0.7818608E-02  0.1130116E+00
         25   -1    0    0    0    0  0.00000000000E+00  0.00000000000E+00  0.99999998245E-14  0.12500000000E+03  0.12500000000E+03 0.  0.
        -11    1    3    3    0    0 -0.38357028632E+02  0.47612871678E+01  0.32930160136E+02  0.50777228634E+02  0.51100000000E-03 0.  1.
         23    2    1    0    0    0  0.38779949218E+01 -0.92186115307E+01  0.27672853541E+02  0.95575376532E+02  0.90933184993E+02 0.  0.
         11    1    3    3    0    0  0.42235023553E+02 -0.13979898698E+02 -0.52573065951E+01  0.44798147898E+02  0.51100000000E-03 0. -1.
         22    1    1    0    0    0 -0.38779949218E+01  0.92186115307E+01 -0.27672853541E+02  0.29424623468E+02  0.00000000000E+00 0. -1.
</event>
<event>
 5    1  0.3144657E-003  0.9118800E+02  0.7818608E-02  0.1130116E+00
         25   -1    0    0    0    0  0.00000000000E+00  0.00000000000E+00  0.99999998245E-14  0.12500000000E+03  0.12500000000E+03 0.  0.
        -11    1    3    3    0    0 -0.14412039795E+02  0.18788712259E+02  0.40852231106E+02  0.47218930378E+02  0.51100000000E-03 0. -1.
         23    2    1    0    0    0  0.52560997887E+01  0.30227641830E+02 -0.38469851784E+00  0.94316373934E+02  0.89185724662E+02 0.  0.
         11    1    3    3    0    0  0.19668139584E+02  0.11438929572E+02 -0.41236929624E+02  0.47097443556E+02  0.51100000000E-03 0.  1.
         22    1    1    0    0    0 -0.52560997887E+01 -0.30227641830E+02  0.38469851784E+00  0.30683626066E+02  0.00000000000E+00 0.  1.
</event>
<event>
 5    1  0.3144657E-003  0.9118800E+02  0.7818608E-02  0.1130116E+00
         25   -1    0    0    0    0  0.00000000000E+00  0.00000000000E+00  0.99999998245E-14  0.12500000000E+03  0.12500000000E+03 0.  0.
        -11    1    3    3    0    0 -0.45493086812E+02  0.24209669235E+02  0.19263612849E+02  0.55016504909E+02  0.51100000000E-03 0.  1.
         23    2    1    0    0    0 -0.73814351695E+01  0.28014805920E+02  0.88294207944E+01  0.94713474821E+02  0.89740563321E+02 0.  0.
         11    1    3    3    0    0  0.38111651642E+02  0.38051366850E+01 -0.10434192055E+02  0.39696969912E+02  0.51100000000E-03 0. -1.
         22    1    1    0    0    0  0.73814351695E+01 -0.28014805920E+02 -0.88294207944E+01  0.30286525179E+02  0.00000000000E+00 0.  1.
</event>
<event>
 5    1  0.3144657E-003  0.9118800E+02  0.7818608E-02  0.1130116E+00
         25   -1    0    0    0    0  0.00000000000E+00  0.00000000000E+00  0.99999998245E-14  0.12500000000E+03  0.12500000000E+03 0.  0.
        -11    1    3    3    0    0 -0.26047207454E+02 -0.27013435181E+02 -0.14293554858E+02  0.40155801663E+02  0.51100000000E-03 0.  1.
         23    2    1    0    0    0 -0.35656766571E+01 -0.70599428391E+01  0.30160953154E+02  0.93819237692E+02  0.88486210355E+02 0.  0.
         11    1    3    3    0    0  0.22481530797E+02  0.19953492342E+02  0.44454508013E+02  0.53663436030E+02  0.51100000000E-03 0. -1.
         22    1    1    0    0    0  0.35656766571E+01  0.70599428391E+01 -0.30160953154E+02  0.31180762308E+02  0.00000000000E+00 0. -1.
</event>
<event>
 5    1  0.3144657E-003  0.9118800E+02  0.7818608E-02  0.1130116E+00
         25   -1    0    0    0    0  0.00000000000E+00  0.00000000000E+00  0.99999998245E-14  0.12500000000E+03  0.12500000000E+03 0.  0.
        -11    1    3    3    0    0 -0.20706039175E+02  0.23190060532E+02 -0.42623451517E+02  0.52756777624E+02  0.51100000000E-03 0.  1.
         23    2    1    0    0    0 -0.16421360259E+02  0.25973115791E+02 -0.14596121026E+01  0.94236478028E+02  0.89073674601E+02 0.  0.
         11    1    3    3    0    0  0.42846789159E+01  0.27830552592E+01  0.41163839414E+02  0.41479700404E+02  0.51100000000E-03 0. -1.
         22    1    1    0    0    0  0.16421360259E+02 -0.25973115791E+02  0.14596121026E+01  0.30763521972E+02  0.00000000000E+00 0.  1.
</event>
<event>
 5    1  0.3144657E-003  0.9118800E+02  0.7818608E-02  0.1130116E+00
         25   -1    0    0    0    0  0.00000000000E+00  0.00000000000E+00  0.99999998245E-14  0.12500000000E+03  0.12500000000E+03 0.  0.
        -11    1    3    3    0    0  0.25259302778E+02 -0.30791505377E+02  0.22787307442E+02  0.45884753033E+02  0.51100000000E-03 0. -1.
         23    2    1    0    0    0 -0.75445200675E+01 -0.33202999723E+02 -0.69750437104E+01  0.90243558749E+02  0.83281988973E+02 0.  0.
         11    1    3    3    0    0 -0.32803822845E+02 -0.24114943462E+01 -0.29762351152E+02  0.44358805717E+02  0.51100000000E-03 0.  1.
         22    1    1    0    0    0  0.75445200675E+01  0.33202999723E+02  0.69750437104E+01  0.34756441251E+02  0.00000000000E+00 0.  1.
</event>
<event>
 5    1  0.3144657E-003  0.9118800E+02  0.7818608E-02  0.1130116E+00
         25   -1    0    0    0    0  0.00000000000E+00  0.00000000000E+00  0.99999998245E-14  0.12500000000E+03  0.12500000000E+03 0.  0.
        -11    1    3    3    0    0  0.24183459483E+02  0.18170091007E+02 -0.10325910414E+02  0.31962733705E+02  0.51100000000E-03 0.  1.
         23    2    1    0    0    0 -0.31295874318E+02  0.14061540191E+02 -0.14503664551E+02  0.87750638297E+02  0.79452247132E+02 0.  0.
         11    1    3    3    0    0 -0.55479333801E+02 -0.41085508168E+01 -0.41777541377E+01  0.55787904592E+02  0.51100000000E-03 0. -1.
         22    1    1    0    0    0  0.31295874318E+02 -0.14061540191E+02  0.14503664551E+02  0.37249361703E+02  0.00000000000E+00 0. -1.
</event>
<event>
 5    1  0.3144657E-003  0.9118800E+02  0.7818608E-02  0.1130116E+00
         25   -1    0    0    0    0  0.00000000000E+00  0.00000000000E+00  0.99999998245E-14  0.12500000000E+03  0.12500000000E+03 0.  0.
        -11    1    3    3    0    0  0.28340686847E+02 -0.61330380216E+01 -0.20758554493E+02  0.35661271307E+02  0.51100000000E-03 0.  1.
         23    2    1    0    0    0 -0.19315518810E+02 -0.17374816888E+02  0.13789778142E+02  0.95586882008E+02  0.90948999456E+02 0.  0.
         11    1    3    3    0    0 -0.47656205657E+02 -0.11241778867E+02  0.34548332635E+02  0.59925610701E+02  0.51100000000E-03 0. -1.
         22    1    1    0    0    0  0.19315518810E+02  0.17374816888E+02 -0.13789778142E+02  0.29413117992E+02  0.00000000000E+00 0. -1.
</event>
<event>
 5    1  0.3144657E-003  0.9118800E+02  0.7818608E-02  0.1130116E+00
         25   -1    0    0    0    0  0.00000000000E+00  0.00000000000E+00  0.99999998245E-14  0.12500000000E+03  0.12500000000E+03 0.  0.
        -11    1    3    3    0    0  0.23665670952E+02  0.16391618883E+02 -0.29281940815E+02  0.41063136867E+02  0.51100000000E-03 0. -1.
         23    2    1    0    0    0 -0.25704109392E+02 -0.23180628256E+01 -0.11149632378E+02  0.96886142970E+02  0.92717505049E+02 0.  0.
         11    1    3    3    0    0 -0.49369780344E+02 -0.18709681709E+02  0.18132308437E+02  0.55823006103E+02  0.51100000000E-03 0.  1.
         22    1    1    0    0    0  0.25704109392E+02  0.23180628256E+01  0.11149632378E+02  0.28113857030E+02  0.00000000000E+00 0.  1.
</event>
<event>
 5    1  0.3144657E-003  0.9118800E+02  0.7818608E-02  0.1130116E+00
         25   -1    0    0    0    0  0.00000000000E+00  0.00000000000E+00  0.99999998245E-14  0.12500000000E+03  0.12500000000E+03 0.  0.
        -11    1    3    3    0    0  0.25024653912E+02  0.52235520363E+02  0.56056819287E+01  0.58191120982E+02  0.51100000000E-03 0.  1.
         23    2    1    0    0    0  0.16434463488E+02  0.17299258886E+02  0.16740975399E+02  0.95851823291E+02  0.91312407825E+02 0.  0.
         11    1    3    3    0    0 -0.85901904244E+01 -0.34936261477E+02  0.11135293470E+02  0.37660702309E+02  0.51100000000E-03 0. -1.
         22    1    1    0    0    0 -0.16434463488E+02 -0.17299258886E+02 -0.16740975399E+02  0.29148176709E+02  0.00000000000E+00 0.  1.
</event>
<event>
 5    1  0.3144657E-003  0.9118800E+02  0.7818608E-02  0.1130116E+00
         25   -1    0    0    0    0  0.00000000000E+00  0.00000000000E+00  0.99999998245E-14  0.12500000000E+03  0.12500000000E+03 0.  0.
        -11    1    3    3    0    0  0.38787517488E+02  0.39710339477E+02  0.15436536135E+02  0.57616570727E+02  0.51100000000E-03 0. -1.
         23    2    1    0    0    0  0.23214266823E+02  0.15888867486E+02 -0.93484407340E+01  0.95356254652E+02  0.90631471703E+02 0.  0.
         11    1    3    3    0    0 -0.15573250665E+02 -0.23821471991E+02 -0.24784976869E+02  0.37739683925E+02  0.51100000000E-03 0.  1.
         22    1    1    0    0    0 -0.23214266823E+02 -0.15888867486E+02  0.93484407340E+01  0.29643745348E+02  0.00000000000E+00 0. -1.
</event>
<event>
 5    1  0.3144657E-003  0.9118800E+02  0.7818608E-02  0.1130116E+00
         25   -1    0    0    0    0  0.00000000000E+00  0.00000000000E+00  0.99999998245E-14  0.12500000000E+03  0.12500000000E+03 0.  0.
        -11    1    3    3    0    0 -0.36038800787E+02 -0.72581424447E+01  0.85316495212E+01  0.37739433458E+02  0.51100000000E-03 0.  1.
         23    2    1    0    0    0  0.97444806745E+01 -0.38838171141E+01 -0.27157084242E+02  0.95887353891E+02  0.91361033667E+02 0.  0.
         11    1    3    3    0    0  0.45783281461E+02  0.33743253306E+01 -0.35688733763E+02  0.58147920433E+02  0.51100000000E-03 0. -1.
         22    1    1    0    0    0 -0.97444806745E+01  0.38838171141E+01  0.27157084242E+02  0.29112646109E+02  0.00000000000E+00 0. -1.
</event>
<event>
 5    1  0.3144657E-003  0.9118800E+02  0.7818608E-02  0.1130116E+00
         25   -1    0    0    0    0  0.00000000000E+00  0.00000000000E+00  0.99999998245E-14  0.12500000000E+03  0.12500000000E+03 0.  0.
        -11    1    3    3    0    0 -0.10533040757E+02  0.24166452899E+02 -0.19466630875E+02  0.32770598273E+02  0.51100000000E-03 0.  1.
         23    2    1    0    0    0  0.17762380583E+02 -0.18606493781E+02  0.15616282783E+02  0.94907275585E+02  0.90010104411E+02 0.  0.
         11    1    3    3    0    0  0.28295421339E+02 -0.42772946679E+02  0.35082913658E+02  0.62136677312E+02  0.51100000000E-03 0. -1.
         22    1    1    0    0    0 -0.17762380583E+02  0.18606493781E+02 -0.15616282783E+02  0.30092724415E+02  0.00000000000E+00 0. -1.
</event>
<event>
 5    1  0.3144657E-003  0.9118800E+02  0.7818608E-02  0.1130116E+00
         25   -1    0    0    0    0  0.00000000000E+00  0.00000000000E+00  0.99999998245E-14  0.12500000000E+03  0.12500000000E+03 0.  0.
        -11    1    3    3    0    0 -0.15456370454E+02  0.42742676154E+02  0.29802766109E+02  0.54351086654E+02  0.51100000000E-03 0. -1.
         23    2    1    0    0    0  0.86805777673E+01  0.11877958989E+02  0.27755586637E+02  0.93586453087E+02  0.88156753977E+02 0.  0.
         11    1    3    3    0    0  0.24136948222E+02 -0.30864717165E+02 -0.20471794725E+01  0.39235366433E+02  0.51100000000E-03 0.  1.
         22    1    1    0    0    0 -0.86805777673E+01 -0.11877958989E+02 -0.27755586637E+02  0.31413546913E+02  0.00000000000E+00 0. -1.
</event>
<event>
 5    1  0.3144657E-003  0.9118800E+02  0.7818608E-02  0.1130116E+00
         25   -1    0    0    0    0  0.00000000000E+00  0.00000000000E+00  0.99999998245E-14  0.12500000000E+03  0.12500000000E+03 0.  0.
        -11    1    3    3    0    0 -0.20048718294E+02  0.14098884749E+02  0.32095338871E+02  0.40383665434E+02  0.51100000000E-03 0.  1.
         23    2    1    0    0    0 -0.19133259265E+02 -0.21833166164E+02 -0.86413369648E+01  0.94710703881E+02  0.89736703585E+02 0.  0.
         11    1    3    3    0    0  0.91545902865E+00 -0.35932050913E+02 -0.40736675836E+02  0.54327038447E+02  0.51100000000E-03 0. -1.
         22    1    1    0    0    0  0.19133259265E+02  0.21833166164E+02  0.86413369648E+01  0.30289296119E+02  0.00000000000E+00 0. -1.
</event>
<event>
 5    1  0.3144657E-003  0.9118800E+02  0.7818608E-02  0.1130116E+00
         25   -1    0    0    0    0  0.00000000000E+00  0.00000000000E+00  0.99999998245E-14  0.12500000000E+03  0.12500000000E+03 0.  0.
        -11    1    3    3    0    0 -0.12929035124E+02  0.58501276567E+02  0.90701058581E+01  0.60595594970E+02  0.51100000000E-03 0.  1.
         23    2    1    0    0    0 -0.16627994031E+01  0.28119723666E+02 -0.57876138877E+01  0.96242735954E+02  0.91845979708E+02 0.  0.
         11    1    3    3    0    0  0.11266235721E+02 -0.30381552901E+02 -0.14857719746E+02  0.35647140984E+02  0.51100000000E-03 0. -1.
         22    1    1    0    0    0  0.16627994031E+01 -0.28119723666E+02  0.57876138877E+01  0.28757264046E+02  0.00000000000E+00 0.  1.
</event>
<event>
 5    1  0.3144657E-003  0.9118800E+02  0.7818608E-02  0.1130116E+00
         25   -1    0    0    0    0  0.00000000000E+00  0.00000000000E+00  0.99999998245E-14  0.12500000000E+03  0.12500000000E+03 0.  0.
        -11    1    3    3    0    0  0.55301078810E+02  0.19281426420E+01 -0.13526396170E+02  0.56963939867E+02  0.51100000000E-03 0. -1.
         23    2    1    0    0    0  0.23320732865E+02  0.87031855047E+01  0.10954274309E+02  0.97804446229E+02  0.93947387176E+02 0.  0.
         11    1    3    3    0    0 -0.31980345945E+02  0.67750428627E+01  0.24480670479E+02  0.40840506362E+02  0.51100000000E-03 0.  1.
         22    1    1    0    0    0 -0.23320732865E+02 -0.87031855047E+01 -0.10954274309E+02  0.27195553771E+02  0.00000000000E+00 0. -1.
</event>
<event>
 5    1  0.3144657E-003  0.9118800E+02  0.7818608E-02  0.1130116E+00
         25   -1    0    0    0    0  0.00000000000E+00  0.00000000000E+00  0.99999998245E-14  0.12500000000E+03  0.12500000000E+03 0.  0.
        -11    1    3    3    0    0  0.89998503699E+01 -0.39310109102E+02 -0.23667442486E+02  0.46759275212E+02  0.51100000000E-03 0. -1.
         23    2    1    0    0    0 -0.10269079962E+02  0.20480617990E+01 -0.30369891859E+02  0.92875571727E+02  0.87142945392E+02 0.  0.
         11    1    3    3    0    0 -0.19268930331E+02  0.41358170901E+02 -0.67024493728E+01  0.46116296515E+02  0.51100000000E-03 0.  1.
         22    1    1    0    0    0  0.10269079962E+02 -0.20480617990E+01  0.30369891859E+02  0.32124428273E+02  0.00000000000E+00 0.  1.
</event>
<event>
 5    1  0.3144657E-003  0.9118800E+02  0.7818608E-02  0.1130116E+00
         25   -1    0    0    0    0  0.00000000000E+00  0.00000000000E+00  0.99999998245E-14  0.12500000000E+03  0.12500000000E+03 0.  0.
        -11    1    3    3    0    0 -0.14271049803E+01 -0.53025905670E+02  0.32129339736E+02  0.62016753969E+02  0.51100000000E-03 0. -1.
         23    2    1    0    0    0  0.48214080535E+01 -0.23477629587E+02  0.13910350643E+02  0.97288216917E+02  0.93257998205E+02 0.  0.
         11    1    3    3    0    0  0.62485130338E+01  0.29548276083E+02 -0.18218989092E+02  0.35271462947E+02  0.51100000000E-03 0.  1.
         22    1    1    0    0    0 -0.48214080535E+01  0.23477629587E+02 -0.13910350643E+02  0.27711783083E+02  0.00000000000E+00 0. -1.
</event>
<event>
 5    1  0.3144657E-003  0.9118800E+02  0.7818608E-02  0.1130116E+00
         25   -1    0    0    0    0  0.00000000000E+00  0.00000000000E+00  0.99999998245E-14  0.12500000000E+03  0.12500000000E+03 0.  0.
        -11    1    3    3    0    0  0.20540550212E+02 -0.30468360814E+02 -0.30831036658E+02  0.47966530366E+02  0.51100000000E-03 0. -1.
         23    2    1    0    0    0  0.15296399692E+02  0.14667007855E+02 -0.22368499745E+02  0.94186841386E+02  0.89003990621E+02 0.  0.
         11    1    3    3    0    0 -0.52441505197E+01  0.45135368669E+02  0.84625369128E+01  0.46220311020E+02  0.51100000000E-03 0.  1.
         22    1    1    0    0    0 -0.15296399692E+02 -0.14667007855E+02  0.22368499745E+02  0.30813158614E+02  0.00000000000E+00 0.  1.
</event>
<event>
 5    1  0.3144657E-003  0.9118800E+02  0.7818608E-02  0.1130116E+00
         25   -1    0    0    0    0  0.00000000000E+00  0.00000000000E+00  0.99999998245E-14  0.12500000000E+03  0.12500000000E+03 0.  0.
        -11    1    3    3    0    0  0.51906225190E+02  0.74445182566E+01 -0.25545823961E+02  0.58328948110E+02  0.51100000000E-03 0. -1.
         23    2    1    0    0    0  0.19613922064E+02 -0.97243304682E+01 -0.20052880835E+02  0.95311844591E+02  0.90570200109E+02 0.  0.
         11    1    3    3    0    0 -0.32292303126E+02 -0.17168848725E+02  0.54929431256E+01  0.36982896481E+02  0.51100000000E-03 0.  1.
         22    1    1    0    0    0 -0.19613922064E+02  0.97243304682E+01  0.20052880835E+02  0.29688155409E+02  0.00000000000E+00 0. -1.
</event>
<event>
 5    1  0.3144657E-003  0.9118800E+02  0.7818608E-02  0.1130116E+00
         25   -1    0    0    0    0  0.00000000000E+00  0.00000000000E+00  0.99999998245E-14  0.12500000000E+03  0.12500000000E+03 0.  0.
        -11    1    3    3    0    0  0.37493655895E+02 -0.33435145789E+02  0.88925003878E+01  0.51017249727E+02  0.51100000000E-03 0. -1.
         23    2    1    0    0    0  0.11242189025E+02 -0.16184700566E+02 -0.22269027473E+02  0.95263811087E+02  0.90503882633E+02 0.  0.
         11    1    3    3    0    0 -0.26251466870E+02  0.17250445223E+02 -0.31161527861E+02  0.44246561359E+02  0.51100000000E-03 0.  1.
         22    1    1    0    0    0 -0.11242189025E+02  0.16184700566E+02  0.22269027473E+02  0.29736188913E+02  0.00000000000E+00 0. -1.
</event>
<event>
 5    1  0.3144657E-003  0.9118800E+02  0.7818608E-02  0.1130116E+00
         25   -1    0    0    0    0  0.00000000000E+00  0.00000000000E+00  0.99999998245E-14  0.12500000000E+03  0.12500000000E+03 0.  0.
        -11    1    3    3    0    0 -0.14498861489E+02 -0.29474121639E+02  0.44772304385E+02  0.55529272200E+02  0.51100000000E-03 0.  1.
         23    2    1    0    0    0 -0.11297332256E+01 -0.30525092274E+02  0.99023498508E+01  0.92889034769E+02  0.87162254974E+02 0.  0.
         11    1    3    3    0    0  0.13369128263E+02 -0.10509706353E+01 -0.34869954534E+02  0.37359762569E+02  0.51100000000E-03 0. -1.
         22    1    1    0    0    0  0.11297332256E+01  0.30525092274E+02 -0.99023498508E+01  0.32110965231E+02  0.00000000000E+00 0.  1.
</event>
<event>
 5    1  0.3144657E-003  0.9118800E+02  0.7818608E-02  0.1130116E+00
         25   -1    0    0    0    0  0.00000000000E+00  0.00000000000E+00  0.99999998245E-14  0.12500000000E+03  0.12500000000E+03 0.  0.
        -11    1    3    3    0    0  0.14077986676E+02  0.31121589162E+02  0.43036399082E+01  0.34427668198E+02  0.51100000000E-03 0.  1.
         23    2    1    0    0    0 -0.23765914956E+02 -0.15643227176E+02 -0.71402771166E+01  0.95665501070E+02  0.91056989120E+02 0.  0.
         11    1    3    3    0    0 -0.37843901631E+02 -0.46764816338E+02 -0.11443917025E+02  0.61237832873E+02  0.51100000000E-03 0. -1.
         22    1    1    0    0    0  0.23765914956E+02  0.15643227176E+02  0.71402771166E+01  0.29334498930E+02  0.00000000000E+00 0. -1.
</event>
<event>
 5    1  0.3144657E-003  0.9118800E+02  0.7818608E-02  0.1130116E+00
         25   -1    0    0    0    0  0.00000000000E+00  0.00000000000E+00  0.99999998245E-14  0.12500000000E+03  0.12500000000E+03 0.  0.
        -11    1    3    3    0    0  0.45108012807E+02  0.17962958597E+02 -0.56808008272E+01  0.48884273537E+02  0.51100000000E-03 0. -1.
         23    2    1    0    0    0  0.14153771548E+01  0.16657133354E+02 -0.23560065408E+02  0.96111592877E+02  0.91667323618E+02 0.  0.
         11    1    3    3    0    0 -0.43692635652E+02 -0.13058252429E+01 -0.17879264581E+02  0.47227319340E+02  0.51100000000E-03 0.  1.
         22    1    1    0    0    0 -0.14153771548E+01 -0.16657133354E+02  0.23560065408E+02  0.28888407123E+02  0.00000000000E+00 0.  1.
</event>
<event>
 5    1  0.3144657E-003  0.9118800E+02  0.7818608E-02  0.1130116E+00
         25   -1    0    0    0    0  0.00000000000E+00  0.00000000000E+00  0.99999998245E-14  0.12500000000E+03  0.12500000000E+03 0.  0.
        -11    1    3    3    0    0  0.20869433058E+02  0.50155049558E+02  0.23637478451E+02  0.59243502767E+02  0.51100000000E-03 0. -1.
         23    2    1    0    0    0 -0.96414207743E+00  0.29497028811E+02  0.38321768654E+01  0.95239458033E+02  0.90470241010E+02 0.  0.
         11    1    3    3    0    0 -0.21833575135E+02 -0.20658020747E+02 -0.19805301586E+02  0.35995955266E+02  0.51100000000E-03 0.  1.
         22    1    1    0    0    0  0.96414207743E+00 -0.29497028811E+02 -0.38321768654E+01  0.29760541967E+02  0.00000000000E+00 0. -1.
</event>
<event>
 5    1  0.3144657E-003  0.9118800E+02  0.7818608E-02  0.1130116E+00
         25   -1    0    0    0    0  0.00000000000E+00  0.00000000000E+00  0.99999998245E-14  0.12500000000E+03  0.12500000000E+03 0.  0.
        -11    1    3    3    0    0  0.17792460833E+02  0.29181087123E+02  0.28940332539E+02  0.44784487894E+02  0.51100000000E-03 0. -1.
         23    2    1    0    0    0  0.15522936770E+02 -0.20023424566E+02  0.12772262948E+02  0.96626952964E+02  0.92367408976E+02 0.  0.
         11    1    3    3    0    0 -0.22695240639E+01 -0.49204511689E+02 -0.16168069592E+02  0.51842465070E+02  0.51100000000E-03 0.  1.
         22    1    1    0    0    0 -0.15522936770E+02  0.20023424566E+02 -0.12772262948E+02  0.28373047036E+02  0.00000000000E+00 0.  1.
</event>
<event>
 5    1  0.3144657E-003  0.9118800E+02  0.7818608E-02  0.1130116E+00
         25   -1    0    0    0    0  0.00000000000E+00  0.00000000000E+00  0.99999998245E-14  0.12500000000E+03  0.12500000000E+03 0.  0.
        -11    1    3    3    0    0  0.78778296140E+01  0.26493697048E+02  0.11540848517E+02  0.29952752252E+02  0.51100000000E-03 0. -1.
         23    2    1    0    0    0 -0.11587751293E+02 -0.25126032523E+02  0.26050685147E+02  0.86996951609E+02  0.78257510198E+02 0.  0.
         11    1    3    3    0    0 -0.19465580907E+02 -0.51619729571E+02  0.14509836630E+02  0.57044199357E+02  0.51100000000E-03 0.  1.
         22    1    1    0    0    0  0.11587751293E+02  0.25126032523E+02 -0.26050685147E+02  0.38003048391E+02  0.00000000000E+00 0.  1.
</event>
<event>
 5    1  0.3144657E-003  0.9118800E+02  0.7818608E-02  0.1130116E+00
         25   -1    0    0    0    0  0.00000000000E+00  0.00000000000E+00  0.99999998245E-14  0.12500000000E+03  0.12500000000E+03 0.  0.
        -11    1    3    3    0    0 -0.28517869421E+02  0.26074574750E+02 -0.43304192778E+02  0.58037965480E+02  0.51100000000E-03 0.  1.
         23    2    1    0    0    0  0.11708175240E+01  0.89998104801E+01 -0.28028442702E+02  0.95538822110E+02  0.90882922090E+02 0.  0.
         11    1    3    3    0    0  0.29688686945E+02 -0.17074764270E+02  0.15275750076E+02  0.37500856630E+02  0.51100000000E-03 0. -1.
         22    1    1    0    0    0 -0.11708175240E+01 -0.89998104801E+01  0.28028442702E+02  0.29461177890E+02  0.00000000000E+00 0.  1.
</event>
<event>
 5    1  0.3144657E-003  0.9118800E+02  0.7818608E-02  0.1130116E+00
         25   -1    0    0    0    0  0.00000000000E+00  0.00000000000E+00  0.99999998245E-14  0.12500000000E+03  0.12500000000E+03 0.  0.
        -11    1    3    3    0    0 -0.15571115921E+02 -0.35629674524E+02  0.99222030726E+01  0.40129583499E+02  0.51100000000E-03 0. -1.
         23    2    1    0    0    0  0.27826436599E+02 -0.28327911070E+02 -0.21988904804E+00  0.85290687860E+02  0.75482924990E+02 0.  0.
         11    1    3    3    0    0  0.43397552520E+02  0.73017634537E+01 -0.10142092121E+02  0.45161104361E+02  0.51100000000E-03 0.  1.
         22    1    1    0    0    0 -0.27826436599E+02  0.28327911070E+02  0.21988904804E+00  0.39709312140E+02  0.00000000000E+00 0.  1.
</event>
<event>
 4    1  0.3144657E-003  0.9118800E+02  0.7818608E-02  0.1130116E+00
         25   -1    0    0    0    0  0.00000000000E+00  0.00000000000E+00  0.99999998245E-14  0.12500000000E+03  0.12500000000E+03 0.  0.
        -11    1    1    0    0    0 -0.26963319048E+02  0.11471880954E+02 -0.30386388139E+02  0.42213235024E+02  0.51100000000E-03 0.  1.
         11    1    1    0    0    0  0.18214993190E+02  0.20682698333E+02 -0.10980819238E+02  0.29667126228E+02  0.51100000000E-03 0. -1.
         22    1    1    0    0    0  0.87483258583E+01 -0.32154579288E+02  0.41367207378E+02  0.53119638748E+02  0.00000000000E+00 0.  1.
</event>
<event>
 5    1  0.3144657E-003  0.9118800E+02  0.7818608E-02  0.1130116E+00
         25   -1    0    0    0    0  0.00000000000E+00  0.00000000000E+00  0.99999998245E-14  0.12500000000E+03  0.12500000000E+03 0.  0.
        -11    1    3    3    0    0  0.58379406840E+02  0.94472725515E+01  0.93095994430E+01  0.59867142438E+02  0.51100000000E-03 0.  1.
         23    2    1    0    0    0  0.28951439315E+02 -0.82127045261E+01  0.56305972995E+01  0.94384024105E+02  0.89280490738E+02 0.  0.
         11    1    3    3    0    0 -0.29427967525E+02 -0.17659977078E+02 -0.36790021436E+01  0.34516881668E+02  0.51100000000E-03 0. -1.
         22    1    1    0    0    0 -0.28951439315E+02  0.82127045261E+01 -0.56305972995E+01  0.30615975895E+02  0.00000000000E+00 0.  1.
</event>
<event>
 5    1  0.3144657E-003  0.9118800E+02  0.7818608E-02  0.1130116E+00
         25   -1    0    0    0    0  0.00000000000E+00  0.00000000000E+00  0.99999998245E-14  0.12500000000E+03  0.12500000000E+03 0.  0.
        -11    1    3    3    0    0 -0.22676447425E+01 -0.15053987633E+02 -0.35949328774E+02  0.39039966648E+02  0.51100000000E-03 0. -1.
         23    2    1    0    0    0  0.13299027714E+02 -0.13752214974E+02  0.20115276281E+02  0.97240102762E+02  0.93193485236E+02 0.  0.
         11    1    3    3    0    0  0.15566672457E+02  0.13017726592E+01  0.56064605055E+02  0.58200136114E+02  0.51100000000E-03 0.  1.
         22    1    1    0    0    0 -0.13299027714E+02  0.13752214974E+02 -0.20115276281E+02  0.27759897238E+02  0.00000000000E+00 0.  1.
</event>
<event>
 5    1  0.3144657E-003  0.9118800E+02  0.7818608E-02  0.1130116E+00
         25   -1    0    0    0    0  0.00000000000E+00  0.00000000000E+00  0.99999998245E-14  0.12500000000E+03  0.12500000000E+03 0.  0.
        -11    1    3    3    0    0 -0.37741992564E+02 -0.44017206860E+02 -0.21338383069E+02  0.61784294888E+02  0.51100000000E-03 0.  1.
         23    2    1    0    0    0 -0.15899678997E+02 -0.18256181825E+02 -0.16007993776E+02  0.95976839735E+02  0.91483386108E+02 0.  0.
         11    1    3    3    0    0  0.21842313568E+02  0.25761025036E+02  0.53303892923E+01  0.34192544847E+02  0.51100000000E-03 0. -1.
         22    1    1    0    0    0  0.15899678997E+02  0.18256181825E+02  0.16007993776E+02  0.29023160265E+02  0.00000000000E+00 0.  1.
</event>
<event>
 5    1  0.3144657E-003  0.9118800E+02  0.7818608E-02  0.1130116E+00
         25   -1    0    0    0    0  0.00000000000E+00  0.00000000000E+00  0.99999998245E-14  0.12500000000E+03  0.12500000000E+03 0.  0.
        -11    1    3    3    0    0  0.76762395812E+01  0.57106293660E+02  0.23727440213E+02  0.62314082269E+02  0.51100000000E-03 0. -1.
         23    2    1    0    0    0  0.38197849317E+01  0.27856746722E+02  0.79015611110E+01  0.95793429457E+02  0.91232435922E+02 0.  0.
         11    1    3    3    0    0 -0.38564546495E+01 -0.29249546938E+02 -0.15825879102E+02  0.33479347188E+02  0.51100000000E-03 0.  1.
         22    1    1    0    0    0 -0.38197849317E+01 -0.27856746722E+02 -0.79015611110E+01  0.29206570543E+02  0.00000000000E+00 0. -1.
</event>
<event>
 5    1  0.3144657E-003  0.9118800E+02  0.7818608E-02  0.1130116E+00
         25   -1    0    0    0    0  0.00000000000E+00  0.00000000000E+00  0.99999998245E-14  0.12500000000E+03  0.12500000000E+03 0.  0.
        -11    1    3    3    0    0  0.37768294875E+02 -0.43223457186E+02  0.50198810050E+01  0.57618664983E+02  0.51100000000E-03 0. -1.
         23    2    1    0    0    0  0.96567617079E+01 -0.25339780219E+02 -0.12361553502E+02  0.95197894148E+02  0.90412795206E+02 0.  0.
         11    1    3    3    0    0 -0.28111533167E+02  0.17883676967E+02 -0.17381434507E+02  0.37579229165E+02  0.51100000000E-03 0.  1.
         22    1    1    0    0    0 -0.96567617079E+01  0.25339780219E+02  0.12361553502E+02  0.29802105852E+02  0.00000000000E+00 0. -1.
</event>
<event>
 5    1  0.3144657E-003  0.9118800E+02  0.7818608E-02  0.1130116E+00
         25   -1    0    0    0    0  0.00000000000E+00  0.00000000000E+00  0.99999998245E-14  0.12500000000E+03  0.12500000000E+03 0.  0.
        -11    1    3    3    0    0  0.55781020705E+01  0.13664261748E+02  0.55791459454E+02  0.57710607518E+02  0.51100000000E-03 0. -1.
         23    2    1    0    0    0 -0.10993168164E+02  0.15550861470E+02  0.19035078797E+02  0.98073929668E+02  0.94305261873E+02 0.  0.
         11    1    3    3    0    0 -0.16571270234E+02  0.18865997220E+01 -0.36756380657E+02  0.40363322150E+02  0.51100000000E-03 0.  1.
         22    1    1    0    0    0  0.10993168164E+02 -0.15550861470E+02 -0.19035078797E+02  0.26926070332E+02  0.00000000000E+00 0. -1.
</event>
<event>
 5    1  0.3144657E-003  0.9118800E+02  0.7818608E-02  0.1130116E+00
         25   -1    0    0    0    0  0.00000000000E+00  0.00000000000E+00  0.99999998245E-14  0.12500000000E+03  0.12500000000E+03 0.  0.
        -11    1    3    3    0    0 -0.13829676269E+02 -0.35576579382E+02 -0.82035846433E+01  0.39041666813E+02  0.51100000000E-03 0.  1.
         23    2    1    0    0    0  0.20082226709E+02  0.14723279718E+02 -0.25748248472E+01  0.99966012737E+02  0.96780696341E+02 0.  0.
         11    1    3    3    0    0  0.33911902979E+02  0.50299859101E+02  0.56287597961E+01  0.60924345924E+02  0.51100000000E-03 0. -1.
         22    1    1    0    0    0 -0.20082226709E+02 -0.14723279718E+02  0.25748248472E+01  0.25033987263E+02  0.00000000000E+00 0. -1.
</event>
<event>
 5    1  0.3144657E-003  0.9118800E+02  0.7818608E-02  0.1130116E+00
         25   -1    0    0    0    0  0.00000000000E+00  0.00000000000E+00  0.99999998245E-14  0.12500000000E+03  0.12500000000E+03 0.  0.
        -11    1    3    3    0    0  0.29750754584E+02  0.19124052123E+02 -0.40873080017E+02  0.54050397207E+02  0.51100000000E-03 0.  1.
         23    2    1    0    0    0  0.23848423195E+02 -0.10977595113E+02 -0.12159802452E+02  0.96067048560E+02  0.91606561665E+02 0.  0.
         11    1    3    3    0    0 -0.59023313889E+01 -0.30101647236E+02  0.28713277565E+02  0.42016651353E+02  0.51100000000E-03 0. -1.
         22    1    1    0    0    0 -0.23848423195E+02  0.10977595113E+02  0.12159802452E+02  0.28932951440E+02  0.00000000000E+00 0.  1.
</event>
<event>
 5    1  0.3144657E-003  0.9118800E+02  0.7818608E-02  0.1130116E+00
         25   -1    0    0    0    0  0.00000000000E+00  0.00000000000E+00  0.99999998245E-14  0.12500000000E+03  0.12500000000E+03 0.  0.
        -11    1    3    3    0    0 -0.39504667642E+02  0.80588734800E+01  0.24183214440E+00  0.40319011525E+02  0.51100000000E-03 0. -1.
         23    2    1    0    0    0  0.26446693431E+01 -0.25618645283E+02 -0.13399300686E+02  0.95968111998E+02  0.91471460028E+02 0.  0.
         11    1    3    3    0    0  0.42149336985E+02 -0.33677518763E+02 -0.13641132830E+02  0.55649100473E+02  0.51100000000E-03 0.  1.
         22    1    1    0    0    0 -0.26446693431E+01  0.25618645283E+02  0.13399300686E+02  0.29031888002E+02  0.00000000000E+00 0.  1.
</event>
<event>
 5    1  0.3144657E-003  0.9118800E+02  0.7818608E-02  0.1130116E+00
         25   -1    0    0    0    0  0.00000000000E+00  0.00000000000E+00  0.99999998245E-14  0.12500000000E+03  0.12500000000E+03 0.  0.
        -11    1    3    3    0    0  0.27393597452E+02 -0.61278618220E+01 -0.27436953814E+02  0.39252341418E+02  0.51100000000E-03 0.  1.
         23    2    1    0    0    0  0.26992357453E+02 -0.48227388337E+01  0.22697104719E+02  0.89404990050E+02  0.82013703199E+02 0.  0.
         11    1    3    3    0    0 -0.40123999883E+00  0.13051229883E+01  0.50134058533E+02  0.50152648632E+02  0.51100000000E-03 0. -1.
         22    1    1    0    0    0 -0.26992357453E+02  0.48227388337E+01 -0.22697104719E+02  0.35595009950E+02  0.00000000000E+00 0. -1.
</event>
<event>
 5    1  0.3144657E-003  0.9118800E+02  0.7818608E-02  0.1130116E+00
         25   -1    0    0    0    0  0.00000000000E+00  0.00000000000E+00  0.99999998245E-14  0.12500000000E+03  0.12500000000E+03 0.  0.
        -11    1    3    3    0    0 -0.99107077783E+01  0.28902960370E+02 -0.28384230890E+01  0.30686477359E+02  0.51100000000E-03 0.  1.
         23    2    1    0    0    0  0.21696283256E+02 -0.23685481855E+02  0.48248289933E+01  0.92519086641E+02  0.86630085191E+02 0.  0.
         11    1    3    3    0    0  0.31606991035E+02 -0.52588442225E+02  0.76632520824E+01  0.61832609282E+02  0.51100000000E-03 0. -1.
         22    1    1    0    0    0 -0.21696283256E+02  0.23685481855E+02 -0.48248289933E+01  0.32480913359E+02  0.00000000000E+00 0. -1.
</event>
<event>
 5    1  0.3144657E-003  0.9118800E+02  0.7818608E-02  0.1130116E+00
         25   -1    0    0    0    0  0.00000000000E+00  0.00000000000E+00  0.99999998245E-14  0.12500000000E+03  0.12500000000E+03 0.  0.
        -11    1    3    3    0    0 -0.40896016639E+00 -0.34483576292E+02  0.33399014573E+02  0.48008108242E+02  0.51100000000E-03 0.  1.
         23    2    1    0    0    0  0.66488003620E+01 -0.24186845334E+02 -0.13481793897E+02  0.96522486061E+02  0.92225926481E+02 0.  0.
         11    1    3    3    0    0  0.70577605284E+01  0.10296730958E+02 -0.46880808470E+02  0.48514377819E+02  0.51100000000E-03 0. -1.
         22    1    1    0    0    0 -0.66488003620E+01  0.24186845334E+02  0.13481793897E+02  0.28477513939E+02  0.00000000000E+00 0.  1.
</event>
<event>
 5    1  0.3144657E-003  0.9118800E+02  0.7818608E-02  0.1130116E+00
         25   -1    0    0    0    0  0.00000000000E+00  0.00000000000E+00  0.99999998245E-14  0.12500000000E+03  0.12500000000E+03 0.  0.
        -11    1    3    3    0    0 -0.29215391026E+02 -0.14297471887E+02  0.24173760536E+02  0.40525639710E+02  0.51100000000E-03 0.  1.
         23    2    1    0    0    0 -0.10890094521E+02 -0.61783431116E+01 -0.26865896059E+02  0.95359783176E+02  0.90636338155E+02 0.  0.
         11    1    3    3    0    0  0.18325296505E+02  0.81191287758E+01 -0.51039656596E+02  0.54834143467E+02  0.51100000000E-03 0. -1.
         22    1    1    0    0    0  0.10890094521E+02  0.61783431116E+01  0.26865896059E+02  0.29640216824E+02  0.00000000000E+00 0. -1.
</event>
<event>
 5    1  0.3144657E-003  0.9118800E+02  0.7818608E-02  0.1130116E+00
         25   -1    0    0    0    0  0.00000000000E+00  0.00000000000E+00  0.99999998245E-14  0.12500000000E+03  0.12500000000E+03 0.  0.
        -11    1    3    3    0    0 -0.66921622328E+01 -0.11331442353E+02  0.37201053871E+02  0.39460170178E+02  0.51100000000E-03 0.  1.
         23    2    1    0    0    0  0.15260630760E+02 -0.18235012740E+02 -0.15259742074E+02  0.96746464487E+02  0.92529001517E+02 0.  0.
         11    1    3    3    0    0  0.21952792992E+02 -0.69035703866E+01 -0.52460795945E+02  0.57286294309E+02  0.51100000000E-03 0. -1.
         22    1    1    0    0    0 -0.15260630760E+02  0.18235012740E+02  0.15259742074E+02  0.28253535513E+02  0.00000000000E+00 0. -1.
</event>
<event>
 5    1  0.3144657E-003  0.9118800E+02  0.7818608E-02  0.1130116E+00
         25   -1    0    0    0    0  0.00000000000E+00  0.00000000000E+00  0.99999998245E-14  0.12500000000E+03  0.12500000000E+03 0.  0.
        -11    1    3    3    0    0 -0.67523469376E+01 -0.76789173354E+01 -0.22072636282E+02  0.24326143001E+02  0.51100000000E-03 0.  1.
         23    2    1    0    0    0  0.11165031837E+02 -0.80733286821E+01  0.36714994694E+02  0.85784857424E+02  0.76296883003E+02 0.  0.
         11    1    3    3    0    0  0.17917378775E+02 -0.39441134672E+00  0.58787630976E+02  0.61458714422E+02  0.51100000000E-03 0. -1.
         22    1    1    0    0    0 -0.11165031837E+02  0.80733286821E+01 -0.36714994694E+02  0.39215142576E+02  0.00000000000E+00 0. -1.
</event>
<event>
 5    1  0.3144657E-003  0.9118800E+02  0.7818608E-02  0.1130116E+00
         25   -1    0    0    0    0  0.00000000000E+00  0.00000000000E+00  0.99999998245E-14  0.12500000000E+03  0.12500000000E+03 0.  0.
        -11    1    3    3    0    0  0.52451250958E+01 -0.40184917594E+02 -0.41967063112E+02  0.58340151918E+02  0.51100000000E-03 0.  1.
         23    2    1    0    0    0 -0.37634151542E+01 -0.68294796013E+01 -0.28549816129E+02  0.95404441443E+02  0.90697907147E+02 0.  0.
         11    1    3    3    0    0 -0.90085402501E+01  0.33355437993E+02  0.13417246983E+02  0.37064289525E+02  0.51100000000E-03 0. -1.
         22    1    1    0    0    0  0.37634151542E+01  0.68294796013E+01  0.28549816129E+02  0.29595558557E+02  0.00000000000E+00 0.  1.
</event>
<event>
 5    1  0.3144657E-003  0.9118800E+02  0.7818608E-02  0.1130116E+00
         25   -1    0    0    0    0  0.00000000000E+00  0.00000000000E+00  0.99999998245E-14  0.12500000000E+03  0.12500000000E+03 0.  0.
        -11    1    3    3    0    0  0.65392433841E+01 -0.51166057015E+02 -0.29378001571E+02  0.59361553812E+02  0.51100000000E-03 0.  1.
         23    2    1    0    0    0  0.64772575648E+01 -0.28698322103E+02 -0.99233105464E+00  0.95563062693E+02  0.90916256375E+02 0.  0.
         11    1    3    3    0    0 -0.61985819219E-01  0.22467734911E+02  0.28385670517E+02  0.36201508880E+02  0.51100000000E-03 0. -1.
         22    1    1    0    0    0 -0.64772575648E+01  0.28698322103E+02  0.99233105464E+00  0.29436937307E+02  0.00000000000E+00 0.  1.
</event>
<event>
 5    1  0.3144657E-003  0.9118800E+02  0.7818608E-02  0.1130116E+00
         25   -1    0    0    0    0  0.00000000000E+00  0.00000000000E+00  0.99999998245E-14  0.12500000000E+03  0.12500000000E+03 0.  0.
        -11    1    3    3    0    0  0.43337995168E+02 -0.28578540569E+02  0.84597497455E+01  0.52597358985E+02  0.51100000000E-03 0.  1.
         23    2    1    0    0    0  0.29559348468E+02  0.97067585358E+01  0.56068768488E+01  0.93386501125E+02  0.87872778955E+02 0.  0.
         11    1    3    3    0    0 -0.13778646700E+02  0.38285299105E+02 -0.28528728967E+01  0.40789142139E+02  0.51100000000E-03 0. -1.
         22    1    1    0    0    0 -0.29559348468E+02 -0.97067585358E+01 -0.56068768488E+01  0.31613498875E+02  0.00000000000E+00 0.  1.
</event>
<event>
 5    1  0.3144657E-003  0.9118800E+02  0.7818608E-02  0.1130116E+00
         25   -1    0    0    0    0  0.00000000000E+00  0.00000000000E+00  0.99999998245E-14  0.12500000000E+03  0.12500000000E+03 0.  0.
        -11    1    3    3    0    0  0.36936206532E+02  0.92584736263E+01 -0.14108374588E+02  0.40608483358E+02  0.51100000000E-03 0. -1.
         23    2    1    0    0    0  0.52212098169E+01 -0.64748087908E+01  0.28097786295E+02  0.95696932320E+02  0.91100126673E+02 0.  0.
         11    1    3    3    0    0 -0.31714996715E+02 -0.15733282417E+02  0.42206160882E+02  0.55088448961E+02  0.51100000000E-03 0.  1.
         22    1    1    0    0    0 -0.52212098169E+01  0.64748087908E+01 -0.28097786295E+02  0.29303067680E+02  0.00000000000E+00 0. -1.
</event>
<event>
 5    1  0.3144657E-003  0.9118800E+02  0.7818608E-02  0.1130116E+00
         25   -1    0    0    0    0  0.00000000000E+00  0.00000000000E+00  0.99999998245E-14  0.12500000000E+03  0.12500000000E+03 0.  0.
        -11    1    3    3    0    0  0.13357384465E+02 -0.19031335928E+02 -0.25842796485E+02  0.34762934246E+02  0.51100000000E-03 0. -1.
         23    2    1    0    0    0 -0.29383146955E+02 -0.14018339412E+02  0.10186478369E+02  0.90887722058E+02  0.84243281717E+02 0.  0.
         11    1    3    3    0    0 -0.42740531420E+02  0.50129965159E+01  0.36029274854E+02  0.56124787812E+02  0.51100000000E-03 0.  1.
         22    1    1    0    0    0  0.29383146955E+02  0.14018339412E+02 -0.10186478369E+02  0.34112277942E+02  0.00000000000E+00 0.  1.
</event>
<event>
 5    1  0.3144657E-003  0.9118800E+02  0.7818608E-02  0.1130116E+00
         25   -1    0    0    0    0  0.00000000000E+00  0.00000000000E+00  0.99999998245E-14  0.12500000000E+03  0.12500000000E+03 0.  0.
        -11    1    3    3    0    0 -0.60839170805E+01 -0.32938163073E+02 -0.50719672682E+02  0.60781755740E+02  0.51100000000E-03 0. -1.
         23    2    1    0    0    0 -0.73547385573E+01 -0.67275296008E+01 -0.27238375330E+02  0.95995156881E+02  0.91508410652E+02 0.  0.
         11    1    3    3    0    0 -0.12708214767E+01  0.26210633473E+02  0.23481297352E+02  0.35213401140E+02  0.51100000000E-03 0.  1.
         22    1    1    0    0    0  0.73547385573E+01  0.67275296008E+01  0.27238375330E+02  0.29004843119E+02  0.00000000000E+00 0. -1.
</event>
<event>
 5    1  0.3144657E-003  0.9118800E+02  0.7818608E-02  0.1130116E+00
         25   -1    0    0    0    0  0.00000000000E+00  0.00000000000E+00  0.99999998245E-14  0.12500000000E+03  0.12500000000E+03 0.  0.
        -11    1    3    3    0    0 -0.23864853436E+02  0.10248003921E+02  0.41757937678E+02  0.49175991838E+02  0.51100000000E-03 0. -1.
         23    2    1    0    0    0 -0.12328977141E+02  0.24344729744E+02 -0.30467315889E+01  0.97541811476E+02  0.93597290928E+02 0.  0.
         11    1    3    3    0    0  0.11535876295E+02  0.14096725823E+02 -0.44804669267E+02  0.48365819638E+02  0.51100000000E-03 0.  1.
         22    1    1    0    0    0  0.12328977141E+02 -0.24344729744E+02  0.30467315889E+01  0.27458188524E+02  0.00000000000E+00 0. -1.
</event>
<event>
 5    1  0.3144657E-003  0.9118800E+02  0.7818608E-02  0.1130116E+00
         25   -1    0    0    0    0  0.00000000000E+00  0.00000000000E+00  0.99999998245E-14  0.12500000000E+03  0.12500000000E+03 0.  0.
        -11    1    3    3    0    0  0.15384348877E+02  0.46305311146E+02 -0.36297493553E+02  0.60814209435E+02  0.51100000000E-03 0. -1.
         23    2    1    0    0    0  0.81691934253E+01  0.27306539365E+02 -0.84830643067E+01  0.95262058017E+02  0.90501461338E+02 0.  0.
         11    1    3    3    0    0 -0.72151554513E+01 -0.18998771781E+02  0.27814429246E+02  0.34447848582E+02  0.51100000000E-03 0.  1.
         22    1    1    0    0    0 -0.81691934253E+01 -0.27306539365E+02  0.84830643067E+01  0.29737941983E+02  0.00000000000E+00 0. -1.
</event>
<event>
 5    1  0.3144657E-003  0.9118800E+02  0.7818608E-02  0.1130116E+00
         25   -1    0    0    0    0  0.00000000000E+00  0.00000000000E+00  0.99999998245E-14  0.12500000000E+03  0.12500000000E+03 0.  0.
        -11    1    3    3    0    0 -0.40593564727E+02  0.22576999883E+02 -0.40931902282E+02  0.61911057539E+02  0.51100000000E-03 0. -1.
         23    2    1    0    0    0 -0.14220991719E+02  0.12767000650E+02 -0.22166563210E+02  0.95732450809E+02  0.91148849155E+02 0.  0.
         11    1    3    3    0    0  0.26372573008E+02 -0.98099992324E+01  0.18765339072E+02  0.33821393270E+02  0.51100000000E-03 0.  1.
         22    1    1    0    0    0  0.14220991719E+02 -0.12767000650E+02  0.22166563210E+02  0.29267549191E+02  0.00000000000E+00 0. -1.
</event>
<event>
 5    1  0.3144657E-003  0.9118800E+02  0.7818608E-02  0.1130116E+00
         25   -1    0    0    0    0  0.00000000000E+00  0.00000000000E+00  0.99999998245E-14  0.12500000000E+03  0.12500000000E+03 0.  0.
        -11    1    3    3    0    0  0.27849827365E+02  0.16286393346E+02 -0.18534975933E+02  0.37207590968E+02  0.51100000000E-03 0. -1.
         23    2    1    0    0    0 -0.28144981235E+02  0.33766209184E+01 -0.64675572469E+01  0.95924738449E+02  0.91412168841E+02 0.  0.
         11    1    3    3    0    0 -0.55994808600E+02 -0.12909772428E+02  0.12067418687E+02  0.58717147481E+02  0.51100000000E-03 0.  1.
         22    1    1    0    0    0  0.28144981235E+02 -0.33766209184E+01  0.64675572469E+01  0.29075261551E+02  0.00000000000E+00 0.  1.
</event>
