<event>
 5    1  0.8957809E-005  0.9118800E+02  0.7818608E-02  0.1130116E+00
         25   -1    0    0    0    0  0.00000000000E+00  0.00000000000E+00  0.99999998245E-14  0.12500000000E+03  0.12500000000E+03 0.  0.
        -11    1    3    3    0    0 -0.47980501149E+00  0.44742923977E+02 -0.10169857038E+02  0.45886658751E+02  0.51100000000E-03 0.  1.
         23    2    1    0    0    0  0.27380411083E+02  0.62585588243E+01  0.63815415576E+01  0.96197560133E+02  0.91784475992E+02 0.  0.
         11    1    3    3    0    0  0.27860216095E+02 -0.38484365153E+02  0.16551398596E+02  0.50310901382E+02  0.51100000000E-03 0. -1.
         22    1    1    0    0    0 -0.27380411083E+02 -0.62585588243E+01 -0.63815415576E+01  0.28802439867E+02  0.00000000000E+00 0.  1.
</event>
<event>
 5    1  0.8957809E-005  0.9118800E+02  0.7818608E-02  0.1130116E+00
         25   -1    0    0    0    0  0.00000000000E+00  0.00000000000E+00  0.99999998245E-14  0.12500000000E+03  0.12500000000E+03 0.  0.
        -11    1    3    3    0    0 -0.28080964179E+02  0.20444988458E+02  0.28043747757E+02  0.44642915348E+02  0.51100000000E-03 0. -1.
         23    2    1    0    0    0 -0.16084489952E+02  0.47993728382E+01 -0.21359204996E+02  0.97834572805E+02  0.93987463000E+02 0.  0.
         11    1    3    3    0    0  0.11996474228E+02 -0.15645615620E+02 -0.49402952753E+02  0.53191657456E+02  0.51100000000E-03 0.  1.
         22    1    1    0    0    0  0.16084489952E+02 -0.47993728382E+01  0.21359204996E+02  0.27165427195E+02  0.00000000000E+00 0.  1.
</event>
<event>
 5    1  0.8957809E-005  0.9118800E+02  0.7818608E-02  0.1130116E+00
         25   -1    0    0    0    0  0.00000000000E+00  0.00000000000E+00  0.99999998245E-14  0.12500000000E+03  0.12500000000E+03 0.  0.
        -11    1    3    3    0    0 -0.28309201531E+02  0.45888780757E+02  0.21888766493E+02  0.58192002797E+02  0.51100000000E-03 0.  1.
         23    2    1    0    0    0 -0.23891199592E+02  0.91028550948E+01  0.13109854487E+02  0.96268141837E+02  0.91880549950E+02 0.  0.
         11    1    3    3    0    0  0.44180019383E+01 -0.36785925662E+02 -0.87789120063E+01  0.38076139040E+02  0.51100000000E-03 0. -1.
         22    1    1    0    0    0  0.23891199592E+02 -0.91028550948E+01 -0.13109854487E+02  0.28731858163E+02  0.00000000000E+00 0.  1.
</event>
<event>
 5    1  0.8957809E-005  0.9118800E+02  0.7818608E-02  0.1130116E+00
         25   -1    0    0    0    0  0.00000000000E+00  0.00000000000E+00  0.99999998245E-14  0.12500000000E+03  0.12500000000E+03 0.  0.
        -11    1    3    3    0    0 -0.25095100033E+02 -0.27791258134E+02 -0.47899419513E+02  0.60798622224E+02  0.51100000000E-03 0.  1.
         23    2    1    0    0    0 -0.99521173966E+01 -0.38143334013E+01 -0.26839553549E+02  0.96121713786E+02  0.91681123719E+02 0.  0.
         11    1    3    3    0    0  0.15142982637E+02  0.23976924733E+02  0.21059865964E+02  0.35323091562E+02  0.51100000000E-03 0. -1.
         22    1    1    0    0    0  0.99521173966E+01  0.38143334013E+01  0.26839553549E+02  0.28878286214E+02  0.00000000000E+00 0.  1.
</event>
<event>
 5    1  0.8957809E-005  0.9118800E+02  0.7818608E-02  0.1130116E+00
         25   -1    0    0    0    0  0.00000000000E+00  0.00000000000E+00  0.99999998245E-14  0.12500000000E+03  0.12500000000E+03 0.  0.
        -11    1    3    3    0    0  0.44423418104E+02  0.39878445196E+02 -0.16597900699E+02  0.61961445877E+02  0.51100000000E-03 0. -1.
         23    2    1    0    0    0  0.19137945230E+02  0.18720660101E+02 -0.13331350916E+02  0.95092660107E+02  0.90267186877E+02 0.  0.
         11    1    3    3    0    0 -0.25285472874E+02 -0.21157785095E+02  0.32665497830E+01  0.33131214230E+02  0.51100000000E-03 0.  1.
         22    1    1    0    0    0 -0.19137945230E+02 -0.18720660101E+02  0.13331350916E+02  0.29907339893E+02  0.00000000000E+00 0. -1.
</event>
<event>
 5    1  0.8957809E-005  0.9118800E+02  0.7818608E-02  0.1130116E+00
         25   -1    0    0    0    0  0.00000000000E+00  0.00000000000E+00  0.99999998245E-14  0.12500000000E+03  0.12500000000E+03 0.  0.
        -11    1    3    3    0    0  0.25481134650E+02 -0.30879384554E+02  0.27811761969E+01  0.40131777369E+02  0.51100000000E-03 0. -1.
         23    2    1    0    0    0  0.50926859590E+01  0.14984087707E+02 -0.23407598971E+02  0.96744486834E+02  0.92526329812E+02 0.  0.
         11    1    3    3    0    0 -0.20388448691E+02  0.45863472262E+02 -0.26188775168E+02  0.56612709465E+02  0.51100000000E-03 0.  1.
         22    1    1    0    0    0 -0.50926859590E+01 -0.14984087707E+02  0.23407598971E+02  0.28255513166E+02  0.00000000000E+00 0.  1.
</event>
<event>
 5    1  0.8957809E-005  0.9118800E+02  0.7818608E-02  0.1130116E+00
         25   -1    0    0    0    0  0.00000000000E+00  0.00000000000E+00  0.99999998245E-14  0.12500000000E+03  0.12500000000E+03 0.  0.
        -11    1    3    3    0    0  0.30211122826E+02  0.37026547259E+02 -0.32996817410E+02  0.58072946402E+02  0.51100000000E-03 0.  1.
         23    2    1    0    0    0  0.78806080660E+01  0.80117750069E+01 -0.27751104734E+02  0.95059787305E+02  0.90221653865E+02 0.  0.
         11    1    3    3    0    0 -0.22330514760E+02 -0.29014772252E+02  0.52457126758E+01  0.36986840903E+02  0.51100000000E-03 0. -1.
         22    1    1    0    0    0 -0.78806080660E+01 -0.80117750069E+01  0.27751104734E+02  0.29940212695E+02  0.00000000000E+00 0.  1.
</event>
<event>
 5    1  0.8957809E-005  0.9118800E+02  0.7818608E-02  0.1130116E+00
         25   -1    0    0    0    0  0.00000000000E+00  0.00000000000E+00  0.99999998245E-14  0.12500000000E+03  0.12500000000E+03 0.  0.
        -11    1    3    3    0    0 -0.14392580634E+02 -0.33121808234E+02 -0.14592845733E+02  0.38950631636E+02  0.51100000000E-03 0.  1.
         23    2    1    0    0    0  0.29192004118E+02  0.13141685370E+01 -0.38650708838E+01  0.95523926375E+02  0.90862432247E+02 0.  0.
         11    1    3    3    0    0  0.43584584752E+02  0.34435976771E+02  0.10727774849E+02  0.56573294739E+02  0.51100000000E-03 0. -1.
         22    1    1    0    0    0 -0.29192004118E+02 -0.13141685370E+01  0.38650708838E+01  0.29476073625E+02  0.00000000000E+00 0. -1.
</event>
<event>
 5    1  0.8957809E-005  0.9118800E+02  0.7818608E-02  0.1130116E+00
         25   -1    0    0    0    0  0.00000000000E+00  0.00000000000E+00  0.99999998245E-14  0.12500000000E+03  0.12500000000E+03 0.  0.
        -11    1    3    3    0    0  0.86160480664E+01  0.39363424623E+02  0.45262201124E+02  0.60600184267E+02  0.51100000000E-03 0.  1.
         23    2    1    0    0    0  0.95282192739E+01  0.10045861927E+02  0.25547777424E+02  0.95941520417E+02  0.91435114175E+02 0.  0.
         11    1    3    3    0    0  0.91217120755E+00 -0.29317562697E+02 -0.19714423700E+02  0.35341336150E+02  0.51100000000E-03 0. -1.
         22    1    1    0    0    0 -0.95282192739E+01 -0.10045861927E+02 -0.25547777424E+02  0.29058479583E+02  0.00000000000E+00 0.  1.
</event>
<event>
 5    1  0.8957809E-005  0.9118800E+02  0.7818608E-02  0.1130116E+00
         25   -1    0    0    0    0  0.00000000000E+00  0.00000000000E+00  0.99999998245E-14  0.12500000000E+03  0.12500000000E+03 0.  0.
        -11    1    3    3    0    0 -0.18342824533E+02  0.33456618340E+01 -0.36319442093E+02  0.40825905246E+02  0.51100000000E-03 0.  1.
         23    2    1    0    0    0  0.17507621292E+02  0.11736575495E+02  0.11351324230E+02  0.10106014684E+03  0.98183688611E+02 0.  0.
         11    1    3    3    0    0  0.35850445825E+02  0.83909136614E+01  0.47670766323E+02  0.60234241591E+02  0.51100000000E-03 0. -1.
         22    1    1    0    0    0 -0.17507621292E+02 -0.11736575495E+02 -0.11351324230E+02  0.23939853163E+02  0.00000000000E+00 0. -1.
</event>
<event>
 5    1  0.8957809E-005  0.9118800E+02  0.7818608E-02  0.1130116E+00
         25   -1    0    0    0    0  0.00000000000E+00  0.00000000000E+00  0.99999998245E-14  0.12500000000E+03  0.12500000000E+03 0.  0.
        -11    1    3    3    0    0  0.88034064394E+01  0.20863727694E+02  0.54726592944E+02  0.59226641588E+02  0.51100000000E-03 0.  1.
         23    2    1    0    0    0  0.17208041903E+02  0.11537576847E+02  0.19795742993E+02  0.96345090712E+02  0.91985176404E+02 0.  0.
         11    1    3    3    0    0  0.84046354635E+01 -0.93261508469E+01 -0.34930849951E+02  0.37118449125E+02  0.51100000000E-03 0. -1.
         22    1    1    0    0    0 -0.17208041903E+02 -0.11537576847E+02 -0.19795742993E+02  0.28654909288E+02  0.00000000000E+00 0.  1.
</event>
<event>
 5    1  0.8957809E-005  0.9118800E+02  0.7818608E-02  0.1130116E+00
         25   -1    0    0    0    0  0.00000000000E+00  0.00000000000E+00  0.99999998245E-14  0.12500000000E+03  0.12500000000E+03 0.  0.
        -11    1    3    3    0    0  0.22161628779E+02 -0.36101659787E+02  0.23873961568E+02  0.48625442628E+02  0.51100000000E-03 0. -1.
         23    2    1    0    0    0 -0.18676807995E+02 -0.22060771546E+02  0.54042271252E+01  0.95594108262E+02  0.90958930653E+02 0.  0.
         11    1    3    3    0    0 -0.40838436774E+02  0.14040888242E+02 -0.18469734443E+02  0.46968665634E+02  0.51100000000E-03 0.  1.
         22    1    1    0    0    0  0.18676807995E+02  0.22060771546E+02 -0.54042271252E+01  0.29405891738E+02  0.00000000000E+00 0.  1.
</event>
<event>
 5    1  0.8957809E-005  0.9118800E+02  0.7818608E-02  0.1130116E+00
         25   -1    0    0    0    0  0.00000000000E+00  0.00000000000E+00  0.99999998245E-14  0.12500000000E+03  0.12500000000E+03 0.  0.
        -11    1    3    3    0    0 -0.27132359682E+02  0.43290640032E+02 -0.62398256937E+01  0.51470184391E+02  0.51100000000E-03 0.  1.
         23    2    1    0    0    0 -0.60212817990E+01  0.17233108184E+02  0.22772392677E+02  0.95814083526E+02  0.91260730227E+02 0.  0.
         11    1    3    3    0    0  0.21111077883E+02 -0.26057531849E+02  0.29012218371E+02  0.44343899135E+02  0.51100000000E-03 0. -1.
         22    1    1    0    0    0  0.60212817990E+01 -0.17233108184E+02 -0.22772392677E+02  0.29185916474E+02  0.00000000000E+00 0. -1.
</event>
<event>
 5    1  0.8957809E-005  0.9118800E+02  0.7818608E-02  0.1130116E+00
         25   -1    0    0    0    0  0.00000000000E+00  0.00000000000E+00  0.99999998245E-14  0.12500000000E+03  0.12500000000E+03 0.  0.
        -11    1    3    3    0    0  0.40300572241E+02  0.35913154322E+02  0.28879494411E+02  0.61220225204E+02  0.51100000000E-03 0.  1.
         23    2    1    0    0    0  0.14689142382E+02  0.16547725957E+02  0.21461852870E+02  0.94174535415E+02  0.88986706051E+02 0.  0.
         11    1    3    3    0    0 -0.25611429859E+02 -0.19365428365E+02 -0.74176415409E+01  0.32954310211E+02  0.51100000000E-03 0. -1.
         22    1    1    0    0    0 -0.14689142382E+02 -0.16547725957E+02 -0.21461852870E+02  0.30825464585E+02  0.00000000000E+00 0.  1.
</event>
<event>
 5    1  0.8957809E-005  0.9118800E+02  0.7818608E-02  0.1130116E+00
         25   -1    0    0    0    0  0.00000000000E+00  0.00000000000E+00  0.99999998245E-14  0.12500000000E+03  0.12500000000E+03 0.  0.
        -11    1    3    3    0    0 -0.18826532600E+02  0.86491969080E+01  0.41582853886E+02  0.46458375719E+02  0.51100000000E-03 0. -1.
         23    2    1    0    0    0 -0.26017703552E+02 -0.13166189180E+02 -0.20505628479E+01  0.95768608592E+02  0.91198421850E+02 0.  0.
         11    1    3    3    0    0 -0.71911709522E+01 -0.21815386088E+02 -0.43633416734E+02  0.49310232873E+02  0.51100000000E-03 0.  1.
         22    1    1    0    0    0  0.26017703552E+02  0.13166189180E+02  0.20505628479E+01  0.29231391408E+02  0.00000000000E+00 0. -1.
</event>
<event>
 5    1  0.8957809E-005  0.9118800E+02  0.7818608E-02  0.1130116E+00
         25   -1    0    0    0    0  0.00000000000E+00  0.00000000000E+00  0.99999998245E-14  0.12500000000E+03  0.12500000000E+03 0.  0.
        -11    1    3    3    0    0  0.39697319667E+02 -0.12054306036E+02 -0.14958494702E+02  0.44101474428E+02  0.51100000000E-03 0.  1.
         23    2    1    0    0    0  0.12758011637E+02  0.23142135683E+02  0.11998041292E+02  0.95977968718E+02  0.91484928702E+02 0.  0.
         11    1    3    3    0    0 -0.26939308030E+02  0.35196441718E+02  0.26956535994E+02  0.51876494290E+02  0.51100000000E-03 0. -1.
         22    1    1    0    0    0 -0.12758011637E+02 -0.23142135683E+02 -0.11998041292E+02  0.29022031282E+02  0.00000000000E+00 0. -1.
</event>
<event>
 5    1  0.8957809E-005  0.9118800E+02  0.7818608E-02  0.1130116E+00
         25   -1    0    0    0    0  0.00000000000E+00  0.00000000000E+00  0.99999998245E-14  0.12500000000E+03  0.12500000000E+03 0.  0.
        -11    1    3    3    0    0 -0.17612258152E+02  0.14084589556E+02  0.53791012123E+02  0.58327011629E+02  0.51100000000E-03 0. -1.
         23    2    1    0    0    0 -0.23641202492E+02  0.17803163131E+02  0.31226258241E+02  0.81977467805E+02  0.69780849458E+02 0.  0.
         11    1    3    3    0    0 -0.60289443403E+01  0.37185735756E+01 -0.22564753882E+02  0.23650456175E+02  0.51100000000E-03 0.  1.
         22    1    1    0    0    0  0.23641202492E+02 -0.17803163131E+02 -0.31226258241E+02  0.43022532195E+02  0.00000000000E+00 0. -1.
</event>
<event>
 5    1  0.8957809E-005  0.9118800E+02  0.7818608E-02  0.1130116E+00
         25   -1    0    0    0    0  0.00000000000E+00  0.00000000000E+00  0.99999998245E-14  0.12500000000E+03  0.12500000000E+03 0.  0.
        -11    1    3    3    0    0  0.33707073000E+02  0.49934826050E+02 -0.70294182983E+01  0.60655307639E+02  0.51100000000E-03 0.  1.
         23    2    1    0    0    0  0.20146979025E+02  0.18610832454E+02 -0.11840693668E+02  0.95125832648E+02  0.90313111794E+02 0.  0.
         11    1    3    3    0    0 -0.13560093975E+02 -0.31323993596E+02 -0.48112753698E+01  0.34470525009E+02  0.51100000000E-03 0. -1.
         22    1    1    0    0    0 -0.20146979025E+02 -0.18610832454E+02  0.11840693668E+02  0.29874167352E+02  0.00000000000E+00 0.  1.
</event>
<event>
 5    1  0.8957809E-005  0.9118800E+02  0.7818608E-02  0.1130116E+00
         25   -1    0    0    0    0  0.00000000000E+00  0.00000000000E+00  0.99999998245E-14  0.12500000000E+03  0.12500000000E+03 0.  0.
        -11    1    3    3    0    0 -0.17435190779E+01 -0.55165808329E+02  0.26478594200E+02  0.61216192453E+02  0.51100000000E-03 0. -1.
         23    2    1    0    0    0 -0.94538171581E+01 -0.21570608316E+02  0.10225141832E+02  0.99324733157E+02  0.95948857675E+02 0.  0.
         11    1    3    3    0    0 -0.77102980802E+01  0.33595200014E+02 -0.16253452367E+02  0.38108540704E+02  0.51100000000E-03 0.  1.
         22    1    1    0    0    0  0.94538171581E+01  0.21570608316E+02 -0.10225141832E+02  0.25675266843E+02  0.00000000000E+00 0. -1.
</event>
<event>
 5    1  0.8957809E-005  0.9118800E+02  0.7818608E-02  0.1130116E+00
         25   -1    0    0    0    0  0.00000000000E+00  0.00000000000E+00  0.99999998245E-14  0.12500000000E+03  0.12500000000E+03 0.  0.
        -11    1    3    3    0    0  0.19550040432E+02  0.27656224073E+02 -0.21298092859E+02  0.40008493731E+02  0.51100000000E-03 0.  1.
         23    2    1    0    0    0  0.30141689409E+02 -0.17051532899E+02 -0.69326915958E+00  0.90362493786E+02  0.83460310606E+02 0.  0.
         11    1    3    3    0    0  0.10591648977E+02 -0.44707756973E+02  0.20604823700E+02  0.50354000055E+02  0.51100000000E-03 0. -1.
         22    1    1    0    0    0 -0.30141689409E+02  0.17051532899E+02  0.69326915958E+00  0.34637506214E+02  0.00000000000E+00 0. -1.
</event>
<event>
 5    1  0.8957809E-005  0.9118800E+02  0.7818608E-02  0.1130116E+00
         25   -1    0    0    0    0  0.00000000000E+00  0.00000000000E+00  0.99999998245E-14  0.12500000000E+03  0.12500000000E+03 0.  0.
        -11    1    3    3    0    0 -0.12083163231E+01  0.56341864288E+01  0.31634122566E+02  0.32154654342E+02  0.51100000000E-03 0. -1.
         23    2    1    0    0    0 -0.14866825018E+02 -0.56174553279E+01 -0.27147733584E+02  0.93542445593E+02  0.88094332385E+02 0.  0.
         11    1    3    3    0    0 -0.13658508695E+02 -0.11251641757E+02 -0.58781856150E+02  0.61387791252E+02  0.51100000000E-03 0.  1.
         22    1    1    0    0    0  0.14866825018E+02  0.56174553279E+01  0.27147733584E+02  0.31457554407E+02  0.00000000000E+00 0.  1.
</event>
<event>
 5    1  0.8957809E-005  0.9118800E+02  0.7818608E-02  0.1130116E+00
         25   -1    0    0    0    0  0.00000000000E+00  0.00000000000E+00  0.99999998245E-14  0.12500000000E+03  0.12500000000E+03 0.  0.
        -11    1    3    3    0    0  0.41705758963E+02  0.30927947500E+02  0.22845745939E+02  0.56725976193E+02  0.51100000000E-03 0. -1.
         23    2    1    0    0    0  0.59562927202E+01  0.27342308009E+02  0.61302386710E+01  0.96352852561E+02  0.91995723489E+02 0.  0.
         11    1    3    3    0    0 -0.35749466243E+02 -0.35856394912E+01 -0.16715507268E+02  0.39626876368E+02  0.51100000000E-03 0.  1.
         22    1    1    0    0    0 -0.59562927202E+01 -0.27342308009E+02 -0.61302386710E+01  0.28647147439E+02  0.00000000000E+00 0. -1.
</event>
<event>
 5    1  0.8957809E-005  0.9118800E+02  0.7818608E-02  0.1130116E+00
         25   -1    0    0    0    0  0.00000000000E+00  0.00000000000E+00  0.99999998245E-14  0.12500000000E+03  0.12500000000E+03 0.  0.
        -11    1    3    3    0    0  0.56524453298E+01  0.36265224877E+02 -0.13588457357E+02  0.39137741979E+02  0.51100000000E-03 0. -1.
         23    2    1    0    0    0 -0.19130035112E+01 -0.15871017115E+02 -0.27110165380E+02  0.93527633810E+02  0.88073312941E+02 0.  0.
         11    1    3    3    0    0 -0.75654488410E+01 -0.52136241992E+02 -0.13521708023E+02  0.54389891831E+02  0.51100000000E-03 0.  1.
         22    1    1    0    0    0  0.19130035112E+01  0.15871017115E+02  0.27110165380E+02  0.31472366190E+02  0.00000000000E+00 0. -1.
</event>
<event>
 5    1  0.8957809E-005  0.9118800E+02  0.7818608E-02  0.1130116E+00
         25   -1    0    0    0    0  0.00000000000E+00  0.00000000000E+00  0.99999998245E-14  0.12500000000E+03  0.12500000000E+03 0.  0.
        -11    1    3    3    0    0  0.15025985734E+02  0.39827929122E+02 -0.45162636439E+02  0.62062129481E+02  0.51100000000E-03 0. -1.
         23    2    1    0    0    0  0.26437149092E+01  0.21397940131E+02 -0.20458794241E+02  0.95277561807E+02  0.90522872533E+02 0.  0.
         11    1    3    3    0    0 -0.12382270825E+02 -0.18429988991E+02  0.24703842198E+02  0.33215432325E+02  0.51100000000E-03 0.  1.
         22    1    1    0    0    0 -0.26437149092E+01 -0.21397940131E+02  0.20458794241E+02  0.29722438193E+02  0.00000000000E+00 0. -1.
</event>
<event>
 5    1  0.8957809E-005  0.9118800E+02  0.7818608E-02  0.1130116E+00
         25   -1    0    0    0    0  0.00000000000E+00  0.00000000000E+00  0.99999998245E-14  0.12500000000E+03  0.12500000000E+03 0.  0.
        -11    1    3    3    0    0  0.11331280290E+02  0.36512372843E+02 -0.32786033238E+02  0.50363431768E+02  0.51100000000E-03 0. -1.
         23    2    1    0    0    0  0.24179360699E+02  0.15204901794E+02  0.53911460477E+01  0.95932922780E+02  0.91423359680E+02 0.  0.
         11    1    3    3    0    0  0.12848080409E+02 -0.21307471049E+02  0.38177179286E+02  0.45569491013E+02  0.51100000000E-03 0.  1.
         22    1    1    0    0    0 -0.24179360699E+02 -0.15204901794E+02 -0.53911460477E+01  0.29067077220E+02  0.00000000000E+00 0.  1.
</event>
<event>
 5    1  0.8957809E-005  0.9118800E+02  0.7818608E-02  0.1130116E+00
         25   -1    0    0    0    0  0.00000000000E+00  0.00000000000E+00  0.99999998245E-14  0.12500000000E+03  0.12500000000E+03 0.  0.
        -11    1    3    3    0    0  0.22712926867E+02  0.25148267775E+02 -0.43256263700E+02  0.54949219908E+02  0.51100000000E-03 0. -1.
         23    2    1    0    0    0 -0.13614720110E+01  0.27851311472E+02 -0.11630905304E+02  0.94786971107E+02  0.89842878275E+02 0.  0.
         11    1    3    3    0    0 -0.24074398878E+02  0.27030436964E+01  0.31625358396E+02  0.39837751198E+02  0.51100000000E-03 0.  1.
         22    1    1    0    0    0  0.13614720110E+01 -0.27851311472E+02  0.11630905304E+02  0.30213028893E+02  0.00000000000E+00 0. -1.
</event>
<event>
 5    1  0.8957809E-005  0.9118800E+02  0.7818608E-02  0.1130116E+00
         25   -1    0    0    0    0  0.00000000000E+00  0.00000000000E+00  0.99999998245E-14  0.12500000000E+03  0.12500000000E+03 0.  0.
        -11    1    3    3    0    0 -0.52394808861E+02  0.16869955603E+02  0.43635013194E+01  0.55216406454E+02  0.51100000000E-03 0.  1.
         23    2    1    0    0    0 -0.17980382227E+02  0.17338331870E+02 -0.16123412062E+02  0.95269942590E+02  0.90512350801E+02 0.  0.
         11    1    3    3    0    0  0.34414426634E+02  0.46837626781E+00 -0.20486913381E+02  0.40053536136E+02  0.51100000000E-03 0. -1.
         22    1    1    0    0    0  0.17980382227E+02 -0.17338331870E+02  0.16123412062E+02  0.29730057410E+02  0.00000000000E+00 0.  1.
</event>
<event>
 5    1  0.8957809E-005  0.9118800E+02  0.7818608E-02  0.1130116E+00
         25   -1    0    0    0    0  0.00000000000E+00  0.00000000000E+00  0.99999998245E-14  0.12500000000E+03  0.12500000000E+03 0.  0.
        -11    1    3    3    0    0  0.20702600940E+02 -0.87199361611E+01  0.24827439447E+02  0.33481886477E+02  0.51100000000E-03 0. -1.
         23    2    1    0    0    0 -0.35258040117E+01  0.17586197955E+02 -0.24639930500E+02  0.94523257598E+02  0.89475216677E+02 0.  0.
         11    1    3    3    0    0 -0.24228404951E+02  0.26306134116E+02 -0.49467369946E+02  0.61041371121E+02  0.51100000000E-03 0.  1.
         22    1    1    0    0    0  0.35258040117E+01 -0.17586197955E+02  0.24639930500E+02  0.30476742402E+02  0.00000000000E+00 0.  1.
</event>
<event>
 5    1  0.8957809E-005  0.9118800E+02  0.7818608E-02  0.1130116E+00
         25   -1    0    0    0    0  0.00000000000E+00  0.00000000000E+00  0.99999998245E-14  0.12500000000E+03  0.12500000000E+03 0.  0.
        -11    1    3    3    0    0  0.17059340176E+02 -0.18419852295E+02 -0.31115858152E+02  0.39981354087E+02  0.51100000000E-03 0. -1.
         23    2    1    0    0    0  0.19560512689E+02  0.13596772664E+02  0.15493350979E+02  0.96582931043E+02  0.92307815275E+02 0.  0.
         11    1    3    3    0    0  0.25011725126E+01  0.32016624959E+02  0.46609209132E+02  0.56601576956E+02  0.51100000000E-03 0.  1.
         22    1    1    0    0    0 -0.19560512689E+02 -0.13596772664E+02 -0.15493350979E+02  0.28417068957E+02  0.00000000000E+00 0.  1.
</event>
<event>
 5    1  0.8957809E-005  0.9118800E+02  0.7818608E-02  0.1130116E+00
         25   -1    0    0    0    0  0.00000000000E+00  0.00000000000E+00  0.99999998245E-14  0.12500000000E+03  0.12500000000E+03 0.  0.
        -11    1    3    3    0    0  0.17610871100E+01  0.37221013386E+02  0.15192216507E+01  0.37293609372E+02  0.51100000000E-03 0.  1.
         23    2    1    0    0    0  0.18908226717E+02 -0.14426143088E+02  0.19115624913E+02  0.94487023125E+02  0.89424581526E+02 0.  0.
         11    1    3    3    0    0  0.17147139607E+02 -0.51647156475E+02  0.17596403262E+02  0.57193413752E+02  0.51100000000E-03 0. -1.
         22    1    1    0    0    0 -0.18908226717E+02  0.14426143088E+02 -0.19115624913E+02  0.30512976875E+02  0.00000000000E+00 0. -1.
</event>
<event>
 5    1  0.8957809E-005  0.9118800E+02  0.7818608E-02  0.1130116E+00
         25   -1    0    0    0    0  0.00000000000E+00  0.00000000000E+00  0.99999998245E-14  0.12500000000E+03  0.12500000000E+03 0.  0.
        -11    1    3    3    0    0 -0.20802335777E+02  0.31278557398E+02  0.11267359520E+02  0.39217836727E+02  0.51100000000E-03 0.  1.
         23    2    1    0    0    0  0.14779837312E+02  0.66961393930E+01 -0.24686117132E+02  0.95458736439E+02  0.90772705753E+02 0.  0.
         11    1    3    3    0    0  0.35582173089E+02 -0.24582418005E+02 -0.35953476653E+02  0.56240899712E+02  0.51100000000E-03 0. -1.
         22    1    1    0    0    0 -0.14779837312E+02 -0.66961393930E+01  0.24686117132E+02  0.29541263561E+02  0.00000000000E+00 0. -1.
</event>
<event>
 5    1  0.8957809E-005  0.9118800E+02  0.7818608E-02  0.1130116E+00
         25   -1    0    0    0    0  0.00000000000E+00  0.00000000000E+00  0.99999998245E-14  0.12500000000E+03  0.12500000000E+03 0.  0.
        -11    1    3    3    0    0  0.46989090055E+02 -0.90632588561E+00  0.25843847111E+02  0.53634880857E+02  0.51100000000E-03 0. -1.
         23    2    1    0    0    0  0.48583111685E+01  0.46211744498E+00  0.28703324080E+02  0.95884753940E+02  0.91357476349E+02 0.  0.
         11    1    3    3    0    0 -0.42130778886E+02  0.13684433306E+01  0.28594769691E+01  0.42249873083E+02  0.51100000000E-03 0.  1.
         22    1    1    0    0    0 -0.48583111685E+01 -0.46211744498E+00 -0.28703324080E+02  0.29115246060E+02  0.00000000000E+00 0. -1.
</event>
<event>
 5    1  0.8957809E-005  0.9118800E+02  0.7818608E-02  0.1130116E+00
         25   -1    0    0    0    0  0.00000000000E+00  0.00000000000E+00  0.99999998245E-14  0.12500000000E+03  0.12500000000E+03 0.  0.
        -11    1    3    3    0    0 -0.45905399160E+01  0.56940723180E+02  0.32215586364E+01  0.57216234176E+02  0.51100000000E-03 0. -1.
         23    2    1    0    0    0 -0.85261354818E+01  0.23423334206E+02 -0.15339563520E+02  0.95731419909E+02  0.91147435385E+02 0.  0.
         11    1    3    3    0    0 -0.39355955658E+01 -0.33517388974E+02 -0.18561122156E+02  0.38515185733E+02  0.51100000000E-03 0.  1.
         22    1    1    0    0    0  0.85261354818E+01 -0.23423334206E+02  0.15339563520E+02  0.29268580091E+02  0.00000000000E+00 0. -1.
</event>
<event>
 5    1  0.8957809E-005  0.9118800E+02  0.7818608E-02  0.1130116E+00
         25   -1    0    0    0    0  0.00000000000E+00  0.00000000000E+00  0.99999998245E-14  0.12500000000E+03  0.12500000000E+03 0.  0.
        -11    1    3    3    0    0  0.12346838013E+02  0.68939610660E+01  0.35082628713E+02  0.37825414020E+02  0.51100000000E-03 0. -1.
         23    2    1    0    0    0 -0.29572095504E+02  0.38298784540E+01 -0.36212158306E+01  0.94961857488E+02  0.90085872211E+02 0.  0.
         11    1    3    3    0    0 -0.41918933517E+02 -0.30640826120E+01 -0.38703844544E+02  0.57136443468E+02  0.51100000000E-03 0.  1.
         22    1    1    0    0    0  0.29572095504E+02 -0.38298784540E+01  0.36212158306E+01  0.30038142512E+02  0.00000000000E+00 0.  1.
</event>
<event>
 5    1  0.8957809E-005  0.9118800E+02  0.7818608E-02  0.1130116E+00
         25   -1    0    0    0    0  0.00000000000E+00  0.00000000000E+00  0.99999998245E-14  0.12500000000E+03  0.12500000000E+03 0.  0.
        -11    1    3    3    0    0  0.28869881909E+02 -0.17919450950E+02 -0.17757863034E+02  0.38339516215E+02  0.51100000000E-03 0.  1.
         23    2    1    0    0    0 -0.64110892107E+01  0.10893726058E+02  0.22539902643E+02  0.99157737261E+02  0.95731051991E+02 0.  0.
         11    1    3    3    0    0 -0.35280971120E+02  0.28813177008E+02  0.40297765677E+02  0.60818221046E+02  0.51100000000E-03 0. -1.
         22    1    1    0    0    0  0.64110892107E+01 -0.10893726058E+02 -0.22539902643E+02  0.25842262739E+02  0.00000000000E+00 0. -1.
</event>
<event>
 5    1  0.8957809E-005  0.9118800E+02  0.7818608E-02  0.1130116E+00
         25   -1    0    0    0    0  0.00000000000E+00  0.00000000000E+00  0.99999998245E-14  0.12500000000E+03  0.12500000000E+03 0.  0.
        -11    1    3    3    0    0  0.36799162534E+02 -0.12861241015E+02 -0.25144684315E+01  0.39062929171E+02  0.51100000000E-03 0.  1.
         23    2    1    0    0    0 -0.14227683214E+02  0.75070082371E+01 -0.22338670248E+02  0.97471862926E+02  0.93503827363E+02 0.  0.
         11    1    3    3    0    0 -0.51026845748E+02  0.20368249253E+02 -0.19824201816E+02  0.58408933756E+02  0.51100000000E-03 0. -1.
         22    1    1    0    0    0  0.14227683214E+02 -0.75070082371E+01  0.22338670248E+02  0.27528137074E+02  0.00000000000E+00 0. -1.
</event>
<event>
 5    1  0.8957809E-005  0.9118800E+02  0.7818608E-02  0.1130116E+00
         25   -1    0    0    0    0  0.00000000000E+00  0.00000000000E+00  0.99999998245E-14  0.12500000000E+03  0.12500000000E+03 0.  0.
        -11    1    3    3    0    0  0.34170262313E+02 -0.62427433954E+00  0.56441441679E+01  0.34638893005E+02  0.51100000000E-03 0.  1.
         23    2    1    0    0    0 -0.23494166755E+02  0.14826860043E+02  0.12124182791E+02  0.94688163061E+02  0.89705299539E+02 0.  0.
         11    1    3    3    0    0 -0.57664429068E+02  0.15451134383E+02  0.64800386235E+01  0.60049270056E+02  0.51100000000E-03 0. -1.
         22    1    1    0    0    0  0.23494166755E+02 -0.14826860043E+02 -0.12124182791E+02  0.30311836939E+02  0.00000000000E+00 0. -1.
</event>
<event>
 5    1  0.8957809E-005  0.9118800E+02  0.7818608E-02  0.1130116E+00
         25   -1    0    0    0    0  0.00000000000E+00  0.00000000000E+00  0.99999998245E-14  0.12500000000E+03  0.12500000000E+03 0.  0.
        -11    1    3    3    0    0 -0.22495713543E+02 -0.72342224455E+01 -0.52881594505E+02  0.57921102716E+02  0.51100000000E-03 0. -1.
         23    2    1    0    0    0  0.13276766834E+01 -0.15615232452E+02 -0.24547006970E+02  0.95876920474E+02  0.91346757569E+02 0.  0.
         11    1    3    3    0    0  0.23823390227E+02 -0.83810100067E+01  0.28334587535E+02  0.37955817758E+02  0.51100000000E-03 0.  1.
         22    1    1    0    0    0 -0.13276766834E+01  0.15615232452E+02  0.24547006970E+02  0.29123079526E+02  0.00000000000E+00 0. -1.
</event>
<event>
 5    1  0.8957809E-005  0.9118800E+02  0.7818608E-02  0.1130116E+00
         25   -1    0    0    0    0  0.00000000000E+00  0.00000000000E+00  0.99999998245E-14  0.12500000000E+03  0.12500000000E+03 0.  0.
        -11    1    3    3    0    0 -0.16158914311E+02 -0.32328650683E+02  0.62144634117E+01  0.36672492723E+02  0.51100000000E-03 0.  1.
         23    2    1    0    0    0 -0.29666105153E+02  0.18869466739E+02  0.25085363572E+01  0.89751917434E+02  0.82540773914E+02 0.  0.
         11    1    3    3    0    0 -0.13507190841E+02  0.51198117423E+02 -0.37059270545E+01  0.53079424711E+02  0.51100000000E-03 0. -1.
         22    1    1    0    0    0  0.29666105153E+02 -0.18869466739E+02 -0.25085363572E+01  0.35248082566E+02  0.00000000000E+00 0. -1.
</event>
<event>
 5    1  0.8957809E-005  0.9118800E+02  0.7818608E-02  0.1130116E+00
         25   -1    0    0    0    0  0.00000000000E+00  0.00000000000E+00  0.99999998245E-14  0.12500000000E+03  0.12500000000E+03 0.  0.
        -11    1    3    3    0    0  0.24339464983E+02  0.20965516419E+02  0.26952175323E+02  0.41933067968E+02  0.51100000000E-03 0.  1.
         23    2    1    0    0    0  0.15530357125E+02 -0.24476891521E+02 -0.97847835271E+00  0.95995386042E+02  0.91508723686E+02 0.  0.
         11    1    3    3    0    0 -0.88091078574E+01 -0.45442407939E+02 -0.27930653675E+02  0.54062318074E+02  0.51100000000E-03 0. -1.
         22    1    1    0    0    0 -0.15530357125E+02  0.24476891521E+02  0.97847835271E+00  0.29004613958E+02  0.00000000000E+00 0. -1.
</event>
<event>
 5    1  0.8957809E-005  0.9118800E+02  0.7818608E-02  0.1130116E+00
         25   -1    0    0    0    0  0.00000000000E+00  0.00000000000E+00  0.99999998245E-14  0.12500000000E+03  0.12500000000E+03 0.  0.
        -11    1    3    3    0    0  0.53010916309E+02  0.12519024039E+02  0.20854724771E+02  0.58324975408E+02  0.51100000000E-03 0.  1.
         23    2    1    0    0    0  0.18073674779E+02  0.20345599400E+02  0.12297111835E+02  0.95136642947E+02  0.90328072806E+02 0.  0.
         11    1    3    3    0    0 -0.34937241530E+02  0.78265753607E+01 -0.85576129362E+01  0.36811667539E+02  0.51100000000E-03 0. -1.
         22    1    1    0    0    0 -0.18073674779E+02 -0.20345599400E+02 -0.12297111835E+02  0.29863357053E+02  0.00000000000E+00 0.  1.
</event>
<event>
 5    1  0.8957809E-005  0.9118800E+02  0.7818608E-02  0.1130116E+00
         25   -1    0    0    0    0  0.00000000000E+00  0.00000000000E+00  0.99999998245E-14  0.12500000000E+03  0.12500000000E+03 0.  0.
        -11    1    3    3    0    0 -0.41170842313E+02 -0.34948236849E+02 -0.29020135417E+02  0.61307306054E+02  0.51100000000E-03 0.  1.
         23    2    1    0    0    0 -0.26236836369E+02 -0.11131100385E+02 -0.16352791353E+02  0.92141412637E+02  0.86083408153E+02 0.  0.
         11    1    3    3    0    0  0.14934005944E+02  0.23817136464E+02  0.12667344064E+02  0.30834106583E+02  0.51100000000E-03 0. -1.
         22    1    1    0    0    0  0.26236836369E+02  0.11131100385E+02  0.16352791353E+02  0.32858587363E+02  0.00000000000E+00 0.  1.
</event>
<event>
 5    1  0.8957809E-005  0.9118800E+02  0.7818608E-02  0.1130116E+00
         25   -1    0    0    0    0  0.00000000000E+00  0.00000000000E+00  0.99999998245E-14  0.12500000000E+03  0.12500000000E+03 0.  0.
        -11    1    3    3    0    0 -0.38563071286E+02  0.25665635413E+02 -0.78089913975E+01  0.46976756541E+02  0.51100000000E-03 0.  1.
         23    2    1    0    0    0 -0.11717140882E+02  0.13117147669E+02  0.27053182776E+02  0.92731971679E+02  0.86936717902E+02 0.  0.
         11    1    3    3    0    0  0.26845930404E+02 -0.12548487744E+02  0.34862174174E+02  0.45755215138E+02  0.51100000000E-03 0. -1.
         22    1    1    0    0    0  0.11717140882E+02 -0.13117147669E+02 -0.27053182776E+02  0.32268028321E+02  0.00000000000E+00 0. -1.
</event>
<event>
 5    1  0.8957809E-005  0.9118800E+02  0.7818608E-02  0.1130116E+00
         25   -1    0    0    0    0  0.00000000000E+00  0.00000000000E+00  0.99999998245E-14  0.12500000000E+03  0.12500000000E+03 0.  0.
        -11    1    3    3    0    0  0.52375998959E+02 -0.17390686888E+02 -0.29333558843E+02  0.62499111450E+02  0.51100000000E-03 0.  1.
         23    2    1    0    0    0  0.24531376306E+02 -0.79086148617E+01 -0.13620605772E+02  0.95847718544E+02  0.91306788554E+02 0.  0.
         11    1    3    3    0    0 -0.27844622653E+02  0.94820720258E+01  0.15712953072E+02  0.33348607094E+02  0.51100000000E-03 0. -1.
         22    1    1    0    0    0 -0.24531376306E+02  0.79086148617E+01  0.13620605772E+02  0.29152281456E+02  0.00000000000E+00 0.  1.
</event>
<event>
 5    1  0.8957809E-005  0.9118800E+02  0.7818608E-02  0.1130116E+00
         25   -1    0    0    0    0  0.00000000000E+00  0.00000000000E+00  0.99999998245E-14  0.12500000000E+03  0.12500000000E+03 0.  0.
        -11    1    3    3    0    0  0.11308096167E+02 -0.58297957448E+02  0.69403486542E+01  0.59788739084E+02  0.51100000000E-03 0.  1.
         23    2    1    0    0    0  0.13015937167E+02 -0.29197828917E+02 -0.72669356188E+01  0.92216830735E+02  0.86192851697E+02 0.  0.
         11    1    3    3    0    0  0.17078410002E+01  0.29100128531E+02 -0.14207284273E+02  0.32428091651E+02  0.51100000000E-03 0. -1.
         22    1    1    0    0    0 -0.13015937167E+02  0.29197828917E+02  0.72669356188E+01  0.32783169265E+02  0.00000000000E+00 0.  1.
</event>
<event>
 5    1  0.8957809E-005  0.9118800E+02  0.7818608E-02  0.1130116E+00
         25   -1    0    0    0    0  0.00000000000E+00  0.00000000000E+00  0.99999998245E-14  0.12500000000E+03  0.12500000000E+03 0.  0.
        -11    1    3    3    0    0  0.19775489353E+02 -0.23266409900E+02  0.23753630546E+02  0.38686312478E+02  0.51100000000E-03 0. -1.
         23    2    1    0    0    0  0.12606000291E+02  0.12656931754E+02 -0.21589878172E+02  0.96978008560E+02  0.92841273904E+02 0.  0.
         11    1    3    3    0    0 -0.71694890623E+01  0.35923341654E+02 -0.45343508718E+02  0.58291696082E+02  0.51100000000E-03 0.  1.
         22    1    1    0    0    0 -0.12606000291E+02 -0.12656931754E+02  0.21589878172E+02  0.28021991440E+02  0.00000000000E+00 0.  1.
</event>
<event>
 5    1  0.8957809E-005  0.9118800E+02  0.7818608E-02  0.1130116E+00
         25   -1    0    0    0    0  0.00000000000E+00  0.00000000000E+00  0.99999998245E-14  0.12500000000E+03  0.12500000000E+03 0.  0.
        -11    1    3    3    0    0  0.66808242898E+01  0.53010918657E+02 -0.54042916165E+01  0.53702860987E+02  0.51100000000E-03 0. -1.
         23    2    1    0    0    0  0.24370402887E+02  0.13643053012E+02 -0.17997121242E+01  0.97012710097E+02  0.92887983745E+02 0.  0.
         11    1    3    3    0    0  0.17689578598E+02 -0.39367865645E+02  0.36045794923E+01  0.43309849110E+02  0.51100000000E-03 0.  1.
         22    1    1    0    0    0 -0.24370402887E+02 -0.13643053012E+02  0.17997121242E+01  0.27987289903E+02  0.00000000000E+00 0. -1.
</event>
<event>
 5    1  0.8957809E-005  0.9118800E+02  0.7818608E-02  0.1130116E+00
         25   -1    0    0    0    0  0.00000000000E+00  0.00000000000E+00  0.99999998245E-14  0.12500000000E+03  0.12500000000E+03 0.  0.
        -11    1    3    3    0    0  0.29077700874E+01  0.21365032886E+02 -0.25827775112E+02  0.33645114424E+02  0.51100000000E-03 0. -1.
         23    2    1    0    0    0  0.27146253038E+02 -0.17713817663E+02  0.90326954242E+01  0.91350512978E+02  0.84927193787E+02 0.  0.
         11    1    3    3    0    0  0.24238482951E+02 -0.39078850549E+02  0.34860470536E+02  0.57705398554E+02  0.51100000000E-03 0.  1.
         22    1    1    0    0    0 -0.27146253038E+02  0.17713817663E+02 -0.90326954242E+01  0.33649487022E+02  0.00000000000E+00 0.  1.
</event>
<event>
 5    1  0.8957809E-005  0.9118800E+02  0.7818608E-02  0.1130116E+00
         25   -1    0    0    0    0  0.00000000000E+00  0.00000000000E+00  0.99999998245E-14  0.12500000000E+03  0.12500000000E+03 0.  0.
        -11    1    3    3    0    0 -0.27385980026E+02  0.13559659449E+02 -0.23198234944E+02  0.38366839473E+02  0.51100000000E-03 0.  1.
         23    2    1    0    0    0 -0.60533393025E+01 -0.17905066193E+02  0.21055026905E+02  0.96706034741E+02  0.92474367720E+02 0.  0.
         11    1    3    3    0    0  0.21332640723E+02 -0.31464725642E+02  0.44253261849E+02  0.58339195268E+02  0.51100000000E-03 0. -1.
         22    1    1    0    0    0  0.60533393025E+01  0.17905066193E+02 -0.21055026905E+02  0.28293965259E+02  0.00000000000E+00 0. -1.
</event>
<event>
 5    1  0.8957809E-005  0.9118800E+02  0.7818608E-02  0.1130116E+00
         25   -1    0    0    0    0  0.00000000000E+00  0.00000000000E+00  0.99999998245E-14  0.12500000000E+03  0.12500000000E+03 0.  0.
        -11    1    3    3    0    0 -0.30681422379E+02 -0.11100743004E+02 -0.36495950621E+02  0.48954372495E+02  0.51100000000E-03 0. -1.
         23    2    1    0    0    0 -0.77773646660E+01  0.23625522838E+02 -0.16832010406E+02  0.94967196187E+02  0.90093279699E+02 0.  0.
         11    1    3    3    0    0  0.22904057713E+02  0.34726265842E+02  0.19663940215E+02  0.46012823692E+02  0.51100000000E-03 0.  1.
         22    1    1    0    0    0  0.77773646660E+01 -0.23625522838E+02  0.16832010406E+02  0.30032803813E+02  0.00000000000E+00 0.  1.
</event>
<event>
 5    1  0.8957809E-005  0.9118800E+02  0.7818608E-02  0.1130116E+00
         25   -1    0    0    0    0  0.00000000000E+00  0.00000000000E+00  0.99999998245E-14  0.12500000000E+03  0.12500000000E+03 0.  0.
        -11    1    3    3    0    0 -0.53612643147E+02 -0.24068858719E+02  0.99170281799E+01  0.59598430461E+02  0.51100000000E-03 0. -1.
         23    2    1    0    0    0 -0.26829762689E+02  0.10628866177E+00  0.11716786079E+02  0.95723208181E+02  0.91136173088E+02 0.  0.
         11    1    3    3    0    0  0.26782880458E+02  0.24175147381E+02  0.17997578994E+01  0.36124777720E+02  0.51100000000E-03 0.  1.
         22    1    1    0    0    0  0.26829762689E+02 -0.10628866177E+00 -0.11716786079E+02  0.29276791819E+02  0.00000000000E+00 0. -1.
</event>
<event>
 5    1  0.8957809E-005  0.9118800E+02  0.7818608E-02  0.1130116E+00
         25   -1    0    0    0    0  0.00000000000E+00  0.00000000000E+00  0.99999998245E-14  0.12500000000E+03  0.12500000000E+03 0.  0.
        -11    1    3    3    0    0 -0.10659774113E+02  0.13843605950E+02  0.53626414998E+02  0.56400962719E+02  0.51100000000E-03 0. -1.
         23    2    1    0    0    0  0.11453584294E+02  0.16241486472E+02  0.19349420084E+02  0.97262470665E+02  0.93223482376E+02 0.  0.
         11    1    3    3    0    0  0.22113358407E+02  0.23978805217E+01 -0.34276994914E+02  0.40861507946E+02  0.51100000000E-03 0.  1.
         22    1    1    0    0    0 -0.11453584294E+02 -0.16241486472E+02 -0.19349420084E+02  0.27737529335E+02  0.00000000000E+00 0. -1.
</event>
<event>
 5    1  0.8957809E-005  0.9118800E+02  0.7818608E-02  0.1130116E+00
         25   -1    0    0    0    0  0.00000000000E+00  0.00000000000E+00  0.99999998245E-14  0.12500000000E+03  0.12500000000E+03 0.  0.
        -11    1    3    3    0    0 -0.11858915609E+02  0.25324525543E+02  0.24794292100E+02  0.37372749356E+02  0.51100000000E-03 0.  1.
         23    2    1    0    0    0 -0.76887813851E+01  0.12837704899E+02 -0.28791494273E+02  0.92551977429E+02  0.86677530868E+02 0.  0.
         11    1    3    3    0    0  0.41701342237E+01 -0.12486820644E+02 -0.53585786373E+02  0.55179228073E+02  0.51100000000E-03 0. -1.
         22    1    1    0    0    0  0.76887813851E+01 -0.12837704899E+02  0.28791494273E+02  0.32448022571E+02  0.00000000000E+00 0. -1.
</event>
<event>
 5    1  0.8957809E-005  0.9118800E+02  0.7818608E-02  0.1130116E+00
         25   -1    0    0    0    0  0.00000000000E+00  0.00000000000E+00  0.99999998245E-14  0.12500000000E+03  0.12500000000E+03 0.  0.
        -11    1    3    3    0    0  0.27966031894E+02  0.22797380960E+02  0.25255633328E+02  0.44041645446E+02  0.51100000000E-03 0.  1.
         23    2    1    0    0    0  0.17244356767E+02 -0.22592370824E+02  0.11179958495E+01  0.96556495039E+02  0.92272009623E+02 0.  0.
         11    1    3    3    0    0 -0.10721675127E+02 -0.45389751784E+02 -0.24137637479E+02  0.52514849593E+02  0.51100000000E-03 0. -1.
         22    1    1    0    0    0 -0.17244356767E+02  0.22592370824E+02 -0.11179958495E+01  0.28443504961E+02  0.00000000000E+00 0. -1.
</event>
<event>
 5    1  0.8957809E-005  0.9118800E+02  0.7818608E-02  0.1130116E+00
         25   -1    0    0    0    0  0.00000000000E+00  0.00000000000E+00  0.99999998245E-14  0.12500000000E+03  0.12500000000E+03 0.  0.
        -11    1    3    3    0    0 -0.12432137504E+02 -0.31744508077E+02 -0.18881273571E+02  0.38971455296E+02  0.51100000000E-03 0.  1.
         23    2    1    0    0    0  0.30266111366E+02 -0.66708453994E+01  0.44161927222E+01  0.93694402517E+02  0.88309685932E+02 0.  0.
         11    1    3    3    0    0  0.42698248870E+02  0.25073662678E+02  0.23297466293E+02  0.54722947221E+02  0.51100000000E-03 0. -1.
         22    1    1    0    0    0 -0.30266111366E+02  0.66708453994E+01 -0.44161927222E+01  0.31305597483E+02  0.00000000000E+00 0. -1.
</event>
<event>
 5    1  0.8957809E-005  0.9118800E+02  0.7818608E-02  0.1130116E+00
         25   -1    0    0    0    0  0.00000000000E+00  0.00000000000E+00  0.99999998245E-14  0.12500000000E+03  0.12500000000E+03 0.  0.
        -11    1    3    3    0    0 -0.12989337084E+02 -0.53088225571E+02  0.54660642304E+00  0.54656942386E+02  0.51100000000E-03 0.  1.
         23    2    1    0    0    0 -0.20139408758E+02 -0.20488282031E+02 -0.16221752710E+02  0.92007413762E+02  0.85888610656E+02 0.  0.
         11    1    3    3    0    0 -0.71500716742E+01  0.32599943540E+02 -0.16768359133E+02  0.37350471376E+02  0.51100000000E-03 0. -1.
         22    1    1    0    0    0  0.20139408758E+02  0.20488282031E+02  0.16221752710E+02  0.32992586238E+02  0.00000000000E+00 0.  1.
</event>
<event>
 5    1  0.8957809E-005  0.9118800E+02  0.7818608E-02  0.1130116E+00
         25   -1    0    0    0    0  0.00000000000E+00  0.00000000000E+00  0.99999998245E-14  0.12500000000E+03  0.12500000000E+03 0.  0.
        -11    1    3    3    0    0  0.21281188604E+02  0.41524163628E+02 -0.33187132782E+02  0.57258457331E+02  0.51100000000E-03 0. -1.
         23    2    1    0    0    0  0.17171725413E+01  0.29046970918E+02 -0.24101016020E+01  0.95802674938E+02  0.91245102523E+02 0.  0.
         11    1    3    3    0    0 -0.19564016063E+02 -0.12477192710E+02  0.30777031180E+02  0.38544217607E+02  0.51100000000E-03 0.  1.
         22    1    1    0    0    0 -0.17171725413E+01 -0.29046970918E+02  0.24101016020E+01  0.29197325062E+02  0.00000000000E+00 0. -1.
</event>
<event>
 5    1  0.8957809E-005  0.9118800E+02  0.7818608E-02  0.1130116E+00
         25   -1    0    0    0    0  0.00000000000E+00  0.00000000000E+00  0.99999998245E-14  0.12500000000E+03  0.12500000000E+03 0.  0.
        -11    1    3    3    0    0  0.26213883748E+02  0.11067614808E+02 -0.27286571859E+02  0.39423556444E+02  0.51100000000E-03 0. -1.
         23    2    1    0    0    0 -0.73315268956E+01  0.18079901676E+02  0.19498055317E+02  0.97417246469E+02  0.93430785168E+02 0.  0.
         11    1    3    3    0    0 -0.33545410643E+02  0.70122868680E+01  0.46784627176E+02  0.57993690024E+02  0.51100000000E-03 0.  1.
         22    1    1    0    0    0  0.73315268956E+01 -0.18079901676E+02 -0.19498055317E+02  0.27582753531E+02  0.00000000000E+00 0.  1.
</event>
<event>
 5    1  0.8957809E-005  0.9118800E+02  0.7818608E-02  0.1130116E+00
         25   -1    0    0    0    0  0.00000000000E+00  0.00000000000E+00  0.99999998245E-14  0.12500000000E+03  0.12500000000E+03 0.  0.
        -11    1    3    3    0    0  0.39643970505E+02 -0.12070341312E+02 -0.29887714514E+02  0.51094158335E+02  0.51100000000E-03 0. -1.
         23    2    1    0    0    0 -0.12247650302E+01 -0.21801809093E+02 -0.22307528683E+02  0.93783902149E+02  0.88436279531E+02 0.  0.
         11    1    3    3    0    0 -0.40868735535E+02 -0.97314677801E+01  0.75801858318E+01  0.42689743814E+02  0.51100000000E-03 0.  1.
         22    1    1    0    0    0  0.12247650302E+01  0.21801809093E+02  0.22307528683E+02  0.31216097851E+02  0.00000000000E+00 0. -1.
</event>
<event>
 5    1  0.8957809E-005  0.9118800E+02  0.7818608E-02  0.1130116E+00
         25   -1    0    0    0    0  0.00000000000E+00  0.00000000000E+00  0.99999998245E-14  0.12500000000E+03  0.12500000000E+03 0.  0.
        -11    1    3    3    0    0 -0.52698025881E+01  0.98992445867E+01  0.42734477537E+02  0.44181460290E+02  0.51100000000E-03 0. -1.
         23    2    1    0    0    0  0.20573921351E+02 -0.19412499500E+02  0.10538426678E+02  0.94814079218E+02  0.89880586361E+02 0.  0.
         11    1    3    3    0    0  0.25843723939E+02 -0.29311744086E+02 -0.32196050859E+02  0.50632618929E+02  0.51100000000E-03 0.  1.
         22    1    1    0    0    0 -0.20573921351E+02  0.19412499500E+02 -0.10538426678E+02  0.30185920782E+02  0.00000000000E+00 0.  1.
</event>
<event>
 5    1  0.8957809E-005  0.9118800E+02  0.7818608E-02  0.1130116E+00
         25   -1    0    0    0    0  0.00000000000E+00  0.00000000000E+00  0.99999998245E-14  0.12500000000E+03  0.12500000000E+03 0.  0.
        -11    1    3    3    0    0  0.19297113156E+02 -0.10692788617E+02 -0.48726745534E+02  0.53488410288E+02  0.51100000000E-03 0.  1.
         23    2    1    0    0    0  0.15473660304E+02  0.17355728865E+02 -0.15918669882E+02  0.96820937942E+02  0.92629555141E+02 0.  0.
         11    1    3    3    0    0 -0.38234528527E+01  0.28048517482E+02  0.32808075652E+02  0.43332527654E+02  0.51100000000E-03 0. -1.
         22    1    1    0    0    0 -0.15473660304E+02 -0.17355728865E+02  0.15918669882E+02  0.28179062058E+02  0.00000000000E+00 0.  1.
</event>
<event>
 5    1  0.8957809E-005  0.9118800E+02  0.7818608E-02  0.1130116E+00
         25   -1    0    0    0    0  0.00000000000E+00  0.00000000000E+00  0.99999998245E-14  0.12500000000E+03  0.12500000000E+03 0.  0.
        -11    1    3    3    0    0  0.35420471896E+02 -0.38572243536E+02 -0.16442356691E+02  0.54888786601E+02  0.51100000000E-03 0.  1.
         23    2    1    0    0    0 -0.27325802408E+01 -0.23735061227E+02 -0.16741557260E+02  0.95826384082E+02  0.91277576767E+02 0.  0.
         11    1    3    3    0    0 -0.38153052137E+02  0.14837182309E+02 -0.29920056911E+00  0.40937597481E+02  0.51100000000E-03 0. -1.
         22    1    1    0    0    0  0.27325802408E+01  0.23735061227E+02  0.16741557260E+02  0.29173615918E+02  0.00000000000E+00 0.  1.
</event>
<event>
 5    1  0.8957809E-005  0.9118800E+02  0.7818608E-02  0.1130116E+00
         25   -1    0    0    0    0  0.00000000000E+00  0.00000000000E+00  0.99999998245E-14  0.12500000000E+03  0.12500000000E+03 0.  0.
        -11    1    3    3    0    0 -0.65832548573E+01 -0.39772759419E+02 -0.26590647052E+02  0.48293624292E+02  0.51100000000E-03 0. -1.
         23    2    1    0    0    0 -0.24505728061E+02  0.37815796396E+01 -0.77325461598E+01  0.99026488060E+02  0.95559520797E+02 0.  0.
         11    1    3    3    0    0 -0.17922473204E+02  0.43554339059E+02  0.18858100892E+02  0.50732863768E+02  0.51100000000E-03 0.  1.
         22    1    1    0    0    0  0.24505728061E+02 -0.37815796396E+01  0.77325461598E+01  0.25973511940E+02  0.00000000000E+00 0. -1.
</event>
<event>
 5    1  0.8957809E-005  0.9118800E+02  0.7818608E-02  0.1130116E+00
         25   -1    0    0    0    0  0.00000000000E+00  0.00000000000E+00  0.99999998245E-14  0.12500000000E+03  0.12500000000E+03 0.  0.
        -11    1    3    3    0    0 -0.80317262652E+01 -0.29435894421E+02 -0.47660996212E+02  0.56591086466E+02  0.51100000000E-03 0.  1.
         23    2    1    0    0    0 -0.17331723930E+02 -0.29994752979E+02 -0.21823885531E+02  0.84056675265E+02  0.73410958421E+02 0.  0.
         11    1    3    3    0    0 -0.92999976649E+01 -0.55885855833E+00  0.25837110682E+02  0.27465588799E+02  0.51100000000E-03 0. -1.
         22    1    1    0    0    0  0.17331723930E+02  0.29994752979E+02  0.21823885531E+02  0.40943324735E+02  0.00000000000E+00 0.  1.
</event>
<event>
 5    1  0.8957809E-005  0.9118800E+02  0.7818608E-02  0.1130116E+00
         25   -1    0    0    0    0  0.00000000000E+00  0.00000000000E+00  0.99999998245E-14  0.12500000000E+03  0.12500000000E+03 0.  0.
        -11    1    3    3    0    0 -0.74146457070E+01 -0.22216993971E+02 -0.47661583408E+02  0.53105539497E+02  0.51100000000E-03 0.  1.
         23    2    1    0    0    0  0.12445403905E+02  0.78973718827E+01 -0.25800055550E+02  0.95286376401E+02  0.90535043493E+02 0.  0.
         11    1    3    3    0    0  0.19860049612E+02  0.30114365854E+02  0.21861527858E+02  0.42180836904E+02  0.51100000000E-03 0. -1.
         22    1    1    0    0    0 -0.12445403905E+02 -0.78973718827E+01  0.25800055550E+02  0.29713623599E+02  0.00000000000E+00 0. -1.
</event>
<event>
 5    1  0.8957809E-005  0.9118800E+02  0.7818608E-02  0.1130116E+00
         25   -1    0    0    0    0  0.00000000000E+00  0.00000000000E+00  0.99999998245E-14  0.12500000000E+03  0.12500000000E+03 0.  0.
        -11    1    3    3    0    0  0.38758412487E+02 -0.18853914989E+02  0.19564170554E+02  0.47333301371E+02  0.51100000000E-03 0.  1.
         23    2    1    0    0    0  0.20314605529E+02 -0.11530680792E+02 -0.21697277220E+02  0.93118788666E+02  0.87491126216E+02 0.  0.
         11    1    3    3    0    0 -0.18443806959E+02  0.73232341969E+01 -0.41261447774E+02  0.45785487295E+02  0.51100000000E-03 0. -1.
         22    1    1    0    0    0 -0.20314605529E+02  0.11530680792E+02  0.21697277220E+02  0.31881211334E+02  0.00000000000E+00 0. -1.
</event>
<event>
 5    1  0.8957809E-005  0.9118800E+02  0.7818608E-02  0.1130116E+00
         25   -1    0    0    0    0  0.00000000000E+00  0.00000000000E+00  0.99999998245E-14  0.12500000000E+03  0.12500000000E+03 0.  0.
        -11    1    3    3    0    0 -0.10449299210E+01 -0.34259619500E+02 -0.20175859935E+02  0.39772839114E+02  0.51100000000E-03 0.  1.
         23    2    1    0    0    0  0.10091164901E+02  0.20566642743E+02 -0.18179556447E+02  0.95754236625E+02  0.91178720962E+02 0.  0.
         11    1    3    3    0    0  0.11136094822E+02  0.54826262243E+02  0.19963034880E+01  0.55981397511E+02  0.51100000000E-03 0. -1.
         22    1    1    0    0    0 -0.10091164901E+02 -0.20566642743E+02  0.18179556447E+02  0.29245763375E+02  0.00000000000E+00 0. -1.
</event>
<event>
 5    1  0.8957809E-005  0.9118800E+02  0.7818608E-02  0.1130116E+00
         25   -1    0    0    0    0  0.00000000000E+00  0.00000000000E+00  0.99999998245E-14  0.12500000000E+03  0.12500000000E+03 0.  0.
        -11    1    3    3    0    0 -0.17577652938E+02 -0.32721849129E+02 -0.16923852474E+02  0.40818011662E+02  0.51100000000E-03 0. -1.
         23    2    1    0    0    0  0.63555095643E+01  0.14544042460E+02 -0.25969232033E+02  0.94564450304E+02  0.89532745831E+02 0.  0.
         11    1    3    3    0    0  0.23933162502E+02  0.47265891589E+02 -0.90453795590E+01  0.53746438642E+02  0.51100000000E-03 0.  1.
         22    1    1    0    0    0 -0.63555095643E+01 -0.14544042460E+02  0.25969232033E+02  0.30435549696E+02  0.00000000000E+00 0. -1.
</event>
<event>
 5    1  0.8957809E-005  0.9118800E+02  0.7818608E-02  0.1130116E+00
         25   -1    0    0    0    0  0.00000000000E+00  0.00000000000E+00  0.99999998245E-14  0.12500000000E+03  0.12500000000E+03 0.  0.
        -11    1    3    3    0    0 -0.31633570552E+02  0.99103707418E+01  0.44099784168E+02  0.55169640184E+02  0.51100000000E-03 0.  1.
         23    2    1    0    0    0 -0.20489604749E+01 -0.14669924320E+02  0.69727843939E+01  0.10862854189E+03  0.10738778083E+03 0.  0.
         11    1    3    3    0    0  0.29584610077E+02 -0.24580295062E+02 -0.37126999774E+02  0.53458901702E+02  0.51100000000E-03 0. -1.
         22    1    1    0    0    0  0.20489604749E+01  0.14669924320E+02 -0.69727843939E+01  0.16371458114E+02  0.00000000000E+00 0.  1.
</event>
<event>
 5    1  0.8957809E-005  0.9118800E+02  0.7818608E-02  0.1130116E+00
         25   -1    0    0    0    0  0.00000000000E+00  0.00000000000E+00  0.99999998245E-14  0.12500000000E+03  0.12500000000E+03 0.  0.
        -11    1    3    3    0    0  0.13076468392E+02  0.54479444522E+02 -0.54825363478E+01  0.56294423402E+02  0.51100000000E-03 0.  1.
         23    2    1    0    0    0  0.21117231702E+02  0.16400473470E+02 -0.11891128877E+02  0.95737191680E+02  0.91155350474E+02 0.  0.
         11    1    3    3    0    0  0.80407633099E+01 -0.38078971052E+02 -0.64085925294E+01  0.39442768279E+02  0.51100000000E-03 0. -1.
         22    1    1    0    0    0 -0.21117231702E+02 -0.16400473470E+02  0.11891128877E+02  0.29262808320E+02  0.00000000000E+00 0.  1.
</event>
<event>
 5    1  0.8957809E-005  0.9118800E+02  0.7818608E-02  0.1130116E+00
         25   -1    0    0    0    0  0.00000000000E+00  0.00000000000E+00  0.99999998245E-14  0.12500000000E+03  0.12500000000E+03 0.  0.
        -11    1    3    3    0    0 -0.45447965989E+02 -0.29822517141E+02 -0.16611142384E+02  0.56840392264E+02  0.51100000000E-03 0.  1.
         23    2    1    0    0    0 -0.83005557894E+01 -0.22989155591E+02 -0.18013988147E+02  0.94637123487E+02  0.89634150142E+02 0.  0.
         11    1    3    3    0    0  0.37147410200E+02  0.68333615507E+01 -0.14028457624E+01  0.37796731223E+02  0.51100000000E-03 0. -1.
         22    1    1    0    0    0  0.83005557894E+01  0.22989155591E+02  0.18013988147E+02  0.30362876513E+02  0.00000000000E+00 0.  1.
</event>
<event>
 5    1  0.8957809E-005  0.9118800E+02  0.7818608E-02  0.1130116E+00
         25   -1    0    0    0    0  0.00000000000E+00  0.00000000000E+00  0.99999998245E-14  0.12500000000E+03  0.12500000000E+03 0.  0.
        -11    1    3    3    0    0  0.41984930669E+01  0.55998288402E+02  0.19338555377E+02  0.59392048056E+02  0.51100000000E-03 0. -1.
         23    2    1    0    0    0  0.11575922905E+02  0.19885170611E+02  0.17125077722E+02  0.96317421867E+02  0.91947569119E+02 0.  0.
         11    1    3    3    0    0  0.73774298378E+01 -0.36113117790E+02 -0.22134776543E+01  0.36925373812E+02  0.51100000000E-03 0.  1.
         22    1    1    0    0    0 -0.11575922905E+02 -0.19885170611E+02 -0.17125077722E+02  0.28682578133E+02  0.00000000000E+00 0. -1.
</event>
<event>
 5    1  0.8957809E-005  0.9118800E+02  0.7818608E-02  0.1130116E+00
         25   -1    0    0    0    0  0.00000000000E+00  0.00000000000E+00  0.99999998245E-14  0.12500000000E+03  0.12500000000E+03 0.  0.
        -11    1    3    3    0    0 -0.23418872356E+02 -0.13634026087E+02  0.21688875076E+02  0.34709329468E+02  0.51100000000E-03 0.  1.
         23    2    1    0    0    0  0.25881820016E+02  0.14440606225E+02  0.24347782151E+00  0.95361191034E+02  0.90638279764E+02 0.  0.
         11    1    3    3    0    0  0.49300692371E+02  0.28074632312E+02 -0.21445397255E+02  0.60651861566E+02  0.51100000000E-03 0. -1.
         22    1    1    0    0    0 -0.25881820016E+02 -0.14440606225E+02 -0.24347782151E+00  0.29638808966E+02  0.00000000000E+00 0. -1.
</event>
<event>
 5    1  0.8957809E-005  0.9118800E+02  0.7818608E-02  0.1130116E+00
         25   -1    0    0    0    0  0.00000000000E+00  0.00000000000E+00  0.99999998245E-14  0.12500000000E+03  0.12500000000E+03 0.  0.
        -11    1    3    3    0    0  0.47057088228E+02 -0.79946989363E+01 -0.75196102680E+01  0.48320071424E+02  0.51100000000E-03 0.  1.
         23    2    1    0    0    0  0.70045362128E+01 -0.15731475322E+02  0.20812718943E+02  0.97986815938E+02  0.94189723349E+02 0.  0.
         11    1    3    3    0    0 -0.40052552016E+02 -0.77367763858E+01  0.28332329211E+02  0.49666744514E+02  0.51100000000E-03 0. -1.
         22    1    1    0    0    0 -0.70045362128E+01  0.15731475322E+02 -0.20812718943E+02  0.27013184062E+02  0.00000000000E+00 0.  1.
</event>
<event>
 5    1  0.8957809E-005  0.9118800E+02  0.7818608E-02  0.1130116E+00
         25   -1    0    0    0    0  0.00000000000E+00  0.00000000000E+00  0.99999998245E-14  0.12500000000E+03  0.12500000000E+03 0.  0.
        -11    1    3    3    0    0 -0.47703522871E+01  0.29217549299E+01 -0.60061364895E+02  0.60321310216E+02  0.51100000000E-03 0. -1.
         23    2    1    0    0    0  0.48068115106E+01 -0.79098295052E+01 -0.28449108952E+02  0.95083071015E+02  0.90253907139E+02 0.  0.
         11    1    3    3    0    0  0.95771637976E+01 -0.10831584435E+02  0.31612255943E+02  0.34761760799E+02  0.51100000000E-03 0.  1.
         22    1    1    0    0    0 -0.48068115106E+01  0.79098295052E+01  0.28449108952E+02  0.29916928985E+02  0.00000000000E+00 0. -1.
</event>
<event>
 5    1  0.8957809E-005  0.9118800E+02  0.7818608E-02  0.1130116E+00
         25   -1    0    0    0    0  0.00000000000E+00  0.00000000000E+00  0.99999998245E-14  0.12500000000E+03  0.12500000000E+03 0.  0.
        -11    1    3    3    0    0  0.31618195041E+02 -0.26731675632E+02 -0.88099409440E+01  0.42330931946E+02  0.51100000000E-03 0.  1.
         23    2    1    0    0    0  0.13161078267E+02  0.23691724328E+02  0.41865141347E+01  0.97576676289E+02  0.93643841614E+02 0.  0.
         11    1    3    3    0    0 -0.18457116774E+02  0.50423399959E+02  0.12996455079E+02  0.55245744343E+02  0.51100000000E-03 0. -1.
         22    1    1    0    0    0 -0.13161078267E+02 -0.23691724328E+02 -0.41865141347E+01  0.27423323711E+02  0.00000000000E+00 0. -1.
</event>
<event>
 5    1  0.8957809E-005  0.9118800E+02  0.7818608E-02  0.1130116E+00
         25   -1    0    0    0    0  0.00000000000E+00  0.00000000000E+00  0.99999998245E-14  0.12500000000E+03  0.12500000000E+03 0.  0.
        -11    1    3    3    0    0 -0.26787854882E+02  0.25085306714E+01  0.31352844179E+02  0.41314437352E+02  0.51100000000E-03 0. -1.
         23    2    1    0    0    0  0.98284638037E+01 -0.27558576008E+02  0.57047970449E+01  0.95190294841E+02  0.90402288192E+02 0.  0.
         11    1    3    3    0    0  0.36616318686E+02 -0.30067106679E+02 -0.25648047134E+02  0.53875857489E+02  0.51100000000E-03 0.  1.
         22    1    1    0    0    0 -0.98284638037E+01  0.27558576008E+02 -0.57047970449E+01  0.29809705159E+02  0.00000000000E+00 0.  1.
</event>
<event>
 5    1  0.8957809E-005  0.9118800E+02  0.7818608E-02  0.1130116E+00
         25   -1    0    0    0    0  0.00000000000E+00  0.00000000000E+00  0.99999998245E-14  0.12500000000E+03  0.12500000000E+03 0.  0.
        -11    1    3    3    0    0 -0.97692027100E+01 -0.42728407790E+02  0.12322907311E+02  0.45530299788E+02  0.51100000000E-03 0.  1.
         23    2    1    0    0    0  0.20695139340E+02 -0.84848060292E+01 -0.14220772347E+02  0.98495074197E+02  0.94861839268E+02 0.  0.
         11    1    3    3    0    0  0.30464342050E+02  0.34243601761E+02 -0.26543679659E+02  0.52964774409E+02  0.51100000000E-03 0. -1.
         22    1    1    0    0    0 -0.20695139340E+02  0.84848060292E+01  0.14220772347E+02  0.26504925803E+02  0.00000000000E+00 0.  1.
</event>
<event>
 5    1  0.8957809E-005  0.9118800E+02  0.7818608E-02  0.1130116E+00
         25   -1    0    0    0    0  0.00000000000E+00  0.00000000000E+00  0.99999998245E-14  0.12500000000E+03  0.12500000000E+03 0.  0.
        -11    1    3    3    0    0  0.23930281432E+02 -0.16816763162E+02 -0.22738076741E+02  0.37047024534E+02  0.51100000000E-03 0.  1.
         23    2    1    0    0    0 -0.44237314206E+01  0.28296335107E+02  0.29665693499E+01  0.96206727975E+02  0.91796960700E+02 0.  0.
         11    1    3    3    0    0 -0.28354012853E+02  0.45113098270E+02  0.25704646091E+02  0.59159703441E+02  0.51100000000E-03 0. -1.
         22    1    1    0    0    0  0.44237314206E+01 -0.28296335107E+02 -0.29665693499E+01  0.28793272025E+02  0.00000000000E+00 0. -1.
</event>
<event>
 5    1  0.8957809E-005  0.9118800E+02  0.7818608E-02  0.1130116E+00
         25   -1    0    0    0    0  0.00000000000E+00  0.00000000000E+00  0.99999998245E-14  0.12500000000E+03  0.12500000000E+03 0.  0.
        -11    1    3    3    0    0  0.24482263751E+02  0.55923206256E+02  0.55162791151E+01  0.61296130154E+02  0.51100000000E-03 0.  1.
         23    2    1    0    0    0  0.16979368602E+02  0.22769125447E+02  0.83185250786E+01  0.95403887228E+02  0.90697143323E+02 0.  0.
         11    1    3    3    0    0 -0.75028951491E+01 -0.33154080809E+02  0.28022459635E+01  0.34107757074E+02  0.51100000000E-03 0. -1.
         22    1    1    0    0    0 -0.16979368602E+02 -0.22769125447E+02 -0.83185250786E+01  0.29596112772E+02  0.00000000000E+00 0.  1.
</event>
<event>
 5    1  0.8957809E-005  0.9118800E+02  0.7818608E-02  0.1130116E+00
         25   -1    0    0    0    0  0.00000000000E+00  0.00000000000E+00  0.99999998245E-14  0.12500000000E+03  0.12500000000E+03 0.  0.
        -11    1    3    3    0    0  0.55792039914E+01 -0.14581748860E+02 -0.42780752236E+02  0.45540615709E+02  0.51100000000E-03 0.  1.
         23    2    1    0    0    0 -0.70991543354E+01  0.24389650263E+02 -0.11398772291E+02  0.97157854932E+02  0.93083101222E+02 0.  0.
         11    1    3    3    0    0 -0.12678358327E+02  0.38971399123E+02  0.31381979946E+02  0.51617239223E+02  0.51100000000E-03 0. -1.
         22    1    1    0    0    0  0.70991543354E+01 -0.24389650263E+02  0.11398772291E+02  0.27842145068E+02  0.00000000000E+00 0. -1.
</event>
<event>
 5    1  0.8957809E-005  0.9118800E+02  0.7818608E-02  0.1130116E+00
         25   -1    0    0    0    0  0.00000000000E+00  0.00000000000E+00  0.99999998245E-14  0.12500000000E+03  0.12500000000E+03 0.  0.
        -11    1    3    3    0    0 -0.58823281937E+02 -0.19425331340E+02 -0.66234807059E+01  0.62300822566E+02  0.51100000000E-03 0.  1.
         23    2    1    0    0    0 -0.32356037765E+02 -0.12257826795E+02 -0.50266589879E+00  0.90396240514E+02  0.83510838389E+02 0.  0.
         11    1    3    3    0    0  0.26467244172E+02  0.71675045452E+01  0.61208148071E+01  0.28095417947E+02  0.51100000000E-03 0. -1.
         22    1    1    0    0    0  0.32356037765E+02  0.12257826795E+02  0.50266589879E+00  0.34603759486E+02  0.00000000000E+00 0.  1.
</event>
<event>
 5    1  0.8957809E-005  0.9118800E+02  0.7818608E-02  0.1130116E+00
         25   -1    0    0    0    0  0.00000000000E+00  0.00000000000E+00  0.99999998245E-14  0.12500000000E+03  0.12500000000E+03 0.  0.
        -11    1    3    3    0    0  0.24180568407E+01  0.19078369446E+02 -0.33715378000E+02  0.38814403171E+02  0.51100000000E-03 0.  1.
         23    2    1    0    0    0 -0.26035561718E+02 -0.15390849769E+00  0.12276968501E+02  0.96214619729E+02  0.91807706279E+02 0.  0.
         11    1    3    3    0    0 -0.28453618558E+02 -0.19232277944E+02  0.45992346501E+02  0.57400216558E+02  0.51100000000E-03 0. -1.
         22    1    1    0    0    0  0.26035561718E+02  0.15390849769E+00 -0.12276968501E+02  0.28785380271E+02  0.00000000000E+00 0. -1.
</event>
<event>
 5    1  0.8957809E-005  0.9118800E+02  0.7818608E-02  0.1130116E+00
         25   -1    0    0    0    0  0.00000000000E+00  0.00000000000E+00  0.99999998245E-14  0.12500000000E+03  0.12500000000E+03 0.  0.
        -11    1    3    3    0    0 -0.18938572820E+02 -0.30202345475E+02  0.28932145013E+02  0.45912092394E+02  0.51100000000E-03 0. -1.
         23    2    1    0    0    0  0.10836867213E+02 -0.26873356240E+02 -0.93756159451E+01  0.94544833920E+02  0.89505354477E+02 0.  0.
         11    1    3    3    0    0  0.29775440034E+02  0.33289892349E+01 -0.38307760958E+02  0.48632741527E+02  0.51100000000E-03 0.  1.
         22    1    1    0    0    0 -0.10836867213E+02  0.26873356240E+02  0.93756159451E+01  0.30455166080E+02  0.00000000000E+00 0.  1.
</event>
<event>
 5    1  0.8957809E-005  0.9118800E+02  0.7818608E-02  0.1130116E+00
         25   -1    0    0    0    0  0.00000000000E+00  0.00000000000E+00  0.99999998245E-14  0.12500000000E+03  0.12500000000E+03 0.  0.
        -11    1    3    3    0    0  0.25579509928E+02  0.16333260925E+02 -0.13357468102E+02  0.33158840374E+02  0.51100000000E-03 0. -1.
         23    2    1    0    0    0 -0.28453725095E+02 -0.69475467011E+01  0.60105734542E+01  0.95100002171E+02  0.90277353432E+02 0.  0.
         11    1    3    3    0    0 -0.54033235023E+02 -0.23280807626E+02  0.19368041556E+02  0.61941161797E+02  0.51100000000E-03 0.  1.
         22    1    1    0    0    0  0.28453725095E+02  0.69475467011E+01 -0.60105734542E+01  0.29899997829E+02  0.00000000000E+00 0.  1.
</event>
<event>
 5    1  0.8957809E-005  0.9118800E+02  0.7818608E-02  0.1130116E+00
         25   -1    0    0    0    0  0.00000000000E+00  0.00000000000E+00  0.99999998245E-14  0.12500000000E+03  0.12500000000E+03 0.  0.
        -11    1    3    3    0    0 -0.59396444029E+01 -0.58506674282E+02 -0.82393268957E+01  0.59381788615E+02  0.51100000000E-03 0. -1.
         23    2    1    0    0    0 -0.66939615837E+01 -0.32944407240E+02 -0.18134835355E+02  0.86802940644E+02  0.77947002258E+02 0.  0.
         11    1    3    3    0    0 -0.75431718081E+00  0.25562267041E+02 -0.98955084589E+01  0.27421152030E+02  0.51100000000E-03 0.  1.
         22    1    1    0    0    0  0.66939615837E+01  0.32944407240E+02  0.18134835355E+02  0.38197059356E+02  0.00000000000E+00 0. -1.
</event>
<event>
 5    1  0.8957809E-005  0.9118800E+02  0.7818608E-02  0.1130116E+00
         25   -1    0    0    0    0  0.00000000000E+00  0.00000000000E+00  0.99999998245E-14  0.12500000000E+03  0.12500000000E+03 0.  0.
        -11    1    3    3    0    0  0.16059982918E+02 -0.54096932474E+02 -0.22464706111E+02  0.60737666857E+02  0.51100000000E-03 0.  1.
         23    2    1    0    0    0 -0.17567933003E+01 -0.28865508196E+02 -0.71671042964E+01  0.95206187386E+02  0.90424260276E+02 0.  0.
         11    1    3    3    0    0 -0.17816776218E+02  0.25231424278E+02  0.15297601815E+02  0.34468520529E+02  0.51100000000E-03 0. -1.
         22    1    1    0    0    0  0.17567933003E+01  0.28865508196E+02  0.71671042964E+01  0.29793812614E+02  0.00000000000E+00 0.  1.
</event>
<event>
 5    1  0.8957809E-005  0.9118800E+02  0.7818608E-02  0.1130116E+00
         25   -1    0    0    0    0  0.00000000000E+00  0.00000000000E+00  0.99999998245E-14  0.12500000000E+03  0.12500000000E+03 0.  0.
        -11    1    3    3    0    0 -0.10956211736E+02  0.30975316790E+02 -0.12550620035E+02  0.35171393054E+02  0.51100000000E-03 0.  1.
         23    2    1    0    0    0  0.30893051515E+02  0.57057331925E+01  0.13776613321E+02  0.90696485636E+02  0.83959046022E+02 0.  0.
         11    1    3    3    0    0  0.41849263250E+02 -0.25269583597E+02  0.26327233356E+02  0.55525092582E+02  0.51100000000E-03 0. -1.
         22    1    1    0    0    0 -0.30893051515E+02 -0.57057331925E+01 -0.13776613321E+02  0.34303514364E+02  0.00000000000E+00 0. -1.
</event>
<event>
 5    1  0.8957809E-005  0.9118800E+02  0.7818608E-02  0.1130116E+00
         25   -1    0    0    0    0  0.00000000000E+00  0.00000000000E+00  0.99999998245E-14  0.12500000000E+03  0.12500000000E+03 0.  0.
        -11    1    3    3    0    0 -0.14760442381E+02 -0.16600374671E+02 -0.53051998054E+02  0.57514846747E+02  0.51100000000E-03 0. -1.
         23    2    1    0    0    0 -0.24039102548E+02 -0.80175701169E+01 -0.20596799993E+02  0.92344402443E+02  0.86377662684E+02 0.  0.
         11    1    3    3    0    0 -0.92786601670E+01  0.85828045545E+01  0.32455198061E+02  0.34829555696E+02  0.51100000000E-03 0.  1.
         22    1    1    0    0    0  0.24039102548E+02  0.80175701169E+01  0.20596799993E+02  0.32655597557E+02  0.00000000000E+00 0. -1.
</event>
<event>
 5    1  0.8957809E-005  0.9118800E+02  0.7818608E-02  0.1130116E+00
         25   -1    0    0    0    0  0.00000000000E+00  0.00000000000E+00  0.99999998245E-14  0.12500000000E+03  0.12500000000E+03 0.  0.
        -11    1    3    3    0    0 -0.24445118865E+02  0.34659852007E+02 -0.45103765261E+02  0.61912993938E+02  0.51100000000E-03 0.  1.
         23    2    1    0    0    0 -0.79847381991E+01  0.13112982486E+02 -0.24978957126E+02  0.95680132113E+02  0.91077071913E+02 0.  0.
         11    1    3    3    0    0  0.16460380666E+02 -0.21546869520E+02  0.20124808135E+02  0.33767138175E+02  0.51100000000E-03 0. -1.
         22    1    1    0    0    0  0.79847381991E+01 -0.13112982486E+02  0.24978957126E+02  0.29319867887E+02  0.00000000000E+00 0.  1.
</event>
<event>
 5    1  0.8957809E-005  0.9118800E+02  0.7818608E-02  0.1130116E+00
         25   -1    0    0    0    0  0.00000000000E+00  0.00000000000E+00  0.99999998245E-14  0.12500000000E+03  0.12500000000E+03 0.  0.
        -11    1    3    3    0    0  0.28812972039E+02 -0.31846582762E+02 -0.29568650418E+02  0.52141128480E+02  0.51100000000E-03 0.  1.
         23    2    1    0    0    0 -0.46398156251E+01 -0.47145501013E+01 -0.29039320184E+02  0.95216833808E+02  0.90438976398E+02 0.  0.
         11    1    3    3    0    0 -0.33452787664E+02  0.27132032660E+02  0.52933023452E+00  0.43075705328E+02  0.51100000000E-03 0. -1.
         22    1    1    0    0    0  0.46398156251E+01  0.47145501013E+01  0.29039320184E+02  0.29783166192E+02  0.00000000000E+00 0. -1.
</event>
<event>
 5    1  0.8957809E-005  0.9118800E+02  0.7818608E-02  0.1130116E+00
         25   -1    0    0    0    0  0.00000000000E+00  0.00000000000E+00  0.99999998245E-14  0.12500000000E+03  0.12500000000E+03 0.  0.
        -11    1    3    3    0    0  0.32886836929E+02 -0.16359573698E+02 -0.35757250405E+02  0.51261687951E+02  0.51100000000E-03 0. -1.
         23    2    1    0    0    0  0.27174091522E+02  0.11394618788E+02 -0.18141390260E+01  0.95477810248E+02  0.90798967846E+02 0.  0.
         11    1    3    3    0    0 -0.57127454070E+01  0.27754192486E+02  0.33943111379E+02  0.44216122297E+02  0.51100000000E-03 0.  1.
         22    1    1    0    0    0 -0.27174091522E+02 -0.11394618788E+02  0.18141390260E+01  0.29522189752E+02  0.00000000000E+00 0. -1.
</event>
<event>
 5    1  0.8957809E-005  0.9118800E+02  0.7818608E-02  0.1130116E+00
         25   -1    0    0    0    0  0.00000000000E+00  0.00000000000E+00  0.99999998245E-14  0.12500000000E+03  0.12500000000E+03 0.  0.
        -11    1    3    3    0    0 -0.29924136094E+02 -0.25265969166E+02 -0.37276065492E+02  0.54067810921E+02  0.51100000000E-03 0.  1.
         23    2    1    0    0    0 -0.27356288805E+02  0.44498122263E+01 -0.73349294094E+01  0.96330006009E+02  0.91964675295E+02 0.  0.
         11    1    3    3    0    0  0.25678472898E+01  0.29715781393E+02  0.29941136083E+02  0.42262195088E+02  0.51100000000E-03 0. -1.
         22    1    1    0    0    0  0.27356288805E+02 -0.44498122263E+01  0.73349294094E+01  0.28669993991E+02  0.00000000000E+00 0. -1.
</event>
<event>
 5    1  0.8957809E-005  0.9118800E+02  0.7818608E-02  0.1130116E+00
         25   -1    0    0    0    0  0.00000000000E+00  0.00000000000E+00  0.99999998245E-14  0.12500000000E+03  0.12500000000E+03 0.  0.
        -11    1    3    3    0    0 -0.52945765891E+02  0.11181413001E+02  0.17807869629E+02  0.56968397761E+02  0.51100000000E-03 0.  1.
         23    2    1    0    0    0 -0.20858353574E+02  0.19683456273E+02 -0.30290644042E+01  0.96161057650E+02  0.91734750300E+02 0.  0.
         11    1    3    3    0    0  0.32087412317E+02  0.85020432725E+01 -0.20836934033E+02  0.39192659889E+02  0.51100000000E-03 0. -1.
         22    1    1    0    0    0  0.20858353574E+02 -0.19683456273E+02  0.30290644042E+01  0.28838942350E+02  0.00000000000E+00 0.  1.
</event>
<event>
 5    1  0.8957809E-005  0.9118800E+02  0.7818608E-02  0.1130116E+00
         25   -1    0    0    0    0  0.00000000000E+00  0.00000000000E+00  0.99999998245E-14  0.12500000000E+03  0.12500000000E+03 0.  0.
        -11    1    3    3    0    0  0.27737305146E+02  0.17703183460E+02  0.34210587472E+02  0.47467094885E+02  0.51100000000E-03 0.  1.
         23    2    1    0    0    0  0.23897832353E+02 -0.14578123902E+02 -0.29629734006E+01  0.96850270000E+02  0.92669129164E+02 0.  0.
         11    1    3    3    0    0 -0.38394727923E+01 -0.32281307362E+02 -0.37173560872E+02  0.49383175116E+02  0.51100000000E-03 0. -1.
         22    1    1    0    0    0 -0.23897832353E+02  0.14578123902E+02  0.29629734006E+01  0.28149730000E+02  0.00000000000E+00 0. -1.
</event>
<event>
 5    1  0.8957809E-005  0.9118800E+02  0.7818608E-02  0.1130116E+00
         25   -1    0    0    0    0  0.00000000000E+00  0.00000000000E+00  0.99999998245E-14  0.12500000000E+03  0.12500000000E+03 0.  0.
        -11    1    3    3    0    0 -0.30437040833E+02 -0.15691067340E+02  0.33414237529E+02  0.47844898567E+02  0.51100000000E-03 0.  1.
         23    2    1    0    0    0  0.68635066440E+01  0.73215871195E+01  0.31746730649E+02  0.91704831156E+02  0.85447105212E+02 0.  0.
         11    1    3    3    0    0  0.37300547477E+02  0.23012654459E+02 -0.16675068798E+01  0.43859932590E+02  0.51100000000E-03 0. -1.
         22    1    1    0    0    0 -0.68635066440E+01 -0.73215871195E+01 -0.31746730649E+02  0.33295168844E+02  0.00000000000E+00 0.  1.
</event>
<event>
 5    1  0.8957809E-005  0.9118800E+02  0.7818608E-02  0.1130116E+00
         25   -1    0    0    0    0  0.00000000000E+00  0.00000000000E+00  0.99999998245E-14  0.12500000000E+03  0.12500000000E+03 0.  0.
        -11    1    3    3    0    0 -0.38145551747E+02 -0.93611753439E+01  0.87538958028E+01  0.40241091112E+02  0.51100000000E-03 0. -1.
         23    2    1    0    0    0  0.16855624012E+02 -0.21005959074E+02 -0.36719837830E+01  0.97818281100E+02  0.93965793111E+02 0.  0.
         11    1    3    3    0    0  0.55001175760E+02 -0.11644783730E+02 -0.12425879586E+02  0.57577189987E+02  0.51100000000E-03 0.  1.
         22    1    1    0    0    0 -0.16855624012E+02  0.21005959074E+02  0.36719837830E+01  0.27181718900E+02  0.00000000000E+00 0.  1.
</event>
<event>
 5    1  0.8957809E-005  0.9118800E+02  0.7818608E-02  0.1130116E+00
         25   -1    0    0    0    0  0.00000000000E+00  0.00000000000E+00  0.99999998245E-14  0.12500000000E+03  0.12500000000E+03 0.  0.
        -11    1    3    3    0    0 -0.54581014892E+02  0.22558252655E+02  0.15466458960E+02  0.61050579870E+02  0.51100000000E-03 0.  1.
         23    2    1    0    0    0 -0.23569806176E+02  0.17788795400E+02  0.13936785213E+01  0.95437873135E+02  0.90743971061E+02 0.  0.
         11    1    3    3    0    0  0.31011208717E+02 -0.47694572550E+01 -0.14072780438E+02  0.34387293265E+02  0.51100000000E-03 0. -1.
         22    1    1    0    0    0  0.23569806176E+02 -0.17788795400E+02 -0.13936785213E+01  0.29562126865E+02  0.00000000000E+00 0.  1.
</event>
<event>
 5    1  0.8957809E-005  0.9118800E+02  0.7818608E-02  0.1130116E+00
         25   -1    0    0    0    0  0.00000000000E+00  0.00000000000E+00  0.99999998245E-14  0.12500000000E+03  0.12500000000E+03 0.  0.
        -11    1    3    3    0    0 -0.21161095005E+01  0.15137094319E+02 -0.38873577864E+02  0.41770379458E+02  0.51100000000E-03 0.  1.
         23    2    1    0    0    0  0.26548912644E+02  0.97437220562E+01  0.67539128177E+01  0.95924233107E+02  0.91411477817E+02 0.  0.
         11    1    3    3    0    0  0.28665022144E+02 -0.53933722627E+01  0.45627490682E+02  0.54153853649E+02  0.51100000000E-03 0. -1.
         22    1    1    0    0    0 -0.26548912644E+02 -0.97437220562E+01 -0.67539128177E+01  0.29075766893E+02  0.00000000000E+00 0. -1.
</event>
<event>
 5    1  0.8957809E-005  0.9118800E+02  0.7818608E-02  0.1130116E+00
         25   -1    0    0    0    0  0.00000000000E+00  0.00000000000E+00  0.99999998245E-14  0.12500000000E+03  0.12500000000E+03 0.  0.
        -11    1    3    3    0    0  0.15549379415E+02  0.59082799164E+02  0.11086366125E+02  0.62092413960E+02  0.51100000000E-03 0.  1.
         23    2    1    0    0    0  0.69718501406E+01  0.26488540045E+02  0.10086314178E+02  0.95811249054E+02  0.91256847762E+02 0.  0.
         11    1    3    3    0    0 -0.85775292748E+01 -0.32594259119E+02 -0.10000519476E+01  0.33718835094E+02  0.51100000000E-03 0. -1.
         22    1    1    0    0    0 -0.69718501406E+01 -0.26488540045E+02 -0.10086314178E+02  0.29188750946E+02  0.00000000000E+00 0.  1.
</event>
<event>
 5    1  0.8957809E-005  0.9118800E+02  0.7818608E-02  0.1130116E+00
         25   -1    0    0    0    0  0.00000000000E+00  0.00000000000E+00  0.99999998245E-14  0.12500000000E+03  0.12500000000E+03 0.  0.
        -11    1    3    3    0    0 -0.35911974617E+01  0.30666314620E+02  0.51777440218E+02  0.60284515983E+02  0.51100000000E-03 0. -1.
         23    2    1    0    0    0  0.68320121942E+01  0.24082597107E+02  0.25732033515E+02  0.89100342302E+02  0.81548056846E+02 0.  0.
         11    1    3    3    0    0  0.10423209656E+02 -0.65837175131E+01 -0.26045406703E+02  0.28815826318E+02  0.51100000000E-03 0.  1.
         22    1    1    0    0    0 -0.68320121942E+01 -0.24082597107E+02 -0.25732033515E+02  0.35899657698E+02  0.00000000000E+00 0. -1.
</event>
<event>
 5    1  0.8957809E-005  0.9118800E+02  0.7818608E-02  0.1130116E+00
         25   -1    0    0    0    0  0.00000000000E+00  0.00000000000E+00  0.99999998245E-14  0.12500000000E+03  0.12500000000E+03 0.  0.
        -11    1    3    3    0    0 -0.37921197522E+02 -0.11120123810E+02  0.16579119697E+02  0.42854889864E+02  0.51100000000E-03 0. -1.
         23    2    1    0    0    0  0.10618565526E+02  0.22779051122E+01  0.28413500062E+02  0.94581752659E+02  0.89556899035E+02 0.  0.
         11    1    3    3    0    0  0.48539763048E+02  0.13398028923E+02  0.11834380365E+02  0.51726862795E+02  0.51100000000E-03 0.  1.
         22    1    1    0    0    0 -0.10618565526E+02 -0.22779051122E+01 -0.28413500062E+02  0.30418247341E+02  0.00000000000E+00 0. -1.
</event>
<event>
 5    1  0.8957809E-005  0.9118800E+02  0.7818608E-02  0.1130116E+00
         25   -1    0    0    0    0  0.00000000000E+00  0.00000000000E+00  0.99999998245E-14  0.12500000000E+03  0.12500000000E+03 0.  0.
        -11    1    3    3    0    0  0.40359570682E+01 -0.78584882569E+01 -0.60609503508E+02  0.61249952677E+02  0.51100000000E-03 0.  1.
         23    2    1    0    0    0 -0.18484184200E+01  0.42603308172E+01 -0.29291986157E+02  0.95342159176E+02  0.90612028969E+02 0.  0.
         11    1    3    3    0    0 -0.58843754882E+01  0.12118819074E+02  0.31317517351E+02  0.34092206499E+02  0.51100000000E-03 0. -1.
         22    1    1    0    0    0  0.18484184200E+01 -0.42603308172E+01  0.29291986157E+02  0.29657840824E+02  0.00000000000E+00 0.  1.
</event>
<event>
 5    1  0.8957809E-005  0.9118800E+02  0.7818608E-02  0.1130116E+00
         25   -1    0    0    0    0  0.00000000000E+00  0.00000000000E+00  0.99999998245E-14  0.12500000000E+03  0.12500000000E+03 0.  0.
        -11    1    3    3    0    0 -0.28709147114E+02 -0.31803153541E+02  0.12046530316E+02  0.44505893948E+02  0.51100000000E-03 0. -1.
         23    2    1    0    0    0 -0.53219105165E+01  0.12057417921E+02  0.25755681070E+02  0.96068025200E+02  0.91607894310E+02 0.  0.
         11    1    3    3    0    0  0.23387236598E+02  0.43860571462E+02  0.13709150754E+02  0.51562131252E+02  0.51100000000E-03 0.  1.
         22    1    1    0    0    0  0.53219105165E+01 -0.12057417921E+02 -0.25755681070E+02  0.28931974800E+02  0.00000000000E+00 0.  1.
</event>
<event>
 5    1  0.8957809E-005  0.9118800E+02  0.7818608E-02  0.1130116E+00
         25   -1    0    0    0    0  0.00000000000E+00  0.00000000000E+00  0.99999998245E-14  0.12500000000E+03  0.12500000000E+03 0.  0.
        -11    1    3    3    0    0 -0.59331313335E+02  0.43764217691E+01 -0.12799733090E+02  0.60853849320E+02  0.51100000000E-03 0.  1.
         23    2    1    0    0    0 -0.42448642998E+02 -0.14973013767E+01 -0.55411643799E+00  0.82521343608E+02  0.70748398583E+02 0.  0.
         11    1    3    3    0    0  0.16882670337E+02 -0.58737231458E+01  0.12245616652E+02  0.21667494288E+02  0.51100000000E-03 0. -1.
         22    1    1    0    0    0  0.42448642998E+02  0.14973013767E+01  0.55411643799E+00  0.42478656392E+02  0.00000000000E+00 0.  1.
</event>
<event>
 5    1  0.8957809E-005  0.9118800E+02  0.7818608E-02  0.1130116E+00
         25   -1    0    0    0    0  0.00000000000E+00  0.00000000000E+00  0.99999998245E-14  0.12500000000E+03  0.12500000000E+03 0.  0.
        -11    1    3    3    0    0 -0.48778858414E+02  0.19926745959E+01 -0.84770694456E+01  0.49550060412E+02  0.51100000000E-03 0. -1.
         23    2    1    0    0    0 -0.12654777248E+02 -0.25458046550E+02  0.31761490848E+01  0.96393297212E+02  0.92050661612E+02 0.  0.
         11    1    3    3    0    0  0.36124081166E+02 -0.27450721146E+02  0.11653218530E+02  0.46843236800E+02  0.51100000000E-03 0.  1.
         22    1    1    0    0    0  0.12654777248E+02  0.25458046550E+02 -0.31761490848E+01  0.28606702788E+02  0.00000000000E+00 0.  1.
</event>
<event>
 5    1  0.8957809E-005  0.9118800E+02  0.7818608E-02  0.1130116E+00
         25   -1    0    0    0    0  0.00000000000E+00  0.00000000000E+00  0.99999998245E-14  0.12500000000E+03  0.12500000000E+03 0.  0.
        -11    1    3    3    0    0  0.10362934553E+02  0.15300605838E+02 -0.19815114016E+02  0.27094975461E+02  0.51100000000E-03 0.  1.
         23    2    1    0    0    0 -0.37949543024E+02 -0.78052909694E+01  0.46610531955E+01  0.85976727460E+02  0.76610585855E+02 0.  0.
         11    1    3    3    0    0 -0.48312477577E+02 -0.23105896807E+02  0.24476167211E+02  0.58881751999E+02  0.51100000000E-03 0. -1.
         22    1    1    0    0    0  0.37949543024E+02  0.78052909694E+01 -0.46610531955E+01  0.39023272540E+02  0.00000000000E+00 0. -1.
</event>
<event>
 5    1  0.8957809E-005  0.9118800E+02  0.7818608E-02  0.1130116E+00
         25   -1    0    0    0    0  0.00000000000E+00  0.00000000000E+00  0.99999998245E-14  0.12500000000E+03  0.12500000000E+03 0.  0.
        -11    1    3    3    0    0 -0.26854056701E+02 -0.18475571996E+01  0.35004671422E+02  0.44157455209E+02  0.51100000000E-03 0.  1.
         23    2    1    0    0    0  0.11934037677E+02 -0.12300457282E+00  0.39957251008E+02  0.83298461737E+02  0.72108358977E+02 0.  0.
         11    1    3    3    0    0  0.38788094378E+02  0.17245526268E+01  0.49525795857E+01  0.39141006528E+02  0.51100000000E-03 0. -1.
         22    1    1    0    0    0 -0.11934037677E+02  0.12300457282E+00 -0.39957251008E+02  0.41701538263E+02  0.00000000000E+00 0.  1.
</event>
<event>
 5    1  0.8957809E-005  0.9118800E+02  0.7818608E-02  0.1130116E+00
         25   -1    0    0    0    0  0.00000000000E+00  0.00000000000E+00  0.99999998245E-14  0.12500000000E+03  0.12500000000E+03 0.  0.
        -11    1    3    3    0    0  0.12187806953E+02 -0.21725875498E+02 -0.32590178658E+02  0.41020434538E+02  0.51100000000E-03 0. -1.
         23    2    1    0    0    0 -0.24842993163E+02 -0.11293888219E+02  0.76155858197E+01  0.96667626860E+02  0.92422436210E+02 0.  0.
         11    1    3    3    0    0 -0.37030800116E+02  0.10431987279E+02  0.40205764478E+02  0.55647192322E+02  0.51100000000E-03 0.  1.
         22    1    1    0    0    0  0.24842993163E+02  0.11293888219E+02 -0.76155858197E+01  0.28332373140E+02  0.00000000000E+00 0. -1.
</event>
<event>
 5    1  0.8957809E-005  0.9118800E+02  0.7818608E-02  0.1130116E+00
         25   -1    0    0    0    0  0.00000000000E+00  0.00000000000E+00  0.99999998245E-14  0.12500000000E+03  0.12500000000E+03 0.  0.
        -11    1    3    3    0    0  0.26786743521E+02  0.40263549134E+02 -0.10560829650E+02  0.49499637782E+02  0.51100000000E-03 0. -1.
         23    2    1    0    0    0 -0.11661825777E+02  0.22962752349E+02  0.11164830929E+02  0.96929737701E+02  0.92776260030E+02 0.  0.
         11    1    3    3    0    0 -0.38448569298E+02 -0.17300796786E+02  0.21725660579E+02  0.47430099919E+02  0.51100000000E-03 0.  1.
         22    1    1    0    0    0  0.11661825777E+02 -0.22962752349E+02 -0.11164830929E+02  0.28070262299E+02  0.00000000000E+00 0.  1.
</event>
<event>
 5    1  0.8957809E-005  0.9118800E+02  0.7818608E-02  0.1130116E+00
         25   -1    0    0    0    0  0.00000000000E+00  0.00000000000E+00  0.99999998245E-14  0.12500000000E+03  0.12500000000E+03 0.  0.
        -11    1    3    3    0    0 -0.18312593823E+02  0.97243900921E+01 -0.47045064121E+02  0.51411602908E+02  0.51100000000E-03 0.  1.
         23    2    1    0    0    0  0.53174850487E+00 -0.20663842512E+02 -0.19923701286E+02  0.96290576168E+02  0.91911065939E+02 0.  0.
         11    1    3    3    0    0  0.18844342328E+02 -0.30388232604E+02  0.27121362835E+02  0.44878973260E+02  0.51100000000E-03 0. -1.
         22    1    1    0    0    0 -0.53174850487E+00  0.20663842512E+02  0.19923701286E+02  0.28709423832E+02  0.00000000000E+00 0. -1.
</event>
<event>
 5    1  0.8957809E-005  0.9118800E+02  0.7818608E-02  0.1130116E+00
         25   -1    0    0    0    0  0.00000000000E+00  0.00000000000E+00  0.99999998245E-14  0.12500000000E+03  0.12500000000E+03 0.  0.
        -11    1    3    3    0    0 -0.77793197056E+01 -0.32622471639E+02 -0.52317755615E+02  0.62144114956E+02  0.51100000000E-03 0.  1.
         23    2    1    0    0    0  0.92547761855E+00 -0.14603668493E+02 -0.25416867435E+02  0.95671843010E+02  0.91065694707E+02 0.  0.
         11    1    3    3    0    0  0.87047973242E+01  0.18018803146E+02  0.26900888180E+02  0.33527728053E+02  0.51100000000E-03 0. -1.
         22    1    1    0    0    0 -0.92547761855E+00  0.14603668493E+02  0.25416867435E+02  0.29328156990E+02  0.00000000000E+00 0.  1.
</event>
<event>
 5    1  0.8957809E-005  0.9118800E+02  0.7818608E-02  0.1130116E+00
         25   -1    0    0    0    0  0.00000000000E+00  0.00000000000E+00  0.99999998245E-14  0.12500000000E+03  0.12500000000E+03 0.  0.
        -11    1    3    3    0    0 -0.31574526440E+01 -0.19360113817E+02  0.59013449113E+02  0.62188187710E+02  0.51100000000E-03 0.  1.
         23    2    1    0    0    0  0.73592770593E+00 -0.12638167034E+02  0.26293765918E+02  0.95817351359E+02  0.91265206074E+02 0.  0.
         11    1    3    3    0    0  0.38933803499E+01  0.67219467828E+01 -0.32719683195E+02  0.33629163649E+02  0.51100000000E-03 0. -1.
         22    1    1    0    0    0 -0.73592770593E+00  0.12638167034E+02 -0.26293765918E+02  0.29182648641E+02  0.00000000000E+00 0.  1.
</event>
<event>
 5    1  0.8957809E-005  0.9118800E+02  0.7818608E-02  0.1130116E+00
         25   -1    0    0    0    0  0.00000000000E+00  0.00000000000E+00  0.99999998245E-14  0.12500000000E+03  0.12500000000E+03 0.  0.
        -11    1    3    3    0    0  0.82433586503E+01  0.10508780384E+02 -0.53666188569E+02  0.55303229768E+02  0.51100000000E-03 0.  1.
         23    2    1    0    0    0  0.20382466377E+02 -0.73588837069E+01 -0.18837389210E+02  0.96286843829E+02  0.91905989779E+02 0.  0.
         11    1    3    3    0    0  0.12139107727E+02 -0.17867664091E+02  0.34828799359E+02  0.40983614061E+02  0.51100000000E-03 0. -1.
         22    1    1    0    0    0 -0.20382466377E+02  0.73588837069E+01  0.18837389210E+02  0.28713156171E+02  0.00000000000E+00 0.  1.
</event>
<event>
 5    1  0.8957809E-005  0.9118800E+02  0.7818608E-02  0.1130116E+00
         25   -1    0    0    0    0  0.00000000000E+00  0.00000000000E+00  0.99999998245E-14  0.12500000000E+03  0.12500000000E+03 0.  0.
        -11    1    3    3    0    0 -0.96967035288E+01 -0.29401426551E+02 -0.45028903629E+02  0.54644964131E+02  0.51100000000E-03 0.  1.
         23    2    1    0    0    0 -0.22259436305E+02 -0.22549036550E+00 -0.19738128664E+02  0.95248914748E+02  0.90483306123E+02 0.  0.
         11    1    3    3    0    0 -0.12562732776E+02  0.29175936186E+02  0.25290774964E+02  0.40603950617E+02  0.51100000000E-03 0. -1.
         22    1    1    0    0    0  0.22259436305E+02  0.22549036550E+00  0.19738128664E+02  0.29751085252E+02  0.00000000000E+00 0.  1.
</event>
<event>
 5    1  0.8957809E-005  0.9118800E+02  0.7818608E-02  0.1130116E+00
         25   -1    0    0    0    0  0.00000000000E+00  0.00000000000E+00  0.99999998245E-14  0.12500000000E+03  0.12500000000E+03 0.  0.
        -11    1    3    3    0    0  0.16872554106E+02 -0.99840253709E+01 -0.29133697510E+02  0.35116038722E+02  0.51100000000E-03 0.  1.
         23    2    1    0    0    0 -0.54983765416E+01  0.22524502911E+02  0.17313152532E+02  0.96063334218E+02  0.91601493189E+02 0.  0.
         11    1    3    3    0    0 -0.22370930647E+02  0.32508528282E+02  0.46446850042E+02  0.60947295495E+02  0.51100000000E-03 0. -1.
         22    1    1    0    0    0  0.54983765416E+01 -0.22524502911E+02 -0.17313152532E+02  0.28936665782E+02  0.00000000000E+00 0. -1.
</event>
<event>
 5    1  0.8957809E-005  0.9118800E+02  0.7818608E-02  0.1130116E+00
         25   -1    0    0    0    0  0.00000000000E+00  0.00000000000E+00  0.99999998245E-14  0.12500000000E+03  0.12500000000E+03 0.  0.
        -11    1    3    3    0    0 -0.31807957806E+02  0.23240159293E+02  0.18189963152E+02  0.43390389990E+02  0.51100000000E-03 0. -1.
         23    2    1    0    0    0 -0.13396584157E+02 -0.24580993847E+02  0.29561297861E+01  0.96849823644E+02  0.92668527079E+02 0.  0.
         11    1    3    3    0    0  0.18411373650E+02 -0.47821153140E+02 -0.15233833366E+02  0.53459433654E+02  0.51100000000E-03 0.  1.
         22    1    1    0    0    0  0.13396584157E+02  0.24580993847E+02 -0.29561297861E+01  0.28150176356E+02  0.00000000000E+00 0.  1.
</event>
<event>
 5    1  0.8957809E-005  0.9118800E+02  0.7818608E-02  0.1130116E+00
         25   -1    0    0    0    0  0.00000000000E+00  0.00000000000E+00  0.99999998245E-14  0.12500000000E+03  0.12500000000E+03 0.  0.
        -11    1    3    3    0    0  0.28008246900E+02 -0.31782843082E+02  0.37434159955E+02  0.56532533470E+02  0.51100000000E-03 0.  1.
         23    2    1    0    0    0  0.54280392312E+01 -0.28184714171E+02  0.55534895135E+01  0.95765038591E+02  0.91193528541E+02 0.  0.
         11    1    3    3    0    0 -0.22580207669E+02  0.35981289114E+01 -0.31880670441E+02  0.39232505121E+02  0.51100000000E-03 0. -1.
         22    1    1    0    0    0 -0.54280392312E+01  0.28184714171E+02 -0.55534895135E+01  0.29234961409E+02  0.00000000000E+00 0.  1.
</event>
<event>
 5    1  0.8957809E-005  0.9118800E+02  0.7818608E-02  0.1130116E+00
         25   -1    0    0    0    0  0.00000000000E+00  0.00000000000E+00  0.99999998245E-14  0.12500000000E+03  0.12500000000E+03 0.  0.
        -11    1    3    3    0    0 -0.24903511255E+02  0.30552839290E+02  0.52528394399E+01  0.39764974336E+02  0.51100000000E-03 0. -1.
         23    2    1    0    0    0 -0.63968799939E+01 -0.19336254447E+02  0.21483894000E+02  0.95396478063E+02  0.90686931339E+02 0.  0.
         11    1    3    3    0    0  0.18506631261E+02 -0.49889093737E+02  0.16231054560E+02  0.55631503727E+02  0.51100000000E-03 0.  1.
         22    1    1    0    0    0  0.63968799939E+01  0.19336254447E+02 -0.21483894000E+02  0.29603521937E+02  0.00000000000E+00 0.  1.
</event>
<event>
 5    1  0.8957809E-005  0.9118800E+02  0.7818608E-02  0.1130116E+00
         25   -1    0    0    0    0  0.00000000000E+00  0.00000000000E+00  0.99999998245E-14  0.12500000000E+03  0.12500000000E+03 0.  0.
        -11    1    3    3    0    0 -0.70385389521E+01 -0.14811209567E+02  0.60016863528E+02  0.62216853564E+02  0.51100000000E-03 0.  1.
         23    2    1    0    0    0 -0.70958931953E+01 -0.79573714765E+01  0.26341746140E+02  0.96582416521E+02  0.92307118524E+02 0.  0.
         11    1    3    3    0    0 -0.57354243221E-01  0.68538380900E+01 -0.33675117387E+02  0.34365562957E+02  0.51100000000E-03 0. -1.
         22    1    1    0    0    0  0.70958931953E+01  0.79573714765E+01 -0.26341746140E+02  0.28417583479E+02  0.00000000000E+00 0.  1.
</event>
<event>
 5    1  0.8957809E-005  0.9118800E+02  0.7818608E-02  0.1130116E+00
         25   -1    0    0    0    0  0.00000000000E+00  0.00000000000E+00  0.99999998245E-14  0.12500000000E+03  0.12500000000E+03 0.  0.
        -11    1    3    3    0    0  0.51629041795E+02 -0.28533960724E+02  0.40479432873E+00  0.58990751224E+02  0.51100000000E-03 0.  1.
         23    2    1    0    0    0  0.19157220103E+02 -0.14627998525E+02  0.14327641341E+02  0.96959694558E+02  0.92816612949E+02 0.  0.
         11    1    3    3    0    0 -0.32471821692E+02  0.13905962199E+02  0.13922847012E+02  0.37968943334E+02  0.51100000000E-03 0. -1.
         22    1    1    0    0    0 -0.19157220103E+02  0.14627998525E+02 -0.14327641341E+02  0.28040305442E+02  0.00000000000E+00 0.  1.
</event>
<event>
 5    1  0.8957809E-005  0.9118800E+02  0.7818608E-02  0.1130116E+00
         25   -1    0    0    0    0  0.00000000000E+00  0.00000000000E+00  0.99999998245E-14  0.12500000000E+03  0.12500000000E+03 0.  0.
        -11    1    3    3    0    0  0.30093435602E+02 -0.28023972734E+02  0.22882112027E+02  0.47058994520E+02  0.51100000000E-03 0. -1.
         23    2    1    0    0    0  0.18846792121E+02 -0.79779439874E+01 -0.20423674821E+02  0.96086756379E+02  0.91633449650E+02 0.  0.
         11    1    3    3    0    0 -0.11246643482E+02  0.20046028747E+02 -0.43305786848E+02  0.49027761859E+02  0.51100000000E-03 0.  1.
         22    1    1    0    0    0 -0.18846792121E+02  0.79779439874E+01  0.20423674821E+02  0.28913243621E+02  0.00000000000E+00 0. -1.
</event>
<event>
 5    1  0.8957809E-005  0.9118800E+02  0.7818608E-02  0.1130116E+00
         25   -1    0    0    0    0  0.00000000000E+00  0.00000000000E+00  0.99999998245E-14  0.12500000000E+03  0.12500000000E+03 0.  0.
        -11    1    3    3    0    0  0.40757369855E+02  0.42081915773E+02 -0.20098036374E+00  0.58584052659E+02  0.51100000000E-03 0. -1.
         23    2    1    0    0    0  0.27124637589E+02  0.67721832047E+01 -0.45198350265E+01  0.96679736259E+02  0.92438812545E+02 0.  0.
         11    1    3    3    0    0 -0.13632732266E+02 -0.35309732568E+02 -0.43188546628E+01  0.38095683600E+02  0.51100000000E-03 0.  1.
         22    1    1    0    0    0 -0.27124637589E+02 -0.67721832047E+01  0.45198350265E+01  0.28320263741E+02  0.00000000000E+00 0. -1.
</event>
<event>
 5    1  0.8957809E-005  0.9118800E+02  0.7818608E-02  0.1130116E+00
         25   -1    0    0    0    0  0.00000000000E+00  0.00000000000E+00  0.99999998245E-14  0.12500000000E+03  0.12500000000E+03 0.  0.
        -11    1    3    3    0    0  0.22931908751E+02  0.20073147083E+02 -0.51818149285E+02  0.60115923584E+02  0.51100000000E-03 0.  1.
         23    2    1    0    0    0  0.10932572911E+01  0.37825946873E+01 -0.29226960684E+02  0.95509010446E+02  0.90841909994E+02 0.  0.
         11    1    3    3    0    0 -0.21838651460E+02 -0.16290552396E+02  0.22591188601E+02  0.35393086862E+02  0.51100000000E-03 0. -1.
         22    1    1    0    0    0 -0.10932572911E+01 -0.37825946873E+01  0.29226960684E+02  0.29490989554E+02  0.00000000000E+00 0.  1.
</event>
<event>
 5    1  0.8957809E-005  0.9118800E+02  0.7818608E-02  0.1130116E+00
         25   -1    0    0    0    0  0.00000000000E+00  0.00000000000E+00  0.99999998245E-14  0.12500000000E+03  0.12500000000E+03 0.  0.
        -11    1    3    3    0    0  0.13491067974E+01  0.46637833547E+02  0.13034069757E+02  0.48443725928E+02  0.51100000000E-03 0. -1.
         23    2    1    0    0    0 -0.27495291483E+02  0.24501455958E+02 -0.27241439774E+01  0.88071239417E+02  0.79955048960E+02 0.  0.
         11    1    3    3    0    0 -0.28844398281E+02 -0.22136377589E+02 -0.15758213734E+02  0.39627513489E+02  0.51100000000E-03 0.  1.
         22    1    1    0    0    0  0.27495291483E+02 -0.24501455958E+02  0.27241439774E+01  0.36928760583E+02  0.00000000000E+00 0. -1.
</event>
<event>
 5    1  0.8957809E-005  0.9118800E+02  0.7818608E-02  0.1130116E+00
         25   -1    0    0    0    0  0.00000000000E+00  0.00000000000E+00  0.99999998245E-14  0.12500000000E+03  0.12500000000E+03 0.  0.
        -11    1    3    3    0    0  0.14242120723E+02  0.19593260151E+02 -0.54469197803E+02  0.59612308759E+02  0.51100000000E-03 0. -1.
         23    2    1    0    0    0 -0.52489099018E+01  0.34641174984E+01 -0.28294073788E+02  0.96015421743E+02  0.91536088161E+02 0.  0.
         11    1    3    3    0    0 -0.19491030624E+02 -0.16129142653E+02  0.26175124015E+02  0.36403112984E+02  0.51100000000E-03 0.  1.
         22    1    1    0    0    0  0.52489099018E+01 -0.34641174984E+01  0.28294073788E+02  0.28984578257E+02  0.00000000000E+00 0. -1.
</event>
<event>
 5    1  0.8957809E-005  0.9118800E+02  0.7818608E-02  0.1130116E+00
         25   -1    0    0    0    0  0.00000000000E+00  0.00000000000E+00  0.99999998245E-14  0.12500000000E+03  0.12500000000E+03 0.  0.
        -11    1    3    3    0    0 -0.27940353312E+02 -0.25026500698E+02  0.76330412791E+01  0.38278615438E+02  0.51100000000E-03 0. -1.
         23    2    1    0    0    0 -0.49861540353E+01  0.27030139241E+02  0.11282437714E+02  0.95288326196E+02  0.90537735498E+02 0.  0.
         11    1    3    3    0    0  0.22954199277E+02  0.52056639939E+02  0.36493964352E+01  0.57009710759E+02  0.51100000000E-03 0.  1.
         22    1    1    0    0    0  0.49861540353E+01 -0.27030139241E+02 -0.11282437714E+02  0.29711673804E+02  0.00000000000E+00 0.  1.
</event>
<event>
 4    1  0.8957809E-005  0.9118800E+02  0.7818608E-02  0.1130116E+00
         25   -1    0    0    0    0  0.00000000000E+00  0.00000000000E+00  0.99999998245E-14  0.12500000000E+03  0.12500000000E+03 0.  0.
        -11    1    1    0    0    0 -0.23367501711E+02  0.56480067606E+02  0.52877386645E+01  0.61351433181E+02  0.51100000000E-03 0. -1.
         11    1    1    0    0    0  0.10078401786E+02 -0.72893385963E+01 -0.18551067660E+00  0.12439576126E+02  0.51100000000E-03 0.  1.
         22    1    1    0    0    0  0.13289099925E+02 -0.49190729009E+02 -0.51022279879E+01  0.51208990692E+02  0.00000000000E+00 0. -1.
</event>
<event>
 5    1  0.8957809E-005  0.9118800E+02  0.7818608E-02  0.1130116E+00
         25   -1    0    0    0    0  0.00000000000E+00  0.00000000000E+00  0.99999998245E-14  0.12500000000E+03  0.12500000000E+03 0.  0.
        -11    1    3    3    0    0 -0.36815604760E+02  0.21460629184E+02 -0.42354624710E+02  0.60082123743E+02  0.51100000000E-03 0. -1.
         23    2    1    0    0    0 -0.24798875291E+02  0.12012393486E+02 -0.10322243607E+02  0.95575001681E+02  0.90932669708E+02 0.  0.
         11    1    3    3    0    0  0.12016729469E+02 -0.94482356976E+01  0.32032381104E+02  0.35492877938E+02  0.51100000000E-03 0.  1.
         22    1    1    0    0    0  0.24798875291E+02 -0.12012393486E+02  0.10322243607E+02  0.29424998319E+02  0.00000000000E+00 0. -1.
</event>
<event>
 5    1  0.8957809E-005  0.9118800E+02  0.7818608E-02  0.1130116E+00
         25   -1    0    0    0    0  0.00000000000E+00  0.00000000000E+00  0.99999998245E-14  0.12500000000E+03  0.12500000000E+03 0.  0.
        -11    1    3    3    0    0 -0.33814658915E+02 -0.25649675663E+02 -0.35171865035E+02  0.55121657354E+02  0.51100000000E-03 0.  1.
         23    2    1    0    0    0 -0.16121154909E+02 -0.24153553325E+02  0.15583813718E+01  0.95918832102E+02  0.91404091951E+02 0.  0.
         11    1    3    3    0    0  0.17693504005E+02  0.14961223382E+01  0.36730246407E+02  0.40797174748E+02  0.51100000000E-03 0. -1.
         22    1    1    0    0    0  0.16121154909E+02  0.24153553325E+02 -0.15583813718E+01  0.29081167898E+02  0.00000000000E+00 0. -1.
</event>
<event>
 5    1  0.8957809E-005  0.9118800E+02  0.7818608E-02  0.1130116E+00
         25   -1    0    0    0    0  0.00000000000E+00  0.00000000000E+00  0.99999998245E-14  0.12500000000E+03  0.12500000000E+03 0.  0.
        -11    1    3    3    0    0 -0.18585038134E+02  0.23194017476E+02 -0.25535504208E+02  0.39184538590E+02  0.51100000000E-03 0. -1.
         23    2    1    0    0    0 -0.15822463066E+02 -0.22967920283E+02  0.76209198635E+01  0.96087128832E+02  0.91633957723E+02 0.  0.
         11    1    3    3    0    0  0.27625750684E+01 -0.46161937760E+02  0.33156424071E+02  0.56902590242E+02  0.51100000000E-03 0.  1.
         22    1    1    0    0    0  0.15822463066E+02  0.22967920283E+02 -0.76209198635E+01  0.28912871168E+02  0.00000000000E+00 0. -1.
</event>
<event>
 5    1  0.8957809E-005  0.9118800E+02  0.7818608E-02  0.1130116E+00
         25   -1    0    0    0    0  0.00000000000E+00  0.00000000000E+00  0.99999998245E-14  0.12500000000E+03  0.12500000000E+03 0.  0.
        -11    1    3    3    0    0  0.21067771847E+02  0.49818229352E+02  0.29416789535E+02  0.61571539636E+02  0.51100000000E-03 0.  1.
         23    2    1    0    0    0  0.10901087977E+02  0.18872121584E+02  0.19850651927E+02  0.95520531312E+02  0.90857761518E+02 0.  0.
         11    1    3    3    0    0 -0.10166683870E+02 -0.30946107768E+02 -0.95661376074E+01  0.33948991677E+02  0.51100000000E-03 0. -1.
         22    1    1    0    0    0 -0.10901087977E+02 -0.18872121584E+02 -0.19850651927E+02  0.29479468688E+02  0.00000000000E+00 0.  1.
</event>
<event>
 5    1  0.8957809E-005  0.9118800E+02  0.7818608E-02  0.1130116E+00
         25   -1    0    0    0    0  0.00000000000E+00  0.00000000000E+00  0.99999998245E-14  0.12500000000E+03  0.12500000000E+03 0.  0.
        -11    1    3    3    0    0 -0.85944050842E-01 -0.20984264002E+02 -0.31112891308E+02  0.37528105839E+02  0.51100000000E-03 0.  1.
         23    2    1    0    0    0 -0.13310104274E+02  0.64867028643E+00  0.23637811693E+02  0.97864676332E+02  0.94027491103E+02 0.  0.
         11    1    3    3    0    0 -0.13224160224E+02  0.21632934289E+02  0.54750703000E+02  0.60336570493E+02  0.51100000000E-03 0. -1.
         22    1    1    0    0    0  0.13310104274E+02 -0.64867028643E+00 -0.23637811693E+02  0.27135323668E+02  0.00000000000E+00 0. -1.
</event>
<event>
 5    1  0.8957809E-005  0.9118800E+02  0.7818608E-02  0.1130116E+00
         25   -1    0    0    0    0  0.00000000000E+00  0.00000000000E+00  0.99999998245E-14  0.12500000000E+03  0.12500000000E+03 0.  0.
        -11    1    3    3    0    0  0.97431376242E+01 -0.21021492452E+02  0.44288350555E+02  0.49982895782E+02  0.51100000000E-03 0. -1.
         23    2    1    0    0    0 -0.23250788108E+02 -0.64759303549E+01  0.13834874954E+02  0.97180212319E+02  0.93113119805E+02 0.  0.
         11    1    3    3    0    0 -0.32993925732E+02  0.14545562097E+02 -0.30453475601E+02  0.47197316537E+02  0.51100000000E-03 0.  1.
         22    1    1    0    0    0  0.23250788108E+02  0.64759303549E+01 -0.13834874954E+02  0.27819787681E+02  0.00000000000E+00 0.  1.
</event>
<event>
 5    1  0.8957809E-005  0.9118800E+02  0.7818608E-02  0.1130116E+00
         25   -1    0    0    0    0  0.00000000000E+00  0.00000000000E+00  0.99999998245E-14  0.12500000000E+03  0.12500000000E+03 0.  0.
        -11    1    3    3    0    0  0.21037240113E+01  0.49256237928E+02 -0.19017510460E+02  0.52841918341E+02  0.51100000000E-03 0.  1.
         23    2    1    0    0    0  0.24147125871E+02  0.14983020073E+02 -0.38529216072E+01  0.96322141236E+02  0.91953984737E+02 0.  0.
         11    1    3    3    0    0  0.22043401860E+02 -0.34273217855E+02  0.15164588853E+02  0.43480222896E+02  0.51100000000E-03 0. -1.
         22    1    1    0    0    0 -0.24147125871E+02 -0.14983020073E+02  0.38529216072E+01  0.28677858764E+02  0.00000000000E+00 0. -1.
</event>
<event>
 5    1  0.8957809E-005  0.9118800E+02  0.7818608E-02  0.1130116E+00
         25   -1    0    0    0    0  0.00000000000E+00  0.00000000000E+00  0.99999998245E-14  0.12500000000E+03  0.12500000000E+03 0.  0.
        -11    1    3    3    0    0 -0.18243691254E+02  0.13675530549E+02  0.26732141247E+02  0.35134879852E+02  0.51100000000E-03 0.  1.
         23    2    1    0    0    0 -0.17277521142E+01 -0.23639614754E+02 -0.17666565039E+02  0.95437793835E+02  0.90743861824E+02 0.  0.
         11    1    3    3    0    0  0.16515939140E+02 -0.37315145302E+02 -0.44398706286E+02  0.60302913982E+02  0.51100000000E-03 0. -1.
         22    1    1    0    0    0  0.17277521142E+01  0.23639614754E+02  0.17666565039E+02  0.29562206165E+02  0.00000000000E+00 0. -1.
</event>
<event>
 5    1  0.8957809E-005  0.9118800E+02  0.7818608E-02  0.1130116E+00
         25   -1    0    0    0    0  0.00000000000E+00  0.00000000000E+00  0.99999998245E-14  0.12500000000E+03  0.12500000000E+03 0.  0.
        -11    1    3    3    0    0  0.52413406913E+02 -0.28012159231E+02 -0.17272589156E+02  0.61888517719E+02  0.51100000000E-03 0.  1.
         23    2    1    0    0    0  0.22570835215E+02 -0.12687036979E+02 -0.13920147283E+02  0.95603163265E+02  0.90971373609E+02 0.  0.
         11    1    3    3    0    0 -0.29842571698E+02  0.15325122252E+02  0.33524418723E+01  0.33714645547E+02  0.51100000000E-03 0. -1.
         22    1    1    0    0    0 -0.22570835215E+02  0.12687036979E+02  0.13920147283E+02  0.29396836735E+02  0.00000000000E+00 0.  1.
</event>
<event>
 5    1  0.8957809E-005  0.9118800E+02  0.7818608E-02  0.1130116E+00
         25   -1    0    0    0    0  0.00000000000E+00  0.00000000000E+00  0.99999998245E-14  0.12500000000E+03  0.12500000000E+03 0.  0.
        -11    1    3    3    0    0  0.44248679693E+02  0.25611221848E+02 -0.16078515588E+02  0.53594766562E+02  0.51100000000E-03 0. -1.
         23    2    1    0    0    0  0.64539468827E+01  0.24418562417E+02  0.80979979039E+01  0.98476478534E+02  0.94837332489E+02 0.  0.
         11    1    3    3    0    0 -0.37794732810E+02 -0.11926594306E+01  0.24176513492E+02  0.44881711972E+02  0.51100000000E-03 0.  1.
         22    1    1    0    0    0 -0.64539468827E+01 -0.24418562417E+02 -0.80979979039E+01  0.26523521466E+02  0.00000000000E+00 0. -1.
</event>
<event>
 5    1  0.8957809E-005  0.9118800E+02  0.7818608E-02  0.1130116E+00
         25   -1    0    0    0    0  0.00000000000E+00  0.00000000000E+00  0.99999998245E-14  0.12500000000E+03  0.12500000000E+03 0.  0.
        -11    1    3    3    0    0  0.56574110105E+02 -0.14741197292E+02  0.21183058922E+02  0.62182431742E+02  0.51100000000E-03 0. -1.
         23    2    1    0    0    0  0.24901370315E+02 -0.48275600347E+01  0.13573186230E+02  0.96231702103E+02  0.91830961695E+02 0.  0.
         11    1    3    3    0    0 -0.31672739790E+02  0.99136372570E+01 -0.76098726923E+01  0.34049270361E+02  0.51100000000E-03 0.  1.
         22    1    1    0    0    0 -0.24901370315E+02  0.48275600347E+01 -0.13573186230E+02  0.28768297897E+02  0.00000000000E+00 0. -1.
</event>
<event>
 5    1  0.8957809E-005  0.9118800E+02  0.7818608E-02  0.1130116E+00
         25   -1    0    0    0    0  0.00000000000E+00  0.00000000000E+00  0.99999998245E-14  0.12500000000E+03  0.12500000000E+03 0.  0.
        -11    1    3    3    0    0  0.39615195129E+02  0.81982236181E+01  0.33894054090E+02  0.52776713222E+02  0.51100000000E-03 0.  1.
         23    2    1    0    0    0  0.28931068394E+02 -0.45097441811E+01 -0.52103178044E+01  0.95259591081E+02  0.90498053959E+02 0.  0.
         11    1    3    3    0    0 -0.10684126735E+02 -0.12707967799E+02 -0.39104371895E+02  0.42482877859E+02  0.51100000000E-03 0. -1.
         22    1    1    0    0    0 -0.28931068394E+02  0.45097441811E+01  0.52103178044E+01  0.29740408919E+02  0.00000000000E+00 0.  1.
</event>
<event>
 5    1  0.8957809E-005  0.9118800E+02  0.7818608E-02  0.1130116E+00
         25   -1    0    0    0    0  0.00000000000E+00  0.00000000000E+00  0.99999998245E-14  0.12500000000E+03  0.12500000000E+03 0.  0.
        -11    1    3    3    0    0  0.17037262450E+02  0.13630553727E+02 -0.47275314682E+02  0.52067414812E+02  0.51100000000E-03 0.  1.
         23    2    1    0    0    0  0.10360116100E+02 -0.18156550473E+02 -0.28729777411E+02  0.89469837592E+02  0.82112480160E+02 0.  0.
         11    1    3    3    0    0 -0.66771463505E+01 -0.31787104200E+02  0.18545537271E+02  0.37402422779E+02  0.51100000000E-03 0. -1.
         22    1    1    0    0    0 -0.10360116100E+02  0.18156550473E+02  0.28729777411E+02  0.35530162408E+02  0.00000000000E+00 0.  1.
</event>
<event>
 5    1  0.8957809E-005  0.9118800E+02  0.7818608E-02  0.1130116E+00
         25   -1    0    0    0    0  0.00000000000E+00  0.00000000000E+00  0.99999998245E-14  0.12500000000E+03  0.12500000000E+03 0.  0.
        -11    1    3    3    0    0 -0.37889677066E+02  0.31962501509E+02 -0.10493826033E+02  0.50669019291E+02  0.51100000000E-03 0. -1.
         23    2    1    0    0    0 -0.21349446784E+02 -0.11223213740E+02 -0.14112144757E+02  0.97055196650E+02  0.92945140607E+02 0.  0.
         11    1    3    3    0    0  0.16540230282E+02 -0.43185715248E+02 -0.36183187242E+01  0.46386177359E+02  0.51100000000E-03 0.  1.
         22    1    1    0    0    0  0.21349446784E+02  0.11223213740E+02  0.14112144757E+02  0.27944803350E+02  0.00000000000E+00 0. -1.
</event>
<event>
 5    1  0.8957809E-005  0.9118800E+02  0.7818608E-02  0.1130116E+00
         25   -1    0    0    0    0  0.00000000000E+00  0.00000000000E+00  0.99999998245E-14  0.12500000000E+03  0.12500000000E+03 0.  0.
        -11    1    3    3    0    0 -0.39334925031E+02  0.98570066316E+00  0.27717584213E+02  0.48129745562E+02  0.51100000000E-03 0.  1.
         23    2    1    0    0    0  0.45111729186E+01  0.13026884980E+02  0.28209805326E+02  0.93601854674E+02  0.88178589626E+02 0.  0.
         11    1    3    3    0    0  0.43846097950E+02  0.12041184317E+02  0.49222111291E+00  0.45472109112E+02  0.51100000000E-03 0. -1.
         22    1    1    0    0    0 -0.45111729186E+01 -0.13026884980E+02 -0.28209805326E+02  0.31398145326E+02  0.00000000000E+00 0. -1.
</event>
<event>
 5    1  0.8957809E-005  0.9118800E+02  0.7818608E-02  0.1130116E+00
         25   -1    0    0    0    0  0.00000000000E+00  0.00000000000E+00  0.99999998245E-14  0.12500000000E+03  0.12500000000E+03 0.  0.
        -11    1    3    3    0    0 -0.48509566934E+02 -0.92712843474E+00 -0.29841749730E+02  0.56961106717E+02  0.51100000000E-03 0.  1.
         23    2    1    0    0    0 -0.16057649855E+02 -0.16252370963E+02 -0.21102705004E+02  0.93898362756E+02  0.88597915827E+02 0.  0.
         11    1    3    3    0    0  0.32451917079E+02 -0.15325242529E+02  0.87390447266E+01  0.36937256038E+02  0.51100000000E-03 0. -1.
         22    1    1    0    0    0  0.16057649855E+02  0.16252370963E+02  0.21102705004E+02  0.31101637244E+02  0.00000000000E+00 0.  1.
</event>
<event>
 5    1  0.8957809E-005  0.9118800E+02  0.7818608E-02  0.1130116E+00
         25   -1    0    0    0    0  0.00000000000E+00  0.00000000000E+00  0.99999998245E-14  0.12500000000E+03  0.12500000000E+03 0.  0.
        -11    1    3    3    0    0  0.24246181977E+02  0.39163551904E+02  0.21326077499E+02  0.50758868387E+02  0.51100000000E-03 0. -1.
         23    2    1    0    0    0 -0.10106696777E+02  0.32946540276E+02  0.24375515133E+01  0.90452040678E+02  0.83594319003E+02 0.  0.
         11    1    3    3    0    0 -0.34352878755E+02 -0.62170116274E+01 -0.18888525986E+02  0.39693172291E+02  0.51100000000E-03 0.  1.
         22    1    1    0    0    0  0.10106696777E+02 -0.32946540276E+02 -0.24375515133E+01  0.34547959322E+02  0.00000000000E+00 0.  1.
</event>
<event>
 5    1  0.8957809E-005  0.9118800E+02  0.7818608E-02  0.1130116E+00
         25   -1    0    0    0    0  0.00000000000E+00  0.00000000000E+00  0.99999998245E-14  0.12500000000E+03  0.12500000000E+03 0.  0.
        -11    1    3    3    0    0 -0.27454154826E+02 -0.14785475168E+02  0.48696945467E+02  0.57825023919E+02  0.51100000000E-03 0.  1.
         23    2    1    0    0    0 -0.23336495118E+02  0.42802809683E+01  0.14498450859E+02  0.97195002484E+02  0.93132972791E+02 0.  0.
         11    1    3    3    0    0  0.41176597079E+01  0.19065756136E+02 -0.34198494608E+02  0.39369978565E+02  0.51100000000E-03 0. -1.
         22    1    1    0    0    0  0.23336495118E+02 -0.42802809683E+01 -0.14498450859E+02  0.27804997516E+02  0.00000000000E+00 0.  1.
</event>
<event>
 5    1  0.8957809E-005  0.9118800E+02  0.7818608E-02  0.1130116E+00
         25   -1    0    0    0    0  0.00000000000E+00  0.00000000000E+00  0.99999998245E-14  0.12500000000E+03  0.12500000000E+03 0.  0.
        -11    1    3    3    0    0  0.53522947987E+02  0.95633079899E+01 -0.77083715902E+01  0.54914313378E+02  0.51100000000E-03 0. -1.
         23    2    1    0    0    0  0.17933907092E+02  0.23893820663E+02 -0.10378984114E+02  0.93373065266E+02  0.87853664217E+02 0.  0.
         11    1    3    3    0    0 -0.35589040895E+02  0.14330512673E+02 -0.26706125240E+01  0.38458751888E+02  0.51100000000E-03 0.  1.
         22    1    1    0    0    0 -0.17933907092E+02 -0.23893820663E+02  0.10378984114E+02  0.31626934734E+02  0.00000000000E+00 0.  1.
</event>
<event>
 5    1  0.8957809E-005  0.9118800E+02  0.7818608E-02  0.1130116E+00
         25   -1    0    0    0    0  0.00000000000E+00  0.00000000000E+00  0.99999998245E-14  0.12500000000E+03  0.12500000000E+03 0.  0.
        -11    1    3    3    0    0 -0.25107035622E+02  0.36646540932E+02 -0.14409894400E+02  0.46700934218E+02  0.51100000000E-03 0.  1.
         23    2    1    0    0    0 -0.27126746614E+02 -0.10813349220E+02 -0.23967518746E+01  0.95699260713E+02  0.91103321445E+02 0.  0.
         11    1    3    3    0    0 -0.20197109921E+01 -0.47459890152E+02  0.12013142525E+02  0.48998326495E+02  0.51100000000E-03 0. -1.
         22    1    1    0    0    0  0.27126746614E+02  0.10813349220E+02  0.23967518746E+01  0.29300739287E+02  0.00000000000E+00 0.  1.
</event>
<event>
 5    1  0.8957809E-005  0.9118800E+02  0.7818608E-02  0.1130116E+00
         25   -1    0    0    0    0  0.00000000000E+00  0.00000000000E+00  0.99999998245E-14  0.12500000000E+03  0.12500000000E+03 0.  0.
        -11    1    3    3    0    0  0.41809699852E+02  0.35894261081E+02 -0.11290016087E+02  0.56248675040E+02  0.51100000000E-03 0. -1.
         23    2    1    0    0    0  0.29261597390E+02 -0.53235571944E+00 -0.57849853112E+01  0.95167290779E+02  0.90370474684E+02 0.  0.
         11    1    3    3    0    0 -0.12548102462E+02 -0.36426616801E+02  0.55050307754E+01  0.38918615739E+02  0.51100000000E-03 0.  1.
         22    1    1    0    0    0 -0.29261597390E+02  0.53235571944E+00  0.57849853112E+01  0.29832709221E+02  0.00000000000E+00 0. -1.
</event>
<event>
 5    1  0.8957809E-005  0.9118800E+02  0.7818608E-02  0.1130116E+00
         25   -1    0    0    0    0  0.00000000000E+00  0.00000000000E+00  0.99999998245E-14  0.12500000000E+03  0.12500000000E+03 0.  0.
        -11    1    3    3    0    0 -0.19017128099E+01  0.53716725405E+02  0.19409725123E+02  0.57147533013E+02  0.51100000000E-03 0. -1.
         23    2    1    0    0    0  0.18051617391E+01  0.15858470751E+02  0.24739762318E+02  0.95558438509E+02  0.90909898401E+02 0.  0.
         11    1    3    3    0    0  0.37068745490E+01 -0.37858254653E+02  0.53300371944E+01  0.38410905497E+02  0.51100000000E-03 0.  1.
         22    1    1    0    0    0 -0.18051617391E+01 -0.15858470751E+02 -0.24739762318E+02  0.29441561491E+02  0.00000000000E+00 0. -1.
</event>
<event>
 5    1  0.8957809E-005  0.9118800E+02  0.7818608E-02  0.1130116E+00
         25   -1    0    0    0    0  0.00000000000E+00  0.00000000000E+00  0.99999998245E-14  0.12500000000E+03  0.12500000000E+03 0.  0.
        -11    1    3    3    0    0 -0.40619840362E+02 -0.11511111826E+02  0.20778583092E+02  0.47055569724E+02  0.51100000000E-03 0.  1.
         23    2    1    0    0    0 -0.30371250436E+01 -0.29751267818E+02 -0.26932046587E+01  0.94973088460E+02  0.90101454567E+02 0.  0.
         11    1    3    3    0    0  0.37582715319E+02 -0.18240155992E+02 -0.23471787750E+02  0.47917518736E+02  0.51100000000E-03 0. -1.
         22    1    1    0    0    0  0.30371250436E+01  0.29751267818E+02  0.26932046587E+01  0.30026911540E+02  0.00000000000E+00 0. -1.
</event>
<event>
 5    1  0.8957809E-005  0.9118800E+02  0.7818608E-02  0.1130116E+00
         25   -1    0    0    0    0  0.00000000000E+00  0.00000000000E+00  0.99999998245E-14  0.12500000000E+03  0.12500000000E+03 0.  0.
        -11    1    3    3    0    0  0.20053556057E+02  0.21616199774E+02 -0.37021919022E+02  0.47328930809E+02  0.51100000000E-03 0. -1.
         23    2    1    0    0    0  0.19519999373E+02 -0.19011438496E+02 -0.10784185438E+02  0.95695327595E+02  0.91097924777E+02 0.  0.
         11    1    3    3    0    0 -0.53355668396E+00 -0.40627638270E+02  0.26237733584E+02  0.48366396785E+02  0.51100000000E-03 0.  1.
         22    1    1    0    0    0 -0.19519999373E+02  0.19011438496E+02  0.10784185438E+02  0.29304672405E+02  0.00000000000E+00 0.  1.
</event>
<event>
 5    1  0.8957809E-005  0.9118800E+02  0.7818608E-02  0.1130116E+00
         25   -1    0    0    0    0  0.00000000000E+00  0.00000000000E+00  0.99999998245E-14  0.12500000000E+03  0.12500000000E+03 0.  0.
        -11    1    3    3    0    0  0.14593510781E+02  0.27103150804E+02  0.34613965773E+02  0.46321463354E+02  0.51100000000E-03 0.  1.
         23    2    1    0    0    0 -0.46863493751E+01 -0.17316964584E+02  0.22473998712E+02  0.96243787611E+02  0.91847410974E+02 0.  0.
         11    1    3    3    0    0 -0.19279860156E+02 -0.44420115388E+02 -0.12139967061E+02  0.49922324257E+02  0.51100000000E-03 0. -1.
         22    1    1    0    0    0  0.46863493751E+01  0.17316964584E+02 -0.22473998712E+02  0.28756212389E+02  0.00000000000E+00 0. -1.
</event>
<event>
 5    1  0.8957809E-005  0.9118800E+02  0.7818608E-02  0.1130116E+00
         25   -1    0    0    0    0  0.00000000000E+00  0.00000000000E+00  0.99999998245E-14  0.12500000000E+03  0.12500000000E+03 0.  0.
        -11    1    3    3    0    0  0.14399065020E+02  0.48970697844E+01  0.35753598923E+02  0.38854011403E+02  0.51100000000E-03 0.  1.
         23    2    1    0    0    0  0.13651821653E+02  0.84497086693E+01 -0.22576394490E+02  0.97296870227E+02  0.93269596100E+02 0.  0.
         11    1    3    3    0    0 -0.74724336635E+00  0.35526388849E+01 -0.58329993413E+02  0.58442858824E+02  0.51100000000E-03 0. -1.
         22    1    1    0    0    0 -0.13651821653E+02 -0.84497086693E+01  0.22576394490E+02  0.27703129773E+02  0.00000000000E+00 0. -1.
</event>
<event>
 5    1  0.8957809E-005  0.9118800E+02  0.7818608E-02  0.1130116E+00
         25   -1    0    0    0    0  0.00000000000E+00  0.00000000000E+00  0.99999998245E-14  0.12500000000E+03  0.12500000000E+03 0.  0.
        -11    1    3    3    0    0 -0.56672702888E+02 -0.64078141799E+00  0.22560620876E+02  0.61001536604E+02  0.51100000000E-03 0. -1.
         23    2    1    0    0    0 -0.25392086308E+02  0.92743218747E+01  0.89870882548E+01  0.96512479072E+02  0.92212362339E+02 0.  0.
         11    1    3    3    0    0  0.31280616580E+02  0.99151032927E+01 -0.13573532621E+02  0.35510942468E+02  0.51100000000E-03 0.  1.
         22    1    1    0    0    0  0.25392086308E+02 -0.92743218747E+01 -0.89870882548E+01  0.28487520928E+02  0.00000000000E+00 0. -1.
</event>
<event>
 5    1  0.8957809E-005  0.9118800E+02  0.7818608E-02  0.1130116E+00
         25   -1    0    0    0    0  0.00000000000E+00  0.00000000000E+00  0.99999998245E-14  0.12500000000E+03  0.12500000000E+03 0.  0.
        -11    1    3    3    0    0  0.28441351287E+02 -0.11205368502E+02  0.46887094923E+02  0.55972050319E+02  0.51100000000E-03 0.  1.
         23    2    1    0    0    0 -0.53721388612E+01 -0.14033036068E+02  0.23220423393E+02  0.97341835929E+02  0.93329839721E+02 0.  0.
         11    1    3    3    0    0 -0.33813490148E+02 -0.28276675659E+01 -0.23666671530E+02  0.41369785610E+02  0.51100000000E-03 0. -1.
         22    1    1    0    0    0  0.53721388612E+01  0.14033036068E+02 -0.23220423393E+02  0.27658164071E+02  0.00000000000E+00 0.  1.
</event>
<event>
 5    1  0.8957809E-005  0.9118800E+02  0.7818608E-02  0.1130116E+00
         25   -1    0    0    0    0  0.00000000000E+00  0.00000000000E+00  0.99999998245E-14  0.12500000000E+03  0.12500000000E+03 0.  0.
        -11    1    3    3    0    0  0.13673171638E+02  0.19519852958E+02  0.41082769722E+02  0.47494991846E+02  0.51100000000E-03 0.  1.
         23    2    1    0    0    0  0.29482608029E+02  0.26641254539E+01 -0.86209883636E+00  0.95384717543E+02  0.90670719561E+02 0.  0.
         11    1    3    3    0    0  0.15809436391E+02 -0.16855727504E+02 -0.41944868558E+02  0.47889725697E+02  0.51100000000E-03 0. -1.
         22    1    1    0    0    0 -0.29482608029E+02 -0.26641254539E+01  0.86209883636E+00  0.29615282457E+02  0.00000000000E+00 0.  1.
</event>
<event>
 5    1  0.8957809E-005  0.9118800E+02  0.7818608E-02  0.1130116E+00
         25   -1    0    0    0    0  0.00000000000E+00  0.00000000000E+00  0.99999998245E-14  0.12500000000E+03  0.12500000000E+03 0.  0.
        -11    1    3    3    0    0  0.95158765663E+01  0.40015793762E+02  0.35730124421E+02  0.54483552092E+02  0.51100000000E-03 0.  1.
         23    2    1    0    0    0 -0.10467191911E+02  0.45993263418E+01  0.26436555341E+02  0.96197094459E+02  0.91783841795E+02 0.  0.
         11    1    3    3    0    0 -0.19983068477E+02 -0.35416467420E+02 -0.92935690795E+01  0.41713542367E+02  0.51100000000E-03 0. -1.
         22    1    1    0    0    0  0.10467191911E+02 -0.45993263418E+01 -0.26436555341E+02  0.28802905541E+02  0.00000000000E+00 0.  1.
</event>
<event>
 5    1  0.8957809E-005  0.9118800E+02  0.7818608E-02  0.1130116E+00
         25   -1    0    0    0    0  0.00000000000E+00  0.00000000000E+00  0.99999998245E-14  0.12500000000E+03  0.12500000000E+03 0.  0.
        -11    1    3    3    0    0 -0.46216162542E+02 -0.77098974230E+01  0.35775283927E+02  0.58951226779E+02  0.51100000000E-03 0.  1.
         23    2    1    0    0    0 -0.11452696840E+02 -0.10157545483E+02  0.25454572366E+02  0.95296881485E+02  0.90549546500E+02 0.  0.
         11    1    3    3    0    0  0.34763465703E+02 -0.24476480598E+01 -0.10320711561E+02  0.36345654707E+02  0.51100000000E-03 0. -1.
         22    1    1    0    0    0  0.11452696840E+02  0.10157545483E+02 -0.25454572366E+02  0.29703118515E+02  0.00000000000E+00 0.  1.
</event>
<event>
 5    1  0.8957809E-005  0.9118800E+02  0.7818608E-02  0.1130116E+00
         25   -1    0    0    0    0  0.00000000000E+00  0.00000000000E+00  0.99999998245E-14  0.12500000000E+03  0.12500000000E+03 0.  0.
        -11    1    3    3    0    0 -0.34684837650E+02  0.18080216644E+01 -0.34755536258E+02  0.49135060863E+02  0.51100000000E-03 0. -1.
         23    2    1    0    0    0  0.22976662110E+01 -0.22321632261E+02 -0.17493296612E+02  0.96547408498E+02  0.92259699352E+02 0.  0.
         11    1    3    3    0    0  0.36982503861E+02 -0.24129653926E+02  0.17262239646E+02  0.47412347635E+02  0.51100000000E-03 0.  1.
         22    1    1    0    0    0 -0.22976662110E+01  0.22321632261E+02  0.17493296612E+02  0.28452591502E+02  0.00000000000E+00 0.  1.
</event>
<event>
 4    1  0.8957809E-005  0.9118800E+02  0.7818608E-02  0.1130116E+00
         25   -1    0    0    0    0  0.00000000000E+00  0.00000000000E+00  0.99999998245E-14  0.12500000000E+03  0.12500000000E+03 0.  0.
        -11    1    1    0    0    0  0.45196041831E+01  0.53037876479E+01  0.67822213554E+01  0.97239658659E+01  0.51100000000E-03 0. -1.
         11    1    1    0    0    0 -0.19461088888E+02 -0.51637194986E+02  0.21210734158E+02  0.59118771388E+02  0.51100000000E-03 0.  1.
         22    1    1    0    0    0  0.14941484705E+02  0.46333407338E+02 -0.27992955513E+02  0.56157262746E+02  0.00000000000E+00 0.  1.
</event>
<event>
 5    1  0.8957809E-005  0.9118800E+02  0.7818608E-02  0.1130116E+00
         25   -1    0    0    0    0  0.00000000000E+00  0.00000000000E+00  0.99999998245E-14  0.12500000000E+03  0.12500000000E+03 0.  0.
        -11    1    3    3    0    0  0.18368985025E+02  0.12109409471E+02 -0.45102988234E+02  0.50183034548E+02  0.51100000000E-03 0.  1.
         23    2    1    0    0    0 -0.18566473319E+02  0.12105291527E+02 -0.22125817913E+02  0.93682212199E+02  0.88292429175E+02 0.  0.
         11    1    3    3    0    0 -0.36935458344E+02 -0.41179443156E-02  0.22977170321E+02  0.43499177650E+02  0.51100000000E-03 0. -1.
         22    1    1    0    0    0  0.18566473319E+02 -0.12105291527E+02  0.22125817913E+02  0.31317787801E+02  0.00000000000E+00 0.  1.
</event>
<event>
 5    1  0.8957809E-005  0.9118800E+02  0.7818608E-02  0.1130116E+00
         25   -1    0    0    0    0  0.00000000000E+00  0.00000000000E+00  0.99999998245E-14  0.12500000000E+03  0.12500000000E+03 0.  0.
        -11    1    3    3    0    0  0.61328605898E+02  0.10558810668E+02  0.34427095310E+01  0.62326067045E+02  0.51100000000E-03 0.  1.
         23    2    1    0    0    0  0.30297458635E+02  0.18884158458E+01  0.19952797280E+01  0.94578243717E+02  0.89552001257E+02 0.  0.
         11    1    3    3    0    0 -0.31031147262E+02 -0.86703948222E+01 -0.14474298031E+01  0.32252176672E+02  0.51100000000E-03 0. -1.
         22    1    1    0    0    0 -0.30297458635E+02 -0.18884158458E+01 -0.19952797280E+01  0.30421756283E+02  0.00000000000E+00 0.  1.
</event>
<event>
 5    1  0.8957809E-005  0.9118800E+02  0.7818608E-02  0.1130116E+00
         25   -1    0    0    0    0  0.00000000000E+00  0.00000000000E+00  0.99999998245E-14  0.12500000000E+03  0.12500000000E+03 0.  0.
        -11    1    3    3    0    0 -0.46602845673E+01 -0.44996503868E+02  0.21314169285E+01  0.45287377391E+02  0.51100000000E-03 0. -1.
         23    2    1    0    0    0  0.28165652420E+02 -0.93098513184E+01  0.83759585218E+01  0.94175756473E+02  0.88988421260E+02 0.  0.
         11    1    3    3    0    0  0.32825936988E+02  0.35686652549E+02  0.62445415933E+01  0.48888379082E+02  0.51100000000E-03 0.  1.
         22    1    1    0    0    0 -0.28165652420E+02  0.93098513184E+01 -0.83759585218E+01  0.30824243527E+02  0.00000000000E+00 0. -1.
</event>
<event>
 5    1  0.8957809E-005  0.9118800E+02  0.7818608E-02  0.1130116E+00
         25   -1    0    0    0    0  0.00000000000E+00  0.00000000000E+00  0.99999998245E-14  0.12500000000E+03  0.12500000000E+03 0.  0.
        -11    1    3    3    0    0 -0.59377412407E+02 -0.24696850506E+01  0.15292622661E+02  0.61364816927E+02  0.51100000000E-03 0. -1.
         23    2    1    0    0    0 -0.32611577283E+02 -0.51806264141E+01  0.16065516921E+02  0.88278688792E+02  0.80278715722E+02 0.  0.
         11    1    3    3    0    0  0.26765835124E+02 -0.27109413634E+01  0.77289425936E+00  0.26913871865E+02  0.51100000000E-03 0.  1.
         22    1    1    0    0    0  0.32611577283E+02  0.51806264141E+01 -0.16065516921E+02  0.36721311208E+02  0.00000000000E+00 0. -1.
</event>
<event>
 5    1  0.8957809E-005  0.9118800E+02  0.7818608E-02  0.1130116E+00
         25   -1    0    0    0    0  0.00000000000E+00  0.00000000000E+00  0.99999998245E-14  0.12500000000E+03  0.12500000000E+03 0.  0.
        -11    1    3    3    0    0 -0.22036452870E+02 -0.25843724278E+02  0.49050173791E+01  0.34315631065E+02  0.51100000000E-03 0. -1.
         23    2    1    0    0    0  0.47254450753E+01  0.29024492060E+02  0.35735067305E+01  0.95377020392E+02  0.90660107534E+02 0.  0.
         11    1    3    3    0    0  0.26761897945E+02  0.54868216338E+02 -0.13315106486E+01  0.61061389327E+02  0.51100000000E-03 0.  1.
         22    1    1    0    0    0 -0.47254450753E+01 -0.29024492060E+02 -0.35735067305E+01  0.29622979608E+02  0.00000000000E+00 0.  1.
</event>
<event>
 5    1  0.8957809E-005  0.9118800E+02  0.7818608E-02  0.1130116E+00
         25   -1    0    0    0    0  0.00000000000E+00  0.00000000000E+00  0.99999998245E-14  0.12500000000E+03  0.12500000000E+03 0.  0.
        -11    1    3    3    0    0 -0.44802158534E+02 -0.18602967164E+02 -0.52710589905E+01  0.48796391872E+02  0.51100000000E-03 0. -1.
         23    2    1    0    0    0 -0.28026861100E+01 -0.31702061978E+02 -0.49451080809E+01  0.92792394112E+02  0.87023551571E+02 0.  0.
         11    1    3    3    0    0  0.41999472424E+02 -0.13099094814E+02  0.32595090961E+00  0.43996002240E+02  0.51100000000E-03 0.  1.
         22    1    1    0    0    0  0.28026861100E+01  0.31702061978E+02  0.49451080809E+01  0.32207605888E+02  0.00000000000E+00 0. -1.
</event>
<event>
 5    1  0.8957809E-005  0.9118800E+02  0.7818608E-02  0.1130116E+00
         25   -1    0    0    0    0  0.00000000000E+00  0.00000000000E+00  0.99999998245E-14  0.12500000000E+03  0.12500000000E+03 0.  0.
        -11    1    3    3    0    0  0.77905202576E+01 -0.92078434356E+01 -0.38470410977E+02  0.40316858851E+02  0.51100000000E-03 0.  1.
         23    2    1    0    0    0  0.22440168034E+02  0.14237093781E+02  0.10397731252E+02  0.96462852351E+02  0.92145065456E+02 0.  0.
         11    1    3    3    0    0  0.14649647777E+02  0.23444937217E+02  0.48868142228E+02  0.56145993501E+02  0.51100000000E-03 0. -1.
         22    1    1    0    0    0 -0.22440168034E+02 -0.14237093781E+02 -0.10397731252E+02  0.28537147649E+02  0.00000000000E+00 0. -1.
</event>
<event>
 5    1  0.8957809E-005  0.9118800E+02  0.7818608E-02  0.1130116E+00
         25   -1    0    0    0    0  0.00000000000E+00  0.00000000000E+00  0.99999998245E-14  0.12500000000E+03  0.12500000000E+03 0.  0.
        -11    1    3    3    0    0  0.70608979160E+00 -0.51888673318E+02  0.53987783255E+01  0.52173554500E+02  0.51100000000E-03 0. -1.
         23    2    1    0    0    0  0.23937278059E+02 -0.14874574382E+02 -0.29474898352E+01  0.96663910992E+02  0.92417410416E+02 0.  0.
         11    1    3    3    0    0  0.23231188268E+02  0.37014098936E+02 -0.83462681607E+01  0.44490356492E+02  0.51100000000E-03 0.  1.
         22    1    1    0    0    0 -0.23937278059E+02  0.14874574382E+02  0.29474898352E+01  0.28336089008E+02  0.00000000000E+00 0.  1.
</event>
<event>
 5    1  0.8957809E-005  0.9118800E+02  0.7818608E-02  0.1130116E+00
         25   -1    0    0    0    0  0.00000000000E+00  0.00000000000E+00  0.99999998245E-14  0.12500000000E+03  0.12500000000E+03 0.  0.
        -11    1    3    3    0    0 -0.36043065808E+02 -0.49211430573E+01 -0.55137363142E+01  0.36792954900E+02  0.51100000000E-03 0.  1.
         23    2    1    0    0    0  0.15080664285E+02  0.24622500708E+02 -0.39257966158E+01  0.95860579013E+02  0.91324392980E+02 0.  0.
         11    1    3    3    0    0  0.51123730094E+02  0.29543643765E+02  0.15879396984E+01  0.59067624113E+02  0.51100000000E-03 0. -1.
         22    1    1    0    0    0 -0.15080664285E+02 -0.24622500708E+02  0.39257966158E+01  0.29139420987E+02  0.00000000000E+00 0. -1.
</event>
<event>
 5    1  0.8957809E-005  0.9118800E+02  0.7818608E-02  0.1130116E+00
         25   -1    0    0    0    0  0.00000000000E+00  0.00000000000E+00  0.99999998245E-14  0.12500000000E+03  0.12500000000E+03 0.  0.
        -11    1    3    3    0    0  0.62797715243E+01  0.15058118114E+02  0.36122169521E+02  0.39635761412E+02  0.51100000000E-03 0.  1.
         23    2    1    0    0    0 -0.29451662809E+02 -0.11092818871E+02  0.23635775999E+02  0.85641379854E+02  0.76061455175E+02 0.  0.
         11    1    3    3    0    0 -0.35731434334E+02 -0.26150936985E+02 -0.12486393522E+02  0.46005618442E+02  0.51100000000E-03 0. -1.
         22    1    1    0    0    0  0.29451662809E+02  0.11092818871E+02 -0.23635775999E+02  0.39358620146E+02  0.00000000000E+00 0. -1.
</event>
<event>
 5    1  0.8957809E-005  0.9118800E+02  0.7818608E-02  0.1130116E+00
         25   -1    0    0    0    0  0.00000000000E+00  0.00000000000E+00  0.99999998245E-14  0.12500000000E+03  0.12500000000E+03 0.  0.
        -11    1    3    3    0    0 -0.22697053086E+02 -0.48390580515E+02 -0.18323827801E+02  0.56502806717E+02  0.51100000000E-03 0. -1.
         23    2    1    0    0    0 -0.89359096998E+01 -0.26852261049E+02  0.10306109839E+02  0.94881728044E+02  0.89974618704E+02 0.  0.
         11    1    3    3    0    0  0.13761143386E+02  0.21538319466E+02  0.28629937640E+02  0.38378921327E+02  0.51100000000E-03 0.  1.
         22    1    1    0    0    0  0.89359096998E+01  0.26852261049E+02 -0.10306109839E+02  0.30118271956E+02  0.00000000000E+00 0. -1.
</event>
<event>
 5    1  0.8957809E-005  0.9118800E+02  0.7818608E-02  0.1130116E+00
         25   -1    0    0    0    0  0.00000000000E+00  0.00000000000E+00  0.99999998245E-14  0.12500000000E+03  0.12500000000E+03 0.  0.
        -11    1    3    3    0    0  0.46166712873E+02 -0.24437369976E+02  0.16639697671E+02  0.54821801938E+02  0.51100000000E-03 0. -1.
         23    2    1    0    0    0  0.14844708684E+02  0.32454482295E+01  0.23332034467E+02  0.97156111219E+02  0.93080759584E+02 0.  0.
         11    1    3    3    0    0 -0.31322004190E+02  0.27682818205E+02  0.66923367958E+01  0.42334309281E+02  0.51100000000E-03 0.  1.
         22    1    1    0    0    0 -0.14844708684E+02 -0.32454482295E+01 -0.23332034467E+02  0.27843888781E+02  0.00000000000E+00 0. -1.
</event>
<event>
 5    1  0.8957809E-005  0.9118800E+02  0.7818608E-02  0.1130116E+00
         25   -1    0    0    0    0  0.00000000000E+00  0.00000000000E+00  0.99999998245E-14  0.12500000000E+03  0.12500000000E+03 0.  0.
        -11    1    3    3    0    0  0.39129189893E+02 -0.14504919868E+02  0.39438712911E+02  0.57418623098E+02  0.51100000000E-03 0.  1.
         23    2    1    0    0    0  0.87301702665E+01  0.56076601735E+01  0.27231625221E+02  0.95858566650E+02  0.91321638523E+02 0.  0.
         11    1    3    3    0    0 -0.30399019627E+02  0.20112580041E+02 -0.12207087690E+02  0.38439943552E+02  0.51100000000E-03 0. -1.
         22    1    1    0    0    0 -0.87301702665E+01 -0.56076601735E+01 -0.27231625221E+02  0.29141433350E+02  0.00000000000E+00 0.  1.
</event>
<event>
 5    1  0.8957809E-005  0.9118800E+02  0.7818608E-02  0.1130116E+00
         25   -1    0    0    0    0  0.00000000000E+00  0.00000000000E+00  0.99999998245E-14  0.12500000000E+03  0.12500000000E+03 0.  0.
        -11    1    3    3    0    0 -0.11142207408E+02  0.24970860165E+02  0.16781499643E+02  0.32082882879E+02  0.51100000000E-03 0.  1.
         23    2    1    0    0    0  0.47028911835E+01 -0.54480862405E+01 -0.32270487606E+02  0.91936678941E+02  0.85785603309E+02 0.  0.
         11    1    3    3    0    0  0.15845098592E+02 -0.30418946405E+02 -0.49051987248E+02  0.59853796062E+02  0.51100000000E-03 0. -1.
         22    1    1    0    0    0 -0.47028911835E+01  0.54480862405E+01  0.32270487606E+02  0.33063321059E+02  0.00000000000E+00 0. -1.
</event>
<event>
 5    1  0.8957809E-005  0.9118800E+02  0.7818608E-02  0.1130116E+00
         25   -1    0    0    0    0  0.00000000000E+00  0.00000000000E+00  0.99999998245E-14  0.12500000000E+03  0.12500000000E+03 0.  0.
        -11    1    3    3    0    0 -0.17794811466E+02 -0.22505440717E+02 -0.44831921025E+02  0.53226415622E+02  0.51100000000E-03 0. -1.
         23    2    1    0    0    0 -0.48080255780E+01 -0.28915916699E+02 -0.54529281666E+01  0.95184202609E+02  0.90393864019E+02 0.  0.
         11    1    3    3    0    0  0.12986785888E+02 -0.64104759820E+01  0.39378992858E+02  0.41957786987E+02  0.51100000000E-03 0.  1.
         22    1    1    0    0    0  0.48080255780E+01  0.28915916699E+02  0.54529281666E+01  0.29815797391E+02  0.00000000000E+00 0. -1.
</event>
<event>
 5    1  0.8957809E-005  0.9118800E+02  0.7818608E-02  0.1130116E+00
         25   -1    0    0    0    0  0.00000000000E+00  0.00000000000E+00  0.99999998245E-14  0.12500000000E+03  0.12500000000E+03 0.  0.
        -11    1    3    3    0    0  0.16737919411E+02  0.80198677950E+01 -0.51044611783E+02  0.54314165906E+02  0.51100000000E-03 0.  1.
         23    2    1    0    0    0 -0.84975845283E+01 -0.12092948229E+02 -0.25723892047E+02  0.95332392046E+02  0.90598554136E+02 0.  0.
         11    1    3    3    0    0 -0.25235503940E+02 -0.20112816024E+02  0.25320719736E+02  0.41018226141E+02  0.51100000000E-03 0. -1.
         22    1    1    0    0    0  0.84975845283E+01  0.12092948229E+02  0.25723892047E+02  0.29667607954E+02  0.00000000000E+00 0. -1.
</event>
<event>
 5    1  0.8957809E-005  0.9118800E+02  0.7818608E-02  0.1130116E+00
         25   -1    0    0    0    0  0.00000000000E+00  0.00000000000E+00  0.99999998245E-14  0.12500000000E+03  0.12500000000E+03 0.  0.
        -11    1    3    3    0    0 -0.43163562084E+02 -0.26515728371E+02 -0.10437477822E+02  0.51721541802E+02  0.51100000000E-03 0.  1.
         23    2    1    0    0    0 -0.13080734218E+02 -0.15499274109E+02  0.20432471839E+02  0.96210783077E+02  0.91802482370E+02 0.  0.
         11    1    3    3    0    0  0.30082827866E+02  0.11016454262E+02  0.30869949661E+02  0.44489241275E+02  0.51100000000E-03 0. -1.
         22    1    1    0    0    0  0.13080734218E+02  0.15499274109E+02 -0.20432471839E+02  0.28789216923E+02  0.00000000000E+00 0.  1.
</event>
<event>
 5    1  0.8957809E-005  0.9118800E+02  0.7818608E-02  0.1130116E+00
         25   -1    0    0    0    0  0.00000000000E+00  0.00000000000E+00  0.99999998245E-14  0.12500000000E+03  0.12500000000E+03 0.  0.
        -11    1    3    3    0    0 -0.17816828807E+02 -0.30860888176E+02 -0.14255134384E+02  0.38380237939E+02  0.51100000000E-03 0.  1.
         23    2    1    0    0    0 -0.17711266982E+02  0.23101622503E+02 -0.14796553513E+02  0.92345567893E+02  0.86379349229E+02 0.  0.
         11    1    3    3    0    0  0.10556182480E+00  0.53962510679E+02 -0.54141912910E+00  0.53965329954E+02  0.51100000000E-03 0. -1.
         22    1    1    0    0    0  0.17711266982E+02 -0.23101622503E+02  0.14796553513E+02  0.32654432107E+02  0.00000000000E+00 0. -1.
</event>
<event>
 5    1  0.8957809E-005  0.9118800E+02  0.7818608E-02  0.1130116E+00
         25   -1    0    0    0    0  0.00000000000E+00  0.00000000000E+00  0.99999998245E-14  0.12500000000E+03  0.12500000000E+03 0.  0.
        -11    1    3    3    0    0 -0.60944684664E+01 -0.11302879380E+02 -0.29518140996E+02  0.32190344457E+02  0.51100000000E-03 0.  1.
         23    2    1    0    0    0  0.33328339362E+02  0.17408259322E+02 -0.21711495310E+02  0.81580940523E+02  0.69066888817E+02 0.  0.
         11    1    3    3    0    0  0.39422807828E+02  0.28711138702E+02  0.78066456862E+01  0.49390596066E+02  0.51100000000E-03 0. -1.
         22    1    1    0    0    0 -0.33328339362E+02 -0.17408259322E+02  0.21711495310E+02  0.43419059477E+02  0.00000000000E+00 0.  1.
</event>
<event>
 5    1  0.8957809E-005  0.9118800E+02  0.7818608E-02  0.1130116E+00
         25   -1    0    0    0    0  0.00000000000E+00  0.00000000000E+00  0.99999998245E-14  0.12500000000E+03  0.12500000000E+03 0.  0.
        -11    1    3    3    0    0 -0.26310803696E+02  0.78309166928E+01  0.26535111073E+02  0.38179755988E+02  0.51100000000E-03 0.  1.
         23    2    1    0    0    0 -0.18964062654E+02  0.20098199261E+02 -0.22567989727E+02  0.89322451791E+02  0.81887807076E+02 0.  0.
         11    1    3    3    0    0  0.73467410412E+01  0.12267282568E+02 -0.49103100800E+02  0.51142695803E+02  0.51100000000E-03 0. -1.
         22    1    1    0    0    0  0.18964062654E+02 -0.20098199261E+02  0.22567989727E+02  0.35677548209E+02  0.00000000000E+00 0. -1.
</event>
<event>
 5    1  0.8957809E-005  0.9118800E+02  0.7818608E-02  0.1130116E+00
         25   -1    0    0    0    0  0.00000000000E+00  0.00000000000E+00  0.99999998245E-14  0.12500000000E+03  0.12500000000E+03 0.  0.
        -11    1    3    3    0    0  0.17829623705E+02 -0.99698868037E+01 -0.43277038167E+02  0.47855993952E+02  0.51100000000E-03 0. -1.
         23    2    1    0    0    0 -0.67704341305E+01  0.22202172000E+02 -0.18342889146E+02  0.95415598670E+02  0.90713282751E+02 0.  0.
         11    1    3    3    0    0 -0.24600057836E+02  0.32172058804E+02  0.24934149021E+02  0.47559604717E+02  0.51100000000E-03 0.  1.
         22    1    1    0    0    0  0.67704341305E+01 -0.22202172000E+02  0.18342889146E+02  0.29584401330E+02  0.00000000000E+00 0.  1.
</event>
<event>
 5    1  0.8957809E-005  0.9118800E+02  0.7818608E-02  0.1130116E+00
         25   -1    0    0    0    0  0.00000000000E+00  0.00000000000E+00  0.99999998245E-14  0.12500000000E+03  0.12500000000E+03 0.  0.
        -11    1    3    3    0    0 -0.38342735696E+02 -0.32836816915E+02  0.71824182142E+01  0.50990283951E+02  0.51100000000E-03 0. -1.
         23    2    1    0    0    0  0.61369720871E+01 -0.28058657440E+02  0.54910944245E+01  0.95757859146E+02  0.91183687064E+02 0.  0.
         11    1    3    3    0    0  0.44479707783E+02  0.47781594751E+01 -0.16913237897E+01  0.44767575195E+02  0.51100000000E-03 0.  1.
         22    1    1    0    0    0 -0.61369720871E+01  0.28058657440E+02 -0.54910944245E+01  0.29242140854E+02  0.00000000000E+00 0. -1.
</event>
<event>
 5    1  0.8957809E-005  0.9118800E+02  0.7818608E-02  0.1130116E+00
         25   -1    0    0    0    0  0.00000000000E+00  0.00000000000E+00  0.99999998245E-14  0.12500000000E+03  0.12500000000E+03 0.  0.
        -11    1    3    3    0    0 -0.12094680792E+02 -0.22264325239E+02 -0.36497518289E+02  0.44430286104E+02  0.51100000000E-03 0.  1.
         23    2    1    0    0    0 -0.28959578241E+02 -0.87911515195E+00  0.64805171262E+01  0.95311161734E+02  0.90569257662E+02 0.  0.
         11    1    3    3    0    0 -0.16864897449E+02  0.21385210087E+02  0.42978035415E+02  0.50880875630E+02  0.51100000000E-03 0. -1.
         22    1    1    0    0    0  0.28959578241E+02  0.87911515195E+00 -0.64805171262E+01  0.29688838266E+02  0.00000000000E+00 0. -1.
</event>
<event>
 5    1  0.8957809E-005  0.9118800E+02  0.7818608E-02  0.1130116E+00
         25   -1    0    0    0    0  0.00000000000E+00  0.00000000000E+00  0.99999998245E-14  0.12500000000E+03  0.12500000000E+03 0.  0.
        -11    1    3    3    0    0  0.28517909942E+02 -0.62304675805E+01 -0.28140011756E+02  0.40545655447E+02  0.51100000000E-03 0.  1.
         23    2    1    0    0    0  0.17378366397E+01  0.29429124455E+02  0.36247120951E+01  0.95297609858E+02  0.90550551983E+02 0.  0.
         11    1    3    3    0    0 -0.26780073302E+02  0.35659592036E+02  0.31764723851E+02  0.54751954411E+02  0.51100000000E-03 0. -1.
         22    1    1    0    0    0 -0.17378366397E+01 -0.29429124455E+02 -0.36247120951E+01  0.29702390142E+02  0.00000000000E+00 0. -1.
</event>
<event>
 5    1  0.8957809E-005  0.9118800E+02  0.7818608E-02  0.1130116E+00
         25   -1    0    0    0    0  0.00000000000E+00  0.00000000000E+00  0.99999998245E-14  0.12500000000E+03  0.12500000000E+03 0.  0.
        -11    1    3    3    0    0 -0.66483995018E+01 -0.46956649550E+02 -0.73043419402E+01  0.47984180355E+02  0.51100000000E-03 0. -1.
         23    2    1    0    0    0  0.13486340822E+02 -0.77436418201E+01 -0.25060585101E+02  0.95506300622E+02  0.90838181154E+02 0.  0.
         11    1    3    3    0    0  0.20134740324E+02  0.39213007730E+02 -0.17756243161E+02  0.47522120266E+02  0.51100000000E-03 0.  1.
         22    1    1    0    0    0 -0.13486340822E+02  0.77436418201E+01  0.25060585101E+02  0.29493699378E+02  0.00000000000E+00 0.  1.
</event>
<event>
 5    1  0.8957809E-005  0.9118800E+02  0.7818608E-02  0.1130116E+00
         25   -1    0    0    0    0  0.00000000000E+00  0.00000000000E+00  0.99999998245E-14  0.12500000000E+03  0.12500000000E+03 0.  0.
        -11    1    3    3    0    0 -0.19644821649E+02  0.27358318496E+02  0.61318748644E+01  0.34234434392E+02  0.51100000000E-03 0.  1.
         23    2    1    0    0    0 -0.14171557925E+02 -0.28793103273E+02  0.11507509921E+02  0.90907498850E+02  0.84272621369E+02 0.  0.
         11    1    3    3    0    0  0.54732637240E+01 -0.56151421769E+02  0.53756350569E+01  0.56673064457E+02  0.51100000000E-03 0. -1.
         22    1    1    0    0    0  0.14171557925E+02  0.28793103273E+02 -0.11507509921E+02  0.34092501150E+02  0.00000000000E+00 0. -1.
</event>
<event>
 5    1  0.8957809E-005  0.9118800E+02  0.7818608E-02  0.1130116E+00
         25   -1    0    0    0    0  0.00000000000E+00  0.00000000000E+00  0.99999998245E-14  0.12500000000E+03  0.12500000000E+03 0.  0.
        -11    1    3    3    0    0  0.43183021321E+02  0.41656755320E+02  0.54606784165E+01  0.60248465567E+02  0.51100000000E-03 0.  1.
         23    2    1    0    0    0  0.23017900886E+02  0.17098095478E+02 -0.86972743073E+01  0.95036502031E+02  0.90189386891E+02 0.  0.
         11    1    3    3    0    0 -0.20165120434E+02 -0.24558659842E+02 -0.14157952724E+02  0.34788036463E+02  0.51100000000E-03 0. -1.
         22    1    1    0    0    0 -0.23017900886E+02 -0.17098095478E+02  0.86972743073E+01  0.29963497969E+02  0.00000000000E+00 0.  1.
</event>
<event>
 5    1  0.8957809E-005  0.9118800E+02  0.7818608E-02  0.1130116E+00
         25   -1    0    0    0    0  0.00000000000E+00  0.00000000000E+00  0.99999998245E-14  0.12500000000E+03  0.12500000000E+03 0.  0.
        -11    1    3    3    0    0 -0.29356523363E+02  0.15221244349E+02  0.34110291893E+02  0.47507933619E+02  0.51100000000E-03 0. -1.
         23    2    1    0    0    0  0.12602083220E+02 -0.57644041345E+01  0.26582689326E+02  0.95022004265E+02  0.90169291148E+02 0.  0.
         11    1    3    3    0    0  0.41958606583E+02 -0.20985648483E+02 -0.75276025674E+01  0.47514070645E+02  0.51100000000E-03 0.  1.
         22    1    1    0    0    0 -0.12602083220E+02  0.57644041345E+01 -0.26582689326E+02  0.29977995735E+02  0.00000000000E+00 0.  1.
</event>
<event>
 5    1  0.8957809E-005  0.9118800E+02  0.7818608E-02  0.1130116E+00
         25   -1    0    0    0    0  0.00000000000E+00  0.00000000000E+00  0.99999998245E-14  0.12500000000E+03  0.12500000000E+03 0.  0.
        -11    1    3    3    0    0 -0.18053078622E+02  0.23885871566E+02  0.46141354242E+02  0.55004300556E+02  0.51100000000E-03 0.  1.
         23    2    1    0    0    0  0.11490126453E+02  0.19411432119E+02  0.16876948630E+02  0.96828061872E+02  0.92639168109E+02 0.  0.
         11    1    3    3    0    0  0.29543205076E+02 -0.44744394462E+01 -0.29264405612E+02  0.41823761316E+02  0.51100000000E-03 0. -1.
         22    1    1    0    0    0 -0.11490126453E+02 -0.19411432119E+02 -0.16876948630E+02  0.28171938128E+02  0.00000000000E+00 0.  1.
</event>
<event>
 5    1  0.8957809E-005  0.9118800E+02  0.7818608E-02  0.1130116E+00
         25   -1    0    0    0    0  0.00000000000E+00  0.00000000000E+00  0.99999998245E-14  0.12500000000E+03  0.12500000000E+03 0.  0.
        -11    1    3    3    0    0 -0.29906882038E+02 -0.21852294197E+02 -0.20520475548E+01  0.37096566611E+02  0.51100000000E-03 0.  1.
         23    2    1    0    0    0  0.20929208719E+02 -0.99841666878E+00 -0.21111735674E+02  0.95255521578E+02  0.90492432802E+02 0.  0.
         11    1    3    3    0    0  0.50836090757E+02  0.20853877528E+02 -0.19059688119E+02  0.58158954967E+02  0.51100000000E-03 0. -1.
         22    1    1    0    0    0 -0.20929208719E+02  0.99841666878E+00  0.21111735674E+02  0.29744478422E+02  0.00000000000E+00 0. -1.
</event>
<event>
 5    1  0.8957809E-005  0.9118800E+02  0.7818608E-02  0.1130116E+00
         25   -1    0    0    0    0  0.00000000000E+00  0.00000000000E+00  0.99999998245E-14  0.12500000000E+03  0.12500000000E+03 0.  0.
        -11    1    3    3    0    0 -0.30099130557E+02 -0.11820428597E+02  0.36201468241E+02  0.48540977488E+02  0.51100000000E-03 0. -1.
         23    2    1    0    0    0  0.10725730608E+02  0.11147636974E+02  0.23131248290E+02  0.97172571900E+02  0.93102862335E+02 0.  0.
         11    1    3    3    0    0  0.40824861165E+02  0.22968065571E+02 -0.13070219950E+02  0.48631594412E+02  0.51100000000E-03 0.  1.
         22    1    1    0    0    0 -0.10725730608E+02 -0.11147636974E+02 -0.23131248290E+02  0.27827428100E+02  0.00000000000E+00 0.  1.
</event>
<event>
 5    1  0.8957809E-005  0.9118800E+02  0.7818608E-02  0.1130116E+00
         25   -1    0    0    0    0  0.00000000000E+00  0.00000000000E+00  0.99999998245E-14  0.12500000000E+03  0.12500000000E+03 0.  0.
        -11    1    3    3    0    0  0.36095490036E+02 -0.17170894542E+02 -0.33495578161E+02  0.52150529977E+02  0.51100000000E-03 0.  1.
         23    2    1    0    0    0  0.38360172351E+01  0.10859753468E+02 -0.27346725630E+02  0.95326903157E+02  0.90590980727E+02 0.  0.
         11    1    3    3    0    0 -0.32259472801E+02  0.28030648010E+02  0.61488525317E+01  0.43176373179E+02  0.51100000000E-03 0. -1.
         22    1    1    0    0    0 -0.38360172351E+01 -0.10859753468E+02  0.27346725630E+02  0.29673096843E+02  0.00000000000E+00 0.  1.
</event>
<event>
 5    1  0.8957809E-005  0.9118800E+02  0.7818608E-02  0.1130116E+00
         25   -1    0    0    0    0  0.00000000000E+00  0.00000000000E+00  0.99999998245E-14  0.12500000000E+03  0.12500000000E+03 0.  0.
        -11    1    3    3    0    0 -0.10636634953E+02 -0.41330450810E+02 -0.65025522950E+01  0.43169750450E+02  0.51100000000E-03 0.  1.
         23    2    1    0    0    0  0.28189628219E+02 -0.72506969339E+01  0.31418422434E+01  0.95723748228E+02  0.91136913800E+02 0.  0.
         11    1    3    3    0    0  0.38826263172E+02  0.34079753876E+02  0.96443945384E+01  0.52553997778E+02  0.51100000000E-03 0. -1.
         22    1    1    0    0    0 -0.28189628219E+02  0.72506969339E+01 -0.31418422434E+01  0.29276251772E+02  0.00000000000E+00 0. -1.
</event>
<event>
 5    1  0.8957809E-005  0.9118800E+02  0.7818608E-02  0.1130116E+00
         25   -1    0    0    0    0  0.00000000000E+00  0.00000000000E+00  0.99999998245E-14  0.12500000000E+03  0.12500000000E+03 0.  0.
        -11    1    3    3    0    0 -0.28583763986E+02 -0.33623671152E+02  0.13437609059E+02  0.46131899623E+02  0.51100000000E-03 0. -1.
         23    2    1    0    0    0  0.18048127981E+02 -0.23234753044E+02  0.72194828239E+00  0.95570255149E+02  0.90926144685E+02 0.  0.
         11    1    3    3    0    0  0.46631891968E+02  0.10388918107E+02 -0.12715660776E+02  0.49438355526E+02  0.51100000000E-03 0.  1.
         22    1    1    0    0    0 -0.18048127981E+02  0.23234753044E+02 -0.72194828239E+00  0.29429744851E+02  0.00000000000E+00 0. -1.
</event>
<event>
 5    1  0.8957809E-005  0.9118800E+02  0.7818608E-02  0.1130116E+00
         25   -1    0    0    0    0  0.00000000000E+00  0.00000000000E+00  0.99999998245E-14  0.12500000000E+03  0.12500000000E+03 0.  0.
        -11    1    3    3    0    0 -0.63956982649E+01  0.59722135231E+02  0.14623111626E+02  0.61818070067E+02  0.51100000000E-03 0.  1.
         23    2    1    0    0    0 -0.82532117032E+01  0.30444270740E+02  0.32204322583E+01  0.93292898142E+02  0.87739526642E+02 0.  0.
         11    1    3    3    0    0 -0.18575134383E+01 -0.29277864491E+02 -0.11402679368E+02  0.31474828075E+02  0.51100000000E-03 0. -1.
         22    1    1    0    0    0  0.82532117032E+01 -0.30444270740E+02 -0.32204322583E+01  0.31707101858E+02  0.00000000000E+00 0.  1.
</event>
<event>
 5    1  0.8957809E-005  0.9118800E+02  0.7818608E-02  0.1130116E+00
         25   -1    0    0    0    0  0.00000000000E+00  0.00000000000E+00  0.99999998245E-14  0.12500000000E+03  0.12500000000E+03 0.  0.
        -11    1    3    3    0    0 -0.33902736966E+02  0.16612401911E+02 -0.22084757997E+02  0.43739044424E+02  0.51100000000E-03 0. -1.
         23    2    1    0    0    0 -0.91075920761E+01  0.13205928675E+02  0.23971236482E+02  0.96156197129E+02  0.91728126996E+02 0.  0.
         11    1    3    3    0    0  0.24795144890E+02 -0.34064732359E+01  0.46055994479E+02  0.52417152705E+02  0.51100000000E-03 0.  1.
         22    1    1    0    0    0  0.91075920761E+01 -0.13205928675E+02 -0.23971236482E+02  0.28843802871E+02  0.00000000000E+00 0.  1.
</event>
<event>
 5    1  0.8957809E-005  0.9118800E+02  0.7818608E-02  0.1130116E+00
         25   -1    0    0    0    0  0.00000000000E+00  0.00000000000E+00  0.99999998245E-14  0.12500000000E+03  0.12500000000E+03 0.  0.
        -11    1    3    3    0    0  0.22364089739E+02  0.57914077379E+01 -0.56227445332E+02  0.60788309091E+02  0.51100000000E-03 0. -1.
         23    2    1    0    0    0  0.10169176277E+02 -0.76294349621E+01 -0.26463155787E+02  0.95641542305E+02  0.91024093384E+02 0.  0.
         11    1    3    3    0    0 -0.12194913462E+02 -0.13420842700E+02  0.29764289544E+02  0.34853233214E+02  0.51100000000E-03 0.  1.
         22    1    1    0    0    0 -0.10169176277E+02  0.76294349621E+01  0.26463155787E+02  0.29358457695E+02  0.00000000000E+00 0. -1.
</event>
<event>
 5    1  0.8957809E-005  0.9118800E+02  0.7818608E-02  0.1130116E+00
         25   -1    0    0    0    0  0.00000000000E+00  0.00000000000E+00  0.99999998245E-14  0.12500000000E+03  0.12500000000E+03 0.  0.
        -11    1    3    3    0    0 -0.28257293831E+02  0.17060653937E+02  0.15912924207E+02  0.36643713301E+02  0.51100000000E-03 0. -1.
         23    2    1    0    0    0  0.21377323320E+02  0.76271117598E+01 -0.16737495805E+02  0.96798820025E+02  0.92599703058E+02 0.  0.
         11    1    3    3    0    0  0.49634617151E+02 -0.94335421770E+01 -0.32650420013E+02  0.60155106724E+02  0.51100000000E-03 0.  1.
         22    1    1    0    0    0 -0.21377323320E+02 -0.76271117598E+01  0.16737495805E+02  0.28201179975E+02  0.00000000000E+00 0.  1.
</event>
<event>
 5    1  0.8957809E-005  0.9118800E+02  0.7818608E-02  0.1130116E+00
         25   -1    0    0    0    0  0.00000000000E+00  0.00000000000E+00  0.99999998245E-14  0.12500000000E+03  0.12500000000E+03 0.  0.
        -11    1    3    3    0    0 -0.58048148040E+02 -0.12002689314E+02  0.37099990286E+01  0.59392054474E+02  0.51100000000E-03 0. -1.
         23    2    1    0    0    0 -0.20502721661E+02  0.89227026273E+01 -0.90182127483E+00  0.10262167345E+03  0.10015197633E+03 0.  0.
         11    1    3    3    0    0  0.37545426379E+02  0.20925391941E+02 -0.46118203035E+01  0.43229618974E+02  0.51100000000E-03 0.  1.
         22    1    1    0    0    0  0.20502721661E+02 -0.89227026273E+01  0.90182127483E+00  0.22378326552E+02  0.00000000000E+00 0. -1.
</event>
<event>
 5    1  0.8957809E-005  0.9118800E+02  0.7818608E-02  0.1130116E+00
         25   -1    0    0    0    0  0.00000000000E+00  0.00000000000E+00  0.99999998245E-14  0.12500000000E+03  0.12500000000E+03 0.  0.
        -11    1    3    3    0    0 -0.13274015348E+01  0.31505300665E+02 -0.17575303494E+02  0.36100377533E+02  0.51100000000E-03 0. -1.
         23    2    1    0    0    0  0.13915727154E+02 -0.22317867117E+02  0.78575452623E+01  0.97550488667E+02  0.93608878675E+02 0.  0.
         11    1    3    3    0    0  0.15243128689E+02 -0.53823167782E+02  0.25432848756E+02  0.61450111134E+02  0.51100000000E-03 0.  1.
         22    1    1    0    0    0 -0.13915727154E+02  0.22317867117E+02 -0.78575452623E+01  0.27449511333E+02  0.00000000000E+00 0.  1.
</event>
<event>
 5    1  0.8957809E-005  0.9118800E+02  0.7818608E-02  0.1130116E+00
         25   -1    0    0    0    0  0.00000000000E+00  0.00000000000E+00  0.99999998245E-14  0.12500000000E+03  0.12500000000E+03 0.  0.
        -11    1    3    3    0    0  0.21823503953E+02  0.52973476818E+02 -0.32375907538E+01  0.57384114223E+02  0.51100000000E-03 0.  1.
         23    2    1    0    0    0 -0.57934928713E+01  0.27341843033E+02 -0.92938494097E+01  0.95546365642E+02  0.90893296840E+02 0.  0.
         11    1    3    3    0    0 -0.27616996825E+02 -0.25631633786E+02 -0.60562586559E+01  0.38162251418E+02  0.51100000000E-03 0. -1.
         22    1    1    0    0    0  0.57934928713E+01 -0.27341843033E+02  0.92938494097E+01  0.29453634358E+02  0.00000000000E+00 0.  1.
</event>
<event>
 5    1  0.8957809E-005  0.9118800E+02  0.7818608E-02  0.1130116E+00
         25   -1    0    0    0    0  0.00000000000E+00  0.00000000000E+00  0.99999998245E-14  0.12500000000E+03  0.12500000000E+03 0.  0.
        -11    1    3    3    0    0  0.13353435301E+01  0.65590623484E+01 -0.16284187825E+02  0.17606226586E+02  0.51100000000E-03 0. -1.
         23    2    1    0    0    0  0.35248792319E+02  0.16612251720E+02  0.29973702559E+02  0.75838357307E+02  0.57745903117E+02 0.  0.
         11    1    3    3    0    0  0.33913448789E+02  0.10053189372E+02  0.46257890384E+02  0.58232130721E+02  0.51100000000E-03 0.  1.
         22    1    1    0    0    0 -0.35248792319E+02 -0.16612251720E+02 -0.29973702559E+02  0.49161642693E+02  0.00000000000E+00 0.  1.
</event>
<event>
 5    1  0.8957809E-005  0.9118800E+02  0.7818608E-02  0.1130116E+00
         25   -1    0    0    0    0  0.00000000000E+00  0.00000000000E+00  0.99999998245E-14  0.12500000000E+03  0.12500000000E+03 0.  0.
        -11    1    3    3    0    0  0.36205709817E+02  0.10030755122E+01 -0.46656781633E+02  0.59065343955E+02  0.51100000000E-03 0. -1.
         23    2    1    0    0    0  0.13681866400E+02  0.14656996241E+02 -0.23210571712E+02  0.94328325018E+02  0.89202473365E+02 0.  0.
         11    1    3    3    0    0 -0.22523843417E+02  0.13653920728E+02  0.23446209921E+02  0.35262981063E+02  0.51100000000E-03 0.  1.
         22    1    1    0    0    0 -0.13681866400E+02 -0.14656996241E+02  0.23210571712E+02  0.30671674982E+02  0.00000000000E+00 0. -1.
</event>
<event>
 5    1  0.8957809E-005  0.9118800E+02  0.7818608E-02  0.1130116E+00
         25   -1    0    0    0    0  0.00000000000E+00  0.00000000000E+00  0.99999998245E-14  0.12500000000E+03  0.12500000000E+03 0.  0.
        -11    1    3    3    0    0 -0.58399875590E+01 -0.22794866277E+02 -0.32076211802E+02  0.39781839413E+02  0.51100000000E-03 0.  1.
         23    2    1    0    0    0 -0.20262220843E+02 -0.84420351778E+01  0.19758200138E+02  0.95466764077E+02  0.90783759667E+02 0.  0.
         11    1    3    3    0    0 -0.14422233284E+02  0.14352831099E+02  0.51834411940E+02  0.55684924664E+02  0.51100000000E-03 0. -1.
         22    1    1    0    0    0  0.20262220843E+02  0.84420351778E+01 -0.19758200138E+02  0.29533235923E+02  0.00000000000E+00 0. -1.
</event>
<event>
 5    1  0.8957809E-005  0.9118800E+02  0.7818608E-02  0.1130116E+00
         25   -1    0    0    0    0  0.00000000000E+00  0.00000000000E+00  0.99999998245E-14  0.12500000000E+03  0.12500000000E+03 0.  0.
        -11    1    3    3    0    0 -0.28164764469E+02  0.56888514373E+00 -0.82777800361E+01  0.29361526365E+02  0.51100000000E-03 0.  1.
         23    2    1    0    0    0  0.24807800000E+02 -0.24057899162E+02  0.69940932123E+01  0.89741996755E+02  0.82525748641E+02 0.  0.
         11    1    3    3    0    0  0.52972564470E+02 -0.24626784306E+02  0.15271873248E+02  0.60380470390E+02  0.51100000000E-03 0. -1.
         22    1    1    0    0    0 -0.24807800000E+02  0.24057899162E+02 -0.69940932123E+01  0.35258003245E+02  0.00000000000E+00 0. -1.
</event>
<event>
 5    1  0.8957809E-005  0.9118800E+02  0.7818608E-02  0.1130116E+00
         25   -1    0    0    0    0  0.00000000000E+00  0.00000000000E+00  0.99999998245E-14  0.12500000000E+03  0.12500000000E+03 0.  0.
        -11    1    3    3    0    0 -0.35805330011E+01  0.39119273919E+02 -0.21630389001E+02  0.44844303285E+02  0.51100000000E-03 0. -1.
         23    2    1    0    0    0 -0.21885863045E+02 -0.47184578055E+01 -0.23702177266E+02  0.92395582317E+02  0.86451695063E+02 0.  0.
         11    1    3    3    0    0 -0.18305330044E+02 -0.43837731724E+02 -0.20717882651E+01  0.47551279032E+02  0.51100000000E-03 0.  1.
         22    1    1    0    0    0  0.21885863045E+02  0.47184578055E+01  0.23702177266E+02  0.32604417683E+02  0.00000000000E+00 0.  1.
</event>
<event>
 5    1  0.8957809E-005  0.9118800E+02  0.7818608E-02  0.1130116E+00
         25   -1    0    0    0    0  0.00000000000E+00  0.00000000000E+00  0.99999998245E-14  0.12500000000E+03  0.12500000000E+03 0.  0.
        -11    1    3    3    0    0  0.46224154327E+02  0.11398984746E+02 -0.95762585419E+01  0.48562475477E+02  0.51100000000E-03 0. -1.
         23    2    1    0    0    0  0.58781532863E+01 -0.50081873912E+01 -0.28074747261E+02  0.95882547145E+02  0.91354456849E+02 0.  0.
         11    1    3    3    0    0 -0.40346001041E+02 -0.16407172137E+02 -0.18498488719E+02  0.47320071668E+02  0.51100000000E-03 0.  1.
         22    1    1    0    0    0 -0.58781532863E+01  0.50081873912E+01  0.28074747261E+02  0.29117452855E+02  0.00000000000E+00 0. -1.
</event>
<event>
 5    1  0.8957809E-005  0.9118800E+02  0.7818608E-02  0.1130116E+00
         25   -1    0    0    0    0  0.00000000000E+00  0.00000000000E+00  0.99999998245E-14  0.12500000000E+03  0.12500000000E+03 0.  0.
        -11    1    3    3    0    0  0.32283732827E+02  0.22446989425E+02  0.15464234465E+02  0.42252210443E+02  0.51100000000E-03 0.  1.
         23    2    1    0    0    0 -0.21605481985E+02  0.16151778169E+02  0.66211591336E+01  0.97223813470E+02  0.93171633921E+02 0.  0.
         11    1    3    3    0    0 -0.53889214812E+02 -0.62952112557E+01 -0.88430753319E+01  0.54971603027E+02  0.51100000000E-03 0. -1.
         22    1    1    0    0    0  0.21605481985E+02 -0.16151778169E+02 -0.66211591336E+01  0.27776186530E+02  0.00000000000E+00 0. -1.
</event>
<event>
 5    1  0.8957809E-005  0.9118800E+02  0.7818608E-02  0.1130116E+00
         25   -1    0    0    0    0  0.00000000000E+00  0.00000000000E+00  0.99999998245E-14  0.12500000000E+03  0.12500000000E+03 0.  0.
        -11    1    3    3    0    0  0.18402207216E+02 -0.28076577454E+02 -0.43317692014E+01  0.33848185426E+02  0.51100000000E-03 0.  1.
         23    2    1    0    0    0 -0.20251770357E+02  0.16786358556E+02  0.13148407874E+02  0.95592574649E+02  0.90956823065E+02 0.  0.
         11    1    3    3    0    0 -0.38653977573E+02  0.44862936010E+02  0.17480177075E+02  0.61744389223E+02  0.51100000000E-03 0. -1.
         22    1    1    0    0    0  0.20251770357E+02 -0.16786358556E+02 -0.13148407874E+02  0.29407425351E+02  0.00000000000E+00 0. -1.
</event>
<event>
 5    1  0.8957809E-005  0.9118800E+02  0.7818608E-02  0.1130116E+00
         25   -1    0    0    0    0  0.00000000000E+00  0.00000000000E+00  0.99999998245E-14  0.12500000000E+03  0.12500000000E+03 0.  0.
        -11    1    3    3    0    0  0.59256577205E+01  0.34074508219E+02  0.19223531183E+02  0.39569302258E+02  0.51100000000E-03 0.  1.
         23    2    1    0    0    0 -0.11710102489E+02 -0.19151063556E+02  0.18921989432E+02  0.95641331439E+02  0.91023803808E+02 0.  0.
         11    1    3    3    0    0 -0.17635760209E+02 -0.53225571774E+02 -0.30154175071E+00  0.56072029182E+02  0.51100000000E-03 0. -1.
         22    1    1    0    0    0  0.11710102489E+02  0.19151063556E+02 -0.18921989432E+02  0.29358668561E+02  0.00000000000E+00 0. -1.
</event>
<event>
 5    1  0.8957809E-005  0.9118800E+02  0.7818608E-02  0.1130116E+00
         25   -1    0    0    0    0  0.00000000000E+00  0.00000000000E+00  0.99999998245E-14  0.12500000000E+03  0.12500000000E+03 0.  0.
        -11    1    3    3    0    0 -0.17780663121E+02 -0.29995706021E+02 -0.11745364097E+02  0.36794672695E+02  0.51100000000E-03 0. -1.
         23    2    1    0    0    0  0.69378440888E+01  0.23515125405E+02  0.83959466959E+01  0.99085009660E+02  0.95636041402E+02 0.  0.
         11    1    3    3    0    0  0.24718507210E+02  0.53510831425E+02  0.20141310793E+02  0.62290336965E+02  0.51100000000E-03 0.  1.
         22    1    1    0    0    0 -0.69378440888E+01 -0.23515125405E+02 -0.83959466959E+01  0.25914990340E+02  0.00000000000E+00 0.  1.
</event>
<event>
 5    1  0.8957809E-005  0.9118800E+02  0.7818608E-02  0.1130116E+00
         25   -1    0    0    0    0  0.00000000000E+00  0.00000000000E+00  0.99999998245E-14  0.12500000000E+03  0.12500000000E+03 0.  0.
        -11    1    3    3    0    0  0.22383500907E+02  0.28538054610E+02  0.23876282414E+02  0.43422557916E+02  0.51100000000E-03 0. -1.
         23    2    1    0    0    0  0.13069293406E+00 -0.18869328803E+02  0.22260594916E+02  0.95817766772E+02  0.91265775037E+02 0.  0.
         11    1    3    3    0    0 -0.22252807973E+02 -0.47407383413E+02 -0.16156874983E+01  0.52395208857E+02  0.51100000000E-03 0.  1.
         22    1    1    0    0    0 -0.13069293406E+00  0.18869328803E+02 -0.22260594916E+02  0.29182233228E+02  0.00000000000E+00 0.  1.
</event>
<event>
 5    1  0.8957809E-005  0.9118800E+02  0.7818608E-02  0.1130116E+00
         25   -1    0    0    0    0  0.00000000000E+00  0.00000000000E+00  0.99999998245E-14  0.12500000000E+03  0.12500000000E+03 0.  0.
        -11    1    3    3    0    0  0.11828813232E+02 -0.98610803443E+01 -0.55149596773E+02  0.57259407546E+02  0.51100000000E-03 0. -1.
         23    2    1    0    0    0  0.47996897311E+01 -0.23483021463E+02 -0.35091941749E+02  0.82503721407E+02  0.70717256392E+02 0.  0.
         11    1    3    3    0    0 -0.70291235005E+01 -0.13621941119E+02  0.20057655023E+02  0.25244313861E+02  0.51100000000E-03 0.  1.
         22    1    1    0    0    0 -0.47996897311E+01  0.23483021463E+02  0.35091941749E+02  0.42496278593E+02  0.00000000000E+00 0. -1.
</event>
<event>
 5    1  0.8957809E-005  0.9118800E+02  0.7818608E-02  0.1130116E+00
         25   -1    0    0    0    0  0.00000000000E+00  0.00000000000E+00  0.99999998245E-14  0.12500000000E+03  0.12500000000E+03 0.  0.
        -11    1    3    3    0    0 -0.17974784577E+02  0.98351084015E+01  0.58420369302E+02  0.61909302916E+02  0.51100000000E-03 0.  1.
         23    2    1    0    0    0 -0.59708977020E+01 -0.92270180793E+00  0.28202880191E+02  0.96157228825E+02  0.91729532901E+02 0.  0.
         11    1    3    3    0    0  0.12003886875E+02 -0.10757810209E+02 -0.30217489111E+02  0.34247925909E+02  0.51100000000E-03 0. -1.
         22    1    1    0    0    0  0.59708977020E+01  0.92270180793E+00 -0.28202880191E+02  0.28842771175E+02  0.00000000000E+00 0.  1.
</event>
<event>
 5    1  0.8957809E-005  0.9118800E+02  0.7818608E-02  0.1130116E+00
         25   -1    0    0    0    0  0.00000000000E+00  0.00000000000E+00  0.99999998245E-14  0.12500000000E+03  0.12500000000E+03 0.  0.
        -11    1    3    3    0    0 -0.18140468576E+01  0.32781442369E+01  0.31894198101E+02  0.32113499785E+02  0.51100000000E-03 0. -1.
         23    2    1    0    0    0 -0.67131064103E+00 -0.25601323773E+02 -0.20663062924E+02  0.92093456482E+02  0.86013743788E+02 0.  0.
         11    1    3    3    0    0  0.11427362165E+01 -0.28879468010E+02 -0.52557261026E+02  0.59979956697E+02  0.51100000000E-03 0.  1.
         22    1    1    0    0    0  0.67131064103E+00  0.25601323773E+02  0.20663062924E+02  0.32906543518E+02  0.00000000000E+00 0.  1.
</event>
<event>
 5    1  0.8957809E-005  0.9118800E+02  0.7818608E-02  0.1130116E+00
         25   -1    0    0    0    0  0.00000000000E+00  0.00000000000E+00  0.99999998245E-14  0.12500000000E+03  0.12500000000E+03 0.  0.
        -11    1    3    3    0    0 -0.13549848354E+02 -0.15160280690E+02  0.47116746581E+02  0.51316861845E+02  0.51100000000E-03 0. -1.
         23    2    1    0    0    0  0.18662257823E+02 -0.15609007461E+02  0.22508420531E+02  0.91855619243E+02  0.85667408101E+02 0.  0.
         11    1    3    3    0    0  0.32212106177E+02 -0.44872677088E+00 -0.24608326050E+02  0.40538757397E+02  0.51100000000E-03 0.  1.
         22    1    1    0    0    0 -0.18662257823E+02  0.15609007461E+02 -0.22508420531E+02  0.33144380757E+02  0.00000000000E+00 0. -1.
</event>
<event>
 5    1  0.8957809E-005  0.9118800E+02  0.7818608E-02  0.1130116E+00
         25   -1    0    0    0    0  0.00000000000E+00  0.00000000000E+00  0.99999998245E-14  0.12500000000E+03  0.12500000000E+03 0.  0.
        -11    1    3    3    0    0  0.53619661670E+02 -0.21151787786E+02  0.22688431330E+02  0.61945388534E+02  0.51100000000E-03 0.  1.
         23    2    1    0    0    0  0.26524560310E+02 -0.11874858827E+02  0.52729489155E+01  0.95464113996E+02  0.90780110701E+02 0.  0.
         11    1    3    3    0    0 -0.27095101360E+02  0.92769289589E+01 -0.17415482414E+02  0.33518725462E+02  0.51100000000E-03 0. -1.
         22    1    1    0    0    0 -0.26524560310E+02  0.11874858827E+02 -0.52729489155E+01  0.29535886004E+02  0.00000000000E+00 0.  1.
</event>
<event>
 5    1  0.8957809E-005  0.9118800E+02  0.7818608E-02  0.1130116E+00
         25   -1    0    0    0    0  0.00000000000E+00  0.00000000000E+00  0.99999998245E-14  0.12500000000E+03  0.12500000000E+03 0.  0.
        -11    1    3    3    0    0  0.16888327686E+02  0.20345455151E+02  0.44756528067E+01  0.26817617822E+02  0.51100000000E-03 0.  1.
         23    2    1    0    0    0 -0.14561872999E+02 -0.27505882322E+02 -0.18812349709E+02  0.88633446559E+02  0.80829212788E+02 0.  0.
         11    1    3    3    0    0 -0.31450200685E+02 -0.47851337473E+02 -0.23288002516E+02  0.61815828738E+02  0.51100000000E-03 0. -1.
         22    1    1    0    0    0  0.14561872999E+02  0.27505882322E+02  0.18812349709E+02  0.36366553441E+02  0.00000000000E+00 0. -1.
</event>
<event>
 5    1  0.8957809E-005  0.9118800E+02  0.7818608E-02  0.1130116E+00
         25   -1    0    0    0    0  0.00000000000E+00  0.00000000000E+00  0.99999998245E-14  0.12500000000E+03  0.12500000000E+03 0.  0.
        -11    1    3    3    0    0  0.23541672801E+02  0.16291446101E+02 -0.50153802385E+02  0.57749679378E+02  0.51100000000E-03 0. -1.
         23    2    1    0    0    0  0.13046653926E+02 -0.95979618885E+01 -0.24192363379E+02  0.95886317703E+02  0.91359615945E+02 0.  0.
         11    1    3    3    0    0 -0.10495018875E+02 -0.25889407989E+02  0.25961439006E+02  0.38136638325E+02  0.51100000000E-03 0.  1.
         22    1    1    0    0    0 -0.13046653926E+02  0.95979618885E+01  0.24192363379E+02  0.29113682297E+02  0.00000000000E+00 0. -1.
</event>
<event>
 5    1  0.8957809E-005  0.9118800E+02  0.7818608E-02  0.1130116E+00
         25   -1    0    0    0    0  0.00000000000E+00  0.00000000000E+00  0.99999998245E-14  0.12500000000E+03  0.12500000000E+03 0.  0.
        -11    1    3    3    0    0  0.28509066045E+01 -0.21472346829E+02  0.50043609975E+02  0.54530287423E+02  0.51100000000E-03 0.  1.
         23    2    1    0    0    0  0.16498535592E+02 -0.21486966996E+02  0.11228596408E+02  0.95674707083E+02  0.91069625950E+02 0.  0.
         11    1    3    3    0    0  0.13647628988E+02 -0.14620166776E-01 -0.38815013567E+02  0.41144419660E+02  0.51100000000E-03 0. -1.
         22    1    1    0    0    0 -0.16498535592E+02  0.21486966996E+02 -0.11228596408E+02  0.29325292917E+02  0.00000000000E+00 0.  1.
</event>
<event>
 5    1  0.8957809E-005  0.9118800E+02  0.7818608E-02  0.1130116E+00
         25   -1    0    0    0    0  0.00000000000E+00  0.00000000000E+00  0.99999998245E-14  0.12500000000E+03  0.12500000000E+03 0.  0.
        -11    1    3    3    0    0 -0.56023603969E+01 -0.30004997515E+02 -0.28627657997E+02  0.41847689549E+02  0.51100000000E-03 0.  1.
         23    2    1    0    0    0  0.28116958296E+02  0.51836013017E+01 -0.51309245706E+01  0.95952462183E+02  0.91450071327E+02 0.  0.
         11    1    3    3    0    0  0.33719318693E+02  0.35188598817E+02  0.23496733427E+02  0.54104772634E+02  0.51100000000E-03 0. -1.
         22    1    1    0    0    0 -0.28116958296E+02 -0.51836013017E+01  0.51309245706E+01  0.29047537817E+02  0.00000000000E+00 0. -1.
</event>
<event>
 5    1  0.8957809E-005  0.9118800E+02  0.7818608E-02  0.1130116E+00
         25   -1    0    0    0    0  0.00000000000E+00  0.00000000000E+00  0.99999998245E-14  0.12500000000E+03  0.12500000000E+03 0.  0.
        -11    1    3    3    0    0  0.47643044654E+02 -0.49463830584E+01 -0.11497095700E+02  0.49259614483E+02  0.51100000000E-03 0.  1.
         23    2    1    0    0    0  0.98995365394E+01  0.81933790233E+01 -0.29296271905E+02  0.93009316496E+02  0.87334581490E+02 0.  0.
         11    1    3    3    0    0 -0.37743508114E+02  0.13139762082E+02 -0.17799176205E+02  0.43749702013E+02  0.51100000000E-03 0. -1.
         22    1    1    0    0    0 -0.98995365394E+01 -0.81933790233E+01  0.29296271905E+02  0.31990683504E+02  0.00000000000E+00 0.  1.
</event>
<event>
 5    1  0.8957809E-005  0.9118800E+02  0.7818608E-02  0.1130116E+00
         25   -1    0    0    0    0  0.00000000000E+00  0.00000000000E+00  0.99999998245E-14  0.12500000000E+03  0.12500000000E+03 0.  0.
        -11    1    3    3    0    0  0.68602451051E+01  0.51649022916E+02  0.10894894171E+02  0.53229533629E+02  0.51100000000E-03 0.  1.
         23    2    1    0    0    0  0.16756967466E+02  0.24640265984E+02 -0.14736174805E+02  0.91757053164E+02  0.85523466318E+02 0.  0.
         11    1    3    3    0    0  0.98967223609E+01 -0.27008756931E+02 -0.25631068976E+02  0.38527519536E+02  0.51100000000E-03 0. -1.
         22    1    1    0    0    0 -0.16756967466E+02 -0.24640265984E+02  0.14736174805E+02  0.33242946836E+02  0.00000000000E+00 0.  1.
</event>
<event>
 5    1  0.8957809E-005  0.9118800E+02  0.7818608E-02  0.1130116E+00
         25   -1    0    0    0    0  0.00000000000E+00  0.00000000000E+00  0.99999998245E-14  0.12500000000E+03  0.12500000000E+03 0.  0.
        -11    1    3    3    0    0  0.28827930157E+02  0.19743550943E+02 -0.77118528336E+01  0.35781699727E+02  0.51100000000E-03 0.  1.
         23    2    1    0    0    0 -0.28563354951E+02  0.47866567482E+01 -0.74702377936E+01  0.95090439963E+02  0.90264112419E+02 0.  0.
         11    1    3    3    0    0 -0.57391285108E+02 -0.14956894195E+02  0.24161503996E+00  0.59308740236E+02  0.51100000000E-03 0. -1.
         22    1    1    0    0    0  0.28563354951E+02 -0.47866567482E+01  0.74702377936E+01  0.29909560037E+02  0.00000000000E+00 0. -1.
</event>
<event>
 5    1  0.8957809E-005  0.9118800E+02  0.7818608E-02  0.1130116E+00
         25   -1    0    0    0    0  0.00000000000E+00  0.00000000000E+00  0.99999998245E-14  0.12500000000E+03  0.12500000000E+03 0.  0.
        -11    1    3    3    0    0 -0.21877196672E+02  0.53483422587E+01  0.41563866634E+02  0.47273369977E+02  0.51100000000E-03 0.  1.
         23    2    1    0    0    0  0.95195519485E+01 -0.22005654426E+02  0.16828330858E+02  0.95707280504E+02  0.91114324483E+02 0.  0.
         11    1    3    3    0    0  0.31396748620E+02 -0.27353996684E+02 -0.24735535776E+02  0.48433910527E+02  0.51100000000E-03 0. -1.
         22    1    1    0    0    0 -0.95195519485E+01  0.22005654426E+02 -0.16828330858E+02  0.29292719496E+02  0.00000000000E+00 0.  1.
</event>
<event>
 5    1  0.8957809E-005  0.9118800E+02  0.7818608E-02  0.1130116E+00
         25   -1    0    0    0    0  0.00000000000E+00  0.00000000000E+00  0.99999998245E-14  0.12500000000E+03  0.12500000000E+03 0.  0.
        -11    1    3    3    0    0 -0.37869086821E+02 -0.35613766555E+01  0.15977491593E+02  0.41255682981E+02  0.51100000000E-03 0. -1.
         23    2    1    0    0    0 -0.23040500566E+01 -0.19160405355E+02 -0.22110909317E+02  0.95651710598E+02  0.91038056050E+02 0.  0.
         11    1    3    3    0    0  0.35565036764E+02 -0.15599028699E+02 -0.38088400910E+02  0.54396027617E+02  0.51100000000E-03 0.  1.
         22    1    1    0    0    0  0.23040500566E+01  0.19160405355E+02  0.22110909317E+02  0.29348289402E+02  0.00000000000E+00 0.  1.
</event>
<event>
 5    1  0.8957809E-005  0.9118800E+02  0.7818608E-02  0.1130116E+00
         25   -1    0    0    0    0  0.00000000000E+00  0.00000000000E+00  0.99999998245E-14  0.12500000000E+03  0.12500000000E+03 0.  0.
        -11    1    3    3    0    0  0.39166874461E+02 -0.11438139544E+02 -0.30952415482E+02  0.51214520555E+02  0.51100000000E-03 0. -1.
         23    2    1    0    0    0  0.26135748477E+01 -0.27063211394E+02 -0.11362440905E+02  0.95532165879E+02  0.90873766676E+02 0.  0.
         11    1    3    3    0    0 -0.36553299613E+02 -0.15625071850E+02  0.19589974577E+02  0.44317645325E+02  0.51100000000E-03 0.  1.
         22    1    1    0    0    0 -0.26135748477E+01  0.27063211394E+02  0.11362440905E+02  0.29467834121E+02  0.00000000000E+00 0. -1.
</event>
<event>
 5    1  0.8957809E-005  0.9118800E+02  0.7818608E-02  0.1130116E+00
         25   -1    0    0    0    0  0.00000000000E+00  0.00000000000E+00  0.99999998245E-14  0.12500000000E+03  0.12500000000E+03 0.  0.
        -11    1    3    3    0    0 -0.96743096304E+01  0.16642055976E+02  0.29096747913E+02  0.34887978349E+02  0.51100000000E-03 0.  1.
         23    2    1    0    0    0 -0.15481331850E+02 -0.21786987253E+02 -0.15547701772E+02  0.94079529761E+02  0.88853150986E+02 0.  0.
         11    1    3    3    0    0 -0.58070222195E+01 -0.38429043229E+02 -0.44644449685E+02  0.59191551412E+02  0.51100000000E-03 0. -1.
         22    1    1    0    0    0  0.15481331850E+02  0.21786987253E+02  0.15547701772E+02  0.30920470239E+02  0.00000000000E+00 0. -1.
</event>
<event>
 5    1  0.8957809E-005  0.9118800E+02  0.7818608E-02  0.1130116E+00
         25   -1    0    0    0    0  0.00000000000E+00  0.00000000000E+00  0.99999998245E-14  0.12500000000E+03  0.12500000000E+03 0.  0.
        -11    1    3    3    0    0  0.11837100790E+02 -0.48180086475E+02 -0.34851639121E+02  0.60630639428E+02  0.51100000000E-03 0.  1.
         23    2    1    0    0    0  0.12364036558E+02 -0.16635623535E+02 -0.22217668459E+02  0.94615165589E+02  0.89603523353E+02 0.  0.
         11    1    3    3    0    0  0.52693576741E+00  0.31544462940E+02  0.12633970661E+02  0.33984526161E+02  0.51100000000E-03 0. -1.
         22    1    1    0    0    0 -0.12364036558E+02  0.16635623535E+02  0.22217668459E+02  0.30384834411E+02  0.00000000000E+00 0.  1.
</event>
<event>
 5    1  0.8957809E-005  0.9118800E+02  0.7818608E-02  0.1130116E+00
         25   -1    0    0    0    0  0.00000000000E+00  0.00000000000E+00  0.99999998245E-14  0.12500000000E+03  0.12500000000E+03 0.  0.
        -11    1    3    3    0    0  0.22756780131E+01 -0.47034409074E+01 -0.50998113037E+02  0.51265081687E+02  0.51100000000E-03 0.  1.
         23    2    1    0    0    0 -0.14649139709E+02 -0.20012914247E+02 -0.98581024815E+01  0.98311121878E+02  0.94619133739E+02 0.  0.
         11    1    3    3    0    0 -0.16924817722E+02 -0.15309473340E+02  0.41140010555E+02  0.47046040191E+02  0.51100000000E-03 0. -1.
         22    1    1    0    0    0  0.14649139709E+02  0.20012914247E+02  0.98581024815E+01  0.26688878122E+02  0.00000000000E+00 0. -1.
</event>
<event>
 5    1  0.8957809E-005  0.9118800E+02  0.7818608E-02  0.1130116E+00
         25   -1    0    0    0    0  0.00000000000E+00  0.00000000000E+00  0.99999998245E-14  0.12500000000E+03  0.12500000000E+03 0.  0.
        -11    1    3    3    0    0 -0.14878284544E+02 -0.74574016149E+00 -0.31209789663E+02  0.34582805705E+02  0.51100000000E-03 0. -1.
         23    2    1    0    0    0 -0.18976424481E+02  0.58170804254E+01  0.25986886029E+02  0.92300437980E+02  0.86314016794E+02 0.  0.
         11    1    3    3    0    0 -0.40981399367E+01  0.65628205869E+01  0.57196675692E+02  0.57717632276E+02  0.51100000000E-03 0.  1.
         22    1    1    0    0    0  0.18976424481E+02 -0.58170804254E+01 -0.25986886029E+02  0.32699562020E+02  0.00000000000E+00 0.  1.
</event>
<event>
 5    1  0.8957809E-005  0.9118800E+02  0.7818608E-02  0.1130116E+00
         25   -1    0    0    0    0  0.00000000000E+00  0.00000000000E+00  0.99999998245E-14  0.12500000000E+03  0.12500000000E+03 0.  0.
        -11    1    3    3    0    0  0.20319012075E+02 -0.52212398582E+02 -0.17615851723E+02  0.58730869648E+02  0.51100000000E-03 0.  1.
         23    2    1    0    0    0 -0.20739525487E+01 -0.29752247032E+02  0.33341100847E+00  0.95173692056E+02  0.90379328467E+02 0.  0.
         11    1    3    3    0    0 -0.22392964623E+02  0.22460151550E+02  0.17949262732E+02  0.36442822409E+02  0.51100000000E-03 0. -1.
         22    1    1    0    0    0  0.20739525487E+01  0.29752247032E+02 -0.33341100847E+00  0.29826307944E+02  0.00000000000E+00 0.  1.
</event>
<event>
 5    1  0.8957809E-005  0.9118800E+02  0.7818608E-02  0.1130116E+00
         25   -1    0    0    0    0  0.00000000000E+00  0.00000000000E+00  0.99999998245E-14  0.12500000000E+03  0.12500000000E+03 0.  0.
        -11    1    3    3    0    0 -0.18037618635E+02 -0.28128746766E+02  0.81112730454E+01  0.34385677707E+02  0.51100000000E-03 0. -1.
         23    2    1    0    0    0  0.22562834146E+02  0.12149852271E+02 -0.14115309409E+02  0.95743507479E+02  0.91164010825E+02 0.  0.
         11    1    3    3    0    0  0.40600452782E+02  0.40278599037E+02 -0.22226582454E+02  0.61357829772E+02  0.51100000000E-03 0.  1.
         22    1    1    0    0    0 -0.22562834146E+02 -0.12149852271E+02  0.14115309409E+02  0.29256492521E+02  0.00000000000E+00 0.  1.
</event>
<event>
 5    1  0.8957809E-005  0.9118800E+02  0.7818608E-02  0.1130116E+00
         25   -1    0    0    0    0  0.00000000000E+00  0.00000000000E+00  0.99999998245E-14  0.12500000000E+03  0.12500000000E+03 0.  0.
        -11    1    3    3    0    0  0.40972948703E+02 -0.13134754052E+02  0.50877471396E+01  0.43326544527E+02  0.51100000000E-03 0.  1.
         23    2    1    0    0    0 -0.24932467677E+00  0.15786243301E+02  0.23283027829E+02  0.96868753579E+02  0.92694058033E+02 0.  0.
         11    1    3    3    0    0 -0.41222273380E+02  0.28920997353E+02  0.18195280689E+02  0.53542209052E+02  0.51100000000E-03 0. -1.
         22    1    1    0    0    0  0.24932467677E+00 -0.15786243301E+02 -0.23283027829E+02  0.28131246421E+02  0.00000000000E+00 0. -1.
</event>
<event>
 5    1  0.8957809E-005  0.9118800E+02  0.7818608E-02  0.1130116E+00
         25   -1    0    0    0    0  0.00000000000E+00  0.00000000000E+00  0.99999998245E-14  0.12500000000E+03  0.12500000000E+03 0.  0.
        -11    1    3    3    0    0 -0.85920492277E+01 -0.30625090589E+02  0.14046943652E+02  0.34771196553E+02  0.51100000000E-03 0.  1.
         23    2    1    0    0    0 -0.42409337774E+01  0.26466743819E+02 -0.93319271550E+01  0.96617630259E+02  0.92354791781E+02 0.  0.
         11    1    3    3    0    0  0.43511154503E+01  0.57091834408E+02 -0.23378870807E+02  0.61846433706E+02  0.51100000000E-03 0. -1.
         22    1    1    0    0    0  0.42409337774E+01 -0.26466743819E+02  0.93319271550E+01  0.28382369741E+02  0.00000000000E+00 0. -1.
</event>
<event>
 5    1  0.8957809E-005  0.9118800E+02  0.7818608E-02  0.1130116E+00
         25   -1    0    0    0    0  0.00000000000E+00  0.00000000000E+00  0.99999998245E-14  0.12500000000E+03  0.12500000000E+03 0.  0.
        -11    1    3    3    0    0  0.28049889017E+02  0.25407664417E+02 -0.59977041884E+01  0.38318639600E+02  0.51100000000E-03 0.  1.
         23    2    1    0    0    0  0.12626070760E+02  0.17935266123E+02  0.35530658333E+02  0.83244531911E+02  0.72014810822E+02 0.  0.
         11    1    3    3    0    0 -0.15423818257E+02 -0.74723982941E+01  0.41528362522E+02  0.44925892310E+02  0.51100000000E-03 0. -1.
         22    1    1    0    0    0 -0.12626070760E+02 -0.17935266123E+02 -0.35530658333E+02  0.41755468089E+02  0.00000000000E+00 0. -1.
</event>
<event>
 5    1  0.8957809E-005  0.9118800E+02  0.7818608E-02  0.1130116E+00
         25   -1    0    0    0    0  0.00000000000E+00  0.00000000000E+00  0.99999998245E-14  0.12500000000E+03  0.12500000000E+03 0.  0.
        -11    1    3    3    0    0 -0.40087877543E+02  0.55925636143E+01 -0.35683102156E+02  0.53959229733E+02  0.51100000000E-03 0. -1.
         23    2    1    0    0    0 -0.28922737791E+02 -0.15788045920E+02 -0.72216987126E+01  0.91266632430E+02  0.84803644423E+02 0.  0.
         11    1    3    3    0    0  0.11165139751E+02 -0.21380609534E+02  0.28461403444E+02  0.37307402697E+02  0.51100000000E-03 0.  1.
         22    1    1    0    0    0  0.28922737791E+02  0.15788045920E+02  0.72216987126E+01  0.33733367570E+02  0.00000000000E+00 0. -1.
</event>
<event>
 5    1  0.8957809E-005  0.9118800E+02  0.7818608E-02  0.1130116E+00
         25   -1    0    0    0    0  0.00000000000E+00  0.00000000000E+00  0.99999998245E-14  0.12500000000E+03  0.12500000000E+03 0.  0.
        -11    1    3    3    0    0  0.51326849099E+02  0.32455339294E+02 -0.78324359307E+01  0.61230233872E+02  0.51100000000E-03 0. -1.
         23    2    1    0    0    0  0.21412135538E+02  0.19868126834E+02  0.34423576073E+01  0.95587896401E+02  0.90950393623E+02 0.  0.
         11    1    3    3    0    0 -0.29914713560E+02 -0.12587212460E+02  0.11274793538E+02  0.34357662529E+02  0.51100000000E-03 0.  1.
         22    1    1    0    0    0 -0.21412135538E+02 -0.19868126834E+02 -0.34423576073E+01  0.29412103599E+02  0.00000000000E+00 0. -1.
</event>
<event>
 5    1  0.8957809E-005  0.9118800E+02  0.7818608E-02  0.1130116E+00
         25   -1    0    0    0    0  0.00000000000E+00  0.00000000000E+00  0.99999998245E-14  0.12500000000E+03  0.12500000000E+03 0.  0.
        -11    1    3    3    0    0 -0.22708787055E+01 -0.40125789815E+02 -0.20686039402E+02  0.45201196055E+02  0.51100000000E-03 0.  1.
         23    2    1    0    0    0 -0.25368946699E+02  0.46540469649E+01 -0.12819078296E+02  0.96197701860E+02  0.91784669009E+02 0.  0.
         11    1    3    3    0    0 -0.23098067993E+02  0.44779836780E+02  0.78669611059E+01  0.50996505805E+02  0.51100000000E-03 0. -1.
         22    1    1    0    0    0  0.25368946699E+02 -0.46540469649E+01  0.12819078296E+02  0.28802298140E+02  0.00000000000E+00 0. -1.
</event>
<event>
 5    1  0.8957809E-005  0.9118800E+02  0.7818608E-02  0.1130116E+00
         25   -1    0    0    0    0  0.00000000000E+00  0.00000000000E+00  0.99999998245E-14  0.12500000000E+03  0.12500000000E+03 0.  0.
        -11    1    3    3    0    0 -0.37070238901E+01  0.44599220716E+02  0.28948737626E+02  0.53299736632E+02  0.51100000000E-03 0.  1.
         23    2    1    0    0    0  0.21035928989E+02  0.19077245542E+02  0.49905553218E+01  0.96166733652E+02  0.91742484232E+02 0.  0.
         11    1    3    3    0    0  0.24742952879E+02 -0.25521975174E+02 -0.23958182305E+02  0.42866997020E+02  0.51100000000E-03 0. -1.
         22    1    1    0    0    0 -0.21035928989E+02 -0.19077245542E+02 -0.49905553218E+01  0.28833266348E+02  0.00000000000E+00 0. -1.
</event>
<event>
 5    1  0.8957809E-005  0.9118800E+02  0.7818608E-02  0.1130116E+00
         25   -1    0    0    0    0  0.00000000000E+00  0.00000000000E+00  0.99999998245E-14  0.12500000000E+03  0.12500000000E+03 0.  0.
        -11    1    3    3    0    0  0.33877126815E+02 -0.15160019261E+02 -0.14334601896E+02  0.39786514260E+02  0.51100000000E-03 0.  1.
         23    2    1    0    0    0 -0.20963079211E+02 -0.29415471553E+01 -0.19513709546E+02  0.96209580588E+02  0.91800845024E+02 0.  0.
         11    1    3    3    0    0 -0.54840206026E+02  0.12218472106E+02 -0.51791076499E+01  0.56423066328E+02  0.51100000000E-03 0. -1.
         22    1    1    0    0    0  0.20963079211E+02  0.29415471553E+01  0.19513709546E+02  0.28790419412E+02  0.00000000000E+00 0. -1.
</event>
<event>
 5    1  0.8957809E-005  0.9118800E+02  0.7818608E-02  0.1130116E+00
         25   -1    0    0    0    0  0.00000000000E+00  0.00000000000E+00  0.99999998245E-14  0.12500000000E+03  0.12500000000E+03 0.  0.
        -11    1    3    3    0    0 -0.48529891701E+02  0.99216951716E+01 -0.19212645335E+02  0.53129240204E+02  0.51100000000E-03 0.  1.
         23    2    1    0    0    0 -0.22583401780E+02  0.11104222722E+02  0.14707609876E+02  0.95851628065E+02  0.91312140574E+02 0.  0.
         11    1    3    3    0    0  0.25946489922E+02  0.11825275502E+01  0.33920255211E+02  0.42722387861E+02  0.51100000000E-03 0. -1.
         22    1    1    0    0    0  0.22583401780E+02 -0.11104222722E+02 -0.14707609876E+02  0.29148371935E+02  0.00000000000E+00 0.  1.
</event>
<event>
 5    1  0.8957809E-005  0.9118800E+02  0.7818608E-02  0.1130116E+00
         25   -1    0    0    0    0  0.00000000000E+00  0.00000000000E+00  0.99999998245E-14  0.12500000000E+03  0.12500000000E+03 0.  0.
        -11    1    3    3    0    0 -0.82077203724E+01  0.58468518430E+02  0.66315241578E+01  0.59413057774E+02  0.51100000000E-03 0.  1.
         23    2    1    0    0    0 -0.16964218652E+02  0.24258057443E+02  0.63387303931E+01  0.94727610461E+02  0.89760250753E+02 0.  0.
         11    1    3    3    0    0 -0.87564982800E+01 -0.34210460987E+02 -0.29279376471E+00  0.35314552688E+02  0.51100000000E-03 0. -1.
         22    1    1    0    0    0  0.16964218652E+02 -0.24258057443E+02 -0.63387303931E+01  0.30272389539E+02  0.00000000000E+00 0.  1.
</event>
<event>
 5    1  0.8957809E-005  0.9118800E+02  0.7818608E-02  0.1130116E+00
         25   -1    0    0    0    0  0.00000000000E+00  0.00000000000E+00  0.99999998245E-14  0.12500000000E+03  0.12500000000E+03 0.  0.
        -11    1    3    3    0    0 -0.98723688158E+01  0.81289941313E+01  0.48473234984E+02  0.50131813469E+02  0.51100000000E-03 0.  1.
         23    2    1    0    0    0  0.16644757588E+02  0.20040106776E+02  0.13339645688E+02  0.95732270641E+02  0.91148602075E+02 0.  0.
         11    1    3    3    0    0  0.26517126404E+02  0.11911112644E+02 -0.35133589297E+02  0.45600457172E+02  0.51100000000E-03 0. -1.
         22    1    1    0    0    0 -0.16644757588E+02 -0.20040106776E+02 -0.13339645688E+02  0.29267729359E+02  0.00000000000E+00 0.  1.
</event>
<event>
 5    1  0.8957809E-005  0.9118800E+02  0.7818608E-02  0.1130116E+00
         25   -1    0    0    0    0  0.00000000000E+00  0.00000000000E+00  0.99999998245E-14  0.12500000000E+03  0.12500000000E+03 0.  0.
        -11    1    3    3    0    0 -0.77170531792E+01 -0.49005583376E+02 -0.40140529971E+01  0.49771605695E+02  0.51100000000E-03 0. -1.
         23    2    1    0    0    0  0.20397269373E+02 -0.16173597627E+02  0.12600574045E+02  0.96079275176E+02  0.91623243744E+02 0.  0.
         11    1    3    3    0    0  0.28114322552E+02  0.32831985749E+02  0.16614627042E+02  0.46307669481E+02  0.51100000000E-03 0.  1.
         22    1    1    0    0    0 -0.20397269373E+02  0.16173597627E+02 -0.12600574045E+02  0.28920724824E+02  0.00000000000E+00 0. -1.
</event>
<event>
 5    1  0.8957809E-005  0.9118800E+02  0.7818608E-02  0.1130116E+00
         25   -1    0    0    0    0  0.00000000000E+00  0.00000000000E+00  0.99999998245E-14  0.12500000000E+03  0.12500000000E+03 0.  0.
        -11    1    3    3    0    0  0.18304506954E+02 -0.37663543762E+02  0.42405997208E+02  0.59597534370E+02  0.51100000000E-03 0.  1.
         23    2    1    0    0    0  0.11851366286E+02 -0.34737139681E+02  0.19781816481E+02  0.83305347832E+02  0.72120295050E+02 0.  0.
         11    1    3    3    0    0 -0.64531406685E+01  0.29264040803E+01 -0.22624180727E+02  0.23707813462E+02  0.51100000000E-03 0. -1.
         22    1    1    0    0    0 -0.11851366286E+02  0.34737139681E+02 -0.19781816481E+02  0.41694652168E+02  0.00000000000E+00 0.  1.
</event>
<event>
 5    1  0.8957809E-005  0.9118800E+02  0.7818608E-02  0.1130116E+00
         25   -1    0    0    0    0  0.00000000000E+00  0.00000000000E+00  0.99999998245E-14  0.12500000000E+03  0.12500000000E+03 0.  0.
        -11    1    3    3    0    0  0.60151050962E+01 -0.36275141886E+02  0.11309559602E+02  0.38470424313E+02  0.51100000000E-03 0.  1.
         23    2    1    0    0    0 -0.27654174977E+02  0.82258970608E+01 -0.27510198508E+01  0.96017472741E+02  0.91538888923E+02 0.  0.
         11    1    3    3    0    0 -0.33669280073E+02  0.44501038947E+02 -0.14060579453E+02  0.57547048428E+02  0.51100000000E-03 0. -1.
         22    1    1    0    0    0  0.27654174977E+02 -0.82258970608E+01  0.27510198508E+01  0.28982527259E+02  0.00000000000E+00 0. -1.
</event>
<event>
 5    1  0.8957809E-005  0.9118800E+02  0.7818608E-02  0.1130116E+00
         25   -1    0    0    0    0  0.00000000000E+00  0.00000000000E+00  0.99999998245E-14  0.12500000000E+03  0.12500000000E+03 0.  0.
        -11    1    3    3    0    0 -0.18768074348E+02  0.54654080304E+02  0.13357964094E+02  0.59310575057E+02  0.51100000000E-03 0.  1.
         23    2    1    0    0    0 -0.20833954847E+02  0.17801819560E+02  0.53692250350E+01  0.97075332917E+02  0.92972217513E+02 0.  0.
         11    1    3    3    0    0 -0.20658804995E+01 -0.36852260745E+02 -0.79887390593E+01  0.37764757860E+02  0.51100000000E-03 0. -1.
         22    1    1    0    0    0  0.20833954847E+02 -0.17801819560E+02 -0.53692250350E+01  0.27924667083E+02  0.00000000000E+00 0.  1.
</event>
<event>
 5    1  0.8957809E-005  0.9118800E+02  0.7818608E-02  0.1130116E+00
         25   -1    0    0    0    0  0.00000000000E+00  0.00000000000E+00  0.99999998245E-14  0.12500000000E+03  0.12500000000E+03 0.  0.
        -11    1    3    3    0    0  0.23668996440E+02  0.30147426682E+02 -0.26170120943E+02  0.46410817257E+02  0.51100000000E-03 0.  1.
         23    2    1    0    0    0  0.19423830393E+02 -0.17396414538E+02 -0.59228560371E+01  0.98260503940E+02  0.94552239450E+02 0.  0.
         11    1    3    3    0    0 -0.42451660476E+01 -0.47543841220E+02  0.20247264906E+02  0.51849686683E+02  0.51100000000E-03 0. -1.
         22    1    1    0    0    0 -0.19423830393E+02  0.17396414538E+02  0.59228560371E+01  0.26739496060E+02  0.00000000000E+00 0. -1.
</event>
<event>
 5    1  0.8957809E-005  0.9118800E+02  0.7818608E-02  0.1130116E+00
         25   -1    0    0    0    0  0.00000000000E+00  0.00000000000E+00  0.99999998245E-14  0.12500000000E+03  0.12500000000E+03 0.  0.
        -11    1    3    3    0    0  0.13670519355E+02 -0.34423533207E+02 -0.10569141758E+02  0.38517132495E+02  0.51100000000E-03 0.  1.
         23    2    1    0    0    0 -0.29088578781E+02  0.26827326137E+01 -0.41556308099E+01  0.95493869498E+02  0.90821073405E+02 0.  0.
         11    1    3    3    0    0 -0.42759098136E+02  0.37106265820E+02  0.64135109477E+01  0.56976737003E+02  0.51100000000E-03 0. -1.
         22    1    1    0    0    0  0.29088578781E+02 -0.26827326137E+01  0.41556308099E+01  0.29506130502E+02  0.00000000000E+00 0. -1.
</event>
<event>
 5    1  0.8957809E-005  0.9118800E+02  0.7818608E-02  0.1130116E+00
         25   -1    0    0    0    0  0.00000000000E+00  0.00000000000E+00  0.99999998245E-14  0.12500000000E+03  0.12500000000E+03 0.  0.
        -11    1    3    3    0    0  0.20822689644E+02 -0.14012064861E+02  0.25678476055E+02  0.35906914354E+02  0.51100000000E-03 0. -1.
         23    2    1    0    0    0 -0.99942040239E+01  0.27720712009E+02 -0.33314718996E+01  0.95344971870E+02  0.90615909020E+02 0.  0.
         11    1    3    3    0    0 -0.30816893668E+02  0.41732776870E+02 -0.29009947955E+02  0.59438057516E+02  0.51100000000E-03 0.  1.
         22    1    1    0    0    0  0.99942040239E+01 -0.27720712009E+02  0.33314718996E+01  0.29655028130E+02  0.00000000000E+00 0.  1.
</event>
<event>
 5    1  0.8957809E-005  0.9118800E+02  0.7818608E-02  0.1130116E+00
         25   -1    0    0    0    0  0.00000000000E+00  0.00000000000E+00  0.99999998245E-14  0.12500000000E+03  0.12500000000E+03 0.  0.
        -11    1    3    3    0    0 -0.52992299891E+02 -0.19379671226E+02 -0.11551520426E+02  0.57595079034E+02  0.51100000000E-03 0.  1.
         23    2    1    0    0    0 -0.15917288636E+02 -0.24054097551E+02 -0.24738053841E+01  0.96050398973E+02  0.91583839968E+02 0.  0.
         11    1    3    3    0    0  0.37075011255E+02 -0.46744263256E+01  0.90777150417E+01  0.38455319939E+02  0.51100000000E-03 0. -1.
         22    1    1    0    0    0  0.15917288636E+02  0.24054097551E+02  0.24738053841E+01  0.28949601027E+02  0.00000000000E+00 0.  1.
</event>
<event>
 5    1  0.8957809E-005  0.9118800E+02  0.7818608E-02  0.1130116E+00
         25   -1    0    0    0    0  0.00000000000E+00  0.00000000000E+00  0.99999998245E-14  0.12500000000E+03  0.12500000000E+03 0.  0.
        -11    1    3    3    0    0  0.37610656523E+02  0.12840968571E+02  0.34140630726E+02  0.52393078021E+02  0.51100000000E-03 0. -1.
         23    2    1    0    0    0 -0.18562008493E+01  0.23110335731E+02  0.14469756337E+02  0.97670401619E+02  0.93768866927E+02 0.  0.
         11    1    3    3    0    0 -0.39466857372E+02  0.10269367161E+02 -0.19670874389E+02  0.45277323598E+02  0.51100000000E-03 0.  1.
         22    1    1    0    0    0  0.18562008493E+01 -0.23110335731E+02 -0.14469756337E+02  0.27329598381E+02  0.00000000000E+00 0. -1.
</event>
<event>
 5    1  0.8957809E-005  0.9118800E+02  0.7818608E-02  0.1130116E+00
         25   -1    0    0    0    0  0.00000000000E+00  0.00000000000E+00  0.99999998245E-14  0.12500000000E+03  0.12500000000E+03 0.  0.
        -11    1    3    3    0    0 -0.10464916723E+02  0.56500768517E+02  0.95529939854E+01  0.58250416474E+02  0.51100000000E-03 0.  1.
         23    2    1    0    0    0 -0.20333665120E+02  0.26355240913E+02 -0.10515348576E+01  0.91695910366E+02  0.85434054050E+02 0.  0.
         11    1    3    3    0    0 -0.98687483970E+01 -0.30145527604E+02 -0.10604528843E+02  0.33445493892E+02  0.51100000000E-03 0. -1.
         22    1    1    0    0    0  0.20333665120E+02 -0.26355240913E+02  0.10515348576E+01  0.33304089634E+02  0.00000000000E+00 0. -1.
</event>
<event>
 5    1  0.8957809E-005  0.9118800E+02  0.7818608E-02  0.1130116E+00
         25   -1    0    0    0    0  0.00000000000E+00  0.00000000000E+00  0.99999998245E-14  0.12500000000E+03  0.12500000000E+03 0.  0.
        -11    1    3    3    0    0  0.29833447025E+02  0.18642661277E+02 -0.20139427009E+02  0.40536155483E+02  0.51100000000E-03 0.  1.
         23    2    1    0    0    0 -0.17357972362E+02 -0.15023942276E+02 -0.12066401416E+02  0.99065156851E+02  0.95610089492E+02 0.  0.
         11    1    3    3    0    0 -0.47191419387E+02 -0.33666603553E+02  0.80730255930E+01  0.58529001367E+02  0.51100000000E-03 0. -1.
         22    1    1    0    0    0  0.17357972362E+02  0.15023942276E+02  0.12066401416E+02  0.25934843149E+02  0.00000000000E+00 0. -1.
</event>
<event>
 5    1  0.8957809E-005  0.9118800E+02  0.7818608E-02  0.1130116E+00
         25   -1    0    0    0    0  0.00000000000E+00  0.00000000000E+00  0.99999998245E-14  0.12500000000E+03  0.12500000000E+03 0.  0.
        -11    1    3    3    0    0  0.33173373614E+02  0.21879799695E+02  0.13705834693E+02  0.42036273105E+02  0.51100000000E-03 0.  1.
         23    2    1    0    0    0 -0.90188989040E+01 -0.12317301180E+02  0.23256927744E+02  0.97180202483E+02  0.93113106600E+02 0.  0.
         11    1    3    3    0    0 -0.42192272518E+02 -0.34197100875E+02  0.95510930513E+01  0.55143929378E+02  0.51100000000E-03 0. -1.
         22    1    1    0    0    0  0.90188989040E+01  0.12317301180E+02 -0.23256927744E+02  0.27819797517E+02  0.00000000000E+00 0. -1.
</event>
<event>
 5    1  0.8957809E-005  0.9118800E+02  0.7818608E-02  0.1130116E+00
         25   -1    0    0    0    0  0.00000000000E+00  0.00000000000E+00  0.99999998245E-14  0.12500000000E+03  0.12500000000E+03 0.  0.
        -11    1    3    3    0    0 -0.24077117102E+00 -0.46575944012E+02 -0.19707099585E+02  0.50574166386E+02  0.51100000000E-03 0.  1.
         23    2    1    0    0    0 -0.22365436411E+02 -0.53302614057E+01 -0.14847612128E+02  0.97630746842E+02  0.93715989621E+02 0.  0.
         11    1    3    3    0    0 -0.22124665240E+02  0.41245682606E+02  0.48594874564E+01  0.47056580456E+02  0.51100000000E-03 0. -1.
         22    1    1    0    0    0  0.22365436411E+02  0.53302614057E+01  0.14847612128E+02  0.27369253158E+02  0.00000000000E+00 0. -1.
</event>
<event>
 5    1  0.8957809E-005  0.9118800E+02  0.7818608E-02  0.1130116E+00
         25   -1    0    0    0    0  0.00000000000E+00  0.00000000000E+00  0.99999998245E-14  0.12500000000E+03  0.12500000000E+03 0.  0.
        -11    1    3    3    0    0  0.54882471581E+02  0.13480830021E+02  0.21002014369E+02  0.60290157346E+02  0.51100000000E-03 0. -1.
         23    2    1    0    0    0  0.29656490782E+02 -0.47630950600E+01  0.11460004510E+02  0.92851497337E+02  0.87108405647E+02 0.  0.
         11    1    3    3    0    0 -0.25225980799E+02 -0.18243925081E+02 -0.95420098590E+01  0.32561339992E+02  0.51100000000E-03 0.  1.
         22    1    1    0    0    0 -0.29656490782E+02  0.47630950600E+01 -0.11460004510E+02  0.32148502663E+02  0.00000000000E+00 0. -1.
</event>
<event>
 5    1  0.8957809E-005  0.9118800E+02  0.7818608E-02  0.1130116E+00
         25   -1    0    0    0    0  0.00000000000E+00  0.00000000000E+00  0.99999998245E-14  0.12500000000E+03  0.12500000000E+03 0.  0.
        -11    1    3    3    0    0  0.13343880647E+02  0.25914892388E+02 -0.14858018801E+02  0.32716991322E+02  0.51100000000E-03 0. -1.
         23    2    1    0    0    0 -0.91496674253E+01 -0.18530222007E+02  0.22099898134E+02  0.94742917537E+02  0.89781564836E+02 0.  0.
         11    1    3    3    0    0 -0.22493548072E+02 -0.44445114395E+02  0.36957916935E+02  0.62025926215E+02  0.51100000000E-03 0.  1.
         22    1    1    0    0    0  0.91496674253E+01  0.18530222007E+02 -0.22099898134E+02  0.30257082463E+02  0.00000000000E+00 0.  1.
</event>
<event>
 5    1  0.8957809E-005  0.9118800E+02  0.7818608E-02  0.1130116E+00
         25   -1    0    0    0    0  0.00000000000E+00  0.00000000000E+00  0.99999998245E-14  0.12500000000E+03  0.12500000000E+03 0.  0.
        -11    1    3    3    0    0  0.38975410724E+02 -0.29524606476E+02 -0.14423258617E+02  0.50978578031E+02  0.51100000000E-03 0. -1.
         23    2    1    0    0    0  0.50582112389E+01 -0.24678646843E+02  0.14602197017E+02  0.95882217312E+02  0.91354005539E+02 0.  0.
         11    1    3    3    0    0 -0.33917199485E+02  0.48459596329E+01  0.29025455634E+02  0.44903639281E+02  0.51100000000E-03 0.  1.
         22    1    1    0    0    0 -0.50582112389E+01  0.24678646843E+02 -0.14602197017E+02  0.29117782688E+02  0.00000000000E+00 0. -1.
</event>
<event>
 5    1  0.8957809E-005  0.9118800E+02  0.7818608E-02  0.1130116E+00
         25   -1    0    0    0    0  0.00000000000E+00  0.00000000000E+00  0.99999998245E-14  0.12500000000E+03  0.12500000000E+03 0.  0.
        -11    1    3    3    0    0  0.12551875123E+02 -0.54284268690E+02  0.25377205542E+02  0.61223638880E+02  0.51100000000E-03 0.  1.
         23    2    1    0    0    0  0.13044382605E+02 -0.28364922178E+02  0.69897786715E+01  0.93006536080E+02  0.87330601853E+02 0.  0.
         11    1    3    3    0    0  0.49250748185E+00  0.25919346512E+02 -0.18387426871E+02  0.31782897200E+02  0.51100000000E-03 0. -1.
         22    1    1    0    0    0 -0.13044382605E+02  0.28364922178E+02 -0.69897786715E+01  0.31993463920E+02  0.00000000000E+00 0.  1.
</event>
<event>
 5    1  0.8957809E-005  0.9118800E+02  0.7818608E-02  0.1130116E+00
         25   -1    0    0    0    0  0.00000000000E+00  0.00000000000E+00  0.99999998245E-14  0.12500000000E+03  0.12500000000E+03 0.  0.
        -11    1    3    3    0    0  0.12037134985E+02 -0.48626260804E+02 -0.18899902334E+02  0.53540752394E+02  0.51100000000E-03 0.  1.
         23    2    1    0    0    0 -0.41695818676E+01 -0.42481219195E+02  0.38503602460E+01  0.82141340767E+02  0.70073783912E+02 0.  0.
         11    1    3    3    0    0 -0.16206716853E+02  0.61450416097E+01  0.22750262580E+02  0.28600588373E+02  0.51100000000E-03 0. -1.
         22    1    1    0    0    0  0.41695818676E+01  0.42481219195E+02 -0.38503602460E+01  0.42858659233E+02  0.00000000000E+00 0.  1.
</event>
<event>
 5    1  0.8957809E-005  0.9118800E+02  0.7818608E-02  0.1130116E+00
         25   -1    0    0    0    0  0.00000000000E+00  0.00000000000E+00  0.99999998245E-14  0.12500000000E+03  0.12500000000E+03 0.  0.
        -11    1    3    3    0    0  0.28273933115E+01 -0.40672941575E+02  0.11445575916E+02  0.42347178626E+02  0.51100000000E-03 0.  1.
         23    2    1    0    0    0  0.41384117805E+01 -0.32621049977E+01 -0.27871590593E+02  0.96634645370E+02  0.92377818455E+02 0.  0.
         11    1    3    3    0    0  0.13110184690E+01  0.37410836578E+02 -0.39317166509E+02  0.54287466744E+02  0.51100000000E-03 0. -1.
         22    1    1    0    0    0 -0.41384117805E+01  0.32621049977E+01  0.27871590593E+02  0.28365354630E+02  0.00000000000E+00 0. -1.
</event>
<event>
 5    1  0.8957809E-005  0.9118800E+02  0.7818608E-02  0.1130116E+00
         25   -1    0    0    0    0  0.00000000000E+00  0.00000000000E+00  0.99999998245E-14  0.12500000000E+03  0.12500000000E+03 0.  0.
        -11    1    3    3    0    0 -0.58015188764E+02 -0.21444446106E+02  0.70190089376E+01  0.62248637598E+02  0.51100000000E-03 0.  1.
         23    2    1    0    0    0 -0.24766806028E+02 -0.13240468489E+02  0.41000965096E+01  0.96618395429E+02  0.92355827413E+02 0.  0.
         11    1    3    3    0    0  0.33248382736E+02  0.82039776171E+01 -0.29189124280E+01  0.34369757830E+02  0.51100000000E-03 0. -1.
         22    1    1    0    0    0  0.24766806028E+02  0.13240468489E+02 -0.41000965096E+01  0.28381604571E+02  0.00000000000E+00 0.  1.
</event>
<event>
 5    1  0.8957809E-005  0.9118800E+02  0.7818608E-02  0.1130116E+00
         25   -1    0    0    0    0  0.00000000000E+00  0.00000000000E+00  0.99999998245E-14  0.12500000000E+03  0.12500000000E+03 0.  0.
        -11    1    3    3    0    0 -0.14747030429E+01 -0.48573130999E+02 -0.24090605574E+02  0.54239110255E+02  0.51100000000E-03 0. -1.
         23    2    1    0    0    0 -0.81245886411E+01 -0.86004828344E+01 -0.27657893177E+02  0.94917840826E+02  0.90024775515E+02 0.  0.
         11    1    3    3    0    0 -0.66498855982E+01  0.39972648164E+02 -0.35672876030E+01  0.40678730571E+02  0.51100000000E-03 0.  1.
         22    1    1    0    0    0  0.81245886411E+01  0.86004828344E+01  0.27657893177E+02  0.30082159174E+02  0.00000000000E+00 0. -1.
</event>
<event>
 5    1  0.8957809E-005  0.9118800E+02  0.7818608E-02  0.1130116E+00
         25   -1    0    0    0    0  0.00000000000E+00  0.00000000000E+00  0.99999998245E-14  0.12500000000E+03  0.12500000000E+03 0.  0.
        -11    1    3    3    0    0 -0.14456270534E+02 -0.20967182908E+02  0.36556001129E+02  0.44552752279E+02  0.51100000000E-03 0. -1.
         23    2    1    0    0    0 -0.14918307496E+02 -0.19463043275E+02 -0.15079258809E+02  0.96211981689E+02  0.91804114408E+02 0.  0.
         11    1    3    3    0    0 -0.46203696157E+00  0.15041396327E+01 -0.51635259937E+02  0.51659229410E+02  0.51100000000E-03 0.  1.
         22    1    1    0    0    0  0.14918307496E+02  0.19463043275E+02  0.15079258809E+02  0.28788018311E+02  0.00000000000E+00 0. -1.
</event>
<event>
 5    1  0.8957809E-005  0.9118800E+02  0.7818608E-02  0.1130116E+00
         25   -1    0    0    0    0  0.00000000000E+00  0.00000000000E+00  0.99999998245E-14  0.12500000000E+03  0.12500000000E+03 0.  0.
        -11    1    3    3    0    0  0.62996787464E+01 -0.21202199193E+02 -0.34363523400E+02  0.40866501485E+02  0.51100000000E-03 0. -1.
         23    2    1    0    0    0 -0.26178547005E+02  0.12024320531E+02 -0.51931459436E+01  0.95727668827E+02  0.91142290989E+02 0.  0.
         11    1    3    3    0    0 -0.32478225751E+02  0.33226519724E+02  0.29170377456E+02  0.54861167342E+02  0.51100000000E-03 0.  1.
         22    1    1    0    0    0  0.26178547005E+02 -0.12024320531E+02  0.51931459436E+01  0.29272331173E+02  0.00000000000E+00 0.  1.
</event>
<event>
 5    1  0.8957809E-005  0.9118800E+02  0.7818608E-02  0.1130116E+00
         25   -1    0    0    0    0  0.00000000000E+00  0.00000000000E+00  0.99999998245E-14  0.12500000000E+03  0.12500000000E+03 0.  0.
        -11    1    3    3    0    0  0.26214883163E+02  0.23665437393E+02  0.20798568853E+02  0.40986015821E+02  0.51100000000E-03 0. -1.
         23    2    1    0    0    0  0.56447388823E+01  0.13514501287E+02 -0.27157048846E+02  0.94145338697E+02  0.88945683843E+02 0.  0.
         11    1    3    3    0    0 -0.20570144281E+02 -0.10150936106E+02 -0.47955617699E+02  0.53159322877E+02  0.51100000000E-03 0.  1.
         22    1    1    0    0    0 -0.56447388823E+01 -0.13514501287E+02  0.27157048846E+02  0.30854661303E+02  0.00000000000E+00 0.  1.
</event>
<event>
 5    1  0.8957809E-005  0.9118800E+02  0.7818608E-02  0.1130116E+00
         25   -1    0    0    0    0  0.00000000000E+00  0.00000000000E+00  0.99999998245E-14  0.12500000000E+03  0.12500000000E+03 0.  0.
        -11    1    3    3    0    0  0.25414193338E+01  0.85593825020E+00 -0.37014627341E+02  0.37111643455E+02  0.51100000000E-03 0.  1.
         23    2    1    0    0    0  0.11575782871E+02  0.18752057728E+02  0.18558000128E+02  0.96189623625E+02  0.91773666737E+02 0.  0.
         11    1    3    3    0    0  0.90343635375E+01  0.17896119477E+02  0.55572627469E+02  0.59077980170E+02  0.51100000000E-03 0. -1.
         22    1    1    0    0    0 -0.11575782871E+02 -0.18752057728E+02 -0.18558000128E+02  0.28810376375E+02  0.00000000000E+00 0. -1.
</event>
<event>
 5    1  0.8957809E-005  0.9118800E+02  0.7818608E-02  0.1130116E+00
         25   -1    0    0    0    0  0.00000000000E+00  0.00000000000E+00  0.99999998245E-14  0.12500000000E+03  0.12500000000E+03 0.  0.
        -11    1    3    3    0    0  0.20076755137E+02 -0.30277540172E+02  0.43538979984E+02  0.56704923190E+02  0.51100000000E-03 0.  1.
         23    2    1    0    0    0 -0.65975862320E+01 -0.73351633258E+01  0.28268583253E+02  0.95059299203E+02  0.90220977609E+02 0.  0.
         11    1    3    3    0    0 -0.26674341369E+02  0.22942376846E+02 -0.15270396731E+02  0.38354376013E+02  0.51100000000E-03 0. -1.
         22    1    1    0    0    0  0.65975862320E+01  0.73351633258E+01 -0.28268583253E+02  0.29940700797E+02  0.00000000000E+00 0.  1.
</event>
<event>
 5    1  0.8957809E-005  0.9118800E+02  0.7818608E-02  0.1130116E+00
         25   -1    0    0    0    0  0.00000000000E+00  0.00000000000E+00  0.99999998245E-14  0.12500000000E+03  0.12500000000E+03 0.  0.
        -11    1    3    3    0    0 -0.14715585013E+02  0.15915046391E+02  0.24103304977E+02  0.32416144974E+02  0.51100000000E-03 0. -1.
         23    2    1    0    0    0  0.16153465080E+02 -0.24391026983E+01 -0.26139942333E+02  0.94175006225E+02  0.88987367397E+02 0.  0.
         11    1    3    3    0    0  0.30869050094E+02 -0.18354149090E+02 -0.50243247310E+02  0.61758861251E+02  0.51100000000E-03 0.  1.
         22    1    1    0    0    0 -0.16153465080E+02  0.24391026983E+01  0.26139942333E+02  0.30824993775E+02  0.00000000000E+00 0.  1.
</event>
<event>
 5    1  0.8957809E-005  0.9118800E+02  0.7818608E-02  0.1130116E+00
         25   -1    0    0    0    0  0.00000000000E+00  0.00000000000E+00  0.99999998245E-14  0.12500000000E+03  0.12500000000E+03 0.  0.
        -11    1    3    3    0    0 -0.31406328833E+02  0.67252350121E+01 -0.50940432804E+02  0.60220544429E+02  0.51100000000E-03 0. -1.
         23    2    1    0    0    0 -0.16505698490E+02 -0.78668547705E+01 -0.30602976145E+02  0.89350769496E+02  0.81931022048E+02 0.  0.
         11    1    3    3    0    0  0.14900630342E+02 -0.14592089783E+02  0.20337456659E+02  0.29130225067E+02  0.51100000000E-03 0.  1.
         22    1    1    0    0    0  0.16505698490E+02  0.78668547705E+01  0.30602976145E+02  0.35649230504E+02  0.00000000000E+00 0. -1.
</event>
<event>
 5    1  0.8957809E-005  0.9118800E+02  0.7818608E-02  0.1130116E+00
         25   -1    0    0    0    0  0.00000000000E+00  0.00000000000E+00  0.99999998245E-14  0.12500000000E+03  0.12500000000E+03 0.  0.
        -11    1    3    3    0    0  0.17245410570E+02 -0.16878638406E+02 -0.43853552899E+02  0.50054237805E+02  0.51100000000E-03 0.  1.
         23    2    1    0    0    0  0.33177377813E+02 -0.54998550069E+00 -0.11018847403E+02  0.90036363452E+02  0.82970421614E+02 0.  0.
         11    1    3    3    0    0  0.15931967243E+02  0.16328652905E+02  0.32834705496E+02  0.39982125646E+02  0.51100000000E-03 0. -1.
         22    1    1    0    0    0 -0.33177377813E+02  0.54998550069E+00  0.11018847403E+02  0.34963636548E+02  0.00000000000E+00 0. -1.
</event>
<event>
 5    1  0.8957809E-005  0.9118800E+02  0.7818608E-02  0.1130116E+00
         25   -1    0    0    0    0  0.00000000000E+00  0.00000000000E+00  0.99999998245E-14  0.12500000000E+03  0.12500000000E+03 0.  0.
        -11    1    3    3    0    0  0.34167204015E+01 -0.23182717420E+02  0.38511441292E+02  0.45080411222E+02  0.51100000000E-03 0.  1.
         23    2    1    0    0    0  0.18230420110E+02  0.17747421213E+02  0.21042103154E+02  0.91983499849E+02  0.85853799929E+02 0.  0.
         11    1    3    3    0    0  0.14813699708E+02  0.40930138633E+02 -0.17469338138E+02  0.46903088627E+02  0.51100000000E-03 0. -1.
         22    1    1    0    0    0 -0.18230420110E+02 -0.17747421213E+02 -0.21042103154E+02  0.33016500151E+02  0.00000000000E+00 0.  1.
</event>
<event>
 5    1  0.8957809E-005  0.9118800E+02  0.7818608E-02  0.1130116E+00
         25   -1    0    0    0    0  0.00000000000E+00  0.00000000000E+00  0.99999998245E-14  0.12500000000E+03  0.12500000000E+03 0.  0.
        -11    1    3    3    0    0 -0.12285427182E+02  0.31729988925E+02 -0.30232504502E+02  0.45516241574E+02  0.51100000000E-03 0. -1.
         23    2    1    0    0    0 -0.11465881964E+02  0.31015840442E+02  0.13515110431E+02  0.89277359875E+02  0.81818946271E+02 0.  0.
         11    1    3    3    0    0  0.81954521830E+00 -0.71414848372E+00  0.43747614933E+02  0.43761118302E+02  0.51100000000E-03 0.  1.
         22    1    1    0    0    0  0.11465881964E+02 -0.31015840442E+02 -0.13515110431E+02  0.35722640125E+02  0.00000000000E+00 0. -1.
</event>
<event>
 5    1  0.8957809E-005  0.9118800E+02  0.7818608E-02  0.1130116E+00
         25   -1    0    0    0    0  0.00000000000E+00  0.00000000000E+00  0.99999998245E-14  0.12500000000E+03  0.12500000000E+03 0.  0.
        -11    1    3    3    0    0 -0.60177197064E+01 -0.48883467115E+02  0.33839920000E+02  0.59757396977E+02  0.51100000000E-03 0.  1.
         23    2    1    0    0    0 -0.89400522555E+01 -0.14880822417E+02  0.24193837225E+02  0.95222404903E+02  0.90446676145E+02 0.  0.
         11    1    3    3    0    0 -0.29223325490E+01  0.34002644698E+02 -0.96460827755E+01  0.35465007926E+02  0.51100000000E-03 0. -1.
         22    1    1    0    0    0  0.89400522555E+01  0.14880822417E+02 -0.24193837225E+02  0.29777595097E+02  0.00000000000E+00 0.  1.
</event>
<event>
 5    1  0.8957809E-005  0.9118800E+02  0.7818608E-02  0.1130116E+00
         25   -1    0    0    0    0  0.00000000000E+00  0.00000000000E+00  0.99999998245E-14  0.12500000000E+03  0.12500000000E+03 0.  0.
        -11    1    3    3    0    0 -0.14429639085E+02  0.16997895221E+02  0.36589590930E+02  0.42847883153E+02  0.51100000000E-03 0. -1.
         23    2    1    0    0    0  0.51939511894E+01  0.35639142176E+02 -0.76342257701E+00  0.88976280064E+02  0.81357667223E+02 0.  0.
         11    1    3    3    0    0  0.19623590274E+02  0.18641246955E+02 -0.37353013507E+02  0.46128396911E+02  0.51100000000E-03 0.  1.
         22    1    1    0    0    0 -0.51939511894E+01 -0.35639142176E+02  0.76342257701E+00  0.36023719936E+02  0.00000000000E+00 0. -1.
</event>
<event>
 5    1  0.8957809E-005  0.9118800E+02  0.7818608E-02  0.1130116E+00
         25   -1    0    0    0    0  0.00000000000E+00  0.00000000000E+00  0.99999998245E-14  0.12500000000E+03  0.12500000000E+03 0.  0.
        -11    1    3    3    0    0  0.11918689312E+02 -0.26727314000E+02 -0.91161793008E+01  0.30651414224E+02  0.51100000000E-03 0.  1.
         23    2    1    0    0    0  0.29319047940E+02 -0.11574376527E+01 -0.40679676758E+02  0.74842424947E+02  0.55548233427E+02 0.  0.
         11    1    3    3    0    0  0.17400358628E+02  0.25569876348E+02 -0.31563497457E+02  0.44191010724E+02  0.51100000000E-03 0. -1.
         22    1    1    0    0    0 -0.29319047940E+02  0.11574376527E+01  0.40679676758E+02  0.50157575053E+02  0.00000000000E+00 0. -1.
</event>
<event>
 5    1  0.8957809E-005  0.9118800E+02  0.7818608E-02  0.1130116E+00
         25   -1    0    0    0    0  0.00000000000E+00  0.00000000000E+00  0.99999998245E-14  0.12500000000E+03  0.12500000000E+03 0.  0.
        -11    1    3    3    0    0  0.15616403931E+00 -0.44370537448E+02 -0.21391901897E+02  0.49258323639E+02  0.51100000000E-03 0.  1.
         23    2    1    0    0    0  0.26657550081E+02 -0.13282484265E+02 -0.33965652127E+00  0.95214689340E+02  0.90436012379E+02 0.  0.
         11    1    3    3    0    0  0.26501386042E+02  0.31088053183E+02  0.21052245375E+02  0.45956365701E+02  0.51100000000E-03 0. -1.
         22    1    1    0    0    0 -0.26657550081E+02  0.13282484265E+02  0.33965652127E+00  0.29785310660E+02  0.00000000000E+00 0.  1.
</event>
<event>
 5    1  0.8957809E-005  0.9118800E+02  0.7818608E-02  0.1130116E+00
         25   -1    0    0    0    0  0.00000000000E+00  0.00000000000E+00  0.99999998245E-14  0.12500000000E+03  0.12500000000E+03 0.  0.
        -11    1    3    3    0    0 -0.10041981370E+02 -0.67086137214E+01  0.38111244312E+02  0.39978917334E+02  0.51100000000E-03 0.  1.
         23    2    1    0    0    0 -0.21285702911E+02 -0.16338437853E+02 -0.14406953361E+02  0.94543703359E+02  0.89503775562E+02 0.  0.
         11    1    3    3    0    0 -0.11243721541E+02 -0.96298241320E+01 -0.52518197673E+02  0.54564786026E+02  0.51100000000E-03 0. -1.
         22    1    1    0    0    0  0.21285702911E+02  0.16338437853E+02  0.14406953361E+02  0.30456296641E+02  0.00000000000E+00 0. -1.
</event>
<event>
 5    1  0.8957809E-005  0.9118800E+02  0.7818608E-02  0.1130116E+00
         25   -1    0    0    0    0  0.00000000000E+00  0.00000000000E+00  0.99999998245E-14  0.12500000000E+03  0.12500000000E+03 0.  0.
        -11    1    3    3    0    0 -0.25333354841E+02 -0.37511426276E+02  0.17730445467E+02  0.48613317779E+02  0.51100000000E-03 0.  1.
         23    2    1    0    0    0  0.92243714971E+01 -0.66701509284E+01  0.26863819034E+02  0.95823901632E+02  0.91274177114E+02 0.  0.
         11    1    3    3    0    0  0.34557726338E+02  0.30841275348E+02  0.91333735664E+01  0.47210583852E+02  0.51100000000E-03 0. -1.
         22    1    1    0    0    0 -0.92243714971E+01  0.66701509284E+01 -0.26863819034E+02  0.29176098368E+02  0.00000000000E+00 0. -1.
</event>
<event>
 5    1  0.8957809E-005  0.9118800E+02  0.7818608E-02  0.1130116E+00
         25   -1    0    0    0    0  0.00000000000E+00  0.00000000000E+00  0.99999998245E-14  0.12500000000E+03  0.12500000000E+03 0.  0.
        -11    1    3    3    0    0  0.24802896680E+01 -0.24475554136E+02 -0.28471329172E+02  0.37627399221E+02  0.51100000000E-03 0.  1.
         23    2    1    0    0    0 -0.15258890017E+02  0.25180746242E+02 -0.59692025972E+01  0.94957778286E+02  0.90080211875E+02 0.  0.
         11    1    3    3    0    0 -0.17739179685E+02  0.49656300378E+02  0.22502126574E+02  0.57330379065E+02  0.51100000000E-03 0. -1.
         22    1    1    0    0    0  0.15258890017E+02 -0.25180746242E+02  0.59692025972E+01  0.30042221714E+02  0.00000000000E+00 0. -1.
</event>
<event>
 5    1  0.8957809E-005  0.9118800E+02  0.7818608E-02  0.1130116E+00
         25   -1    0    0    0    0  0.00000000000E+00  0.00000000000E+00  0.99999998245E-14  0.12500000000E+03  0.12500000000E+03 0.  0.
        -11    1    3    3    0    0 -0.19372036072E+02 -0.48018858055E+02  0.21837915832E+02  0.56195916921E+02  0.51100000000E-03 0. -1.
         23    2    1    0    0    0 -0.19247608412E+02 -0.92160745476E+01  0.21076318112E+02  0.95006373264E+02  0.90147619580E+02 0.  0.
         11    1    3    3    0    0  0.12442766016E+00  0.38802783508E+02 -0.76159772012E+00  0.38810456343E+02  0.51100000000E-03 0.  1.
         22    1    1    0    0    0  0.19247608412E+02  0.92160745476E+01 -0.21076318112E+02  0.29993626736E+02  0.00000000000E+00 0. -1.
</event>
<event>
 5    1  0.8957809E-005  0.9118800E+02  0.7818608E-02  0.1130116E+00
         25   -1    0    0    0    0  0.00000000000E+00  0.00000000000E+00  0.99999998245E-14  0.12500000000E+03  0.12500000000E+03 0.  0.
        -11    1    3    3    0    0  0.25620919024E+02  0.32166435787E+02  0.15616272515E+02  0.43988396770E+02  0.51100000000E-03 0.  1.
         23    2    1    0    0    0 -0.10313283079E+01  0.32774619549E+02  0.35067928796E+02  0.76989595349E+02  0.60186367537E+02 0.  0.
         11    1    3    3    0    0 -0.26652247332E+02  0.60818376210E+00  0.19451656280E+02  0.33001198579E+02  0.51100000000E-03 0. -1.
         22    1    1    0    0    0  0.10313283079E+01 -0.32774619549E+02 -0.35067928796E+02  0.48010404651E+02  0.00000000000E+00 0.  1.
</event>
<event>
 5    1  0.8957809E-005  0.9118800E+02  0.7818608E-02  0.1130116E+00
         25   -1    0    0    0    0  0.00000000000E+00  0.00000000000E+00  0.99999998245E-14  0.12500000000E+03  0.12500000000E+03 0.  0.
        -11    1    3    3    0    0 -0.67096063149E+01  0.52924136333E+02  0.21797007759E+02  0.57628921307E+02  0.51100000000E-03 0. -1.
         23    2    1    0    0    0 -0.31879944012E+01  0.12845150799E+02  0.23643104526E+02  0.97904657246E+02  0.94080626653E+02 0.  0.
         11    1    3    3    0    0  0.35216119137E+01 -0.40078985533E+02  0.18460967662E+01  0.40275735939E+02  0.51100000000E-03 0.  1.
         22    1    1    0    0    0  0.31879944012E+01 -0.12845150799E+02 -0.23643104526E+02  0.27095342754E+02  0.00000000000E+00 0. -1.
</event>
<event>
 5    1  0.8957809E-005  0.9118800E+02  0.7818608E-02  0.1130116E+00
         25   -1    0    0    0    0  0.00000000000E+00  0.00000000000E+00  0.99999998245E-14  0.12500000000E+03  0.12500000000E+03 0.  0.
        -11    1    3    3    0    0 -0.87393492215E+01 -0.44420126530E+02  0.23335635301E+02  0.50932069867E+02  0.51100000000E-03 0.  1.
         23    2    1    0    0    0 -0.13596247694E+02 -0.68133371816E+00  0.26660371441E+02  0.95065111119E+02  0.90229029584E+02 0.  0.
         11    1    3    3    0    0 -0.48568984722E+01  0.43738792812E+02  0.33247361394E+01  0.44133041251E+02  0.51100000000E-03 0. -1.
         22    1    1    0    0    0  0.13596247694E+02  0.68133371816E+00 -0.26660371441E+02  0.29934888881E+02  0.00000000000E+00 0. -1.
</event>
<event>
 5    1  0.8957809E-005  0.9118800E+02  0.7818608E-02  0.1130116E+00
         25   -1    0    0    0    0  0.00000000000E+00  0.00000000000E+00  0.99999998245E-14  0.12500000000E+03  0.12500000000E+03 0.  0.
        -11    1    3    3    0    0 -0.57854308568E+01 -0.41419558409E+02 -0.10615729901E+02  0.43147940282E+02  0.51100000000E-03 0.  1.
         23    2    1    0    0    0 -0.22958659291E+02  0.83115150777E+01 -0.15645643630E+02  0.96000560628E+02  0.91515791845E+02 0.  0.
         11    1    3    3    0    0 -0.17173228434E+02  0.49731073487E+02 -0.50299137290E+01  0.52852620346E+02  0.51100000000E-03 0. -1.
         22    1    1    0    0    0  0.22958659291E+02 -0.83115150777E+01  0.15645643630E+02  0.28999439372E+02  0.00000000000E+00 0. -1.
</event>
<event>
 5    1  0.8957809E-005  0.9118800E+02  0.7818608E-02  0.1130116E+00
         25   -1    0    0    0    0  0.00000000000E+00  0.00000000000E+00  0.99999998245E-14  0.12500000000E+03  0.12500000000E+03 0.  0.
        -11    1    3    3    0    0 -0.33474947261E+02 -0.95192345993E+01  0.13756541716E+02  0.37422324377E+02  0.51100000000E-03 0. -1.
         23    2    1    0    0    0  0.21510188755E+02 -0.19359742259E+02 -0.34124668265E+01  0.95860117185E+02  0.91323760853E+02 0.  0.
         11    1    3    3    0    0  0.54985136016E+02 -0.98405076601E+01 -0.17169008543E+02  0.58437792808E+02  0.51100000000E-03 0.  1.
         22    1    1    0    0    0 -0.21510188755E+02  0.19359742259E+02  0.34124668265E+01  0.29139882815E+02  0.00000000000E+00 0.  1.
</event>
<event>
 5    1  0.8957809E-005  0.9118800E+02  0.7818608E-02  0.1130116E+00
         25   -1    0    0    0    0  0.00000000000E+00  0.00000000000E+00  0.99999998245E-14  0.12500000000E+03  0.12500000000E+03 0.  0.
        -11    1    3    3    0    0 -0.44416197092E+02 -0.27572853901E+01 -0.12282300919E+02  0.46165529381E+02  0.51100000000E-03 0. -1.
         23    2    1    0    0    0 -0.94314162743E+01 -0.31301250439E+02 -0.62140626812E+01  0.91723364548E+02  0.85474213287E+02 0.  0.
         11    1    3    3    0    0  0.34984780818E+02 -0.28543965049E+02  0.60682382379E+01  0.45557835168E+02  0.51100000000E-03 0.  1.
         22    1    1    0    0    0  0.94314162743E+01  0.31301250439E+02  0.62140626812E+01  0.33276635452E+02  0.00000000000E+00 0.  1.
</event>
<event>
 5    1  0.8957809E-005  0.9118800E+02  0.7818608E-02  0.1130116E+00
         25   -1    0    0    0    0  0.00000000000E+00  0.00000000000E+00  0.99999998245E-14  0.12500000000E+03  0.12500000000E+03 0.  0.
        -11    1    3    3    0    0  0.65053556220E+01  0.61066439425E+00 -0.53992904922E+02  0.54386821427E+02  0.51100000000E-03 0. -1.
         23    2    1    0    0    0 -0.16632703424E+02  0.10943307960E+02 -0.20066660788E+02  0.96732108542E+02  0.92509605639E+02 0.  0.
         11    1    3    3    0    0 -0.23138059046E+02  0.10332643566E+02  0.33926244134E+02  0.42345287114E+02  0.51100000000E-03 0.  1.
         22    1    1    0    0    0  0.16632703424E+02 -0.10943307960E+02  0.20066660788E+02  0.28267891458E+02  0.00000000000E+00 0. -1.
</event>
<event>
 5    1  0.8957809E-005  0.9118800E+02  0.7818608E-02  0.1130116E+00
         25   -1    0    0    0    0  0.00000000000E+00  0.00000000000E+00  0.99999998245E-14  0.12500000000E+03  0.12500000000E+03 0.  0.
        -11    1    3    3    0    0  0.16713828760E+02 -0.14040677188E+01  0.93074355089E+01  0.19182070639E+02  0.51100000000E-03 0. -1.
         23    2    1    0    0    0 -0.28968016244E+02  0.10474402374E+02 -0.31034236609E+02  0.81273773178E+02  0.68508709625E+02 0.  0.
         11    1    3    3    0    0 -0.45681845003E+02  0.11878470093E+02 -0.40341672118E+02  0.62091702539E+02  0.51100000000E-03 0.  1.
         22    1    1    0    0    0  0.28968016244E+02 -0.10474402374E+02  0.31034236609E+02  0.43726226822E+02  0.00000000000E+00 0.  1.
</event>
<event>
 5    1  0.8957809E-005  0.9118800E+02  0.7818608E-02  0.1130116E+00
         25   -1    0    0    0    0  0.00000000000E+00  0.00000000000E+00  0.99999998245E-14  0.12500000000E+03  0.12500000000E+03 0.  0.
        -11    1    3    3    0    0  0.34128077509E+02 -0.86491552980E+01 -0.12377064258E+02  0.37319234743E+02  0.51100000000E-03 0. -1.
         23    2    1    0    0    0 -0.10978889100E+02 -0.87250820978E+01  0.25287854655E+02  0.96083937742E+02  0.91629604579E+02 0.  0.
         11    1    3    3    0    0 -0.45106966609E+02 -0.75926799747E-01  0.37664918913E+02  0.58764702999E+02  0.51100000000E-03 0.  1.
         22    1    1    0    0    0  0.10978889100E+02  0.87250820978E+01 -0.25287854655E+02  0.28916062258E+02  0.00000000000E+00 0.  1.
</event>
<event>
 5    1  0.8957809E-005  0.9118800E+02  0.7818608E-02  0.1130116E+00
         25   -1    0    0    0    0  0.00000000000E+00  0.00000000000E+00  0.99999998245E-14  0.12500000000E+03  0.12500000000E+03 0.  0.
        -11    1    3    3    0    0 -0.44014745725E+02 -0.29843044849E+02 -0.23748422174E+02  0.58239958131E+02  0.51100000000E-03 0.  1.
         23    2    1    0    0    0 -0.26237232909E+02  0.57426494087E+00 -0.45425242891E+01  0.98366248896E+02  0.94691933258E+02 0.  0.
         11    1    3    3    0    0  0.17777512816E+02  0.30417309789E+02  0.19205897885E+02  0.40126290765E+02  0.51100000000E-03 0. -1.
         22    1    1    0    0    0  0.26237232909E+02 -0.57426494087E+00  0.45425242891E+01  0.26633751104E+02  0.00000000000E+00 0. -1.
</event>
<event>
 5    1  0.8957809E-005  0.9118800E+02  0.7818608E-02  0.1130116E+00
         25   -1    0    0    0    0  0.00000000000E+00  0.00000000000E+00  0.99999998245E-14  0.12500000000E+03  0.12500000000E+03 0.  0.
        -11    1    3    3    0    0  0.22492839144E+02 -0.24822154500E+02 -0.62210064705E+01  0.34070046794E+02  0.51100000000E-03 0. -1.
         23    2    1    0    0    0 -0.16781348798E+02  0.21910327180E+02 -0.10975809172E+02  0.95299082647E+02  0.90552585064E+02 0.  0.
         11    1    3    3    0    0 -0.39274187942E+02  0.46732481680E+02 -0.47548027013E+01  0.61229035853E+02  0.51100000000E-03 0.  1.
         22    1    1    0    0    0  0.16781348798E+02 -0.21910327180E+02  0.10975809172E+02  0.29700917353E+02  0.00000000000E+00 0.  1.
</event>
<event>
 5    1  0.8957809E-005  0.9118800E+02  0.7818608E-02  0.1130116E+00
         25   -1    0    0    0    0  0.00000000000E+00  0.00000000000E+00  0.99999998245E-14  0.12500000000E+03  0.12500000000E+03 0.  0.
        -11    1    3    3    0    0  0.47476367282E+02 -0.63489967055E+01  0.36507186671E+02  0.60225325971E+02  0.51100000000E-03 0.  1.
         23    2    1    0    0    0  0.13288782027E+02 -0.88511372574E+01  0.22848822115E+02  0.97125225910E+02  0.93039273845E+02 0.  0.
         11    1    3    3    0    0 -0.34187585255E+02 -0.25021405519E+01 -0.13658364555E+02  0.36899899939E+02  0.51100000000E-03 0. -1.
         22    1    1    0    0    0 -0.13288782027E+02  0.88511372574E+01 -0.22848822115E+02  0.27874774090E+02  0.00000000000E+00 0.  1.
</event>
<event>
 5    1  0.8957809E-005  0.9118800E+02  0.7818608E-02  0.1130116E+00
         25   -1    0    0    0    0  0.00000000000E+00  0.00000000000E+00  0.99999998245E-14  0.12500000000E+03  0.12500000000E+03 0.  0.
        -11    1    3    3    0    0 -0.20721591453E+02 -0.44064445520E+02  0.19783923808E+02  0.52559141477E+02  0.51100000000E-03 0.  1.
         23    2    1    0    0    0 -0.22686212336E+02 -0.12283217535E+02 -0.11097354227E+02  0.96916322641E+02  0.92758183791E+02 0.  0.
         11    1    3    3    0    0 -0.19646208836E+01  0.31781227985E+02 -0.30881278035E+02  0.44357181164E+02  0.51100000000E-03 0. -1.
         22    1    1    0    0    0  0.22686212336E+02  0.12283217535E+02  0.11097354227E+02  0.28083677359E+02  0.00000000000E+00 0. -1.
</event>
<event>
 5    1  0.8957809E-005  0.9118800E+02  0.7818608E-02  0.1130116E+00
         25   -1    0    0    0    0  0.00000000000E+00  0.00000000000E+00  0.99999998245E-14  0.12500000000E+03  0.12500000000E+03 0.  0.
        -11    1    3    3    0    0 -0.11798116347E+02  0.52757286701E+01 -0.46099250046E+02  0.47876609293E+02  0.51100000000E-03 0.  1.
         23    2    1    0    0    0 -0.28787676788E+02 -0.52485352398E+01 -0.27525256227E+01  0.95608609181E+02  0.90978856308E+02 0.  0.
         11    1    3    3    0    0 -0.16989560441E+02 -0.10524263910E+02  0.43346724423E+02  0.47731999888E+02  0.51100000000E-03 0. -1.
         22    1    1    0    0    0  0.28787676788E+02  0.52485352398E+01  0.27525256227E+01  0.29391390819E+02  0.00000000000E+00 0. -1.
</event>
<event>
 5    1  0.8957809E-005  0.9118800E+02  0.7818608E-02  0.1130116E+00
         25   -1    0    0    0    0  0.00000000000E+00  0.00000000000E+00  0.99999998245E-14  0.12500000000E+03  0.12500000000E+03 0.  0.
        -11    1    3    3    0    0 -0.17788638595E+02 -0.27189547938E+02  0.26410843501E+02  0.41871706853E+02  0.51100000000E-03 0.  1.
         23    2    1    0    0    0  0.19053862693E+02 -0.18741435314E+02 -0.11947989344E+02  0.95724660027E+02  0.91138164381E+02 0.  0.
         11    1    3    3    0    0  0.36842501288E+02  0.84481126234E+01 -0.38358832845E+02  0.53852953174E+02  0.51100000000E-03 0. -1.
         22    1    1    0    0    0 -0.19053862693E+02  0.18741435314E+02  0.11947989344E+02  0.29275339973E+02  0.00000000000E+00 0. -1.
</event>
<event>
 5    1  0.8957809E-005  0.9118800E+02  0.7818608E-02  0.1130116E+00
         25   -1    0    0    0    0  0.00000000000E+00  0.00000000000E+00  0.99999998245E-14  0.12500000000E+03  0.12500000000E+03 0.  0.
        -11    1    3    3    0    0  0.49891060719E+02  0.22990190252E+02 -0.18693582426E+02  0.58026862845E+02  0.51100000000E-03 0. -1.
         23    2    1    0    0    0  0.14700853401E+02  0.25026206701E+02 -0.95841092540E+01  0.94433985167E+02  0.89350412936E+02 0.  0.
         11    1    3    3    0    0 -0.35190207318E+02  0.20360164485E+01  0.91094731718E+01  0.36407122322E+02  0.51100000000E-03 0.  1.
         22    1    1    0    0    0 -0.14700853401E+02 -0.25026206701E+02  0.95841092540E+01  0.30566014833E+02  0.00000000000E+00 0. -1.
</event>
<event>
 5    1  0.8957809E-005  0.9118800E+02  0.7818608E-02  0.1130116E+00
         25   -1    0    0    0    0  0.00000000000E+00  0.00000000000E+00  0.99999998245E-14  0.12500000000E+03  0.12500000000E+03 0.  0.
        -11    1    3    3    0    0  0.48535395890E+01  0.30636856365E+02 -0.36622506892E+02  0.47993560254E+02  0.51100000000E-03 0. -1.
         23    2    1    0    0    0 -0.77435861962E+01 -0.14176384410E+02 -0.23725973950E+02  0.96297128332E+02  0.91919976517E+02 0.  0.
         11    1    3    3    0    0 -0.12597125785E+02 -0.44813240776E+02  0.12896532942E+02  0.48303568078E+02  0.51100000000E-03 0.  1.
         22    1    1    0    0    0  0.77435861962E+01  0.14176384410E+02  0.23725973950E+02  0.28702871668E+02  0.00000000000E+00 0.  1.
</event>
<event>
 5    1  0.8957809E-005  0.9118800E+02  0.7818608E-02  0.1130116E+00
         25   -1    0    0    0    0  0.00000000000E+00  0.00000000000E+00  0.99999998245E-14  0.12500000000E+03  0.12500000000E+03 0.  0.
        -11    1    3    3    0    0 -0.94472075372E+01  0.47545699049E+00  0.33595023395E+02  0.34901309241E+02  0.51100000000E-03 0. -1.
         23    2    1    0    0    0  0.50544593231E+01 -0.23307177239E+02 -0.19060081392E+02  0.94470362390E+02  0.89401289686E+02 0.  0.
         11    1    3    3    0    0  0.14501666860E+02 -0.23782634230E+02 -0.52655104787E+02  0.59569053149E+02  0.51100000000E-03 0.  1.
         22    1    1    0    0    0 -0.50544593231E+01  0.23307177239E+02  0.19060081392E+02  0.30529637610E+02  0.00000000000E+00 0.  1.
</event>
<event>
 5    1  0.8957809E-005  0.9118800E+02  0.7818608E-02  0.1130116E+00
         25   -1    0    0    0    0  0.00000000000E+00  0.00000000000E+00  0.99999998245E-14  0.12500000000E+03  0.12500000000E+03 0.  0.
        -11    1    3    3    0    0 -0.19815071624E+02  0.24012034120E+02 -0.46880500494E+02  0.56276071050E+02  0.51100000000E-03 0. -1.
         23    2    1    0    0    0 -0.23090103244E+02 -0.23503163251E+01 -0.17177477269E+02  0.96125399051E+02  0.91686148150E+02 0.  0.
         11    1    3    3    0    0 -0.32750316206E+01 -0.26362350445E+02  0.29703023225E+02  0.39849328000E+02  0.51100000000E-03 0.  1.
         22    1    1    0    0    0  0.23090103244E+02  0.23503163251E+01  0.17177477269E+02  0.28874600949E+02  0.00000000000E+00 0. -1.
</event>
<event>
 5    1  0.8957809E-005  0.9118800E+02  0.7818608E-02  0.1130116E+00
         25   -1    0    0    0    0  0.00000000000E+00  0.00000000000E+00  0.99999998245E-14  0.12500000000E+03  0.12500000000E+03 0.  0.
        -11    1    3    3    0    0 -0.18093637018E+02  0.22887213187E+02 -0.29912190363E+02  0.41784487081E+02  0.51100000000E-03 0. -1.
         23    2    1    0    0    0 -0.21598364204E+02  0.80118068334E+01  0.20315175605E+02  0.94285431065E+02  0.89142345528E+02 0.  0.
         11    1    3    3    0    0 -0.35047271856E+01 -0.14875406354E+02  0.50227365968E+02  0.52500943984E+02  0.51100000000E-03 0.  1.
         22    1    1    0    0    0  0.21598364204E+02 -0.80118068334E+01 -0.20315175605E+02  0.30714568935E+02  0.00000000000E+00 0.  1.
</event>
<event>
 5    1  0.8957809E-005  0.9118800E+02  0.7818608E-02  0.1130116E+00
         25   -1    0    0    0    0  0.00000000000E+00  0.00000000000E+00  0.99999998245E-14  0.12500000000E+03  0.12500000000E+03 0.  0.
        -11    1    3    3    0    0  0.16711553041E+01  0.10855832342E+02  0.30296550917E+02  0.32226120673E+02  0.51100000000E-03 0. -1.
         23    2    1    0    0    0  0.61961537157E+01 -0.61144261626E+01 -0.29340383638E+02  0.94395480069E+02  0.89296528585E+02 0.  0.
         11    1    3    3    0    0  0.45249984116E+01 -0.16970258505E+02 -0.59636934555E+02  0.62169359396E+02  0.51100000000E-03 0.  1.
         22    1    1    0    0    0 -0.61961537157E+01  0.61144261626E+01  0.29340383638E+02  0.30604519931E+02  0.00000000000E+00 0.  1.
</event>
<event>
 5    1  0.8957809E-005  0.9118800E+02  0.7818608E-02  0.1130116E+00
         25   -1    0    0    0    0  0.00000000000E+00  0.00000000000E+00  0.99999998245E-14  0.12500000000E+03  0.12500000000E+03 0.  0.
        -11    1    3    3    0    0  0.78748781825E+01 -0.37553763329E+02  0.14686234949E+02  0.41085086635E+02  0.51100000000E-03 0.  1.
         23    2    1    0    0    0  0.18211064315E+02  0.16680965807E+02  0.14629480093E+02  0.96296007743E+02  0.91918452640E+02 0.  0.
         11    1    3    3    0    0  0.10336186132E+02  0.54234729136E+02 -0.56754855531E-01  0.55210921108E+02  0.51100000000E-03 0. -1.
         22    1    1    0    0    0 -0.18211064315E+02 -0.16680965807E+02 -0.14629480093E+02  0.28703992257E+02  0.00000000000E+00 0. -1.
</event>
<event>
 5    1  0.8957809E-005  0.9118800E+02  0.7818608E-02  0.1130116E+00
         25   -1    0    0    0    0  0.00000000000E+00  0.00000000000E+00  0.99999998245E-14  0.12500000000E+03  0.12500000000E+03 0.  0.
        -11    1    3    3    0    0  0.35451932565E+02 -0.34051907203E+02  0.16908917928E+01  0.49185679034E+02  0.51100000000E-03 0.  1.
         23    2    1    0    0    0 -0.62132636488E+01 -0.24379339381E+02  0.17022552689E+02  0.94623625399E+02  0.89615324302E+02 0.  0.
         11    1    3    3    0    0 -0.41665196214E+02  0.96725678211E+01  0.15331660897E+02  0.45437946365E+02  0.51100000000E-03 0. -1.
         22    1    1    0    0    0  0.62132636488E+01  0.24379339381E+02 -0.17022552689E+02  0.30376374601E+02  0.00000000000E+00 0. -1.
</event>
<event>
 5    1  0.8957809E-005  0.9118800E+02  0.7818608E-02  0.1130116E+00
         25   -1    0    0    0    0  0.00000000000E+00  0.00000000000E+00  0.99999998245E-14  0.12500000000E+03  0.12500000000E+03 0.  0.
        -11    1    3    3    0    0 -0.56397304515E+01  0.34113137053E+02  0.57697397985E+01  0.35054280434E+02  0.51100000000E-03 0.  1.
         23    2    1    0    0    0  0.12192914320E+02 -0.23999431068E+02  0.10680548410E+02  0.96039441208E+02  0.91568882826E+02 0.  0.
         11    1    3    3    0    0  0.17832644772E+02 -0.58112568121E+02  0.49108086118E+01  0.60985160774E+02  0.51100000000E-03 0. -1.
         22    1    1    0    0    0 -0.12192914320E+02  0.23999431068E+02 -0.10680548410E+02  0.28960558792E+02  0.00000000000E+00 0. -1.
</event>
<event>
 5    1  0.8957809E-005  0.9118800E+02  0.7818608E-02  0.1130116E+00
         25   -1    0    0    0    0  0.00000000000E+00  0.00000000000E+00  0.99999998245E-14  0.12500000000E+03  0.12500000000E+03 0.  0.
        -11    1    3    3    0    0 -0.48775475410E+02 -0.12588291132E+01  0.20301070929E+02  0.52846618939E+02  0.51100000000E-03 0. -1.
         23    2    1    0    0    0 -0.13809615798E+02  0.22820190361E+02  0.98236229135E+01  0.96575184368E+02  0.92297324403E+02 0.  0.
         11    1    3    3    0    0  0.34965859612E+02  0.24079019474E+02 -0.10477448015E+02  0.43728565428E+02  0.51100000000E-03 0.  1.
         22    1    1    0    0    0  0.13809615798E+02 -0.22820190361E+02 -0.98236229135E+01  0.28424815632E+02  0.00000000000E+00 0.  1.
</event>
<event>
 5    1  0.8957809E-005  0.9118800E+02  0.7818608E-02  0.1130116E+00
         25   -1    0    0    0    0  0.00000000000E+00  0.00000000000E+00  0.99999998245E-14  0.12500000000E+03  0.12500000000E+03 0.  0.
        -11    1    3    3    0    0  0.16852478563E+02  0.16497362026E+02  0.50132212977E+02  0.55402236107E+02  0.51100000000E-03 0. -1.
         23    2    1    0    0    0  0.24266597646E+02 -0.54709896912E+01  0.22661187052E+02  0.91349905080E+02  0.84926299048E+02 0.  0.
         11    1    3    3    0    0  0.74141190835E+01 -0.21968351717E+02 -0.27471025925E+02  0.35947668973E+02  0.51100000000E-03 0.  1.
         22    1    1    0    0    0 -0.24266597646E+02  0.54709896912E+01 -0.22661187052E+02  0.33650094920E+02  0.00000000000E+00 0. -1.
</event>
<event>
 5    1  0.8957809E-005  0.9118800E+02  0.7818608E-02  0.1130116E+00
         25   -1    0    0    0    0  0.00000000000E+00  0.00000000000E+00  0.99999998245E-14  0.12500000000E+03  0.12500000000E+03 0.  0.
        -11    1    3    3    0    0 -0.11375067463E+02 -0.20519292444E+02 -0.46390581080E+02  0.51985762815E+02  0.51100000000E-03 0. -1.
         23    2    1    0    0    0 -0.27509307691E+02 -0.62495447701E+01 -0.85579156527E+01  0.95520231687E+02  0.90857349300E+02 0.  0.
         11    1    3    3    0    0 -0.16134240228E+02  0.14269747674E+02  0.37832665428E+02  0.43534468873E+02  0.51100000000E-03 0.  1.
         22    1    1    0    0    0  0.27509307691E+02  0.62495447701E+01  0.85579156527E+01  0.29479768313E+02  0.00000000000E+00 0. -1.
</event>
<event>
 5    1  0.8957809E-005  0.9118800E+02  0.7818608E-02  0.1130116E+00
         25   -1    0    0    0    0  0.00000000000E+00  0.00000000000E+00  0.99999998245E-14  0.12500000000E+03  0.12500000000E+03 0.  0.
        -11    1    3    3    0    0 -0.23460619591E+02 -0.55318834172E+02  0.11100087704E+02  0.61104713673E+02  0.51100000000E-03 0.  1.
         23    2    1    0    0    0 -0.87831257047E+01 -0.30815326834E+02 -0.27327315665E+01  0.92841090086E+02  0.87093470029E+02 0.  0.
         11    1    3    3    0    0  0.14677493886E+02  0.24503507338E+02 -0.13832819270E+02  0.31736376414E+02  0.51100000000E-03 0. -1.
         22    1    1    0    0    0  0.87831257047E+01  0.30815326834E+02  0.27327315665E+01  0.32158909914E+02  0.00000000000E+00 0.  1.
</event>
<event>
 5    1  0.8957809E-005  0.9118800E+02  0.7818608E-02  0.1130116E+00
         25   -1    0    0    0    0  0.00000000000E+00  0.00000000000E+00  0.99999998245E-14  0.12500000000E+03  0.12500000000E+03 0.  0.
        -11    1    3    3    0    0 -0.17378468353E+02  0.49573716682E+01 -0.33823810060E+02  0.38348882948E+02  0.51100000000E-03 0.  1.
         23    2    1    0    0    0 -0.16239300113E+02  0.40352665996E+02 -0.24939376274E+02  0.74859946050E+02  0.55587647122E+02 0.  0.
         11    1    3    3    0    0  0.11391682394E+01  0.35395294328E+02  0.88844337865E+01  0.36511063102E+02  0.51100000000E-03 0. -1.
         22    1    1    0    0    0  0.16239300113E+02 -0.40352665996E+02  0.24939376274E+02  0.50140053950E+02  0.00000000000E+00 0.  1.
</event>
<event>
 5    1  0.8957809E-005  0.9118800E+02  0.7818608E-02  0.1130116E+00
         25   -1    0    0    0    0  0.00000000000E+00  0.00000000000E+00  0.99999998245E-14  0.12500000000E+03  0.12500000000E+03 0.  0.
        -11    1    3    3    0    0  0.25992513907E+02  0.24505870124E+02 -0.43236902720E+02  0.56085454503E+02  0.51100000000E-03 0.  1.
         23    2    1    0    0    0 -0.55617096657E+00 -0.25184147237E-01 -0.30625709782E+02  0.94369230176E+02  0.89259775621E+02 0.  0.
         11    1    3    3    0    0 -0.26548684873E+02 -0.24531054271E+02  0.12611192938E+02  0.38283775673E+02  0.51100000000E-03 0. -1.
         22    1    1    0    0    0  0.55617096657E+00  0.25184147237E-01  0.30625709782E+02  0.30630769824E+02  0.00000000000E+00 0.  1.
</event>
<event>
 5    1  0.8957809E-005  0.9118800E+02  0.7818608E-02  0.1130116E+00
         25   -1    0    0    0    0  0.00000000000E+00  0.00000000000E+00  0.99999998245E-14  0.12500000000E+03  0.12500000000E+03 0.  0.
        -11    1    3    3    0    0  0.56599079241E+02 -0.42237853726E+01  0.14181146535E+02  0.58501291021E+02  0.51100000000E-03 0.  1.
         23    2    1    0    0    0  0.19368224564E+02 -0.69439489278E+01  0.20027961643E+02  0.96286487553E+02  0.91905505212E+02 0.  0.
         11    1    3    3    0    0 -0.37230854677E+02 -0.27201635552E+01  0.58468151082E+01  0.37785196532E+02  0.51100000000E-03 0. -1.
         22    1    1    0    0    0 -0.19368224564E+02  0.69439489278E+01 -0.20027961643E+02  0.28713512447E+02  0.00000000000E+00 0.  1.
</event>
<event>
 5    1  0.8957809E-005  0.9118800E+02  0.7818608E-02  0.1130116E+00
         25   -1    0    0    0    0  0.00000000000E+00  0.00000000000E+00  0.99999998245E-14  0.12500000000E+03  0.12500000000E+03 0.  0.
        -11    1    3    3    0    0 -0.46073282156E+01 -0.44990893176E+02  0.20377611422E+02  0.49604989564E+02  0.51100000000E-03 0.  1.
         23    2    1    0    0    0 -0.11687144168E+02 -0.41905107745E+02 -0.95049565298E+01  0.80469430808E+02  0.67025052793E+02 0.  0.
         11    1    3    3    0    0 -0.70798159527E+01  0.30857854308E+01 -0.29882567952E+02  0.30864441244E+02  0.51100000000E-03 0. -1.
         22    1    1    0    0    0  0.11687144168E+02  0.41905107745E+02  0.95049565298E+01  0.44530569192E+02  0.00000000000E+00 0.  1.
</event>
<event>
 5    1  0.8957809E-005  0.9118800E+02  0.7818608E-02  0.1130116E+00
         25   -1    0    0    0    0  0.00000000000E+00  0.00000000000E+00  0.99999998245E-14  0.12500000000E+03  0.12500000000E+03 0.  0.
        -11    1    3    3    0    0 -0.70357081725E-01  0.32881378717E+02 -0.29096340078E+02  0.43906571520E+02  0.51100000000E-03 0.  1.
         23    2    1    0    0    0  0.25991581337E+02 -0.79723916027E+01 -0.90740719364E+01  0.96338874590E+02  0.91976728837E+02 0.  0.
         11    1    3    3    0    0  0.26061938419E+02 -0.40853770319E+02  0.20022268141E+02  0.52432303070E+02  0.51100000000E-03 0. -1.
         22    1    1    0    0    0 -0.25991581337E+02  0.79723916027E+01  0.90740719364E+01  0.28661125410E+02  0.00000000000E+00 0. -1.
</event>
<event>
 5    1  0.8957809E-005  0.9118800E+02  0.7818608E-02  0.1130116E+00
         25   -1    0    0    0    0  0.00000000000E+00  0.00000000000E+00  0.99999998245E-14  0.12500000000E+03  0.12500000000E+03 0.  0.
        -11    1    3    3    0    0 -0.18443811600E+02 -0.18333097558E+02  0.18266156668E+02  0.31779382185E+02  0.51100000000E-03 0. -1.
         23    2    1    0    0    0  0.33245345319E+02 -0.53799040196E+01 -0.67591243632E+01  0.90650587853E+02  0.83890684604E+02 0.  0.
         11    1    3    3    0    0  0.51689156920E+02  0.12953193538E+02 -0.25025281031E+02  0.58871205668E+02  0.51100000000E-03 0.  1.
         22    1    1    0    0    0 -0.33245345319E+02  0.53799040196E+01  0.67591243632E+01  0.34349412147E+02  0.00000000000E+00 0.  1.
</event>
<event>
 5    1  0.8957809E-005  0.9118800E+02  0.7818608E-02  0.1130116E+00
         25   -1    0    0    0    0  0.00000000000E+00  0.00000000000E+00  0.99999998245E-14  0.12500000000E+03  0.12500000000E+03 0.  0.
        -11    1    3    3    0    0 -0.27485263799E+01  0.37210168561E+02  0.25727204586E+02  0.45321519145E+02  0.51100000000E-03 0. -1.
         23    2    1    0    0    0  0.22210302367E+02 -0.69277273315E+01  0.15486895129E+02  0.97051210081E+02  0.92939778998E+02 0.  0.
         11    1    3    3    0    0  0.24958828747E+02 -0.44137895892E+02 -0.10240309457E+02  0.51729690935E+02  0.51100000000E-03 0.  1.
         22    1    1    0    0    0 -0.22210302367E+02  0.69277273315E+01 -0.15486895129E+02  0.27948789919E+02  0.00000000000E+00 0.  1.
</event>
<event>
 5    1  0.8957809E-005  0.9118800E+02  0.7818608E-02  0.1130116E+00
         25   -1    0    0    0    0  0.00000000000E+00  0.00000000000E+00  0.99999998245E-14  0.12500000000E+03  0.12500000000E+03 0.  0.
        -11    1    3    3    0    0 -0.12971613371E+02 -0.55600076521E+02  0.12758661168E+02  0.58501407655E+02  0.51100000000E-03 0. -1.
         23    2    1    0    0    0 -0.75517799594E+01 -0.23690980867E+02  0.21610372578E+02  0.92056105908E+02  0.85959446700E+02 0.  0.
         11    1    3    3    0    0  0.54198334113E+01  0.31909095654E+02  0.88517114098E+01  0.33554698252E+02  0.51100000000E-03 0.  1.
         22    1    1    0    0    0  0.75517799594E+01  0.23690980867E+02 -0.21610372578E+02  0.32943894092E+02  0.00000000000E+00 0. -1.
</event>
<event>
 5    1  0.8957809E-005  0.9118800E+02  0.7818608E-02  0.1130116E+00
         25   -1    0    0    0    0  0.00000000000E+00  0.00000000000E+00  0.99999998245E-14  0.12500000000E+03  0.12500000000E+03 0.  0.
        -11    1    3    3    0    0 -0.48016531774E+02 -0.32644764880E+02  0.17897044394E+02  0.60758309687E+02  0.51100000000E-03 0.  1.
         23    2    1    0    0    0 -0.15617469489E+02 -0.22971094782E+02  0.99715115442E+01  0.95487162265E+02  0.90811841553E+02 0.  0.
         11    1    3    3    0    0  0.32399062285E+02  0.96736700984E+01 -0.79255328498E+01  0.34728852578E+02  0.51100000000E-03 0. -1.
         22    1    1    0    0    0  0.15617469489E+02  0.22971094782E+02 -0.99715115442E+01  0.29512837735E+02  0.00000000000E+00 0.  1.
</event>
<event>
 5    1  0.8957809E-005  0.9118800E+02  0.7818608E-02  0.1130116E+00
         25   -1    0    0    0    0  0.00000000000E+00  0.00000000000E+00  0.99999998245E-14  0.12500000000E+03  0.12500000000E+03 0.  0.
        -11    1    3    3    0    0  0.54916745066E+02 -0.15623575645E+02 -0.11938402584E+02  0.58330699131E+02  0.51100000000E-03 0. -1.
         23    2    1    0    0    0  0.17680115553E+02 -0.21163015870E+02 -0.85462945033E+01  0.96129619393E+02  0.91691901759E+02 0.  0.
         11    1    3    3    0    0 -0.37236629513E+02 -0.55394402249E+01  0.33921080806E+01  0.37798920262E+02  0.51100000000E-03 0.  1.
         22    1    1    0    0    0 -0.17680115553E+02  0.21163015870E+02  0.85462945033E+01  0.28870380607E+02  0.00000000000E+00 0. -1.
</event>
<event>
 5    1  0.8957809E-005  0.9118800E+02  0.7818608E-02  0.1130116E+00
         25   -1    0    0    0    0  0.00000000000E+00  0.00000000000E+00  0.99999998245E-14  0.12500000000E+03  0.12500000000E+03 0.  0.
        -11    1    3    3    0    0 -0.15952671783E+02  0.40472877087E+02 -0.32091108378E+02  0.54059048770E+02  0.51100000000E-03 0.  1.
         23    2    1    0    0    0 -0.12387566944E+02  0.26181788023E+02  0.64563900224E+01  0.95324710432E+02  0.90587955093E+02 0.  0.
         11    1    3    3    0    0  0.35651048388E+01 -0.14291089065E+02  0.38547498401E+02  0.41265661662E+02  0.51100000000E-03 0. -1.
         22    1    1    0    0    0  0.12387566944E+02 -0.26181788023E+02 -0.64563900224E+01  0.29675289568E+02  0.00000000000E+00 0.  1.
</event>
<event>
 5    1  0.8957809E-005  0.9118800E+02  0.7818608E-02  0.1130116E+00
         25   -1    0    0    0    0  0.00000000000E+00  0.00000000000E+00  0.99999998245E-14  0.12500000000E+03  0.12500000000E+03 0.  0.
        -11    1    3    3    0    0 -0.38715293289E+02 -0.10193162374E+02 -0.30268245446E+02  0.50189054347E+02  0.51100000000E-03 0. -1.
         23    2    1    0    0    0 -0.71545014606E+01  0.21631069406E+02 -0.15751230992E+02  0.97301781058E+02  0.93276177368E+02 0.  0.
         11    1    3    3    0    0  0.31560791828E+02  0.31824231780E+02  0.14517014454E+02  0.47112726711E+02  0.51100000000E-03 0.  1.
         22    1    1    0    0    0  0.71545014606E+01 -0.21631069406E+02  0.15751230992E+02  0.27698218942E+02  0.00000000000E+00 0. -1.
</event>
<event>
 4    1  0.8957809E-005  0.9118800E+02  0.7818608E-02  0.1130116E+00
         25   -1    0    0    0    0  0.00000000000E+00  0.00000000000E+00  0.99999998245E-14  0.12500000000E+03  0.12500000000E+03 0.  0.
        -11    1    1    0    0    0  0.37881062836E+01  0.42189493278E+02  0.98930667242E+00  0.42370766104E+02  0.51100000000E-03 0.  1.
         11    1    1    0    0    0 -0.30388044434E+02  0.21959839092E+01  0.36052904769E+01  0.30679858368E+02  0.51100000000E-03 0. -1.
         22    1    1    0    0    0  0.26599938150E+02 -0.44385477187E+02 -0.45945971494E+01  0.51949375528E+02  0.00000000000E+00 0.  1.
</event>
<event>
 5    1  0.8957809E-005  0.9118800E+02  0.7818608E-02  0.1130116E+00
         25   -1    0    0    0    0  0.00000000000E+00  0.00000000000E+00  0.99999998245E-14  0.12500000000E+03  0.12500000000E+03 0.  0.
        -11    1    3    3    0    0  0.35998871219E+02 -0.12099893516E+02 -0.41280123176E+02  0.56092554959E+02  0.51100000000E-03 0.  1.
         23    2    1    0    0    0  0.28643039002E+02  0.25143550821E+01 -0.51027687036E+01  0.95797535837E+02  0.91238062010E+02 0.  0.
         11    1    3    3    0    0 -0.73558322168E+01  0.14614248598E+02  0.36177354472E+02  0.39704980879E+02  0.51100000000E-03 0. -1.
         22    1    1    0    0    0 -0.28643039002E+02 -0.25143550821E+01  0.51027687036E+01  0.29202464163E+02  0.00000000000E+00 0.  1.
</event>
<event>
 5    1  0.8957809E-005  0.9118800E+02  0.7818608E-02  0.1130116E+00
         25   -1    0    0    0    0  0.00000000000E+00  0.00000000000E+00  0.99999998245E-14  0.12500000000E+03  0.12500000000E+03 0.  0.
        -11    1    3    3    0    0 -0.13260770024E+02 -0.13713004675E+02  0.56367662213E+02  0.59508048720E+02  0.51100000000E-03 0.  1.
         23    2    1    0    0    0 -0.51167295885E+01  0.67272007300E+01  0.29907063971E+02  0.93921572969E+02  0.88630656334E+02 0.  0.
         11    1    3    3    0    0  0.81440404353E+01  0.20440205405E+02 -0.26460598242E+02  0.34413524249E+02  0.51100000000E-03 0. -1.
         22    1    1    0    0    0  0.51167295885E+01 -0.67272007300E+01 -0.29907063971E+02  0.31078427031E+02  0.00000000000E+00 0.  1.
</event>
<event>
 5    1  0.8957809E-005  0.9118800E+02  0.7818608E-02  0.1130116E+00
         25   -1    0    0    0    0  0.00000000000E+00  0.00000000000E+00  0.99999998245E-14  0.12500000000E+03  0.12500000000E+03 0.  0.
        -11    1    3    3    0    0 -0.52974576657E+02  0.12790896969E+02 -0.36530395706E+01  0.54619204641E+02  0.51100000000E-03 0. -1.
         23    2    1    0    0    0 -0.14570655029E+02  0.22491624621E+02  0.98208925666E+01  0.96458327013E+02  0.92138926373E+02 0.  0.
         11    1    3    3    0    0  0.38403921628E+02  0.97007276520E+01  0.13473932137E+02  0.41839122372E+02  0.51100000000E-03 0.  1.
         22    1    1    0    0    0  0.14570655029E+02 -0.22491624621E+02 -0.98208925666E+01  0.28541672987E+02  0.00000000000E+00 0. -1.
</event>
<event>
 5    1  0.8957809E-005  0.9118800E+02  0.7818608E-02  0.1130116E+00
         25   -1    0    0    0    0  0.00000000000E+00  0.00000000000E+00  0.99999998245E-14  0.12500000000E+03  0.12500000000E+03 0.  0.
        -11    1    3    3    0    0 -0.61137770544E+02  0.10425887601E+01 -0.37145552214E+01  0.61259382132E+02  0.51100000000E-03 0.  1.
         23    2    1    0    0    0 -0.37132976619E+02 -0.75788277639E+01 -0.48600222947E+01  0.86791147628E+02  0.77928088050E+02 0.  0.
         11    1    3    3    0    0  0.24004793925E+02 -0.86214165241E+01 -0.11454670733E+01  0.25531765496E+02  0.51100000000E-03 0. -1.
         22    1    1    0    0    0  0.37132976619E+02  0.75788277639E+01  0.48600222947E+01  0.38208852372E+02  0.00000000000E+00 0.  1.
</event>
<event>
 5    1  0.8957809E-005  0.9118800E+02  0.7818608E-02  0.1130116E+00
         25   -1    0    0    0    0  0.00000000000E+00  0.00000000000E+00  0.99999998245E-14  0.12500000000E+03  0.12500000000E+03 0.  0.
        -11    1    3    3    0    0  0.34034005701E+02  0.18465938241E+02 -0.12893769481E+02  0.40811195901E+02  0.51100000000E-03 0. -1.
         23    2    1    0    0    0  0.69758729164E+01 -0.49798672613E+01  0.28324070325E+02  0.95407520538E+02  0.90702150661E+02 0.  0.
         11    1    3    3    0    0 -0.27058132784E+02 -0.23445805502E+02  0.41217839806E+02  0.54596324638E+02  0.51100000000E-03 0.  1.
         22    1    1    0    0    0 -0.69758729164E+01  0.49798672613E+01 -0.28324070325E+02  0.29592479462E+02  0.00000000000E+00 0. -1.
</event>
<event>
 5    1  0.8957809E-005  0.9118800E+02  0.7818608E-02  0.1130116E+00
         25   -1    0    0    0    0  0.00000000000E+00  0.00000000000E+00  0.99999998245E-14  0.12500000000E+03  0.12500000000E+03 0.  0.
        -11    1    3    3    0    0  0.16796574832E+02  0.91692647089E+01 -0.28648641925E+02  0.34452068527E+02  0.51100000000E-03 0.  1.
         23    2    1    0    0    0 -0.21702370171E+02  0.54804307759E+01  0.18872348127E+02  0.95722132653E+02  0.91134697911E+02 0.  0.
         11    1    3    3    0    0 -0.38498945003E+02 -0.36888339330E+01  0.47520990053E+02  0.61270064126E+02  0.51100000000E-03 0. -1.
         22    1    1    0    0    0  0.21702370171E+02 -0.54804307759E+01 -0.18872348127E+02  0.29277867347E+02  0.00000000000E+00 0. -1.
</event>
<event>
 5    1  0.8957809E-005  0.9118800E+02  0.7818608E-02  0.1130116E+00
         25   -1    0    0    0    0  0.00000000000E+00  0.00000000000E+00  0.99999998245E-14  0.12500000000E+03  0.12500000000E+03 0.  0.
        -11    1    3    3    0    0  0.14622465620E+02  0.18539986058E+02  0.51168983169E+02  0.56354346972E+02  0.51100000000E-03 0.  1.
         23    2    1    0    0    0 -0.11245987122E+02  0.16214757764E+02  0.23752678056E+02  0.94119904299E+02  0.88909932374E+02 0.  0.
         11    1    3    3    0    0 -0.25868452742E+02 -0.23252282940E+01 -0.27416305113E+02  0.37765557327E+02  0.51100000000E-03 0. -1.
         22    1    1    0    0    0  0.11245987122E+02 -0.16214757764E+02 -0.23752678056E+02  0.30880095701E+02  0.00000000000E+00 0. -1.
</event>
<event>
 5    1  0.8957809E-005  0.9118800E+02  0.7818608E-02  0.1130116E+00
         25   -1    0    0    0    0  0.00000000000E+00  0.00000000000E+00  0.99999998245E-14  0.12500000000E+03  0.12500000000E+03 0.  0.
        -11    1    3    3    0    0 -0.61223504731E+01  0.14725918074E+02 -0.25056529869E+02  0.29701271484E+02  0.51100000000E-03 0. -1.
         23    2    1    0    0    0  0.11375690281E+02 -0.28193556531E+02  0.15125314421E+02  0.91043290861E+02  0.84473798987E+02 0.  0.
         11    1    3    3    0    0  0.17498040754E+02 -0.42919474605E+02  0.40181844289E+02  0.61342019377E+02  0.51100000000E-03 0.  1.
         22    1    1    0    0    0 -0.11375690281E+02  0.28193556531E+02 -0.15125314421E+02  0.33956709139E+02  0.00000000000E+00 0.  1.
</event>
<event>
 5    1  0.8957809E-005  0.9118800E+02  0.7818608E-02  0.1130116E+00
         25   -1    0    0    0    0  0.00000000000E+00  0.00000000000E+00  0.99999998245E-14  0.12500000000E+03  0.12500000000E+03 0.  0.
        -11    1    3    3    0    0  0.25691547836E+02 -0.14473466434E+02  0.21103967822E+02  0.36261747323E+02  0.51100000000E-03 0.  1.
         23    2    1    0    0    0 -0.17718970831E+01  0.14802107713E+02 -0.24066190381E+02  0.96690575218E+02  0.92453468320E+02 0.  0.
         11    1    3    3    0    0 -0.27463444919E+02  0.29275574147E+02 -0.45170158203E+02  0.60428827895E+02  0.51100000000E-03 0. -1.
         22    1    1    0    0    0  0.17718970831E+01 -0.14802107713E+02  0.24066190381E+02  0.28309424782E+02  0.00000000000E+00 0. -1.
</event>
<event>
 5    1  0.8957809E-005  0.9118800E+02  0.7818608E-02  0.1130116E+00
         25   -1    0    0    0    0  0.00000000000E+00  0.00000000000E+00  0.99999998245E-14  0.12500000000E+03  0.12500000000E+03 0.  0.
        -11    1    3    3    0    0 -0.29575656101E+02  0.14957106425E+02  0.23850162143E+02  0.40832152783E+02  0.51100000000E-03 0. -1.
         23    2    1    0    0    0  0.86481878339E+01  0.25944636480E+02 -0.12699139038E+02  0.94847331010E+02  0.89926818873E+02 0.  0.
         11    1    3    3    0    0  0.38223843934E+02  0.10987530055E+02 -0.36549301181E+02  0.54015178227E+02  0.51100000000E-03 0.  1.
         22    1    1    0    0    0 -0.86481878339E+01 -0.25944636480E+02  0.12699139038E+02  0.30152668990E+02  0.00000000000E+00 0.  1.
</event>
<event>
 5    1  0.8957809E-005  0.9118800E+02  0.7818608E-02  0.1130116E+00
         25   -1    0    0    0    0  0.00000000000E+00  0.00000000000E+00  0.99999998245E-14  0.12500000000E+03  0.12500000000E+03 0.  0.
        -11    1    3    3    0    0 -0.30620766435E+02  0.48537916441E+02  0.21196717799E+02  0.61178930321E+02  0.51100000000E-03 0. -1.
         23    2    1    0    0    0 -0.95037722567E+01  0.20372920184E+02  0.17374138410E+02  0.96588061498E+02  0.92314762495E+02 0.  0.
         11    1    3    3    0    0  0.21116994178E+02 -0.28164996257E+02 -0.38225793882E+01  0.35409131177E+02  0.51100000000E-03 0.  1.
         22    1    1    0    0    0  0.95037722567E+01 -0.20372920184E+02 -0.17374138410E+02  0.28411938502E+02  0.00000000000E+00 0. -1.
</event>
<event>
 5    1  0.8957809E-005  0.9118800E+02  0.7818608E-02  0.1130116E+00
         25   -1    0    0    0    0  0.00000000000E+00  0.00000000000E+00  0.99999998245E-14  0.12500000000E+03  0.12500000000E+03 0.  0.
        -11    1    3    3    0    0  0.38129675690E+02 -0.25966603420E+01 -0.40710893969E+01  0.38434211093E+02  0.51100000000E-03 0.  1.
         23    2    1    0    0    0 -0.14885655786E+02 -0.11092228928E+02 -0.23070190722E+02  0.95388279504E+02  0.90675630000E+02 0.  0.
         11    1    3    3    0    0 -0.53015331476E+02 -0.84955685865E+01 -0.18999101326E+02  0.56954068411E+02  0.51100000000E-03 0. -1.
         22    1    1    0    0    0  0.14885655786E+02  0.11092228928E+02  0.23070190722E+02  0.29611720496E+02  0.00000000000E+00 0. -1.
</event>
<event>
 5    1  0.8957809E-005  0.9118800E+02  0.7818608E-02  0.1130116E+00
         25   -1    0    0    0    0  0.00000000000E+00  0.00000000000E+00  0.99999998245E-14  0.12500000000E+03  0.12500000000E+03 0.  0.
        -11    1    3    3    0    0  0.29691005442E+02  0.33788505251E+02  0.22937137627E+01  0.45038650227E+02  0.51100000000E-03 0. -1.
         23    2    1    0    0    0  0.76012670924E+01 -0.64057377227E+01  0.26355970451E+02  0.96831756967E+02  0.92644153845E+02 0.  0.
         11    1    3    3    0    0 -0.22089738350E+02 -0.40194242973E+02  0.24062256688E+02  0.51793106739E+02  0.51100000000E-03 0.  1.
         22    1    1    0    0    0 -0.76012670924E+01  0.64057377227E+01 -0.26355970451E+02  0.28168243033E+02  0.00000000000E+00 0.  1.
</event>
<event>
 5    1  0.8957809E-005  0.9118800E+02  0.7818608E-02  0.1130116E+00
         25   -1    0    0    0    0  0.00000000000E+00  0.00000000000E+00  0.99999998245E-14  0.12500000000E+03  0.12500000000E+03 0.  0.
        -11    1    3    3    0    0  0.46736185257E+02  0.29300358286E+02  0.44783407555E+01  0.55342908708E+02  0.51100000000E-03 0. -1.
         23    2    1    0    0    0  0.23812233758E+02  0.68617886162E+01 -0.17878167572E+02  0.94442914156E+02  0.89362903595E+02 0.  0.
         11    1    3    3    0    0 -0.22923951499E+02 -0.22438569670E+02 -0.22356508328E+02  0.39100005448E+02  0.51100000000E-03 0.  1.
         22    1    1    0    0    0 -0.23812233758E+02 -0.68617886162E+01  0.17878167572E+02  0.30557085844E+02  0.00000000000E+00 0. -1.
</event>
<event>
 5    1  0.8957809E-005  0.9118800E+02  0.7818608E-02  0.1130116E+00
         25   -1    0    0    0    0  0.00000000000E+00  0.00000000000E+00  0.99999998245E-14  0.12500000000E+03  0.12500000000E+03 0.  0.
        -11    1    3    3    0    0  0.32936164028E+02  0.31563318157E+02  0.37561692139E+02  0.59092424816E+02  0.51100000000E-03 0. -1.
         23    2    1    0    0    0  0.12661930940E+02  0.19976575176E+01  0.24686810380E+02  0.97183570729E+02  0.93117628203E+02 0.  0.
         11    1    3    3    0    0 -0.20274233089E+02 -0.29565660640E+02 -0.12874881759E+02  0.38091145913E+02  0.51100000000E-03 0.  1.
         22    1    1    0    0    0 -0.12661930940E+02 -0.19976575176E+01 -0.24686810380E+02  0.27816429271E+02  0.00000000000E+00 0. -1.
</event>
<event>
 5    1  0.8957809E-005  0.9118800E+02  0.7818608E-02  0.1130116E+00
         25   -1    0    0    0    0  0.00000000000E+00  0.00000000000E+00  0.99999998245E-14  0.12500000000E+03  0.12500000000E+03 0.  0.
        -11    1    3    3    0    0  0.18282995546E+02  0.24693792292E+02 -0.31841310820E+02  0.44248394082E+02  0.51100000000E-03 0. -1.
         23    2    1    0    0    0  0.13122639911E+02  0.18075690507E+02  0.18937379892E+02  0.95715898123E+02  0.91126146252E+02 0.  0.
         11    1    3    3    0    0 -0.51603556348E+01 -0.66181017848E+01  0.50778690712E+02  0.51467504041E+02  0.51100000000E-03 0.  1.
         22    1    1    0    0    0 -0.13122639911E+02 -0.18075690507E+02 -0.18937379892E+02  0.29284101877E+02  0.00000000000E+00 0.  1.
</event>
<event>
 5    1  0.8957809E-005  0.9118800E+02  0.7818608E-02  0.1130116E+00
         25   -1    0    0    0    0  0.00000000000E+00  0.00000000000E+00  0.99999998245E-14  0.12500000000E+03  0.12500000000E+03 0.  0.
        -11    1    3    3    0    0  0.17012253374E+02  0.53072063542E+02  0.17993145586E+01  0.55761081649E+02  0.51100000000E-03 0.  1.
         23    2    1    0    0    0  0.19609540657E+02  0.15686294901E+02  0.15299860215E+02  0.95594564191E+02  0.90959557210E+02 0.  0.
         11    1    3    3    0    0  0.25972872830E+01 -0.37385768642E+02  0.13500545656E+02  0.39833482542E+02  0.51100000000E-03 0. -1.
         22    1    1    0    0    0 -0.19609540657E+02 -0.15686294901E+02 -0.15299860215E+02  0.29405435809E+02  0.00000000000E+00 0. -1.
</event>
<event>
 5    1  0.8957809E-005  0.9118800E+02  0.7818608E-02  0.1130116E+00
         25   -1    0    0    0    0  0.00000000000E+00  0.00000000000E+00  0.99999998245E-14  0.12500000000E+03  0.12500000000E+03 0.  0.
        -11    1    3    3    0    0  0.31712310897E+02  0.10475636961E+01  0.10818505244E+02  0.33523247278E+02  0.51100000000E-03 0.  1.
         23    2    1    0    0    0 -0.24834350328E+02 -0.15681037263E+02 -0.63698718406E+01  0.94946461887E+02  0.90064507280E+02 0.  0.
         11    1    3    3    0    0 -0.56546661225E+02 -0.16728600959E+02 -0.17188377084E+02  0.61423214608E+02  0.51100000000E-03 0. -1.
         22    1    1    0    0    0  0.24834350328E+02  0.15681037263E+02  0.63698718406E+01  0.30053538113E+02  0.00000000000E+00 0. -1.
</event>
<event>
 5    1  0.8957809E-005  0.9118800E+02  0.7818608E-02  0.1130116E+00
         25   -1    0    0    0    0  0.00000000000E+00  0.00000000000E+00  0.99999998245E-14  0.12500000000E+03  0.12500000000E+03 0.  0.
        -11    1    3    3    0    0  0.23821144863E+02 -0.30942196412E+02  0.60507446432E+01  0.39515540897E+02  0.51100000000E-03 0. -1.
         23    2    1    0    0    0 -0.19057640533E+02  0.41263394096E+01  0.20443929574E+02  0.96748016069E+02  0.92531097569E+02 0.  0.
         11    1    3    3    0    0 -0.42878785396E+02  0.35068535822E+02  0.14393184931E+02  0.57232475173E+02  0.51100000000E-03 0.  1.
         22    1    1    0    0    0  0.19057640533E+02 -0.41263394096E+01 -0.20443929574E+02  0.28251983931E+02  0.00000000000E+00 0.  1.
</event>
<event>
 5    1  0.8957809E-005  0.9118800E+02  0.7818608E-02  0.1130116E+00
         25   -1    0    0    0    0  0.00000000000E+00  0.00000000000E+00  0.99999998245E-14  0.12500000000E+03  0.12500000000E+03 0.  0.
        -11    1    3    3    0    0  0.32722251294E+02  0.15033015005E+02 -0.50501396066E+02  0.62025222892E+02  0.51100000000E-03 0. -1.
         23    2    1    0    0    0  0.15982534613E+02  0.11988054218E+02 -0.21491429073E+02  0.95656578587E+02  0.91044739809E+02 0.  0.
         11    1    3    3    0    0 -0.16739716681E+02 -0.30449607877E+01  0.29009966993E+02  0.33631355696E+02  0.51100000000E-03 0.  1.
         22    1    1    0    0    0 -0.15982534613E+02 -0.11988054218E+02  0.21491429073E+02  0.29343421413E+02  0.00000000000E+00 0. -1.
</event>
<event>
 5    1  0.8957809E-005  0.9118800E+02  0.7818608E-02  0.1130116E+00
         25   -1    0    0    0    0  0.00000000000E+00  0.00000000000E+00  0.99999998245E-14  0.12500000000E+03  0.12500000000E+03 0.  0.
        -11    1    3    3    0    0 -0.40381273555E+02 -0.16289833174E+02  0.38352001176E+02  0.58024838761E+02  0.51100000000E-03 0.  1.
         23    2    1    0    0    0 -0.50897006576E+01 -0.66531617651E+01  0.27601576379E+02  0.96155301477E+02  0.91726906464E+02 0.  0.
         11    1    3    3    0    0  0.35291572898E+02  0.96366714088E+01 -0.10750424797E+02  0.38130462717E+02  0.51100000000E-03 0. -1.
         22    1    1    0    0    0  0.50897006576E+01  0.66531617651E+01 -0.27601576379E+02  0.28844698523E+02  0.00000000000E+00 0.  1.
</event>
<event>
 5    1  0.8957809E-005  0.9118800E+02  0.7818608E-02  0.1130116E+00
         25   -1    0    0    0    0  0.00000000000E+00  0.00000000000E+00  0.99999998245E-14  0.12500000000E+03  0.12500000000E+03 0.  0.
        -11    1    3    3    0    0  0.95662408049E+01 -0.54333094979E+02 -0.16813246339E+01  0.55194429302E+02  0.51100000000E-03 0. -1.
         23    2    1    0    0    0  0.20975679353E+02 -0.17155204893E+02  0.10488485938E+02  0.95943356758E+02  0.91437624584E+02 0.  0.
         11    1    3    3    0    0  0.11409438548E+02  0.37177890086E+02  0.12169810572E+02  0.40748927456E+02  0.51100000000E-03 0.  1.
         22    1    1    0    0    0 -0.20975679353E+02  0.17155204893E+02 -0.10488485938E+02  0.29056643242E+02  0.00000000000E+00 0. -1.
</event>
<event>
 5    1  0.8957809E-005  0.9118800E+02  0.7818608E-02  0.1130116E+00
         25   -1    0    0    0    0  0.00000000000E+00  0.00000000000E+00  0.99999998245E-14  0.12500000000E+03  0.12500000000E+03 0.  0.
        -11    1    3    3    0    0 -0.31319282053E+02  0.15869456219E+02 -0.17696790992E+02  0.39318106270E+02  0.51100000000E-03 0. -1.
         23    2    1    0    0    0  0.21474059022E+01 -0.23190584442E+02 -0.24493204937E+02  0.91201602894E+02  0.84707737093E+02 0.  0.
         11    1    3    3    0    0  0.33466687955E+02 -0.39060040661E+02 -0.67964139446E+01  0.51883496624E+02  0.51100000000E-03 0.  1.
         22    1    1    0    0    0 -0.21474059022E+01  0.23190584442E+02  0.24493204937E+02  0.33798397106E+02  0.00000000000E+00 0.  1.
</event>
<event>
 5    1  0.8957809E-005  0.9118800E+02  0.7818608E-02  0.1130116E+00
         25   -1    0    0    0    0  0.00000000000E+00  0.00000000000E+00  0.99999998245E-14  0.12500000000E+03  0.12500000000E+03 0.  0.
        -11    1    3    3    0    0  0.17090739511E+02 -0.19192791369E+02  0.25532296431E+02  0.36226437568E+02  0.51100000000E-03 0. -1.
         23    2    1    0    0    0 -0.10039683241E+01  0.28515957526E+02 -0.54917086875E+01  0.95942700568E+02  0.91436727533E+02 0.  0.
         11    1    3    3    0    0 -0.18094707835E+02  0.47708748895E+02 -0.31024005119E+02  0.59716262999E+02  0.51100000000E-03 0.  1.
         22    1    1    0    0    0  0.10039683241E+01 -0.28515957526E+02  0.54917086875E+01  0.29057299432E+02  0.00000000000E+00 0.  1.
</event>
<event>
 5    1  0.8957809E-005  0.9118800E+02  0.7818608E-02  0.1130116E+00
         25   -1    0    0    0    0  0.00000000000E+00  0.00000000000E+00  0.99999998245E-14  0.12500000000E+03  0.12500000000E+03 0.  0.
        -11    1    3    3    0    0 -0.27829747511E+02  0.54227280293E+02 -0.17757870951E+01  0.60977423647E+02  0.51100000000E-03 0.  1.
         23    2    1    0    0    0 -0.19078491153E+02  0.16359462157E+02 -0.68808502422E+00  0.99858514608E+02  0.96641754185E+02 0.  0.
         11    1    3    3    0    0  0.87512563577E+01 -0.37867818136E+02  0.10877020709E+01  0.38881090961E+02  0.51100000000E-03 0. -1.
         22    1    1    0    0    0  0.19078491153E+02 -0.16359462157E+02  0.68808502422E+00  0.25141485392E+02  0.00000000000E+00 0.  1.
</event>
<event>
 5    1  0.8957809E-005  0.9118800E+02  0.7818608E-02  0.1130116E+00
         25   -1    0    0    0    0  0.00000000000E+00  0.00000000000E+00  0.99999998245E-14  0.12500000000E+03  0.12500000000E+03 0.  0.
        -11    1    3    3    0    0 -0.25487944453E+02  0.47818200069E+02 -0.84444132522E+01  0.54840894283E+02  0.51100000000E-03 0.  1.
         23    2    1    0    0    0 -0.24647573094E+02  0.12680569483E+02  0.11198521432E+02  0.95105074275E+02  0.90284376106E+02 0.  0.
         11    1    3    3    0    0  0.84037135936E+00 -0.35137630586E+02  0.19642934684E+02  0.40264179992E+02  0.51100000000E-03 0. -1.
         22    1    1    0    0    0  0.24647573094E+02 -0.12680569483E+02 -0.11198521432E+02  0.29894925725E+02  0.00000000000E+00 0.  1.
</event>
<event>
 5    1  0.8957809E-005  0.9118800E+02  0.7818608E-02  0.1130116E+00
         25   -1    0    0    0    0  0.00000000000E+00  0.00000000000E+00  0.99999998245E-14  0.12500000000E+03  0.12500000000E+03 0.  0.
        -11    1    3    3    0    0 -0.37965590408E+02 -0.28938503002E+02  0.52349426621E+01  0.48023198935E+02  0.51100000000E-03 0.  1.
         23    2    1    0    0    0  0.37687261857E+00 -0.22096727789E+02 -0.20622032701E+02  0.94772931920E+02  0.89823343180E+02 0.  0.
         11    1    3    3    0    0  0.38342463027E+02  0.68417752127E+01 -0.25856975363E+02  0.46749732985E+02  0.51100000000E-03 0. -1.
         22    1    1    0    0    0 -0.37687261857E+00  0.22096727789E+02  0.20622032701E+02  0.30227068080E+02  0.00000000000E+00 0. -1.
</event>
<event>
 5    1  0.8957809E-005  0.9118800E+02  0.7818608E-02  0.1130116E+00
         25   -1    0    0    0    0  0.00000000000E+00  0.00000000000E+00  0.99999998245E-14  0.12500000000E+03  0.12500000000E+03 0.  0.
        -11    1    3    3    0    0  0.58443993485E-01  0.41377068631E+02 -0.22012305762E+02  0.46867972320E+02  0.51100000000E-03 0. -1.
         23    2    1    0    0    0  0.27713811246E+02  0.70516224497E+01  0.57325512083E+00  0.96397389378E+02  0.92056218392E+02 0.  0.
         11    1    3    3    0    0  0.27655367252E+02 -0.34325446182E+02  0.22585560882E+02  0.49529417058E+02  0.51100000000E-03 0.  1.
         22    1    1    0    0    0 -0.27713811246E+02 -0.70516224497E+01 -0.57325512083E+00  0.28602610622E+02  0.00000000000E+00 0. -1.
</event>
<event>
 5    1  0.8957809E-005  0.9118800E+02  0.7818608E-02  0.1130116E+00
         25   -1    0    0    0    0  0.00000000000E+00  0.00000000000E+00  0.99999998245E-14  0.12500000000E+03  0.12500000000E+03 0.  0.
        -11    1    3    3    0    0  0.30359885556E+02  0.30909371056E+02 -0.14600416959E+02  0.45719624295E+02  0.51100000000E-03 0. -1.
         23    2    1    0    0    0  0.13892757867E+02  0.34264754753E+01  0.24718266835E+02  0.96438799558E+02  0.92112430700E+02 0.  0.
         11    1    3    3    0    0 -0.16467127688E+02 -0.27482895581E+02  0.39318683794E+02  0.50719175263E+02  0.51100000000E-03 0.  1.
         22    1    1    0    0    0 -0.13892757867E+02 -0.34264754753E+01 -0.24718266835E+02  0.28561200442E+02  0.00000000000E+00 0.  1.
</event>
<event>
 5    1  0.8957809E-005  0.9118800E+02  0.7818608E-02  0.1130116E+00
         25   -1    0    0    0    0  0.00000000000E+00  0.00000000000E+00  0.99999998245E-14  0.12500000000E+03  0.12500000000E+03 0.  0.
        -11    1    3    3    0    0  0.28527347749E+02 -0.43141902078E+02 -0.10294621447E+02  0.52735306157E+02  0.51100000000E-03 0.  1.
         23    2    1    0    0    0  0.28955372361E+02 -0.31921616688E+01  0.48630188591E+01  0.95466079889E+02  0.90782817605E+02 0.  0.
         11    1    3    3    0    0  0.42802461171E+00  0.39949740409E+02  0.15157640306E+02  0.42730773732E+02  0.51100000000E-03 0. -1.
         22    1    1    0    0    0 -0.28955372361E+02  0.31921616688E+01 -0.48630188591E+01  0.29533920111E+02  0.00000000000E+00 0. -1.
</event>
<event>
 5    1  0.8957809E-005  0.9118800E+02  0.7818608E-02  0.1130116E+00
         25   -1    0    0    0    0  0.00000000000E+00  0.00000000000E+00  0.99999998245E-14  0.12500000000E+03  0.12500000000E+03 0.  0.
        -11    1    3    3    0    0  0.28108201179E+02 -0.17758016093E+02 -0.14612736393E+02  0.36317353624E+02  0.51100000000E-03 0. -1.
         23    2    1    0    0    0 -0.80083214914E+01  0.27742867857E+02 -0.40685601239E+00  0.96121539829E+02  0.91680886542E+02 0.  0.
         11    1    3    3    0    0 -0.36116522670E+02  0.45500883950E+02  0.14205880381E+02  0.59804186205E+02  0.51100000000E-03 0.  1.
         22    1    1    0    0    0  0.80083214914E+01 -0.27742867857E+02  0.40685601239E+00  0.28878460171E+02  0.00000000000E+00 0.  1.
</event>
<event>
 5    1  0.8957809E-005  0.9118800E+02  0.7818608E-02  0.1130116E+00
         25   -1    0    0    0    0  0.00000000000E+00  0.00000000000E+00  0.99999998245E-14  0.12500000000E+03  0.12500000000E+03 0.  0.
        -11    1    3    3    0    0 -0.26802806598E+02 -0.36723538535E+02  0.27469220230E+01  0.45547275494E+02  0.51100000000E-03 0.  1.
         23    2    1    0    0    0 -0.25013447779E+02  0.13392630533E+02 -0.46836229356E+01  0.96242888772E+02  0.91846187689E+02 0.  0.
         11    1    3    3    0    0  0.17893588191E+01  0.50116169067E+02 -0.74305449586E+01  0.50695613278E+02  0.51100000000E-03 0. -1.
         22    1    1    0    0    0  0.25013447779E+02 -0.13392630533E+02  0.46836229356E+01  0.28757111228E+02  0.00000000000E+00 0. -1.
</event>
<event>
 5    1  0.8957809E-005  0.9118800E+02  0.7818608E-02  0.1130116E+00
         25   -1    0    0    0    0  0.00000000000E+00  0.00000000000E+00  0.99999998245E-14  0.12500000000E+03  0.12500000000E+03 0.  0.
        -11    1    3    3    0    0 -0.44648082605E+02  0.15050766457E+02  0.33099515390E+02  0.57580854202E+02  0.51100000000E-03 0.  1.
         23    2    1    0    0    0 -0.29237846744E+02 -0.22596522796E+01  0.30684799792E+01  0.95514863405E+02  0.90849963408E+02 0.  0.
         11    1    3    3    0    0  0.15410235861E+02 -0.17310418737E+02 -0.30031035411E+02  0.37934009204E+02  0.51100000000E-03 0. -1.
         22    1    1    0    0    0  0.29237846744E+02  0.22596522796E+01 -0.30684799792E+01  0.29485136595E+02  0.00000000000E+00 0. -1.
</event>
<event>
 5    1  0.8957809E-005  0.9118800E+02  0.7818608E-02  0.1130116E+00
         25   -1    0    0    0    0  0.00000000000E+00  0.00000000000E+00  0.99999998245E-14  0.12500000000E+03  0.12500000000E+03 0.  0.
        -11    1    3    3    0    0  0.22635359802E+02 -0.12649723456E+02 -0.30478461294E+02  0.40016391891E+02  0.51100000000E-03 0. -1.
         23    2    1    0    0    0  0.13138292114E+02  0.19195153612E+02  0.15720249983E+02  0.96925190982E+02  0.92770133909E+02 0.  0.
         11    1    3    3    0    0 -0.94970676883E+01  0.31844877068E+02  0.46198711276E+02  0.56908799091E+02  0.51100000000E-03 0.  1.
         22    1    1    0    0    0 -0.13138292114E+02 -0.19195153612E+02 -0.15720249983E+02  0.28074809018E+02  0.00000000000E+00 0.  1.
</event>
<event>
 5    1  0.8957809E-005  0.9118800E+02  0.7818608E-02  0.1130116E+00
         25   -1    0    0    0    0  0.00000000000E+00  0.00000000000E+00  0.99999998245E-14  0.12500000000E+03  0.12500000000E+03 0.  0.
        -11    1    3    3    0    0  0.49058188802E+02 -0.15427460599E+02 -0.29259655325E+02  0.59167895510E+02  0.51100000000E-03 0. -1.
         23    2    1    0    0    0  0.26819741583E+02 -0.15878712980E+02 -0.28415438436E+01  0.93702932471E+02  0.88321759028E+02 0.  0.
         11    1    3    3    0    0 -0.22238447219E+02 -0.45125238099E+00  0.26418111482E+02  0.34535036962E+02  0.51100000000E-03 0.  1.
         22    1    1    0    0    0 -0.26819741583E+02  0.15878712980E+02  0.28415438436E+01  0.31297067529E+02  0.00000000000E+00 0. -1.
</event>
<event>
 5    1  0.8957809E-005  0.9118800E+02  0.7818608E-02  0.1130116E+00
         25   -1    0    0    0    0  0.00000000000E+00  0.00000000000E+00  0.99999998245E-14  0.12500000000E+03  0.12500000000E+03 0.  0.
        -11    1    3    3    0    0  0.27106058031E+02 -0.31040119477E+02  0.20262738695E+02  0.45921737542E+02  0.51100000000E-03 0.  1.
         23    2    1    0    0    0 -0.77789804187E+01 -0.30119715728E+02 -0.10218548079E+02  0.92256626064E+02  0.86250545018E+02 0.  0.
         11    1    3    3    0    0 -0.34885038450E+02  0.92040374934E+00 -0.30481286774E+02  0.46334888522E+02  0.51100000000E-03 0. -1.
         22    1    1    0    0    0  0.77789804187E+01  0.30119715728E+02  0.10218548079E+02  0.32743373936E+02  0.00000000000E+00 0. -1.
</event>
<event>
 5    1  0.8957809E-005  0.9118800E+02  0.7818608E-02  0.1130116E+00
         25   -1    0    0    0    0  0.00000000000E+00  0.00000000000E+00  0.99999998245E-14  0.12500000000E+03  0.12500000000E+03 0.  0.
        -11    1    3    3    0    0  0.73063658244E+01  0.49993079413E+00 -0.54949291318E+02  0.55435165094E+02  0.51100000000E-03 0.  1.
         23    2    1    0    0    0 -0.56177808352E+00 -0.20073122866E+02 -0.20664899354E+02  0.96185352310E+02  0.91767848822E+02 0.  0.
         11    1    3    3    0    0 -0.78681439079E+01 -0.20573053660E+02  0.34284391965E+02  0.40750187216E+02  0.51100000000E-03 0. -1.
         22    1    1    0    0    0  0.56177808352E+00  0.20073122866E+02  0.20664899354E+02  0.28814647690E+02  0.00000000000E+00 0.  1.
</event>
<event>
 5    1  0.8957809E-005  0.9118800E+02  0.7818608E-02  0.1130116E+00
         25   -1    0    0    0    0  0.00000000000E+00  0.00000000000E+00  0.99999998245E-14  0.12500000000E+03  0.12500000000E+03 0.  0.
        -11    1    3    3    0    0  0.28435785671E+02 -0.27298792967E+02 -0.41758161064E+02  0.57424402652E+02  0.51100000000E-03 0.  1.
         23    2    1    0    0    0  0.21329485306E+02 -0.19969243406E+02 -0.52747398772E+01  0.95309252176E+02  0.90566622129E+02 0.  0.
         11    1    3    3    0    0 -0.71063003655E+01  0.73295495617E+01  0.36483421187E+02  0.37884849524E+02  0.51100000000E-03 0. -1.
         22    1    1    0    0    0 -0.21329485306E+02  0.19969243406E+02  0.52747398772E+01  0.29690747824E+02  0.00000000000E+00 0.  1.
</event>
<event>
 5    1  0.8957809E-005  0.9118800E+02  0.7818608E-02  0.1130116E+00
         25   -1    0    0    0    0  0.00000000000E+00  0.00000000000E+00  0.99999998245E-14  0.12500000000E+03  0.12500000000E+03 0.  0.
        -11    1    3    3    0    0  0.36918468194E+02 -0.75274952561E+01 -0.34776424402E+02  0.51274127717E+02  0.51100000000E-03 0. -1.
         23    2    1    0    0    0  0.24680910527E+02  0.17458401347E+02 -0.13855778863E+01  0.94736772344E+02  0.89773008672E+02 0.  0.
         11    1    3    3    0    0 -0.12237557667E+02  0.24985896603E+02  0.33390846516E+02  0.43462644628E+02  0.51100000000E-03 0.  1.
         22    1    1    0    0    0 -0.24680910527E+02 -0.17458401347E+02  0.13855778863E+01  0.30263227656E+02  0.00000000000E+00 0. -1.
</event>
<event>
 5    1  0.8957809E-005  0.9118800E+02  0.7818608E-02  0.1130116E+00
         25   -1    0    0    0    0  0.00000000000E+00  0.00000000000E+00  0.99999998245E-14  0.12500000000E+03  0.12500000000E+03 0.  0.
        -11    1    3    3    0    0 -0.16975356509E+02  0.33592626894E+02 -0.37803501868E+02  0.53345403402E+02  0.51100000000E-03 0. -1.
         23    2    1    0    0    0 -0.16551447260E+02  0.22280012885E+02  0.42726917984E+01  0.96917883346E+02  0.92760286958E+02 0.  0.
         11    1    3    3    0    0  0.42390924961E+00 -0.11312614009E+02  0.42076193667E+02  0.43572479945E+02  0.51100000000E-03 0.  1.
         22    1    1    0    0    0  0.16551447260E+02 -0.22280012885E+02 -0.42726917984E+01  0.28082116654E+02  0.00000000000E+00 0. -1.
</event>
<event>
 5    1  0.8957809E-005  0.9118800E+02  0.7818608E-02  0.1130116E+00
         25   -1    0    0    0    0  0.00000000000E+00  0.00000000000E+00  0.99999998245E-14  0.12500000000E+03  0.12500000000E+03 0.  0.
        -11    1    3    3    0    0 -0.32288637213E+02  0.12086886748E+01  0.29462337981E+02  0.43726952569E+02  0.51100000000E-03 0.  1.
         23    2    1    0    0    0 -0.17740943302E+02 -0.31655581340E-01 -0.21722490950E+02  0.96953455036E+02  0.92808209546E+02 0.  0.
         11    1    3    3    0    0  0.14547693911E+02 -0.12403442562E+01 -0.51184828931E+02  0.53226502468E+02  0.51100000000E-03 0. -1.
         22    1    1    0    0    0  0.17740943302E+02  0.31655581340E-01  0.21722490950E+02  0.28046544964E+02  0.00000000000E+00 0. -1.
</event>
<event>
 5    1  0.8957809E-005  0.9118800E+02  0.7818608E-02  0.1130116E+00
         25   -1    0    0    0    0  0.00000000000E+00  0.00000000000E+00  0.99999998245E-14  0.12500000000E+03  0.12500000000E+03 0.  0.
        -11    1    3    3    0    0 -0.38192994250E+02  0.25880755900E+01 -0.20928708178E+02  0.43628130504E+02  0.51100000000E-03 0.  1.
         23    2    1    0    0    0 -0.30929078140E+01 -0.28771001616E+02  0.20201648174E+01  0.95992799538E+02  0.91505190479E+02 0.  0.
         11    1    3    3    0    0  0.35100086435E+02 -0.31359077206E+02  0.22948872996E+02  0.52364669034E+02  0.51100000000E-03 0. -1.
         22    1    1    0    0    0  0.30929078140E+01  0.28771001616E+02 -0.20201648174E+01  0.29007200462E+02  0.00000000000E+00 0. -1.
</event>
<event>
 5    1  0.8957809E-005  0.9118800E+02  0.7818608E-02  0.1130116E+00
         25   -1    0    0    0    0  0.00000000000E+00  0.00000000000E+00  0.99999998245E-14  0.12500000000E+03  0.12500000000E+03 0.  0.
        -11    1    3    3    0    0 -0.11961984654E+02  0.45163319847E+02 -0.37714353893E+02  0.60043209660E+02  0.51100000000E-03 0.  1.
         23    2    1    0    0    0 -0.17301633321E+02  0.18797678520E+02 -0.14209316914E+02  0.95766390567E+02  0.91195381691E+02 0.  0.
         11    1    3    3    0    0 -0.53396486666E+01 -0.26365641327E+02  0.23505036979E+02  0.35723180907E+02  0.51100000000E-03 0. -1.
         22    1    1    0    0    0  0.17301633321E+02 -0.18797678520E+02  0.14209316914E+02  0.29233609433E+02  0.00000000000E+00 0.  1.
</event>
<event>
 5    1  0.8957809E-005  0.9118800E+02  0.7818608E-02  0.1130116E+00
         25   -1    0    0    0    0  0.00000000000E+00  0.00000000000E+00  0.99999998245E-14  0.12500000000E+03  0.12500000000E+03 0.  0.
        -11    1    3    3    0    0  0.55338563042E+02 -0.14803798262E+02 -0.58637469154E+01  0.57583787047E+02  0.51100000000E-03 0.  1.
         23    2    1    0    0    0  0.18829334984E+02 -0.12615168178E+02 -0.17933364885E+02  0.96098583077E+02  0.91649581391E+02 0.  0.
         11    1    3    3    0    0 -0.36509228058E+02  0.21886300846E+01 -0.12069617969E+02  0.38514796030E+02  0.51100000000E-03 0. -1.
         22    1    1    0    0    0 -0.18829334984E+02  0.12615168178E+02  0.17933364885E+02  0.28901416923E+02  0.00000000000E+00 0.  1.
</event>
<event>
 5    1  0.8957809E-005  0.9118800E+02  0.7818608E-02  0.1130116E+00
         25   -1    0    0    0    0  0.00000000000E+00  0.00000000000E+00  0.99999998245E-14  0.12500000000E+03  0.12500000000E+03 0.  0.
        -11    1    3    3    0    0 -0.13286600531E+02  0.34316522869E+02  0.18504996283E+02  0.41189712104E+02  0.51100000000E-03 0.  1.
         23    2    1    0    0    0 -0.90855164728E+01 -0.64864993155E+00 -0.25714950876E+02  0.97719493134E+02  0.93834286290E+02 0.  0.
         11    1    3    3    0    0  0.42010840585E+01 -0.34965172801E+02 -0.44219947159E+02  0.56529781030E+02  0.51100000000E-03 0. -1.
         22    1    1    0    0    0  0.90855164728E+01  0.64864993155E+00  0.25714950876E+02  0.27280506866E+02  0.00000000000E+00 0. -1.
</event>
<event>
 5    1  0.8957809E-005  0.9118800E+02  0.7818608E-02  0.1130116E+00
         25   -1    0    0    0    0  0.00000000000E+00  0.00000000000E+00  0.99999998245E-14  0.12500000000E+03  0.12500000000E+03 0.  0.
        -11    1    3    3    0    0 -0.23925663362E+02  0.35456227454E+02  0.36191591448E+02  0.56030462468E+02  0.51100000000E-03 0. -1.
         23    2    1    0    0    0 -0.16414842334E+02  0.23241562557E+02 -0.16507400072E+01  0.96498382124E+02  0.92193251006E+02 0.  0.
         11    1    3    3    0    0  0.75108210279E+01 -0.12214664897E+02 -0.37842331455E+02  0.40467919656E+02  0.51100000000E-03 0.  1.
         22    1    1    0    0    0  0.16414842334E+02 -0.23241562557E+02  0.16507400072E+01  0.28501617876E+02  0.00000000000E+00 0.  1.
</event>
<event>
 4    1  0.8957809E-005  0.9118800E+02  0.7818608E-02  0.1130116E+00
         25   -1    0    0    0    0  0.00000000000E+00  0.00000000000E+00  0.99999998245E-14  0.12500000000E+03  0.12500000000E+03 0.  0.
        -11    1    1    0    0    0 -0.31655912478E+02 -0.41640451455E+02  0.13327293719E+02  0.53978150675E+02  0.51100000000E-03 0.  1.
         11    1    1    0    0    0  0.14005024784E+01 -0.54645572715E+00  0.12810650165E+02  0.12898557244E+02  0.51100000000E-03 0. -1.
         22    1    1    0    0    0  0.30255410000E+02  0.42186907182E+02 -0.26137943884E+02  0.58123292081E+02  0.00000000000E+00 0.  1.
</event>
<event>
 5    1  0.8957809E-005  0.9118800E+02  0.7818608E-02  0.1130116E+00
         25   -1    0    0    0    0  0.00000000000E+00  0.00000000000E+00  0.99999998245E-14  0.12500000000E+03  0.12500000000E+03 0.  0.
        -11    1    3    3    0    0  0.57342259686E+02 -0.23051583951E+02 -0.80818018775E+01  0.62328370670E+02  0.51100000000E-03 0. -1.
         23    2    1    0    0    0  0.26142608804E+02 -0.13963417989E+02 -0.45186418469E+01  0.95019486976E+02  0.90165801411E+02 0.  0.
         11    1    3    3    0    0 -0.31199650882E+02  0.90881659620E+01  0.35631600306E+01  0.32691116307E+02  0.51100000000E-03 0.  1.
         22    1    1    0    0    0 -0.26142608804E+02  0.13963417989E+02  0.45186418469E+01  0.29980513024E+02  0.00000000000E+00 0. -1.
</event>
<event>
 5    1  0.8957809E-005  0.9118800E+02  0.7818608E-02  0.1130116E+00
         25   -1    0    0    0    0  0.00000000000E+00  0.00000000000E+00  0.99999998245E-14  0.12500000000E+03  0.12500000000E+03 0.  0.
        -11    1    3    3    0    0  0.63684453464E+01 -0.48958697167E+02  0.15140018736E+02  0.51640403678E+02  0.51100000000E-03 0.  1.
         23    2    1    0    0    0  0.80431844235E+01 -0.19902059250E+02 -0.18880749642E+02  0.96412109467E+02  0.92076204129E+02 0.  0.
         11    1    3    3    0    0  0.16747390771E+01  0.29056637917E+02 -0.34020768378E+02  0.44771705789E+02  0.51100000000E-03 0. -1.
         22    1    1    0    0    0 -0.80431844235E+01  0.19902059250E+02  0.18880749642E+02  0.28587890533E+02  0.00000000000E+00 0. -1.
</event>
<event>
 5    1  0.8957809E-005  0.9118800E+02  0.7818608E-02  0.1130116E+00
         25   -1    0    0    0    0  0.00000000000E+00  0.00000000000E+00  0.99999998245E-14  0.12500000000E+03  0.12500000000E+03 0.  0.
        -11    1    3    3    0    0 -0.50000727650E+02  0.12533135982E+02 -0.32683515288E+02  0.61035763573E+02  0.51100000000E-03 0. -1.
         23    2    1    0    0    0 -0.25735151283E+02 -0.27306821963E+01 -0.11500724038E+02  0.96680019594E+02  0.92439195682E+02 0.  0.
         11    1    3    3    0    0  0.24265576367E+02 -0.15263818179E+02  0.21182791250E+02  0.35644256020E+02  0.51100000000E-03 0.  1.
         22    1    1    0    0    0  0.25735151283E+02  0.27306821963E+01  0.11500724038E+02  0.28319980406E+02  0.00000000000E+00 0. -1.
</event>
<event>
 5    1  0.8957809E-005  0.9118800E+02  0.7818608E-02  0.1130116E+00
         25   -1    0    0    0    0  0.00000000000E+00  0.00000000000E+00  0.99999998245E-14  0.12500000000E+03  0.12500000000E+03 0.  0.
        -11    1    3    3    0    0 -0.54956612949E+02 -0.19378951450E+02 -0.78953839487E+01  0.58805698313E+02  0.51100000000E-03 0. -1.
         23    2    1    0    0    0 -0.28767969933E+02  0.44681500448E+01  0.26638331709E+01  0.95765491862E+02  0.91194149843E+02 0.  0.
         11    1    3    3    0    0  0.26188643016E+02  0.23847101495E+02  0.10559217120E+02  0.36959793549E+02  0.51100000000E-03 0.  1.
         22    1    1    0    0    0  0.28767969933E+02 -0.44681500448E+01 -0.26638331709E+01  0.29234508138E+02  0.00000000000E+00 0. -1.
</event>
<event>
 5    1  0.8957809E-005  0.9118800E+02  0.7818608E-02  0.1130116E+00
         25   -1    0    0    0    0  0.00000000000E+00  0.00000000000E+00  0.99999998245E-14  0.12500000000E+03  0.12500000000E+03 0.  0.
        -11    1    3    3    0    0 -0.30309199602E+02 -0.37084324877E+02 -0.30093840216E+02  0.56564423018E+02  0.51100000000E-03 0. -1.
         23    2    1    0    0    0 -0.29620351547E+01 -0.97887697603E+01 -0.27922336045E+02  0.95263649923E+02  0.90503660041E+02 0.  0.
         11    1    3    3    0    0  0.27347164447E+02  0.27295555117E+02  0.21715041716E+01  0.38699226906E+02  0.51100000000E-03 0.  1.
         22    1    1    0    0    0  0.29620351547E+01  0.97887697603E+01  0.27922336045E+02  0.29736350077E+02  0.00000000000E+00 0. -1.
</event>
<event>
 5    1  0.8957809E-005  0.9118800E+02  0.7818608E-02  0.1130116E+00
         25   -1    0    0    0    0  0.00000000000E+00  0.00000000000E+00  0.99999998245E-14  0.12500000000E+03  0.12500000000E+03 0.  0.
        -11    1    3    3    0    0  0.24193440539E+02  0.19946388582E+02  0.19194244211E+02  0.36764112850E+02  0.51100000000E-03 0.  1.
         23    2    1    0    0    0 -0.20189377243E+02  0.66034358558E+01 -0.18754376773E+02  0.96663751718E+02  0.92417194988E+02 0.  0.
         11    1    3    3    0    0 -0.44382817781E+02 -0.13342952726E+02 -0.37948620984E+02  0.59899638868E+02  0.51100000000E-03 0. -1.
         22    1    1    0    0    0  0.20189377243E+02 -0.66034358558E+01  0.18754376773E+02  0.28336248282E+02  0.00000000000E+00 0. -1.
</event>
<event>
 5    1  0.8957809E-005  0.9118800E+02  0.7818608E-02  0.1130116E+00
         25   -1    0    0    0    0  0.00000000000E+00  0.00000000000E+00  0.99999998245E-14  0.12500000000E+03  0.12500000000E+03 0.  0.
        -11    1    3    3    0    0  0.44034151225E+02  0.38678267066E+02 -0.17701949498E+02  0.61223964537E+02  0.51100000000E-03 0. -1.
         23    2    1    0    0    0  0.19073495927E+02  0.15425670567E+02 -0.16648214215E+02  0.95353539910E+02  0.90627727421E+02 0.  0.
         11    1    3    3    0    0 -0.24960655298E+02 -0.23252596498E+02  0.10537352834E+01  0.34129575373E+02  0.51100000000E-03 0.  1.
         22    1    1    0    0    0 -0.19073495927E+02 -0.15425670567E+02  0.16648214215E+02  0.29646460090E+02  0.00000000000E+00 0. -1.
</event>
<event>
 5    1  0.8957809E-005  0.9118800E+02  0.7818608E-02  0.1130116E+00
         25   -1    0    0    0    0  0.00000000000E+00  0.00000000000E+00  0.99999998245E-14  0.12500000000E+03  0.12500000000E+03 0.  0.
        -11    1    3    3    0    0  0.13134726163E+02 -0.28449773559E+02  0.43887729243E+02  0.53926277689E+02  0.51100000000E-03 0.  1.
         23    2    1    0    0    0  0.11250752601E+02 -0.21337075900E+02 -0.23669865610E+01  0.10076257300E+03  0.97804106512E+02 0.  0.
         11    1    3    3    0    0 -0.18839735620E+01  0.71126976589E+01 -0.46254715804E+02  0.46836295314E+02  0.51100000000E-03 0. -1.
         22    1    1    0    0    0 -0.11250752601E+02  0.21337075900E+02  0.23669865610E+01  0.24237426997E+02  0.00000000000E+00 0.  1.
</event>
<event>
 5    1  0.8957809E-005  0.9118800E+02  0.7818608E-02  0.1130116E+00
         25   -1    0    0    0    0  0.00000000000E+00  0.00000000000E+00  0.99999998245E-14  0.12500000000E+03  0.12500000000E+03 0.  0.
        -11    1    3    3    0    0  0.37290489096E+02 -0.41767253096E+02  0.18643935596E+02  0.59014238477E+02  0.51100000000E-03 0.  1.
         23    2    1    0    0    0  0.99089203960E+01 -0.28242367958E+02 -0.51360952285E+00  0.95065373795E+02  0.90229393486E+02 0.  0.
         11    1    3    3    0    0 -0.27381568700E+02  0.13524885138E+02 -0.19157545119E+02  0.36051135318E+02  0.51100000000E-03 0. -1.
         22    1    1    0    0    0 -0.99089203960E+01  0.28242367958E+02  0.51360952285E+00  0.29934626205E+02  0.00000000000E+00 0.  1.
</event>
<event>
 5    1  0.8957809E-005  0.9118800E+02  0.7818608E-02  0.1130116E+00
         25   -1    0    0    0    0  0.00000000000E+00  0.00000000000E+00  0.99999998245E-14  0.12500000000E+03  0.12500000000E+03 0.  0.
        -11    1    3    3    0    0 -0.12572448779E+02 -0.14037296142E+02  0.27835945591E+02  0.33614758939E+02  0.51100000000E-03 0.  1.
         23    2    1    0    0    0  0.10673918091E+02  0.23823786987E+02 -0.14630512187E+02  0.95074137595E+02  0.90241533668E+02 0.  0.
         11    1    3    3    0    0  0.23246366870E+02  0.37861083129E+02 -0.42466457778E+02  0.61459378657E+02  0.51100000000E-03 0. -1.
         22    1    1    0    0    0 -0.10673918091E+02 -0.23823786987E+02  0.14630512187E+02  0.29925862405E+02  0.00000000000E+00 0. -1.
</event>
<event>
 5    1  0.8957809E-005  0.9118800E+02  0.7818608E-02  0.1130116E+00
         25   -1    0    0    0    0  0.00000000000E+00  0.00000000000E+00  0.99999998245E-14  0.12500000000E+03  0.12500000000E+03 0.  0.
        -11    1    3    3    0    0  0.45379644091E+02  0.35857700779E+02  0.11846253936E+02  0.59037450280E+02  0.51100000000E-03 0.  1.
         23    2    1    0    0    0  0.10226560272E+02  0.21135222745E+02  0.14770580930E+02  0.97261033969E+02  0.93221555942E+02 0.  0.
         11    1    3    3    0    0 -0.35153083819E+02 -0.14722478034E+02  0.29243269942E+01  0.38223583689E+02  0.51100000000E-03 0. -1.
         22    1    1    0    0    0 -0.10226560272E+02 -0.21135222745E+02 -0.14770580930E+02  0.27738966031E+02  0.00000000000E+00 0.  1.
</event>
<event>
 5    1  0.8957809E-005  0.9118800E+02  0.7818608E-02  0.1130116E+00
         25   -1    0    0    0    0  0.00000000000E+00  0.00000000000E+00  0.99999998245E-14  0.12500000000E+03  0.12500000000E+03 0.  0.
        -11    1    3    3    0    0 -0.28340786447E+02  0.45345526438E+02 -0.27600953943E+02  0.60176653307E+02  0.51100000000E-03 0. -1.
         23    2    1    0    0    0 -0.12611660885E+02  0.26441891589E+02 -0.20600350832E+01  0.95632137197E+02  0.91011176782E+02 0.  0.
         11    1    3    3    0    0  0.15729125562E+02 -0.18903634849E+02  0.25540918859E+02  0.35455483890E+02  0.51100000000E-03 0.  1.
         22    1    1    0    0    0  0.12611660885E+02 -0.26441891589E+02  0.20600350832E+01  0.29367862803E+02  0.00000000000E+00 0. -1.
</event>
<event>
 5    1  0.8957809E-005  0.9118800E+02  0.7818608E-02  0.1130116E+00
         25   -1    0    0    0    0  0.00000000000E+00  0.00000000000E+00  0.99999998245E-14  0.12500000000E+03  0.12500000000E+03 0.  0.
        -11    1    3    3    0    0 -0.13219954791E+02  0.85828008917E+01  0.59764789696E+02  0.61808266142E+02  0.51100000000E-03 0. -1.
         23    2    1    0    0    0 -0.10352490958E+02  0.83593137369E+01  0.25108934381E+02  0.96583265829E+02  0.92308268629E+02 0.  0.
         11    1    3    3    0    0  0.28674638336E+01 -0.22348715482E+00 -0.34655855315E+02  0.34774999687E+02  0.51100000000E-03 0.  1.
         22    1    1    0    0    0  0.10352490958E+02 -0.83593137369E+01 -0.25108934381E+02  0.28416734171E+02  0.00000000000E+00 0. -1.
</event>
<event>
 5    1  0.8957809E-005  0.9118800E+02  0.7818608E-02  0.1130116E+00
         25   -1    0    0    0    0  0.00000000000E+00  0.00000000000E+00  0.99999998245E-14  0.12500000000E+03  0.12500000000E+03 0.  0.
        -11    1    3    3    0    0  0.53701784497E+02 -0.21435408586E+02 -0.89335205157E+01  0.58507830147E+02  0.51100000000E-03 0.  1.
         23    2    1    0    0    0  0.29621897531E+02  0.50973371236E+01 -0.42985075706E+01  0.94636916717E+02  0.89633861790E+02 0.  0.
         11    1    3    3    0    0 -0.24079886966E+02  0.26532745709E+02  0.46350129451E+01  0.36129086571E+02  0.51100000000E-03 0. -1.
         22    1    1    0    0    0 -0.29621897531E+02 -0.50973371236E+01  0.42985075706E+01  0.30363083283E+02  0.00000000000E+00 0.  1.
</event>
<event>
 5    1  0.8957809E-005  0.9118800E+02  0.7818608E-02  0.1130116E+00
         25   -1    0    0    0    0  0.00000000000E+00  0.00000000000E+00  0.99999998245E-14  0.12500000000E+03  0.12500000000E+03 0.  0.
        -11    1    3    3    0    0 -0.14714989951E+02  0.28236651653E+01  0.32063227753E+02  0.35391447956E+02  0.51100000000E-03 0. -1.
         23    2    1    0    0    0 -0.53164789199E+01  0.12785393658E+02 -0.26266394089E+02  0.95307329229E+02  0.90563968040E+02 0.  0.
         11    1    3    3    0    0  0.93985110306E+01  0.99617284931E+01 -0.58329621842E+02  0.59915881273E+02  0.51100000000E-03 0.  1.
         22    1    1    0    0    0  0.53164789199E+01 -0.12785393658E+02  0.26266394089E+02  0.29692670771E+02  0.00000000000E+00 0.  1.
</event>
<event>
 5    1  0.8957809E-005  0.9118800E+02  0.7818608E-02  0.1130116E+00
         25   -1    0    0    0    0  0.00000000000E+00  0.00000000000E+00  0.99999998245E-14  0.12500000000E+03  0.12500000000E+03 0.  0.
        -11    1    3    3    0    0 -0.15653700008E+01  0.33048597122E+02 -0.18538614131E+02  0.37925458061E+02  0.51100000000E-03 0.  1.
         23    2    1    0    0    0  0.22433652501E+02 -0.10874632520E+02  0.12796643573E+02  0.96977143548E+02  0.92840109258E+02 0.  0.
         11    1    3    3    0    0  0.23999022502E+02 -0.43923229642E+02  0.31335257704E+02  0.59051685487E+02  0.51100000000E-03 0. -1.
         22    1    1    0    0    0 -0.22433652501E+02  0.10874632520E+02 -0.12796643573E+02  0.28022856452E+02  0.00000000000E+00 0. -1.
</event>
<event>
 5    1  0.8957809E-005  0.9118800E+02  0.7818608E-02  0.1130116E+00
         25   -1    0    0    0    0  0.00000000000E+00  0.00000000000E+00  0.99999998245E-14  0.12500000000E+03  0.12500000000E+03 0.  0.
        -11    1    3    3    0    0  0.52064776643E+02  0.14386404481E+01 -0.11771486875E+02  0.53398301066E+02  0.51100000000E-03 0.  1.
         23    2    1    0    0    0  0.23717684415E+02 -0.11623997296E+02  0.15092464200E+02  0.94579146252E+02  0.89553261040E+02 0.  0.
         11    1    3    3    0    0 -0.28347092228E+02 -0.13062637744E+02  0.26863951075E+02  0.41180845186E+02  0.51100000000E-03 0. -1.
         22    1    1    0    0    0 -0.23717684415E+02  0.11623997296E+02 -0.15092464200E+02  0.30420853748E+02  0.00000000000E+00 0.  1.
</event>
<event>
 4    1  0.8957809E-005  0.9118800E+02  0.7818608E-02  0.1130116E+00
         25   -1    0    0    0    0  0.00000000000E+00  0.00000000000E+00  0.99999998245E-14  0.12500000000E+03  0.12500000000E+03 0.  0.
        -11    1    1    0    0    0 -0.29246066521E+02  0.17881670242E+02  0.40007187791E+02  0.52684548140E+02  0.51100000000E-03 0. -1.
         11    1    1    0    0    0  0.70790319823E+01 -0.92076099677E+01  0.11019260922E+02  0.16009899646E+02  0.51100000000E-03 0.  1.
         22    1    1    0    0    0  0.22167034538E+02 -0.86740602743E+01 -0.51026448713E+02  0.56305552214E+02  0.00000000000E+00 0. -1.
</event>
<event>
 5    1  0.8957809E-005  0.9118800E+02  0.7818608E-02  0.1130116E+00
         25   -1    0    0    0    0  0.00000000000E+00  0.00000000000E+00  0.99999998245E-14  0.12500000000E+03  0.12500000000E+03 0.  0.
        -11    1    3    3    0    0 -0.28272882048E+02  0.19636921545E+02  0.45327938069E+01  0.34720466112E+02  0.51100000000E-03 0.  1.
         23    2    1    0    0    0  0.28503631332E+02 -0.11769060107E+01  0.82415413727E+01  0.95305470015E+02  0.90561401843E+02 0.  0.
         11    1    3    3    0    0  0.56776513380E+02 -0.20813827556E+02  0.37087475658E+01  0.60585003903E+02  0.51100000000E-03 0. -1.
         22    1    1    0    0    0 -0.28503631332E+02  0.11769060107E+01 -0.82415413727E+01  0.29694529985E+02  0.00000000000E+00 0. -1.
</event>
<event>
 5    1  0.8957809E-005  0.9118800E+02  0.7818608E-02  0.1130116E+00
         25   -1    0    0    0    0  0.00000000000E+00  0.00000000000E+00  0.99999998245E-14  0.12500000000E+03  0.12500000000E+03 0.  0.
        -11    1    3    3    0    0  0.21229503411E+02 -0.39983957358E+02 -0.33326428083E+02  0.56214406250E+02  0.51100000000E-03 0. -1.
         23    2    1    0    0    0 -0.74129704675E+01 -0.26741759618E+02 -0.98174169470E+01  0.95564383578E+02  0.90918072431E+02 0.  0.
         11    1    3    3    0    0 -0.28642473879E+02  0.13242197739E+02  0.23509011136E+02  0.39349977328E+02  0.51100000000E-03 0.  1.
         22    1    1    0    0    0  0.74129704675E+01  0.26741759618E+02  0.98174169470E+01  0.29435616422E+02  0.00000000000E+00 0. -1.
</event>
<event>
 5    1  0.8957809E-005  0.9118800E+02  0.7818608E-02  0.1130116E+00
         25   -1    0    0    0    0  0.00000000000E+00  0.00000000000E+00  0.99999998245E-14  0.12500000000E+03  0.12500000000E+03 0.  0.
        -11    1    3    3    0    0 -0.31723713482E+02  0.16216146602E+02 -0.13696583019E+02  0.38170064113E+02  0.51100000000E-03 0.  1.
         23    2    1    0    0    0  0.20235778511E+02  0.19518951268E+02  0.97115880608E+01  0.95254561136E+02  0.90491106105E+02 0.  0.
         11    1    3    3    0    0  0.51959491993E+02  0.33028046663E+01  0.23408171080E+02  0.57084497023E+02  0.51100000000E-03 0. -1.
         22    1    1    0    0    0 -0.20235778511E+02 -0.19518951268E+02 -0.97115880608E+01  0.29745438864E+02  0.00000000000E+00 0. -1.
</event>
<event>
 4    1  0.8957809E-005  0.9118800E+02  0.7818608E-02  0.1130116E+00
         25   -1    0    0    0    0  0.00000000000E+00  0.00000000000E+00  0.99999998245E-14  0.12500000000E+03  0.12500000000E+03 0.  0.
        -11    1    1    0    0    0  0.83234462725E+01  0.15175031488E+02 -0.11292648529E+02  0.20666040974E+02  0.51100000000E-03 0.  1.
         11    1    1    0    0    0 -0.49174246747E+02 -0.91069479571E+01 -0.18594106741E+02  0.53355260752E+02  0.51100000000E-03 0. -1.
         22    1    1    0    0    0  0.40850800474E+02 -0.60680835305E+01  0.29886755270E+02  0.50978698273E+02  0.00000000000E+00 0. -1.
</event>
<event>
 5    1  0.8957809E-005  0.9118800E+02  0.7818608E-02  0.1130116E+00
         25   -1    0    0    0    0  0.00000000000E+00  0.00000000000E+00  0.99999998245E-14  0.12500000000E+03  0.12500000000E+03 0.  0.
        -11    1    3    3    0    0  0.28121683965E+02  0.19611762223E+02  0.18919587014E+02  0.39158665702E+02  0.51100000000E-03 0.  1.
         23    2    1    0    0    0  0.64364556815E+01 -0.28245130960E+02 -0.25544423253E+01  0.95918381058E+02  0.91403475122E+02 0.  0.
         11    1    3    3    0    0 -0.21685228284E+02 -0.47856893183E+02 -0.21474029340E+02  0.56759715355E+02  0.51100000000E-03 0. -1.
         22    1    1    0    0    0 -0.64364556815E+01  0.28245130960E+02  0.25544423253E+01  0.29081618942E+02  0.00000000000E+00 0. -1.
</event>
<event>
 5    1  0.8957809E-005  0.9118800E+02  0.7818608E-02  0.1130116E+00
         25   -1    0    0    0    0  0.00000000000E+00  0.00000000000E+00  0.99999998245E-14  0.12500000000E+03  0.12500000000E+03 0.  0.
        -11    1    3    3    0    0 -0.43673061949E+02 -0.31560786174E+02 -0.28678128070E+02  0.61039778782E+02  0.51100000000E-03 0.  1.
         23    2    1    0    0    0 -0.24159343303E+02 -0.61536318469E+01 -0.15240273970E+02  0.95780023881E+02  0.91214066734E+02 0.  0.
         11    1    3    3    0    0  0.19513718646E+02  0.25407154327E+02  0.13437854100E+02  0.34740245099E+02  0.51100000000E-03 0. -1.
         22    1    1    0    0    0  0.24159343303E+02  0.61536318469E+01  0.15240273970E+02  0.29219976119E+02  0.00000000000E+00 0.  1.
</event>
<event>
 5    1  0.8957809E-005  0.9118800E+02  0.7818608E-02  0.1130116E+00
         25   -1    0    0    0    0  0.00000000000E+00  0.00000000000E+00  0.99999998245E-14  0.12500000000E+03  0.12500000000E+03 0.  0.
        -11    1    3    3    0    0  0.49598609663E+02  0.97013982518E+01 -0.28768548689E+02  0.58152975869E+02  0.51100000000E-03 0. -1.
         23    2    1    0    0    0  0.11251468489E+02  0.17884106294E+02 -0.10178259419E+02  0.10154720132E+03  0.98801823516E+02 0.  0.
         11    1    3    3    0    0 -0.38347141174E+02  0.81827080425E+01  0.18590289271E+02  0.43394225451E+02  0.51100000000E-03 0.  1.
         22    1    1    0    0    0 -0.11251468489E+02 -0.17884106294E+02  0.10178259419E+02  0.23452798679E+02  0.00000000000E+00 0. -1.
</event>
<event>
 5    1  0.8957809E-005  0.9118800E+02  0.7818608E-02  0.1130116E+00
         25   -1    0    0    0    0  0.00000000000E+00  0.00000000000E+00  0.99999998245E-14  0.12500000000E+03  0.12500000000E+03 0.  0.
        -11    1    3    3    0    0  0.56078902181E+01 -0.19287653066E+02  0.46377850410E+02  0.50540745962E+02  0.51100000000E-03 0.  1.
         23    2    1    0    0    0  0.22396464863E+02  0.96837930211E+01  0.23717753338E+02  0.90971933510E+02  0.84368141959E+02 0.  0.
         11    1    3    3    0    0  0.16788574645E+02  0.28971446087E+02 -0.22660097072E+02  0.40431187548E+02  0.51100000000E-03 0. -1.
         22    1    1    0    0    0 -0.22396464863E+02 -0.96837930211E+01 -0.23717753338E+02  0.34028066490E+02  0.00000000000E+00 0.  1.
</event>
<event>
 5    1  0.8957809E-005  0.9118800E+02  0.7818608E-02  0.1130116E+00
         25   -1    0    0    0    0  0.00000000000E+00  0.00000000000E+00  0.99999998245E-14  0.12500000000E+03  0.12500000000E+03 0.  0.
        -11    1    3    3    0    0 -0.33889698197E+02  0.10589767024E+01 -0.73316378525E+01  0.34689854272E+02  0.51100000000E-03 0.  1.
         23    2    1    0    0    0 -0.77686431082E+01  0.41290767048E+02 -0.45682927379E+01  0.82737149200E+02  0.71128667217E+02 0.  0.
         11    1    3    3    0    0  0.26121055089E+02  0.40231790346E+02  0.27633451146E+01  0.48047294928E+02  0.51100000000E-03 0. -1.
         22    1    1    0    0    0  0.77686431082E+01 -0.41290767048E+02  0.45682927379E+01  0.42262850800E+02  0.00000000000E+00 0. -1.
</event>
<event>
 5    1  0.8957809E-005  0.9118800E+02  0.7818608E-02  0.1130116E+00
         25   -1    0    0    0    0  0.00000000000E+00  0.00000000000E+00  0.99999998245E-14  0.12500000000E+03  0.12500000000E+03 0.  0.
        -11    1    3    3    0    0  0.24824659916E+02  0.50358391571E+02  0.21993034664E+02  0.60298631125E+02  0.51100000000E-03 0.  1.
         23    2    1    0    0    0  0.19737632268E+02  0.15930645629E+02  0.14084158767E+02  0.95987534991E+02  0.91497998600E+02 0.  0.
         11    1    3    3    0    0 -0.50870276474E+01 -0.34427745942E+02 -0.79088758967E+01  0.35688903866E+02  0.51100000000E-03 0. -1.
         22    1    1    0    0    0 -0.19737632268E+02 -0.15930645629E+02 -0.14084158767E+02  0.29012465009E+02  0.00000000000E+00 0.  1.
</event>
<event>
 5    1  0.8957809E-005  0.9118800E+02  0.7818608E-02  0.1130116E+00
         25   -1    0    0    0    0  0.00000000000E+00  0.00000000000E+00  0.99999998245E-14  0.12500000000E+03  0.12500000000E+03 0.  0.
        -11    1    3    3    0    0 -0.23481570823E+02 -0.11833522815E+02 -0.33752857487E+02  0.42786350853E+02  0.51100000000E-03 0.  1.
         23    2    1    0    0    0  0.25100672929E+02 -0.59829468674E+01 -0.86354247845E+01  0.97789524151E+02  0.93927530776E+02 0.  0.
         11    1    3    3    0    0  0.48582243752E+02  0.58505759478E+01  0.25117432703E+02  0.55003173297E+02  0.51100000000E-03 0. -1.
         22    1    1    0    0    0 -0.25100672929E+02  0.59829468674E+01  0.86354247845E+01  0.27210475849E+02  0.00000000000E+00 0. -1.
</event>
<event>
 5    1  0.8957809E-005  0.9118800E+02  0.7818608E-02  0.1130116E+00
         25   -1    0    0    0    0  0.00000000000E+00  0.00000000000E+00  0.99999998245E-14  0.12500000000E+03  0.12500000000E+03 0.  0.
        -11    1    3    3    0    0  0.17006821217E+02  0.27260603972E+02  0.19242011634E+02  0.37451668972E+02  0.51100000000E-03 0. -1.
         23    2    1    0    0    0  0.37373632246E+01 -0.97001409896E+01 -0.25785345782E+02  0.97198117399E+02  0.93137153434E+02 0.  0.
         11    1    3    3    0    0 -0.13269457993E+02 -0.36960744962E+02 -0.45027357415E+02  0.59746448427E+02  0.51100000000E-03 0.  1.
         22    1    1    0    0    0 -0.37373632246E+01  0.97001409896E+01  0.25785345782E+02  0.27801882601E+02  0.00000000000E+00 0.  1.
</event>
<event>
 5    1  0.8957809E-005  0.9118800E+02  0.7818608E-02  0.1130116E+00
         25   -1    0    0    0    0  0.00000000000E+00  0.00000000000E+00  0.99999998245E-14  0.12500000000E+03  0.12500000000E+03 0.  0.
        -11    1    3    3    0    0  0.33466470923E+01  0.46705652943E+02 -0.16460741799E+02  0.49634404242E+02  0.51100000000E-03 0. -1.
         23    2    1    0    0    0 -0.22995031301E+02  0.16495826525E+02  0.66884068095E+01  0.95920478977E+02  0.91406344113E+02 0.  0.
         11    1    3    3    0    0 -0.26341678394E+02 -0.30209826418E+02  0.23149148609E+02  0.46286074735E+02  0.51100000000E-03 0.  1.
         22    1    1    0    0    0  0.22995031301E+02 -0.16495826525E+02 -0.66884068095E+01  0.29079521023E+02  0.00000000000E+00 0. -1.
</event>
<event>
 5    1  0.8957809E-005  0.9118800E+02  0.7818608E-02  0.1130116E+00
         25   -1    0    0    0    0  0.00000000000E+00  0.00000000000E+00  0.99999998245E-14  0.12500000000E+03  0.12500000000E+03 0.  0.
        -11    1    3    3    0    0  0.28785767264E+02 -0.14228186886E+02 -0.51192077569E+02  0.60429218968E+02  0.51100000000E-03 0.  1.
         23    2    1    0    0    0  0.33271625498E+01 -0.31783686421E+01 -0.28079152219E+02  0.96546338949E+02  0.92258250240E+02 0.  0.
         11    1    3    3    0    0 -0.25458604714E+02  0.11049818244E+02  0.23112925350E+02  0.36117119981E+02  0.51100000000E-03 0. -1.
         22    1    1    0    0    0 -0.33271625498E+01  0.31783686421E+01  0.28079152219E+02  0.28453661051E+02  0.00000000000E+00 0.  1.
</event>
<event>
 5    1  0.8957809E-005  0.9118800E+02  0.7818608E-02  0.1130116E+00
         25   -1    0    0    0    0  0.00000000000E+00  0.00000000000E+00  0.99999998245E-14  0.12500000000E+03  0.12500000000E+03 0.  0.
        -11    1    3    3    0    0  0.49480448030E+02  0.12429440857E+02 -0.20726706810E+01  0.51059785559E+02  0.51100000000E-03 0. -1.
         23    2    1    0    0    0  0.11585845295E+02  0.29917785460E+02  0.93668704792E+00  0.92903534764E+02  0.87183047039E+02 0.  0.
         11    1    3    3    0    0 -0.37894602735E+02  0.17488344602E+02  0.30093577289E+01  0.41843749205E+02  0.51100000000E-03 0.  1.
         22    1    1    0    0    0 -0.11585845295E+02 -0.29917785460E+02 -0.93668704792E+00  0.32096465236E+02  0.00000000000E+00 0. -1.
</event>
<event>
 5    1  0.8957809E-005  0.9118800E+02  0.7818608E-02  0.1130116E+00
         25   -1    0    0    0    0  0.00000000000E+00  0.00000000000E+00  0.99999998245E-14  0.12500000000E+03  0.12500000000E+03 0.  0.
        -11    1    3    3    0    0 -0.30677064980E+02 -0.51318351059E+02 -0.13503510816E+02  0.61294373933E+02  0.51100000000E-03 0.  1.
         23    2    1    0    0    0 -0.21367710483E+02 -0.19622131959E+02 -0.36926977015E+01  0.95755459822E+02  0.91180397869E+02 0.  0.
         11    1    3    3    0    0  0.93093544975E+01  0.31696219100E+02  0.98108131145E+01  0.34461085889E+02  0.51100000000E-03 0. -1.
         22    1    1    0    0    0  0.21367710483E+02  0.19622131959E+02  0.36926977015E+01  0.29244540178E+02  0.00000000000E+00 0.  1.
</event>
<event>
 5    1  0.8957809E-005  0.9118800E+02  0.7818608E-02  0.1130116E+00
         25   -1    0    0    0    0  0.00000000000E+00  0.00000000000E+00  0.99999998245E-14  0.12500000000E+03  0.12500000000E+03 0.  0.
        -11    1    3    3    0    0 -0.83672127270E+01 -0.58655399341E+01  0.53852191292E+02  0.54813076129E+02  0.51100000000E-03 0.  1.
         23    2    1    0    0    0 -0.97360042331E+01 -0.22188932768E+02  0.16260246565E+02  0.95818942202E+02  0.91267384923E+02 0.  0.
         11    1    3    3    0    0 -0.13687915061E+01 -0.16323392834E+02 -0.37591944727E+02  0.41005866073E+02  0.51100000000E-03 0. -1.
         22    1    1    0    0    0  0.97360042331E+01  0.22188932768E+02 -0.16260246565E+02  0.29181057798E+02  0.00000000000E+00 0.  1.
</event>
<event>
 5    1  0.8957809E-005  0.9118800E+02  0.7818608E-02  0.1130116E+00
         25   -1    0    0    0    0  0.00000000000E+00  0.00000000000E+00  0.99999998245E-14  0.12500000000E+03  0.12500000000E+03 0.  0.
        -11    1    3    3    0    0  0.32643227368E+02  0.41543263157E+02 -0.20459852124E+02  0.56657113904E+02  0.51100000000E-03 0. -1.
         23    2    1    0    0    0  0.27687665157E+02  0.77275908089E+01 -0.47073662935E+00  0.96250320793E+02  0.91856301897E+02 0.  0.
         11    1    3    3    0    0 -0.49555622116E+01 -0.33815672348E+02  0.19989115495E+02  0.39593206889E+02  0.51100000000E-03 0.  1.
         22    1    1    0    0    0 -0.27687665157E+02 -0.77275908089E+01  0.47073662935E+00  0.28749679207E+02  0.00000000000E+00 0. -1.
</event>
<event>
 5    1  0.8957809E-005  0.9118800E+02  0.7818608E-02  0.1130116E+00
         25   -1    0    0    0    0  0.00000000000E+00  0.00000000000E+00  0.99999998245E-14  0.12500000000E+03  0.12500000000E+03 0.  0.
        -11    1    3    3    0    0 -0.34439874194E+02 -0.18954417059E+02 -0.14168333165E+02  0.41786559149E+02  0.51100000000E-03 0. -1.
         23    2    1    0    0    0  0.17774953680E+02 -0.20163431031E+02  0.54410179638E+01  0.97575237362E+02  0.93641920850E+02 0.  0.
         11    1    3    3    0    0  0.52214827875E+02 -0.12090139717E+01  0.19609351129E+02  0.55788678213E+02  0.51100000000E-03 0.  1.
         22    1    1    0    0    0 -0.17774953680E+02  0.20163431031E+02 -0.54410179638E+01  0.27424762638E+02  0.00000000000E+00 0.  1.
</event>
<event>
 5    1  0.8957809E-005  0.9118800E+02  0.7818608E-02  0.1130116E+00
         25   -1    0    0    0    0  0.00000000000E+00  0.00000000000E+00  0.99999998245E-14  0.12500000000E+03  0.12500000000E+03 0.  0.
        -11    1    3    3    0    0  0.22638318039E+02 -0.29589400481E+02  0.14828098096E+02  0.40098610423E+02  0.51100000000E-03 0.  1.
         23    2    1    0    0    0 -0.73539526773E+01 -0.11887163003E+02 -0.27041570216E+02  0.94559372806E+02  0.89525656666E+02 0.  0.
         11    1    3    3    0    0 -0.29992270716E+02  0.17702237478E+02 -0.41869668312E+02  0.54460762383E+02  0.51100000000E-03 0. -1.
         22    1    1    0    0    0  0.73539526773E+01  0.11887163003E+02  0.27041570216E+02  0.30440627194E+02  0.00000000000E+00 0. -1.
</event>
<event>
 5    1  0.8957809E-005  0.9118800E+02  0.7818608E-02  0.1130116E+00
         25   -1    0    0    0    0  0.00000000000E+00  0.00000000000E+00  0.99999998245E-14  0.12500000000E+03  0.12500000000E+03 0.  0.
        -11    1    3    3    0    0 -0.44334527669E+02  0.84647705283E+00  0.38518398765E+02  0.58736138030E+02  0.51100000000E-03 0. -1.
         23    2    1    0    0    0 -0.93224592047E+01 -0.38103220303E+01  0.27466615657E+02  0.95745226454E+02  0.91166367776E+02 0.  0.
         11    1    3    3    0    0  0.35012068464E+02 -0.46567990831E+01 -0.11051783108E+02  0.37009088424E+02  0.51100000000E-03 0.  1.
         22    1    1    0    0    0  0.93224592047E+01  0.38103220303E+01 -0.27466615657E+02  0.29254773546E+02  0.00000000000E+00 0. -1.
</event>
<event>
 5    1  0.8957809E-005  0.9118800E+02  0.7818608E-02  0.1130116E+00
         25   -1    0    0    0    0  0.00000000000E+00  0.00000000000E+00  0.99999998245E-14  0.12500000000E+03  0.12500000000E+03 0.  0.
        -11    1    3    3    0    0  0.46634374161E+02  0.30361855534E+02 -0.82616522292E+00  0.55653298860E+02  0.51100000000E-03 0.  1.
         23    2    1    0    0    0  0.25556384768E+02 -0.66838845920E+01  0.28334242052E+01  0.98432512193E+02  0.94779365097E+02 0.  0.
         11    1    3    3    0    0 -0.21077989392E+02 -0.37045740126E+02  0.36595894281E+01  0.42779213332E+02  0.51100000000E-03 0. -1.
         22    1    1    0    0    0 -0.25556384768E+02  0.66838845920E+01 -0.28334242052E+01  0.26567487807E+02  0.00000000000E+00 0.  1.
</event>
<event>
 5    1  0.8957809E-005  0.9118800E+02  0.7818608E-02  0.1130116E+00
         25   -1    0    0    0    0  0.00000000000E+00  0.00000000000E+00  0.99999998245E-14  0.12500000000E+03  0.12500000000E+03 0.  0.
        -11    1    3    3    0    0 -0.30780141273E+02  0.41546527096E+01 -0.36992120548E+02  0.48302124372E+02  0.51100000000E-03 0. -1.
         23    2    1    0    0    0 -0.12293359454E+01  0.27650362133E+02 -0.71816985368E+01  0.96405759552E+02  0.92067583263E+02 0.  0.
         11    1    3    3    0    0  0.29550805328E+02  0.23495709423E+02  0.29810422011E+02  0.48103635180E+02  0.51100000000E-03 0.  1.
         22    1    1    0    0    0  0.12293359454E+01 -0.27650362133E+02  0.71816985368E+01  0.28594240448E+02  0.00000000000E+00 0. -1.
</event>
<event>
 5    1  0.8957809E-005  0.9118800E+02  0.7818608E-02  0.1130116E+00
         25   -1    0    0    0    0  0.00000000000E+00  0.00000000000E+00  0.99999998245E-14  0.12500000000E+03  0.12500000000E+03 0.  0.
        -11    1    3    3    0    0  0.88261318959E+01  0.46048169273E+02 -0.20043729274E+02  0.50991034321E+02  0.51100000000E-03 0.  1.
         23    2    1    0    0    0 -0.10603460474E+02  0.31754395275E+02  0.10503074890E+02  0.89913113911E+02  0.82784530426E+02 0.  0.
         11    1    3    3    0    0 -0.19429592370E+02 -0.14293773998E+02  0.30546804164E+02  0.38922079590E+02  0.51100000000E-03 0. -1.
         22    1    1    0    0    0  0.10603460474E+02 -0.31754395275E+02 -0.10503074890E+02  0.35086886089E+02  0.00000000000E+00 0.  1.
</event>
<event>
 5    1  0.8957809E-005  0.9118800E+02  0.7818608E-02  0.1130116E+00
         25   -1    0    0    0    0  0.00000000000E+00  0.00000000000E+00  0.99999998245E-14  0.12500000000E+03  0.12500000000E+03 0.  0.
        -11    1    3    3    0    0 -0.39870790512E+02 -0.12855649816E+02 -0.22988851254E+02  0.47785300569E+02  0.51100000000E-03 0.  1.
         23    2    1    0    0    0 -0.15554056052E+02  0.20982084570E+02 -0.24089329643E+02  0.89468713291E+02  0.82110768616E+02 0.  0.
         11    1    3    3    0    0  0.24316734460E+02  0.33837734386E+02 -0.11004783887E+01  0.41683412722E+02  0.51100000000E-03 0. -1.
         22    1    1    0    0    0  0.15554056052E+02 -0.20982084570E+02  0.24089329643E+02  0.35531286709E+02  0.00000000000E+00 0.  1.
</event>
<event>
 5    1  0.8957809E-005  0.9118800E+02  0.7818608E-02  0.1130116E+00
         25   -1    0    0    0    0  0.00000000000E+00  0.00000000000E+00  0.99999998245E-14  0.12500000000E+03  0.12500000000E+03 0.  0.
        -11    1    3    3    0    0  0.37076506507E+01  0.85475068267E+01  0.45796776070E+02  0.46734903926E+02  0.51100000000E-03 0.  1.
         23    2    1    0    0    0  0.26370129253E+02  0.14090814876E+02  0.36884022018E+01  0.94874610517E+02  0.89964729918E+02 0.  0.
         11    1    3    3    0    0  0.22662478603E+02  0.55433080490E+01 -0.42108373868E+02  0.48139706591E+02  0.51100000000E-03 0. -1.
         22    1    1    0    0    0 -0.26370129253E+02 -0.14090814876E+02 -0.36884022018E+01  0.30125389483E+02  0.00000000000E+00 0. -1.
</event>
<event>
 5    1  0.8957809E-005  0.9118800E+02  0.7818608E-02  0.1130116E+00
         25   -1    0    0    0    0  0.00000000000E+00  0.00000000000E+00  0.99999998245E-14  0.12500000000E+03  0.12500000000E+03 0.  0.
        -11    1    3    3    0    0 -0.72530604965E+01 -0.59473169050E+02  0.17351044196E+02  0.62375663991E+02  0.51100000000E-03 0.  1.
         23    2    1    0    0    0 -0.34928714932E+01 -0.28054346576E+02  0.52957043462E+01  0.96237333267E+02  0.91838626496E+02 0.  0.
         11    1    3    3    0    0  0.37601890033E+01  0.31418822474E+02 -0.12055339850E+02  0.33861669276E+02  0.51100000000E-03 0. -1.
         22    1    1    0    0    0  0.34928714932E+01  0.28054346576E+02 -0.52957043462E+01  0.28762666733E+02  0.00000000000E+00 0.  1.
</event>
<event>
 5    1  0.8957809E-005  0.9118800E+02  0.7818608E-02  0.1130116E+00
         25   -1    0    0    0    0  0.00000000000E+00  0.00000000000E+00  0.99999998245E-14  0.12500000000E+03  0.12500000000E+03 0.  0.
        -11    1    3    3    0    0  0.11324927935E+02 -0.14391242542E+02  0.35670049778E+02  0.40096312873E+02  0.51100000000E-03 0.  1.
         23    2    1    0    0    0  0.28874782963E+02  0.21208277343E+02  0.85499685827E+01  0.88167323179E+02  0.80105123399E+02 0.  0.
         11    1    3    3    0    0  0.17549855028E+02  0.35599519885E+02 -0.27120081195E+02  0.48071010306E+02  0.51100000000E-03 0. -1.
         22    1    1    0    0    0 -0.28874782963E+02 -0.21208277343E+02 -0.85499685827E+01  0.36832676821E+02  0.00000000000E+00 0. -1.
</event>
<event>
 5    1  0.8957809E-005  0.9118800E+02  0.7818608E-02  0.1130116E+00
         25   -1    0    0    0    0  0.00000000000E+00  0.00000000000E+00  0.99999998245E-14  0.12500000000E+03  0.12500000000E+03 0.  0.
        -11    1    3    3    0    0  0.90253125184E+01 -0.18529760008E+02  0.39583712278E+02  0.44628225934E+02  0.51100000000E-03 0. -1.
         23    2    1    0    0    0 -0.31759457995E+01 -0.17235821526E+02 -0.15829532424E+02  0.10138360163E+03  0.98594626662E+02 0.  0.
         11    1    3    3    0    0 -0.12201258318E+02  0.12939384827E+01 -0.55413244702E+02  0.56755375693E+02  0.51100000000E-03 0.  1.
         22    1    1    0    0    0  0.31759457995E+01  0.17235821526E+02  0.15829532424E+02  0.23616398374E+02  0.00000000000E+00 0. -1.
</event>
<event>
 5    1  0.8957809E-005  0.9118800E+02  0.7818608E-02  0.1130116E+00
         25   -1    0    0    0    0  0.00000000000E+00  0.00000000000E+00  0.99999998245E-14  0.12500000000E+03  0.12500000000E+03 0.  0.
        -11    1    3    3    0    0 -0.95029718506E+01 -0.20722941468E+02 -0.26533559516E+02  0.34982517890E+02  0.51100000000E-03 0.  1.
         23    2    1    0    0    0 -0.80753913513E+01  0.13100179798E+02  0.24407206658E+02  0.96146258595E+02  0.91714582530E+02 0.  0.
         11    1    3    3    0    0  0.14275804993E+01  0.33823121267E+02  0.50940766174E+02  0.61163740704E+02  0.51100000000E-03 0. -1.
         22    1    1    0    0    0  0.80753913513E+01 -0.13100179798E+02 -0.24407206658E+02  0.28853741405E+02  0.00000000000E+00 0. -1.
</event>
<event>
 5    1  0.8957809E-005  0.9118800E+02  0.7818608E-02  0.1130116E+00
         25   -1    0    0    0    0  0.00000000000E+00  0.00000000000E+00  0.99999998245E-14  0.12500000000E+03  0.12500000000E+03 0.  0.
        -11    1    3    3    0    0  0.32164054512E+02 -0.18678940370E+02 -0.18646111987E+02  0.41606570497E+02  0.51100000000E-03 0.  1.
         23    2    1    0    0    0 -0.75927754180E+01  0.15941677353E+02 -0.24663849452E+02  0.94666968744E+02  0.89675761418E+02 0.  0.
         11    1    3    3    0    0 -0.39756829930E+02  0.34620617724E+02 -0.60177374647E+01  0.53060398247E+02  0.51100000000E-03 0. -1.
         22    1    1    0    0    0  0.75927754180E+01 -0.15941677353E+02  0.24663849452E+02  0.30333031256E+02  0.00000000000E+00 0.  1.
</event>
<event>
 5    1  0.8957809E-005  0.9118800E+02  0.7818608E-02  0.1130116E+00
         25   -1    0    0    0    0  0.00000000000E+00  0.00000000000E+00  0.99999998245E-14  0.12500000000E+03  0.12500000000E+03 0.  0.
        -11    1    3    3    0    0 -0.89912475595E+01 -0.18999158922E+01  0.37790325730E+02  0.38891656330E+02  0.51100000000E-03 0.  1.
         23    2    1    0    0    0 -0.12933122318E+02  0.17525265055E+02 -0.17136933606E+02  0.97285832836E+02  0.93254802606E+02 0.  0.
         11    1    3    3    0    0 -0.39418747587E+01  0.19425180948E+02 -0.54927259336E+02  0.58394176506E+02  0.51100000000E-03 0. -1.
         22    1    1    0    0    0  0.12933122318E+02 -0.17525265055E+02  0.17136933606E+02  0.27714167164E+02  0.00000000000E+00 0. -1.
</event>
<event>
 5    1  0.8957809E-005  0.9118800E+02  0.7818608E-02  0.1130116E+00
         25   -1    0    0    0    0  0.00000000000E+00  0.00000000000E+00  0.99999998245E-14  0.12500000000E+03  0.12500000000E+03 0.  0.
        -11    1    3    3    0    0 -0.19248343828E+02  0.17001508132E+02 -0.25362131923E+02  0.36094151255E+02  0.51100000000E-03 0.  1.
         23    2    1    0    0    0 -0.22360930834E+02 -0.28404015867E+02  0.12742209004E+01  0.88827870065E+02  0.81129325871E+02 0.  0.
         11    1    3    3    0    0 -0.31125870060E+01 -0.45405523999E+02  0.26636352824E+02  0.52733718810E+02  0.51100000000E-03 0. -1.
         22    1    1    0    0    0  0.22360930834E+02  0.28404015867E+02 -0.12742209004E+01  0.36172129935E+02  0.00000000000E+00 0. -1.
</event>
<event>
 5    1  0.8957809E-005  0.9118800E+02  0.7818608E-02  0.1130116E+00
         25   -1    0    0    0    0  0.00000000000E+00  0.00000000000E+00  0.99999998245E-14  0.12500000000E+03  0.12500000000E+03 0.  0.
        -11    1    3    3    0    0 -0.35555326067E+02 -0.73980640789E+01  0.31340267605E+02  0.47970042085E+02  0.51100000000E-03 0.  1.
         23    2    1    0    0    0  0.99631258661E+01 -0.15466035158E+02  0.23973003831E+02  0.94781346271E+02  0.89835051999E+02 0.  0.
         11    1    3    3    0    0  0.45518451933E+02 -0.80679710790E+01 -0.73672637741E+01  0.46811304185E+02  0.51100000000E-03 0. -1.
         22    1    1    0    0    0 -0.99631258661E+01  0.15466035158E+02 -0.23973003831E+02  0.30218653729E+02  0.00000000000E+00 0. -1.
</event>
<event>
 5    1  0.8957809E-005  0.9118800E+02  0.7818608E-02  0.1130116E+00
         25   -1    0    0    0    0  0.00000000000E+00  0.00000000000E+00  0.99999998245E-14  0.12500000000E+03  0.12500000000E+03 0.  0.
        -11    1    3    3    0    0 -0.60506204524E+01 -0.22473845755E+01 -0.56617311400E+02  0.56984038956E+02  0.51100000000E-03 0.  1.
         23    2    1    0    0    0  0.68013214271E+01 -0.16713840235E+02 -0.23083477314E+02  0.95700557114E+02  0.91105100178E+02 0.  0.
         11    1    3    3    0    0  0.12851941879E+02 -0.14466455660E+02  0.33533834087E+02  0.38716518158E+02  0.51100000000E-03 0. -1.
         22    1    1    0    0    0 -0.68013214271E+01  0.16713840235E+02  0.23083477314E+02  0.29299442886E+02  0.00000000000E+00 0. -1.
</event>
<event>
 5    1  0.8957809E-005  0.9118800E+02  0.7818608E-02  0.1130116E+00
         25   -1    0    0    0    0  0.00000000000E+00  0.00000000000E+00  0.99999998245E-14  0.12500000000E+03  0.12500000000E+03 0.  0.
        -11    1    3    3    0    0 -0.44203845237E+02  0.97371498705E+01  0.24739795117E+02  0.51583422570E+02  0.51100000000E-03 0.  1.
         23    2    1    0    0    0 -0.67118312523E+01  0.26920495605E+02  0.77031896080E+01  0.96205887885E+02  0.91795816741E+02 0.  0.
         11    1    3    3    0    0  0.37492013984E+02  0.17183345735E+02 -0.17036605509E+02  0.44622465315E+02  0.51100000000E-03 0. -1.
         22    1    1    0    0    0  0.67118312523E+01 -0.26920495605E+02 -0.77031896080E+01  0.28794112115E+02  0.00000000000E+00 0.  1.
</event>
<event>
 5    1  0.8957809E-005  0.9118800E+02  0.7818608E-02  0.1130116E+00
         25   -1    0    0    0    0  0.00000000000E+00  0.00000000000E+00  0.99999998245E-14  0.12500000000E+03  0.12500000000E+03 0.  0.
        -11    1    3    3    0    0  0.18196069181E+02 -0.43959824422E+02 -0.10474289572E+02  0.48716258468E+02  0.51100000000E-03 0.  1.
         23    2    1    0    0    0  0.24408933380E+02  0.33884790620E+01 -0.14100760781E+02  0.96607936431E+02  0.92341670483E+02 0.  0.
         11    1    3    3    0    0  0.62128641995E+01  0.47348303484E+02 -0.36264712096E+01  0.47891677962E+02  0.51100000000E-03 0. -1.
         22    1    1    0    0    0 -0.24408933380E+02 -0.33884790620E+01  0.14100760781E+02  0.28392063569E+02  0.00000000000E+00 0. -1.
</event>
<event>
 5    1  0.8957809E-005  0.9118800E+02  0.7818608E-02  0.1130116E+00
         25   -1    0    0    0    0  0.00000000000E+00  0.00000000000E+00  0.99999998245E-14  0.12500000000E+03  0.12500000000E+03 0.  0.
        -11    1    3    3    0    0 -0.21309028510E+02 -0.31932286116E+02  0.20261206493E+02  0.43408087742E+02  0.51100000000E-03 0.  1.
         23    2    1    0    0    0 -0.51196742660E+01 -0.14489154022E+02 -0.25637559988E+02  0.95109681651E+02  0.90290754858E+02 0.  0.
         11    1    3    3    0    0  0.16189354244E+02  0.17443132094E+02 -0.45898766480E+02  0.51701593909E+02  0.51100000000E-03 0. -1.
         22    1    1    0    0    0  0.51196742660E+01  0.14489154022E+02  0.25637559988E+02  0.29890318349E+02  0.00000000000E+00 0. -1.
</event>
<event>
 5    1  0.8957809E-005  0.9118800E+02  0.7818608E-02  0.1130116E+00
         25   -1    0    0    0    0  0.00000000000E+00  0.00000000000E+00  0.99999998245E-14  0.12500000000E+03  0.12500000000E+03 0.  0.
        -11    1    3    3    0    0 -0.24428879019E+02  0.47636460437E+02  0.16338891565E+02  0.55972867275E+02  0.51100000000E-03 0.  1.
         23    2    1    0    0    0 -0.22188169265E+02  0.16839938176E+02 -0.87978167006E+01  0.95788701642E+02  0.91225957986E+02 0.  0.
         11    1    3    3    0    0  0.22407097544E+01 -0.30796522262E+02 -0.25136708266E+02  0.39815834367E+02  0.51100000000E-03 0. -1.
         22    1    1    0    0    0  0.22188169265E+02 -0.16839938176E+02  0.87978167006E+01  0.29211298358E+02  0.00000000000E+00 0.  1.
</event>
<event>
 5    1  0.8957809E-005  0.9118800E+02  0.7818608E-02  0.1130116E+00
         25   -1    0    0    0    0  0.00000000000E+00  0.00000000000E+00  0.99999998245E-14  0.12500000000E+03  0.12500000000E+03 0.  0.
        -11    1    3    3    0    0 -0.51527672362E+02 -0.26761228259E+02  0.10006552520E+02  0.58918549291E+02  0.51100000000E-03 0.  1.
         23    2    1    0    0    0 -0.15495105201E+02 -0.23540951828E+02  0.10002521715E+02  0.95094730585E+02  0.90270053983E+02 0.  0.
         11    1    3    3    0    0  0.36032567160E+02  0.32202764317E+01 -0.40308056420E-02  0.36176181294E+02  0.51100000000E-03 0. -1.
         22    1    1    0    0    0  0.15495105201E+02  0.23540951828E+02 -0.10002521715E+02  0.29905269415E+02  0.00000000000E+00 0.  1.
</event>
<event>
 5    1  0.8957809E-005  0.9118800E+02  0.7818608E-02  0.1130116E+00
         25   -1    0    0    0    0  0.00000000000E+00  0.00000000000E+00  0.99999998245E-14  0.12500000000E+03  0.12500000000E+03 0.  0.
        -11    1    3    3    0    0 -0.30259221364E+02 -0.89557789604E+01  0.39001937314E+02  0.50169488425E+02  0.51100000000E-03 0.  1.
         23    2    1    0    0    0 -0.12469985618E+02  0.23413153369E+02  0.12213705125E+02  0.95796389181E+02  0.91236491029E+02 0.  0.
         11    1    3    3    0    0  0.17789235746E+02  0.32368932329E+02 -0.26788232189E+02  0.45626900756E+02  0.51100000000E-03 0. -1.
         22    1    1    0    0    0  0.12469985618E+02 -0.23413153369E+02 -0.12213705125E+02  0.29203610819E+02  0.00000000000E+00 0.  1.
</event>
<event>
 5    1  0.8957809E-005  0.9118800E+02  0.7818608E-02  0.1130116E+00
         25   -1    0    0    0    0  0.00000000000E+00  0.00000000000E+00  0.99999998245E-14  0.12500000000E+03  0.12500000000E+03 0.  0.
        -11    1    3    3    0    0  0.14159111553E+02 -0.52544087452E+01  0.53561856461E+02  0.55650352371E+02  0.51100000000E-03 0.  1.
         23    2    1    0    0    0  0.10051038956E+02 -0.20705978618E+02  0.14655818871E+02  0.97713483890E+02  0.93826280820E+02 0.  0.
         11    1    3    3    0    0 -0.41080725962E+01 -0.15451569873E+02 -0.38906037590E+02  0.42063131519E+02  0.51100000000E-03 0. -1.
         22    1    1    0    0    0 -0.10051038956E+02  0.20705978618E+02 -0.14655818871E+02  0.27286516110E+02  0.00000000000E+00 0.  1.
</event>
<event>
 5    1  0.8957809E-005  0.9118800E+02  0.7818608E-02  0.1130116E+00
         25   -1    0    0    0    0  0.00000000000E+00  0.00000000000E+00  0.99999998245E-14  0.12500000000E+03  0.12500000000E+03 0.  0.
        -11    1    3    3    0    0  0.12048170545E+02 -0.33065737657E+02 -0.11849579506E+02  0.37133730691E+02  0.51100000000E-03 0.  1.
         23    2    1    0    0    0  0.73016462111E+01  0.25687921006E+02 -0.11089113203E+02  0.96083711258E+02  0.91629295612E+02 0.  0.
         11    1    3    3    0    0 -0.47465243337E+01  0.58753658663E+02  0.76046630252E+00  0.58949980567E+02  0.51100000000E-03 0. -1.
         22    1    1    0    0    0 -0.73016462111E+01 -0.25687921006E+02  0.11089113203E+02  0.28916288742E+02  0.00000000000E+00 0. -1.
</event>
<event>
 5    1  0.8957809E-005  0.9118800E+02  0.7818608E-02  0.1130116E+00
         25   -1    0    0    0    0  0.00000000000E+00  0.00000000000E+00  0.99999998245E-14  0.12500000000E+03  0.12500000000E+03 0.  0.
        -11    1    3    3    0    0 -0.48573791269E+02 -0.98703428937E+01 -0.36154482298E+02  0.61351311783E+02  0.51100000000E-03 0. -1.
         23    2    1    0    0    0 -0.27177616466E+02 -0.42328382984E+01 -0.97110548979E+01  0.95830763738E+02  0.91283574287E+02 0.  0.
         11    1    3    3    0    0  0.21396174802E+02  0.56375045954E+01  0.26443427400E+02  0.34479451955E+02  0.51100000000E-03 0.  1.
         22    1    1    0    0    0  0.27177616466E+02  0.42328382984E+01  0.97110548979E+01  0.29169236262E+02  0.00000000000E+00 0. -1.
</event>
<event>
 5    1  0.8957809E-005  0.9118800E+02  0.7818608E-02  0.1130116E+00
         25   -1    0    0    0    0  0.00000000000E+00  0.00000000000E+00  0.99999998245E-14  0.12500000000E+03  0.12500000000E+03 0.  0.
        -11    1    3    3    0    0  0.33050715037E+02 -0.32984423462E+02  0.14139183330E+02  0.48787687597E+02  0.51100000000E-03 0.  1.
         23    2    1    0    0    0  0.95061701674E+00 -0.10443025722E+02  0.31587385210E+02  0.91717521676E+02  0.85465668073E+02 0.  0.
         11    1    3    3    0    0 -0.32100098020E+02  0.22541397740E+02  0.17448201880E+02  0.42929834079E+02  0.51100000000E-03 0. -1.
         22    1    1    0    0    0 -0.95061701674E+00  0.10443025722E+02 -0.31587385210E+02  0.33282478324E+02  0.00000000000E+00 0.  1.
</event>
<event>
 5    1  0.8957809E-005  0.9118800E+02  0.7818608E-02  0.1130116E+00
         25   -1    0    0    0    0  0.00000000000E+00  0.00000000000E+00  0.99999998245E-14  0.12500000000E+03  0.12500000000E+03 0.  0.
        -11    1    3    3    0    0 -0.19951260518E+02 -0.41803962015E+02 -0.10814514564E+02  0.47566561384E+02  0.51100000000E-03 0.  1.
         23    2    1    0    0    0 -0.24315440052E+02 -0.17553919452E+01  0.15890464334E+02  0.95899675559E+02  0.91377890596E+02 0.  0.
         11    1    3    3    0    0 -0.43641795336E+01  0.40048570070E+02  0.26704978898E+02  0.48333114175E+02  0.51100000000E-03 0. -1.
         22    1    1    0    0    0  0.24315440052E+02  0.17553919452E+01 -0.15890464334E+02  0.29100324441E+02  0.00000000000E+00 0. -1.
</event>
<event>
 5    1  0.8957809E-005  0.9118800E+02  0.7818608E-02  0.1130116E+00
         25   -1    0    0    0    0  0.00000000000E+00  0.00000000000E+00  0.99999998245E-14  0.12500000000E+03  0.12500000000E+03 0.  0.
        -11    1    3    3    0    0  0.43842458331E+02  0.97791838212E+01 -0.54999356725E+01  0.45255307770E+02  0.51100000000E-03 0.  1.
         23    2    1    0    0    0 -0.68425460185E+00  0.29601468684E+02  0.46141109893E+01  0.95033265562E+02  0.90184901123E+02 0.  0.
         11    1    3    3    0    0 -0.44526712933E+02  0.19822284863E+02  0.10114046662E+02  0.49777957792E+02  0.51100000000E-03 0. -1.
         22    1    1    0    0    0  0.68425460185E+00 -0.29601468684E+02 -0.46141109893E+01  0.29966734438E+02  0.00000000000E+00 0. -1.
</event>
<event>
 5    1  0.8957809E-005  0.9118800E+02  0.7818608E-02  0.1130116E+00
         25   -1    0    0    0    0  0.00000000000E+00  0.00000000000E+00  0.99999998245E-14  0.12500000000E+03  0.12500000000E+03 0.  0.
        -11    1    3    3    0    0 -0.35280323353E+02 -0.24187109654E+02 -0.68597074811E+00  0.42780697112E+02  0.51100000000E-03 0.  1.
         23    2    1    0    0    0 -0.10544137491E+02  0.23126399075E+02 -0.11249081749E+02  0.97205198152E+02  0.93146656075E+02 0.  0.
         11    1    3    3    0    0  0.24736185861E+02  0.47313508728E+02 -0.10563111001E+02  0.54424501040E+02  0.51100000000E-03 0. -1.
         22    1    1    0    0    0  0.10544137491E+02 -0.23126399075E+02  0.11249081749E+02  0.27794801848E+02  0.00000000000E+00 0. -1.
</event>
<event>
 5    1  0.8957809E-005  0.9118800E+02  0.7818608E-02  0.1130116E+00
         25   -1    0    0    0    0  0.00000000000E+00  0.00000000000E+00  0.99999998245E-14  0.12500000000E+03  0.12500000000E+03 0.  0.
        -11    1    3    3    0    0 -0.74043500225E+01 -0.40318396591E+02  0.70630411985E+01  0.41596683211E+02  0.51100000000E-03 0.  1.
         23    2    1    0    0    0  0.32082882364E+01  0.86976670645E+01  0.27670935437E+02  0.95817416260E+02  0.91265294965E+02 0.  0.
         11    1    3    3    0    0  0.10612638259E+02  0.49016063656E+02  0.20607894238E+02  0.54220733049E+02  0.51100000000E-03 0. -1.
         22    1    1    0    0    0 -0.32082882364E+01 -0.86976670645E+01 -0.27670935437E+02  0.29182583740E+02  0.00000000000E+00 0. -1.
</event>
<event>
 5    1  0.8957809E-005  0.9118800E+02  0.7818608E-02  0.1130116E+00
         25   -1    0    0    0    0  0.00000000000E+00  0.00000000000E+00  0.99999998245E-14  0.12500000000E+03  0.12500000000E+03 0.  0.
        -11    1    3    3    0    0  0.35101339419E+02 -0.26924749887E+02  0.27023554903E+02  0.51839354793E+02  0.51100000000E-03 0.  1.
         23    2    1    0    0    0  0.30694639566E+02  0.45544641951E+01 -0.61797834702E+00  0.93963151909E+02  0.88689277690E+02 0.  0.
         11    1    3    3    0    0 -0.44066998529E+01  0.31479214082E+02 -0.27641533250E+02  0.42123797116E+02  0.51100000000E-03 0. -1.
         22    1    1    0    0    0 -0.30694639566E+02 -0.45544641951E+01  0.61797834702E+00  0.31036848091E+02  0.00000000000E+00 0.  1.
</event>
<event>
 5    1  0.8957809E-005  0.9118800E+02  0.7818608E-02  0.1130116E+00
         25   -1    0    0    0    0  0.00000000000E+00  0.00000000000E+00  0.99999998245E-14  0.12500000000E+03  0.12500000000E+03 0.  0.
        -11    1    3    3    0    0 -0.12733819909E+02  0.44883729579E+02  0.37339638471E+02  0.59757409179E+02  0.51100000000E-03 0. -1.
         23    2    1    0    0    0  0.27199016567E+01  0.11776136530E+02  0.23020127687E+02  0.98999970475E+02  0.95524827237E+02 0.  0.
         11    1    3    3    0    0  0.15453721566E+02 -0.33107593049E+02 -0.14319510784E+02  0.39242561296E+02  0.51100000000E-03 0.  1.
         22    1    1    0    0    0 -0.27199016567E+01 -0.11776136530E+02 -0.23020127687E+02  0.26000029525E+02  0.00000000000E+00 0. -1.
</event>
<event>
 5    1  0.8957809E-005  0.9118800E+02  0.7818608E-02  0.1130116E+00
         25   -1    0    0    0    0  0.00000000000E+00  0.00000000000E+00  0.99999998245E-14  0.12500000000E+03  0.12500000000E+03 0.  0.
        -11    1    3    3    0    0 -0.26577253383E+02  0.95897063745E+00 -0.21060540774E+02  0.33923684942E+02  0.51100000000E-03 0. -1.
         23    2    1    0    0    0  0.29845045810E+02  0.66886884449E+01 -0.16599184708E-01  0.94414618066E+02  0.89323314518E+02 0.  0.
         11    1    3    3    0    0  0.56422299193E+02  0.57297178074E+01  0.21043941589E+02  0.60490933124E+02  0.51100000000E-03 0.  1.
         22    1    1    0    0    0 -0.29845045810E+02 -0.66886884449E+01  0.16599184708E-01  0.30585381934E+02  0.00000000000E+00 0.  1.
</event>
<event>
 5    1  0.8957809E-005  0.9118800E+02  0.7818608E-02  0.1130116E+00
         25   -1    0    0    0    0  0.00000000000E+00  0.00000000000E+00  0.99999998245E-14  0.12500000000E+03  0.12500000000E+03 0.  0.
        -11    1    3    3    0    0 -0.16756180094E+02  0.78846500612E+01  0.43880769664E+02  0.47628344759E+02  0.51100000000E-03 0. -1.
         23    2    1    0    0    0  0.21920313631E+02  0.11710372035E+02  0.17689024152E+02  0.94495335794E+02  0.89436200436E+02 0.  0.
         11    1    3    3    0    0  0.38676493725E+02  0.38257219743E+01 -0.26191745512E+02  0.46866991035E+02  0.51100000000E-03 0.  1.
         22    1    1    0    0    0 -0.21920313631E+02 -0.11710372035E+02 -0.17689024152E+02  0.30504664206E+02  0.00000000000E+00 0.  1.
</event>
<event>
 5    1  0.8957809E-005  0.9118800E+02  0.7818608E-02  0.1130116E+00
         25   -1    0    0    0    0  0.00000000000E+00  0.00000000000E+00  0.99999998245E-14  0.12500000000E+03  0.12500000000E+03 0.  0.
        -11    1    3    3    0    0  0.22788163539E+02  0.22349575204E+02  0.37777951127E+02  0.49456824614E+02  0.51100000000E-03 0.  1.
         23    2    1    0    0    0 -0.12212526035E+02  0.27349384569E+02  0.15145012878E+02  0.91436537075E+02  0.85053714021E+02 0.  0.
         11    1    3    3    0    0 -0.35000689574E+02  0.49998093651E+01 -0.22632938249E+02  0.41979712461E+02  0.51100000000E-03 0. -1.
         22    1    1    0    0    0  0.12212526035E+02 -0.27349384569E+02 -0.15145012878E+02  0.33563462925E+02  0.00000000000E+00 0.  1.
</event>
<event>
 5    1  0.8957809E-005  0.9118800E+02  0.7818608E-02  0.1130116E+00
         25   -1    0    0    0    0  0.00000000000E+00  0.00000000000E+00  0.99999998245E-14  0.12500000000E+03  0.12500000000E+03 0.  0.
        -11    1    3    3    0    0 -0.43341174533E+02 -0.15849244166E+00 -0.29380764944E+02  0.52361358640E+02  0.51100000000E-03 0.  1.
         23    2    1    0    0    0 -0.41493199225E+01 -0.17807691626E+02 -0.22686855959E+02  0.95861980675E+02  0.91326311481E+02 0.  0.
         11    1    3    3    0    0  0.39191854610E+02 -0.17649199185E+02  0.66939089849E+01  0.43500622035E+02  0.51100000000E-03 0. -1.
         22    1    1    0    0    0  0.41493199225E+01  0.17807691626E+02  0.22686855959E+02  0.29138019325E+02  0.00000000000E+00 0.  1.
</event>
<event>
 5    1  0.8957809E-005  0.9118800E+02  0.7818608E-02  0.1130116E+00
         25   -1    0    0    0    0  0.00000000000E+00  0.00000000000E+00  0.99999998245E-14  0.12500000000E+03  0.12500000000E+03 0.  0.
        -11    1    3    3    0    0  0.23771386259E+01  0.33623444109E+02 -0.33308334205E+02  0.47388098817E+02  0.51100000000E-03 0.  1.
         23    2    1    0    0    0  0.24667352893E+02  0.16278672326E+02  0.50442048691E+01  0.95018047526E+02  0.90163805828E+02 0.  0.
         11    1    3    3    0    0  0.22290214267E+02 -0.17344771783E+02  0.38352539074E+02  0.47629948708E+02  0.51100000000E-03 0. -1.
         22    1    1    0    0    0 -0.24667352893E+02 -0.16278672326E+02 -0.50442048691E+01  0.29981952474E+02  0.00000000000E+00 0. -1.
</event>
<event>
 5    1  0.8957809E-005  0.9118800E+02  0.7818608E-02  0.1130116E+00
         25   -1    0    0    0    0  0.00000000000E+00  0.00000000000E+00  0.99999998245E-14  0.12500000000E+03  0.12500000000E+03 0.  0.
        -11    1    3    3    0    0  0.26123794937E+02  0.31405595203E+02  0.39226991550E+01  0.41038416646E+02  0.51100000000E-03 0.  1.
         23    2    1    0    0    0 -0.16734552136E+02 -0.11735992162E+01 -0.19090306889E+02  0.99586177237E+02  0.96288858698E+02 0.  0.
         11    1    3    3    0    0 -0.42858347072E+02 -0.32579194419E+02 -0.23013006044E+02  0.58547760591E+02  0.51100000000E-03 0. -1.
         22    1    1    0    0    0  0.16734552136E+02  0.11735992162E+01  0.19090306889E+02  0.25413822763E+02  0.00000000000E+00 0. -1.
</event>
<event>
 5    1  0.8957809E-005  0.9118800E+02  0.7818608E-02  0.1130116E+00
         25   -1    0    0    0    0  0.00000000000E+00  0.00000000000E+00  0.99999998245E-14  0.12500000000E+03  0.12500000000E+03 0.  0.
        -11    1    3    3    0    0 -0.46641235478E+02  0.22885954479E+02 -0.18996737823E+02  0.55317698863E+02  0.51100000000E-03 0.  1.
         23    2    1    0    0    0 -0.31782695895E+02 -0.35687441061E+01  0.31215272209E+01  0.92865600596E+02  0.87128641382E+02 0.  0.
         11    1    3    3    0    0  0.14858539583E+02 -0.26454698585E+02  0.22118265043E+02  0.37547901733E+02  0.51100000000E-03 0. -1.
         22    1    1    0    0    0  0.31782695895E+02  0.35687441061E+01 -0.31215272209E+01  0.32134399404E+02  0.00000000000E+00 0.  1.
</event>
<event>
 5    1  0.8957809E-005  0.9118800E+02  0.7818608E-02  0.1130116E+00
         25   -1    0    0    0    0  0.00000000000E+00  0.00000000000E+00  0.99999998245E-14  0.12500000000E+03  0.12500000000E+03 0.  0.
        -11    1    3    3    0    0  0.15469595805E+02  0.22812873697E+02  0.19395528612E+02  0.33703443905E+02  0.51100000000E-03 0. -1.
         23    2    1    0    0    0 -0.15648487138E+02 -0.23847637746E+02 -0.69105540162E+01  0.95651393005E+02  0.91037619977E+02 0.  0.
         11    1    3    3    0    0 -0.31118082943E+02 -0.46660511443E+02 -0.26306082628E+02  0.61947949099E+02  0.51100000000E-03 0.  1.
         22    1    1    0    0    0  0.15648487138E+02  0.23847637746E+02  0.69105540162E+01  0.29348606995E+02  0.00000000000E+00 0.  1.
</event>
<event>
 5    1  0.8957809E-005  0.9118800E+02  0.7818608E-02  0.1130116E+00
         25   -1    0    0    0    0  0.00000000000E+00  0.00000000000E+00  0.99999998245E-14  0.12500000000E+03  0.12500000000E+03 0.  0.
        -11    1    3    3    0    0  0.11272386097E+02 -0.59099125905E+02 -0.46952475358E+01  0.60347483135E+02  0.51100000000E-03 0. -1.
         23    2    1    0    0    0  0.60614636810E+01 -0.22824485587E+02  0.93596147876E+01  0.99597227056E+02  0.96303202252E+02 0.  0.
         11    1    3    3    0    0 -0.52109224160E+01  0.36274640318E+02  0.14054862323E+02  0.39249743921E+02  0.51100000000E-03 0.  1.
         22    1    1    0    0    0 -0.60614636810E+01  0.22824485587E+02 -0.93596147876E+01  0.25402772944E+02  0.00000000000E+00 0. -1.
</event>
<event>
 5    1  0.8957809E-005  0.9118800E+02  0.7818608E-02  0.1130116E+00
         25   -1    0    0    0    0  0.00000000000E+00  0.00000000000E+00  0.99999998245E-14  0.12500000000E+03  0.12500000000E+03 0.  0.
        -11    1    3    3    0    0  0.59744764571E+02 -0.74491123962E+01  0.59305072093E+01  0.60498736228E+02  0.51100000000E-03 0.  1.
         23    2    1    0    0    0  0.35148895620E+02  0.36257837489E+00  0.13426991528E+02  0.87372079145E+02  0.78854421476E+02 0.  0.
         11    1    3    3    0    0 -0.24595868951E+02  0.78116907711E+01  0.74964843185E+01  0.26873342917E+02  0.51100000000E-03 0. -1.
         22    1    1    0    0    0 -0.35148895620E+02 -0.36257837489E+00 -0.13426991528E+02  0.37627920855E+02  0.00000000000E+00 0.  1.
</event>
<event>
 5    1  0.8957809E-005  0.9118800E+02  0.7818608E-02  0.1130116E+00
         25   -1    0    0    0    0  0.00000000000E+00  0.00000000000E+00  0.99999998245E-14  0.12500000000E+03  0.12500000000E+03 0.  0.
        -11    1    3    3    0    0  0.45491724529E+02 -0.36161294009E+02 -0.63186736584E+01  0.58455639779E+02  0.51100000000E-03 0.  1.
         23    2    1    0    0    0  0.16208510212E+02 -0.12782618497E+02 -0.17902079328E+02  0.97676098683E+02  0.93776461176E+02 0.  0.
         11    1    3    3    0    0 -0.29283214317E+02  0.23378675512E+02 -0.11583405670E+02  0.39220458903E+02  0.51100000000E-03 0. -1.
         22    1    1    0    0    0 -0.16208510212E+02  0.12782618497E+02  0.17902079328E+02  0.27323901317E+02  0.00000000000E+00 0.  1.
</event>
<event>
 5    1  0.8957809E-005  0.9118800E+02  0.7818608E-02  0.1130116E+00
         25   -1    0    0    0    0  0.00000000000E+00  0.00000000000E+00  0.99999998245E-14  0.12500000000E+03  0.12500000000E+03 0.  0.
        -11    1    3    3    0    0  0.30992343790E+02 -0.29341920282E+01  0.12358442531E+02  0.33494267547E+02  0.51100000000E-03 0. -1.
         23    2    1    0    0    0 -0.16391598443E+02 -0.51807838958E+01 -0.25541315454E+02  0.94212278155E+02  0.89039707652E+02 0.  0.
         11    1    3    3    0    0 -0.47383942233E+02 -0.22465918676E+01 -0.37899757985E+02  0.60718010608E+02  0.51100000000E-03 0.  1.
         22    1    1    0    0    0  0.16391598443E+02  0.51807838958E+01  0.25541315454E+02  0.30787721845E+02  0.00000000000E+00 0.  1.
</event>
<event>
 5    1  0.8957809E-005  0.9118800E+02  0.7818608E-02  0.1130116E+00
         25   -1    0    0    0    0  0.00000000000E+00  0.00000000000E+00  0.99999998245E-14  0.12500000000E+03  0.12500000000E+03 0.  0.
        -11    1    3    3    0    0 -0.35346696296E+02  0.49033930543E+02  0.26828180503E+01  0.60505477408E+02  0.51100000000E-03 0. -1.
         23    2    1    0    0    0 -0.19885200667E+02  0.17868905132E+02 -0.83325322468E+01  0.96997320310E+02  0.92867271293E+02 0.  0.
         11    1    3    3    0    0  0.15461495629E+02 -0.31165025410E+02 -0.11015350297E+02  0.36491842901E+02  0.51100000000E-03 0.  1.
         22    1    1    0    0    0  0.19885200667E+02 -0.17868905132E+02  0.83325322468E+01  0.28002679690E+02  0.00000000000E+00 0. -1.
</event>
<event>
 5    1  0.8957809E-005  0.9118800E+02  0.7818608E-02  0.1130116E+00
         25   -1    0    0    0    0  0.00000000000E+00  0.00000000000E+00  0.99999998245E-14  0.12500000000E+03  0.12500000000E+03 0.  0.
        -11    1    3    3    0    0  0.23520714932E+02  0.42163812411E+02  0.11476639687E+02  0.49625843738E+02  0.51100000000E-03 0. -1.
         23    2    1    0    0    0  0.28958865220E+02  0.28193921021E+01  0.19269903123E+02  0.90101661744E+02  0.83068739223E+02 0.  0.
         11    1    3    3    0    0  0.54381502882E+01 -0.39344420309E+02  0.77932634364E+01  0.40475818006E+02  0.51100000000E-03 0.  1.
         22    1    1    0    0    0 -0.28958865220E+02 -0.28193921021E+01 -0.19269903123E+02  0.34898338256E+02  0.00000000000E+00 0. -1.
</event>
<event>
 5    1  0.8957809E-005  0.9118800E+02  0.7818608E-02  0.1130116E+00
         25   -1    0    0    0    0  0.00000000000E+00  0.00000000000E+00  0.99999998245E-14  0.12500000000E+03  0.12500000000E+03 0.  0.
        -11    1    3    3    0    0  0.11074805577E+02  0.14945741244E+02 -0.35193650699E+02  0.39807280109E+02  0.51100000000E-03 0.  1.
         23    2    1    0    0    0  0.21129411777E+02 -0.54008193395E+00  0.18701786826E+02  0.96777658478E+02  0.92571132754E+02 0.  0.
         11    1    3    3    0    0  0.10054606200E+02 -0.15485823178E+02  0.53895437524E+02  0.56970378369E+02  0.51100000000E-03 0. -1.
         22    1    1    0    0    0 -0.21129411777E+02  0.54008193395E+00 -0.18701786826E+02  0.28222341522E+02  0.00000000000E+00 0.  1.
</event>
<event>
 5    1  0.8957809E-005  0.9118800E+02  0.7818608E-02  0.1130116E+00
         25   -1    0    0    0    0  0.00000000000E+00  0.00000000000E+00  0.99999998245E-14  0.12500000000E+03  0.12500000000E+03 0.  0.
        -11    1    3    3    0    0  0.34274469451E+02  0.28960277527E+02 -0.22477700552E+02  0.50186491737E+02  0.51100000000E-03 0.  1.
         23    2    1    0    0    0  0.21134562901E+02 -0.14711834248E+02 -0.80775038198E+01  0.98011967765E+02  0.94223096644E+02 0.  0.
         11    1    3    3    0    0 -0.13139906549E+02 -0.43672111775E+02  0.14400196732E+02  0.47825476027E+02  0.51100000000E-03 0. -1.
         22    1    1    0    0    0 -0.21134562901E+02  0.14711834248E+02  0.80775038198E+01  0.26988032235E+02  0.00000000000E+00 0. -1.
</event>
<event>
 5    1  0.8957809E-005  0.9118800E+02  0.7818608E-02  0.1130116E+00
         25   -1    0    0    0    0  0.00000000000E+00  0.00000000000E+00  0.99999998245E-14  0.12500000000E+03  0.12500000000E+03 0.  0.
        -11    1    3    3    0    0  0.79056006105E+01  0.13775291797E+02 -0.36415759670E+02  0.39728638759E+02  0.51100000000E-03 0.  1.
         23    2    1    0    0    0  0.21101426615E+02  0.12247996788E+02  0.17318067928E+02  0.95080121870E+02  0.90249822535E+02 0.  0.
         11    1    3    3    0    0  0.13195826005E+02 -0.15272950083E+01  0.53733827598E+02  0.55351483111E+02  0.51100000000E-03 0. -1.
         22    1    1    0    0    0 -0.21101426615E+02 -0.12247996788E+02 -0.17318067928E+02  0.29919878130E+02  0.00000000000E+00 0. -1.
</event>
<event>
 5    1  0.8957809E-005  0.9118800E+02  0.7818608E-02  0.1130116E+00
         25   -1    0    0    0    0  0.00000000000E+00  0.00000000000E+00  0.99999998245E-14  0.12500000000E+03  0.12500000000E+03 0.  0.
        -11    1    3    3    0    0 -0.37558521926E+02 -0.41412497567E+02  0.21136488446E+01  0.55947341633E+02  0.51100000000E-03 0.  1.
         23    2    1    0    0    0 -0.24114664218E+02 -0.36550382567E+01 -0.11174131067E+02  0.98172075367E+02  0.94435262703E+02 0.  0.
         11    1    3    3    0    0  0.13443857709E+02  0.37757459311E+02 -0.13287779912E+02  0.42224733734E+02  0.51100000000E-03 0. -1.
         22    1    1    0    0    0  0.24114664218E+02  0.36550382567E+01  0.11174131067E+02  0.26827924633E+02  0.00000000000E+00 0.  1.
</event>
<event>
 5    1  0.8957809E-005  0.9118800E+02  0.7818608E-02  0.1130116E+00
         25   -1    0    0    0    0  0.00000000000E+00  0.00000000000E+00  0.99999998245E-14  0.12500000000E+03  0.12500000000E+03 0.  0.
        -11    1    3    3    0    0 -0.23811319084E+02 -0.22491190849E+02  0.50205988388E+02  0.59945590768E+02  0.51100000000E-03 0.  1.
         23    2    1    0    0    0 -0.17761710279E+02 -0.21494203458E+02  0.20207497100E+02  0.90564232644E+02  0.83761913547E+02 0.  0.
         11    1    3    3    0    0  0.60496088052E+01  0.99698739110E+00 -0.29998491288E+02  0.30618641876E+02  0.51100000000E-03 0. -1.
         22    1    1    0    0    0  0.17761710279E+02  0.21494203458E+02 -0.20207497100E+02  0.34435767356E+02  0.00000000000E+00 0.  1.
</event>
<event>
 5    1  0.8957809E-005  0.9118800E+02  0.7818608E-02  0.1130116E+00
         25   -1    0    0    0    0  0.00000000000E+00  0.00000000000E+00  0.99999998245E-14  0.12500000000E+03  0.12500000000E+03 0.  0.
        -11    1    3    3    0    0  0.35355281913E+02  0.34417340239E+02 -0.29615621578E+02  0.57546801041E+02  0.51100000000E-03 0.  1.
         23    2    1    0    0    0  0.10868261610E+02  0.29414217564E+02 -0.39105113458E+01  0.93399249941E+02  0.87890912416E+02 0.  0.
         11    1    3    3    0    0 -0.24487020303E+02 -0.50031226750E+01  0.25705110233E+02  0.35852448901E+02  0.51100000000E-03 0. -1.
         22    1    1    0    0    0 -0.10868261610E+02 -0.29414217564E+02  0.39105113458E+01  0.31600750059E+02  0.00000000000E+00 0.  1.
</event>
<event>
 5    1  0.8957809E-005  0.9118800E+02  0.7818608E-02  0.1130116E+00
         25   -1    0    0    0    0  0.00000000000E+00  0.00000000000E+00  0.99999998245E-14  0.12500000000E+03  0.12500000000E+03 0.  0.
        -11    1    3    3    0    0  0.26202754028E+02 -0.12942755047E+02  0.19986891871E+02  0.35405862139E+02  0.51100000000E-03 0.  1.
         23    2    1    0    0    0 -0.19166242938E+02 -0.24076712459E+02 -0.11942254633E+02  0.91990146972E+02  0.85863477353E+02 0.  0.
         11    1    3    3    0    0 -0.45368996967E+02 -0.11133957412E+02 -0.31929146503E+02  0.56584284834E+02  0.51100000000E-03 0. -1.
         22    1    1    0    0    0  0.19166242938E+02  0.24076712459E+02  0.11942254633E+02  0.33009853028E+02  0.00000000000E+00 0.  1.
</event>
<event>
 5    1  0.8957809E-005  0.9118800E+02  0.7818608E-02  0.1130116E+00
         25   -1    0    0    0    0  0.00000000000E+00  0.00000000000E+00  0.99999998245E-14  0.12500000000E+03  0.12500000000E+03 0.  0.
        -11    1    3    3    0    0  0.41770269526E+02 -0.19058306271E+01 -0.27134690162E+02  0.49846554716E+02  0.51100000000E-03 0.  1.
         23    2    1    0    0    0  0.29478481103E+02 -0.88629095558E+01  0.12389215108E+02  0.91818308288E+02  0.85612949207E+02 0.  0.
         11    1    3    3    0    0 -0.12291788423E+02 -0.69570789288E+01  0.39523905269E+02  0.41971753571E+02  0.51100000000E-03 0. -1.
         22    1    1    0    0    0 -0.29478481103E+02  0.88629095558E+01 -0.12389215108E+02  0.33181691712E+02  0.00000000000E+00 0.  1.
</event>
<event>
 5    1  0.8957809E-005  0.9118800E+02  0.7818608E-02  0.1130116E+00
         25   -1    0    0    0    0  0.00000000000E+00  0.00000000000E+00  0.99999998245E-14  0.12500000000E+03  0.12500000000E+03 0.  0.
        -11    1    3    3    0    0  0.11092957441E+02  0.21093731519E+02  0.35653646426E+02  0.42885681969E+02  0.51100000000E-03 0. -1.
         23    2    1    0    0    0  0.15849083380E+02  0.16828345622E+02 -0.17239185679E+02  0.96162937333E+02  0.91737311566E+02 0.  0.
         11    1    3    3    0    0  0.47561259392E+01 -0.42653858964E+01 -0.52892832105E+02  0.53277255364E+02  0.51100000000E-03 0.  1.
         22    1    1    0    0    0 -0.15849083380E+02 -0.16828345622E+02  0.17239185679E+02  0.28837062667E+02  0.00000000000E+00 0.  1.
</event>
<event>
 5    1  0.8957809E-005  0.9118800E+02  0.7818608E-02  0.1130116E+00
         25   -1    0    0    0    0  0.00000000000E+00  0.00000000000E+00  0.99999998245E-14  0.12500000000E+03  0.12500000000E+03 0.  0.
        -11    1    3    3    0    0  0.25245639880E+02  0.31564722252E+02 -0.60894166208E+01  0.40874870261E+02  0.51100000000E-03 0. -1.
         23    2    1    0    0    0  0.48706891642E+01 -0.88847902529E+01  0.26471369861E+02  0.96655749558E+02  0.92406370936E+02 0.  0.
         11    1    3    3    0    0 -0.20374950716E+02 -0.40449512505E+02  0.32560786482E+02  0.55780879297E+02  0.51100000000E-03 0.  1.
         22    1    1    0    0    0 -0.48706891642E+01  0.88847902529E+01 -0.26471369861E+02  0.28344250442E+02  0.00000000000E+00 0.  1.
</event>
<event>
 5    1  0.8957809E-005  0.9118800E+02  0.7818608E-02  0.1130116E+00
         25   -1    0    0    0    0  0.00000000000E+00  0.00000000000E+00  0.99999998245E-14  0.12500000000E+03  0.12500000000E+03 0.  0.
        -11    1    3    3    0    0  0.17687356390E+02  0.30020221049E+02  0.50238373095E+02  0.61138779669E+02  0.51100000000E-03 0.  1.
         23    2    1    0    0    0  0.13796704401E+02  0.17698877025E+02  0.16858858243E+02  0.96931861452E+02  0.92779121374E+02 0.  0.
         11    1    3    3    0    0 -0.38906519885E+01 -0.12321344024E+02 -0.33379514853E+02  0.35793081783E+02  0.51100000000E-03 0. -1.
         22    1    1    0    0    0 -0.13796704401E+02 -0.17698877025E+02 -0.16858858243E+02  0.28068138548E+02  0.00000000000E+00 0.  1.
</event>
<event>
 5    1  0.8957809E-005  0.9118800E+02  0.7818608E-02  0.1130116E+00
         25   -1    0    0    0    0  0.00000000000E+00  0.00000000000E+00  0.99999998245E-14  0.12500000000E+03  0.12500000000E+03 0.  0.
        -11    1    3    3    0    0 -0.38547930795E+02 -0.25758863727E+02  0.14321771628E+02  0.48523964924E+02  0.51100000000E-03 0. -1.
         23    2    1    0    0    0 -0.31267424697E+02  0.73114441613E+01 -0.11269684446E+02  0.90968913470E+02  0.84363667343E+02 0.  0.
         11    1    3    3    0    0  0.72805060985E+01  0.33070307889E+02 -0.25591456074E+02  0.42444948547E+02  0.51100000000E-03 0.  1.
         22    1    1    0    0    0  0.31267424697E+02 -0.73114441613E+01  0.11269684446E+02  0.34031086530E+02  0.00000000000E+00 0.  1.
</event>
<event>
 5    1  0.8957809E-005  0.9118800E+02  0.7818608E-02  0.1130116E+00
         25   -1    0    0    0    0  0.00000000000E+00  0.00000000000E+00  0.99999998245E-14  0.12500000000E+03  0.12500000000E+03 0.  0.
        -11    1    3    3    0    0 -0.91889424396E+01 -0.49042161600E+02  0.28585733107E+02  0.57504038250E+02  0.51100000000E-03 0. -1.
         23    2    1    0    0    0 -0.18285477359E+02 -0.22941830603E+02  0.24230959581E+01  0.95562648426E+02  0.90915686802E+02 0.  0.
         11    1    3    3    0    0 -0.90965349190E+01  0.26100330997E+02 -0.26162637149E+02  0.38058610176E+02  0.51100000000E-03 0.  1.
         22    1    1    0    0    0  0.18285477359E+02  0.22941830603E+02 -0.24230959581E+01  0.29437351574E+02  0.00000000000E+00 0. -1.
</event>
<event>
 5    1  0.8957809E-005  0.9118800E+02  0.7818608E-02  0.1130116E+00
         25   -1    0    0    0    0  0.00000000000E+00  0.00000000000E+00  0.99999998245E-14  0.12500000000E+03  0.12500000000E+03 0.  0.
        -11    1    3    3    0    0 -0.41618242736E+02 -0.29412277845E+01 -0.16536834438E+01  0.41754803539E+02  0.51100000000E-03 0.  1.
         23    2    1    0    0    0  0.91389726591E+01 -0.24101634128E+02  0.88626900043E+01  0.97742764942E+02  0.93865282376E+02 0.  0.
         11    1    3    3    0    0  0.50757215396E+02 -0.21160406344E+02  0.10516373448E+02  0.55987961403E+02  0.51100000000E-03 0. -1.
         22    1    1    0    0    0 -0.91389726591E+01  0.24101634128E+02 -0.88626900043E+01  0.27257235058E+02  0.00000000000E+00 0. -1.
</event>
<event>
 5    1  0.8957809E-005  0.9118800E+02  0.7818608E-02  0.1130116E+00
         25   -1    0    0    0    0  0.00000000000E+00  0.00000000000E+00  0.99999998245E-14  0.12500000000E+03  0.12500000000E+03 0.  0.
        -11    1    3    3    0    0 -0.11793137877E+02 -0.19120734618E+02  0.26526377534E+02  0.34761031323E+02  0.51100000000E-03 0.  1.
         23    2    1    0    0    0 -0.32569646095E+01  0.19795162215E+02 -0.20447029653E+02  0.96354977968E+02  0.91998611359E+02 0.  0.
         11    1    3    3    0    0  0.85361732671E+01  0.38915896834E+02 -0.46973407186E+02  0.61593946645E+02  0.51100000000E-03 0. -1.
         22    1    1    0    0    0  0.32569646095E+01 -0.19795162215E+02  0.20447029653E+02  0.28645022032E+02  0.00000000000E+00 0. -1.
</event>
<event>
 5    1  0.8957809E-005  0.9118800E+02  0.7818608E-02  0.1130116E+00
         25   -1    0    0    0    0  0.00000000000E+00  0.00000000000E+00  0.99999998245E-14  0.12500000000E+03  0.12500000000E+03 0.  0.
        -11    1    3    3    0    0 -0.20053706094E+02 -0.10211878571E+02  0.42442851440E+02  0.48039871260E+02  0.51100000000E-03 0. -1.
         23    2    1    0    0    0 -0.28434556604E+02  0.15285739940E+01 -0.36076715940E+01  0.96296762516E+02  0.91919479051E+02 0.  0.
         11    1    3    3    0    0 -0.83808505103E+01  0.11740452565E+02 -0.46050523034E+02  0.48256891256E+02  0.51100000000E-03 0.  1.
         22    1    1    0    0    0  0.28434556604E+02 -0.15285739940E+01  0.36076715940E+01  0.28703237484E+02  0.00000000000E+00 0. -1.
</event>
<event>
 5    1  0.8957809E-005  0.9118800E+02  0.7818608E-02  0.1130116E+00
         25   -1    0    0    0    0  0.00000000000E+00  0.00000000000E+00  0.99999998245E-14  0.12500000000E+03  0.12500000000E+03 0.  0.
        -11    1    3    3    0    0 -0.41405418732E+02 -0.21097949834E+02  0.28152979905E+01  0.46555967293E+02  0.51100000000E-03 0. -1.
         23    2    1    0    0    0 -0.20606783386E+01 -0.82262251347E+01  0.28494341954E+02  0.95270474296E+02  0.90513085098E+02 0.  0.
         11    1    3    3    0    0  0.39344740393E+02  0.12871724699E+02  0.25679043964E+02  0.48714507003E+02  0.51100000000E-03 0.  1.
         22    1    1    0    0    0  0.20606783386E+01  0.82262251347E+01 -0.28494341954E+02  0.29729525704E+02  0.00000000000E+00 0.  1.
</event>
<event>
 5    1  0.8957809E-005  0.9118800E+02  0.7818608E-02  0.1130116E+00
         25   -1    0    0    0    0  0.00000000000E+00  0.00000000000E+00  0.99999998245E-14  0.12500000000E+03  0.12500000000E+03 0.  0.
        -11    1    3    3    0    0  0.63650894458E+01 -0.27795177844E+02  0.32394276191E+02  0.43156406306E+02  0.51100000000E-03 0.  1.
         23    2    1    0    0    0  0.85192608792E+01 -0.63731367833E+01 -0.21401067974E+02  0.10110020107E+03  0.98234669378E+02 0.  0.
         11    1    3    3    0    0  0.21541714333E+01  0.21422041061E+02 -0.53795344165E+02  0.57943794766E+02  0.51100000000E-03 0. -1.
         22    1    1    0    0    0 -0.85192608792E+01  0.63731367833E+01  0.21401067974E+02  0.23899798928E+02  0.00000000000E+00 0. -1.
</event>
<event>
 5    1  0.8957809E-005  0.9118800E+02  0.7818608E-02  0.1130116E+00
         25   -1    0    0    0    0  0.00000000000E+00  0.00000000000E+00  0.99999998245E-14  0.12500000000E+03  0.12500000000E+03 0.  0.
        -11    1    3    3    0    0  0.23647905877E+02 -0.36857547555E+02 -0.77068577556E+01  0.44464569275E+02  0.51100000000E-03 0. -1.
         23    2    1    0    0    0  0.18816004379E+02  0.12871579362E+02 -0.18571569465E+02  0.95595531488E+02  0.90960886495E+02 0.  0.
         11    1    3    3    0    0 -0.48319014978E+01  0.49729126917E+02 -0.10864711710E+02  0.51130962212E+02  0.51100000000E-03 0.  1.
         22    1    1    0    0    0 -0.18816004379E+02 -0.12871579362E+02  0.18571569465E+02  0.29404468512E+02  0.00000000000E+00 0.  1.
</event>
<event>
 5    1  0.8957809E-005  0.9118800E+02  0.7818608E-02  0.1130116E+00
         25   -1    0    0    0    0  0.00000000000E+00  0.00000000000E+00  0.99999998245E-14  0.12500000000E+03  0.12500000000E+03 0.  0.
        -11    1    3    3    0    0  0.48298123016E+02 -0.38738655682E+02  0.40577219608E+01  0.62047217816E+02  0.51100000000E-03 0.  1.
         23    2    1    0    0    0  0.18456824473E+02 -0.21584777625E+02  0.16106420414E+01  0.96554417522E+02  0.92269195187E+02 0.  0.
         11    1    3    3    0    0 -0.29841298544E+02  0.17153878057E+02 -0.24470799194E+01  0.34507199706E+02  0.51100000000E-03 0. -1.
         22    1    1    0    0    0 -0.18456824473E+02  0.21584777625E+02 -0.16106420414E+01  0.28445582478E+02  0.00000000000E+00 0.  1.
</event>
<event>
 5    1  0.8957809E-005  0.9118800E+02  0.7818608E-02  0.1130116E+00
         25   -1    0    0    0    0  0.00000000000E+00  0.00000000000E+00  0.99999998245E-14  0.12500000000E+03  0.12500000000E+03 0.  0.
        -11    1    3    3    0    0  0.91530538272E+01 -0.18321091301E+02  0.27539740136E+02  0.34320228260E+02  0.51100000000E-03 0.  1.
         23    2    1    0    0    0 -0.14593411440E+02  0.34354202742E+01 -0.24943715907E+02  0.95897444559E+02  0.91374838658E+02 0.  0.
         11    1    3    3    0    0 -0.23746465268E+02  0.21756511575E+02 -0.52483456043E+02  0.61577216299E+02  0.51100000000E-03 0. -1.
         22    1    1    0    0    0  0.14593411440E+02 -0.34354202742E+01  0.24943715907E+02  0.29102555441E+02  0.00000000000E+00 0. -1.
</event>
<event>
 5    1  0.8957809E-005  0.9118800E+02  0.7818608E-02  0.1130116E+00
         25   -1    0    0    0    0  0.00000000000E+00  0.00000000000E+00  0.99999998245E-14  0.12500000000E+03  0.12500000000E+03 0.  0.
        -11    1    3    3    0    0 -0.31117854808E+02  0.50853909608E+02  0.17511008430E+02  0.62137560515E+02  0.51100000000E-03 0. -1.
         23    2    1    0    0    0 -0.10617593116E+02  0.26453332406E+02  0.83835553675E+01  0.95288115516E+02  0.90537444624E+02 0.  0.
         11    1    3    3    0    0  0.20500261693E+02 -0.24400577201E+02 -0.91274530621E+01  0.33150555001E+02  0.51100000000E-03 0.  1.
         22    1    1    0    0    0  0.10617593116E+02 -0.26453332406E+02 -0.83835553675E+01  0.29711884484E+02  0.00000000000E+00 0. -1.
</event>
<event>
 5    1  0.8957809E-005  0.9118800E+02  0.7818608E-02  0.1130116E+00
         25   -1    0    0    0    0  0.00000000000E+00  0.00000000000E+00  0.99999998245E-14  0.12500000000E+03  0.12500000000E+03 0.  0.
        -11    1    3    3    0    0 -0.48161025059E+02  0.12300877840E+02 -0.15961016599E+02  0.52206800146E+02  0.51100000000E-03 0.  1.
         23    2    1    0    0    0 -0.15209375552E+02  0.22787680488E+02  0.10406759110E+02  0.95692933926E+02  0.91094640245E+02 0.  0.
         11    1    3    3    0    0  0.32951649507E+02  0.10486802648E+02  0.26367775709E+02  0.43486133780E+02  0.51100000000E-03 0. -1.
         22    1    1    0    0    0  0.15209375552E+02 -0.22787680488E+02 -0.10406759110E+02  0.29307066074E+02  0.00000000000E+00 0.  1.
</event>
<event>
 5    1  0.8957809E-005  0.9118800E+02  0.7818608E-02  0.1130116E+00
         25   -1    0    0    0    0  0.00000000000E+00  0.00000000000E+00  0.99999998245E-14  0.12500000000E+03  0.12500000000E+03 0.  0.
        -11    1    3    3    0    0  0.34121439607E+02  0.26941441299E+02  0.14665794840E+02  0.45882452405E+02  0.51100000000E-03 0. -1.
         23    2    1    0    0    0 -0.12729514048E+02  0.20179640850E+02  0.20456707498E+02  0.93571743377E+02  0.88135894187E+02 0.  0.
         11    1    3    3    0    0 -0.46850953655E+02 -0.67618004489E+01  0.57909126580E+01  0.47689290972E+02  0.51100000000E-03 0.  1.
         22    1    1    0    0    0  0.12729514048E+02 -0.20179640850E+02 -0.20456707498E+02  0.31428256623E+02  0.00000000000E+00 0. -1.
</event>
<event>
 5    1  0.8957809E-005  0.9118800E+02  0.7818608E-02  0.1130116E+00
         25   -1    0    0    0    0  0.00000000000E+00  0.00000000000E+00  0.99999998245E-14  0.12500000000E+03  0.12500000000E+03 0.  0.
        -11    1    3    3    0    0  0.26312629119E+02 -0.39916441510E+02 -0.29562667917E+02  0.56210569189E+02  0.51100000000E-03 0.  1.
         23    2    1    0    0    0 -0.32043851909E+01 -0.19296259457E+02 -0.26101148149E+02  0.92382770684E+02  0.86433168813E+02 0.  0.
         11    1    3    3    0    0 -0.29517014310E+02  0.20620182052E+02  0.34615197671E+01  0.36172201495E+02  0.51100000000E-03 0. -1.
         22    1    1    0    0    0  0.32043851909E+01  0.19296259457E+02  0.26101148149E+02  0.32617229316E+02  0.00000000000E+00 0.  1.
</event>
<event>
 5    1  0.8957809E-005  0.9118800E+02  0.7818608E-02  0.1130116E+00
         25   -1    0    0    0    0  0.00000000000E+00  0.00000000000E+00  0.99999998245E-14  0.12500000000E+03  0.12500000000E+03 0.  0.
        -11    1    3    3    0    0 -0.23577689424E+02  0.39322430200E+02  0.48354870503E+01  0.46103610387E+02  0.51100000000E-03 0.  1.
         23    2    1    0    0    0 -0.22474032492E+02 -0.63877517125E+01 -0.16336407472E+02  0.96490988837E+02  0.92183226290E+02 0.  0.
         11    1    3    3    0    0  0.11036569320E+01 -0.45710181913E+02 -0.21171894522E+02  0.50387378450E+02  0.51100000000E-03 0. -1.
         22    1    1    0    0    0  0.22474032492E+02  0.63877517125E+01  0.16336407472E+02  0.28509011163E+02  0.00000000000E+00 0. -1.
</event>
<event>
 5    1  0.8957809E-005  0.9118800E+02  0.7818608E-02  0.1130116E+00
         25   -1    0    0    0    0  0.00000000000E+00  0.00000000000E+00  0.99999998245E-14  0.12500000000E+03  0.12500000000E+03 0.  0.
        -11    1    3    3    0    0 -0.49241967790E+02  0.21585606352E+02  0.30327319837E+02  0.61728892119E+02  0.51100000000E-03 0.  1.
         23    2    1    0    0    0 -0.20682280021E+02  0.11215343298E+02  0.20867808904E+02  0.93551532937E+02  0.88107225778E+02 0.  0.
         11    1    3    3    0    0  0.28559687770E+02 -0.10370263054E+02 -0.94595109334E+01  0.31822640819E+02  0.51100000000E-03 0. -1.
         22    1    1    0    0    0  0.20682280021E+02 -0.11215343298E+02 -0.20867808904E+02  0.31448467063E+02  0.00000000000E+00 0.  1.
</event>
<event>
 5    1  0.8957809E-005  0.9118800E+02  0.7818608E-02  0.1130116E+00
         25   -1    0    0    0    0  0.00000000000E+00  0.00000000000E+00  0.99999998245E-14  0.12500000000E+03  0.12500000000E+03 0.  0.
        -11    1    3    3    0    0  0.13345081533E+02 -0.25865767261E+02 -0.16331176442E+02  0.33374188250E+02  0.51100000000E-03 0.  1.
         23    2    1    0    0    0 -0.12879121723E+02  0.23408843235E+02  0.11696359227E+02  0.95834086040E+02  0.91288123598E+02 0.  0.
         11    1    3    3    0    0 -0.26224203256E+02  0.49274610496E+02  0.28027535669E+02  0.62459897790E+02  0.51100000000E-03 0. -1.
         22    1    1    0    0    0  0.12879121723E+02 -0.23408843235E+02 -0.11696359227E+02  0.29165913960E+02  0.00000000000E+00 0. -1.
</event>
<event>
 5    1  0.8957809E-005  0.9118800E+02  0.7818608E-02  0.1130116E+00
         25   -1    0    0    0    0  0.00000000000E+00  0.00000000000E+00  0.99999998245E-14  0.12500000000E+03  0.12500000000E+03 0.  0.
        -11    1    3    3    0    0 -0.38213261625E+02 -0.45389919173E+02 -0.53659441840E+01  0.59575930406E+02  0.51100000000E-03 0. -1.
         23    2    1    0    0    0 -0.70983003787E+01 -0.22661669420E+02 -0.11536233931E+02  0.98598829146E+02  0.94998459390E+02 0.  0.
         11    1    3    3    0    0  0.31114961247E+02  0.22728249752E+02 -0.61702897470E+01  0.39022898739E+02  0.51100000000E-03 0.  1.
         22    1    1    0    0    0  0.70983003787E+01  0.22661669420E+02  0.11536233931E+02  0.26401170854E+02  0.00000000000E+00 0. -1.
</event>
<event>
 5    1  0.8957809E-005  0.9118800E+02  0.7818608E-02  0.1130116E+00
         25   -1    0    0    0    0  0.00000000000E+00  0.00000000000E+00  0.99999998245E-14  0.12500000000E+03  0.12500000000E+03 0.  0.
        -11    1    3    3    0    0  0.20870527906E+02 -0.32796956611E+02  0.14293321289E+02  0.41418816156E+02  0.51100000000E-03 0.  1.
         23    2    1    0    0    0 -0.21037814375E+02 -0.12579737457E+02  0.25864014989E+02  0.89365933441E+02  0.81954154015E+02 0.  0.
         11    1    3    3    0    0 -0.41908342281E+02  0.20217219154E+02  0.11570693700E+02  0.47947117286E+02  0.51100000000E-03 0. -1.
         22    1    1    0    0    0  0.21037814375E+02  0.12579737457E+02 -0.25864014989E+02  0.35634066559E+02  0.00000000000E+00 0.  1.
</event>
<event>
 5    1  0.8957809E-005  0.9118800E+02  0.7818608E-02  0.1130116E+00
         25   -1    0    0    0    0  0.00000000000E+00  0.00000000000E+00  0.99999998245E-14  0.12500000000E+03  0.12500000000E+03 0.  0.
        -11    1    3    3    0    0  0.87702801922E+01  0.33292043493E+02 -0.53539581198E+01  0.34841682543E+02  0.51100000000E-03 0.  1.
         23    2    1    0    0    0 -0.98549936124E+01 -0.25780414742E+02 -0.58694670440E+01  0.96782960347E+02  0.92578291660E+02 0.  0.
         11    1    3    3    0    0 -0.18625273805E+02 -0.59072458236E+02 -0.51550892422E+00  0.61941277804E+02  0.51100000000E-03 0. -1.
         22    1    1    0    0    0  0.98549936124E+01  0.25780414742E+02  0.58694670440E+01  0.28217039653E+02  0.00000000000E+00 0. -1.
</event>
<event>
 5    1  0.8957809E-005  0.9118800E+02  0.7818608E-02  0.1130116E+00
         25   -1    0    0    0    0  0.00000000000E+00  0.00000000000E+00  0.99999998245E-14  0.12500000000E+03  0.12500000000E+03 0.  0.
        -11    1    3    3    0    0 -0.15553675049E+02 -0.35626594578E+02  0.93159411750E+01  0.39974464461E+02  0.51100000000E-03 0.  1.
         23    2    1    0    0    0  0.29035989699E+02 -0.33049215913E+01  0.33079670091E+00  0.95774657727E+02  0.91206712646E+02 0.  0.
         11    1    3    3    0    0  0.44589664748E+02  0.32321672987E+02 -0.89851444741E+01  0.55800193265E+02  0.51100000000E-03 0. -1.
         22    1    1    0    0    0 -0.29035989699E+02  0.33049215913E+01 -0.33079670091E+00  0.29225342273E+02  0.00000000000E+00 0. -1.
</event>
<event>
 5    1  0.8957809E-005  0.9118800E+02  0.7818608E-02  0.1130116E+00
         25   -1    0    0    0    0  0.00000000000E+00  0.00000000000E+00  0.99999998245E-14  0.12500000000E+03  0.12500000000E+03 0.  0.
        -11    1    3    3    0    0  0.33023890610E+02 -0.16406515593E+02 -0.47175527100E+02  0.59877219895E+02  0.51100000000E-03 0. -1.
         23    2    1    0    0    0  0.12336158815E+02 -0.19512913884E+02 -0.18263905625E+02  0.95563545199E+02  0.90916919766E+02 0.  0.
         11    1    3    3    0    0 -0.20687731795E+02 -0.31063982916E+01  0.28911621475E+02  0.35686325304E+02  0.51100000000E-03 0.  1.
         22    1    1    0    0    0 -0.12336158815E+02  0.19512913884E+02  0.18263905625E+02  0.29436454801E+02  0.00000000000E+00 0. -1.
</event>
<event>
 5    1  0.8957809E-005  0.9118800E+02  0.7818608E-02  0.1130116E+00
         25   -1    0    0    0    0  0.00000000000E+00  0.00000000000E+00  0.99999998245E-14  0.12500000000E+03  0.12500000000E+03 0.  0.
        -11    1    3    3    0    0 -0.22248798937E+02 -0.27609739039E+02 -0.73907946727E+01  0.36220582410E+02  0.51100000000E-03 0. -1.
         23    2    1    0    0    0 -0.27071295243E+01  0.28656944560E+02 -0.21634258628E+00  0.96214659531E+02  0.91807760472E+02 0.  0.
         11    1    3    3    0    0  0.19541669413E+02  0.56266683599E+02  0.71744520864E+01  0.59994077122E+02  0.51100000000E-03 0.  1.
         22    1    1    0    0    0  0.27071295243E+01 -0.28656944560E+02  0.21634258628E+00  0.28785340469E+02  0.00000000000E+00 0.  1.
</event>
<event>
 5    1  0.8957809E-005  0.9118800E+02  0.7818608E-02  0.1130116E+00
         25   -1    0    0    0    0  0.00000000000E+00  0.00000000000E+00  0.99999998245E-14  0.12500000000E+03  0.12500000000E+03 0.  0.
        -11    1    3    3    0    0 -0.57401636469E+02 -0.14001853861E+02 -0.11638729257E+02  0.60220094652E+02  0.51100000000E-03 0.  1.
         23    2    1    0    0    0 -0.27328903539E+02  0.50533255780E+01 -0.83873919949E+01  0.95969784491E+02  0.91473745538E+02 0.  0.
         11    1    3    3    0    0  0.30072732930E+02  0.19055179439E+02  0.32513372618E+01  0.35749689839E+02  0.51100000000E-03 0. -1.
         22    1    1    0    0    0  0.27328903539E+02 -0.50533255780E+01  0.83873919949E+01  0.29030215509E+02  0.00000000000E+00 0.  1.
</event>
<event>
 5    1  0.8957809E-005  0.9118800E+02  0.7818608E-02  0.1130116E+00
         25   -1    0    0    0    0  0.00000000000E+00  0.00000000000E+00  0.99999998245E-14  0.12500000000E+03  0.12500000000E+03 0.  0.
        -11    1    3    3    0    0 -0.33979170254E+02 -0.38171740655E+01 -0.25167586124E+02  0.42456592192E+02  0.51100000000E-03 0.  1.
         23    2    1    0    0    0 -0.80179365295E+00 -0.31947168854E+02  0.64460032298E+00  0.93036270862E+02  0.87373152143E+02 0.  0.
         11    1    3    3    0    0  0.33177376601E+02 -0.28129994788E+02  0.25812186447E+02  0.50579678670E+02  0.51100000000E-03 0. -1.
         22    1    1    0    0    0  0.80179365295E+00  0.31947168854E+02 -0.64460032298E+00  0.31963729138E+02  0.00000000000E+00 0. -1.
</event>
<event>
 5    1  0.8957809E-005  0.9118800E+02  0.7818608E-02  0.1130116E+00
         25   -1    0    0    0    0  0.00000000000E+00  0.00000000000E+00  0.99999998245E-14  0.12500000000E+03  0.12500000000E+03 0.  0.
        -11    1    3    3    0    0  0.22470957133E+02 -0.50781475910E+02  0.25111547663E+02  0.60944991889E+02  0.51100000000E-03 0.  1.
         23    2    1    0    0    0  0.10534176871E+02 -0.20093411530E+02  0.20921993908E+02  0.94138310184E+02  0.88935805758E+02 0.  0.
         11    1    3    3    0    0 -0.11936780262E+02  0.30688064381E+02 -0.41895537556E+01  0.33193318294E+02  0.51100000000E-03 0. -1.
         22    1    1    0    0    0 -0.10534176871E+02  0.20093411530E+02 -0.20921993908E+02  0.30861689816E+02  0.00000000000E+00 0.  1.
</event>
<event>
 5    1  0.8957809E-005  0.9118800E+02  0.7818608E-02  0.1130116E+00
         25   -1    0    0    0    0  0.00000000000E+00  0.00000000000E+00  0.99999998245E-14  0.12500000000E+03  0.12500000000E+03 0.  0.
        -11    1    3    3    0    0  0.18113509356E+02 -0.31486739125E+02  0.17653736695E+02  0.40387725629E+02  0.51100000000E-03 0. -1.
         23    2    1    0    0    0  0.21446003527E+02  0.15159351818E+02 -0.12379086463E+02  0.95965902864E+02  0.91468441093E+02 0.  0.
         11    1    3    3    0    0  0.33324941713E+01  0.46646090944E+02 -0.30032823158E+02  0.55578177235E+02  0.51100000000E-03 0.  1.
         22    1    1    0    0    0 -0.21446003527E+02 -0.15159351818E+02  0.12379086463E+02  0.29034097136E+02  0.00000000000E+00 0.  1.
</event>
<event>
 5    1  0.8957809E-005  0.9118800E+02  0.7818608E-02  0.1130116E+00
         25   -1    0    0    0    0  0.00000000000E+00  0.00000000000E+00  0.99999998245E-14  0.12500000000E+03  0.12500000000E+03 0.  0.
        -11    1    3    3    0    0 -0.17923961994E+02  0.94770677466E+01  0.31604553863E+02  0.37549048614E+02  0.51100000000E-03 0. -1.
         23    2    1    0    0    0  0.15604735678E+02  0.11399996988E+02 -0.18748761191E+02  0.98074477664E+02  0.94305988229E+02 0.  0.
         11    1    3    3    0    0  0.33528697672E+02  0.19229292417E+01 -0.50353315054E+02  0.60525429050E+02  0.51100000000E-03 0.  1.
         22    1    1    0    0    0 -0.15604735678E+02 -0.11399996988E+02  0.18748761191E+02  0.26925522336E+02  0.00000000000E+00 0.  1.
</event>
<event>
 5    1  0.8957809E-005  0.9118800E+02  0.7818608E-02  0.1130116E+00
         25   -1    0    0    0    0  0.00000000000E+00  0.00000000000E+00  0.99999998245E-14  0.12500000000E+03  0.12500000000E+03 0.  0.
        -11    1    3    3    0    0  0.36401219626E+02  0.19476468285E+02  0.11043633007E+02  0.42735739579E+02  0.51100000000E-03 0. -1.
         23    2    1    0    0    0 -0.14804499698E+02  0.11762729802E+02  0.22334952906E+02  0.95735941071E+02  0.91153635515E+02 0.  0.
         11    1    3    3    0    0 -0.51205719324E+02 -0.77137384822E+01  0.11291319899E+02  0.53000201492E+02  0.51100000000E-03 0.  1.
         22    1    1    0    0    0  0.14804499698E+02 -0.11762729802E+02 -0.22334952906E+02  0.29264058929E+02  0.00000000000E+00 0.  1.
</event>
<event>
 5    1  0.8957809E-005  0.9118800E+02  0.7818608E-02  0.1130116E+00
         25   -1    0    0    0    0  0.00000000000E+00  0.00000000000E+00  0.99999998245E-14  0.12500000000E+03  0.12500000000E+03 0.  0.
        -11    1    3    3    0    0  0.33513615603E+02 -0.15564591030E+02 -0.65281408364E+01  0.37523799751E+02  0.51100000000E-03 0.  1.
         23    2    1    0    0    0 -0.60196767224E+01  0.11120824680E+02  0.26566354065E+02  0.95577552486E+02  0.90936176088E+02 0.  0.
         11    1    3    3    0    0 -0.39533292325E+02  0.26685415710E+02  0.33094494901E+02  0.58053752736E+02  0.51100000000E-03 0. -1.
         22    1    1    0    0    0  0.60196767224E+01 -0.11120824680E+02 -0.26566354065E+02  0.29422447514E+02  0.00000000000E+00 0. -1.
</event>
<event>
 5    1  0.8957809E-005  0.9118800E+02  0.7818608E-02  0.1130116E+00
         25   -1    0    0    0    0  0.00000000000E+00  0.00000000000E+00  0.99999998245E-14  0.12500000000E+03  0.12500000000E+03 0.  0.
        -11    1    3    3    0    0 -0.36382138008E+02 -0.26101566027E+02  0.28078638274E+02  0.52852262418E+02  0.51100000000E-03 0. -1.
         23    2    1    0    0    0 -0.16846349501E+02 -0.28627732964E+02 -0.50566799535E+01  0.91400645864E+02  0.85000949795E+02 0.  0.
         11    1    3    3    0    0  0.19535788508E+02 -0.25261669375E+01 -0.33135318228E+02  0.38548383446E+02  0.51100000000E-03 0.  1.
         22    1    1    0    0    0  0.16846349501E+02  0.28627732964E+02  0.50566799535E+01  0.33599354136E+02  0.00000000000E+00 0.  1.
</event>
<event>
 5    1  0.8957809E-005  0.9118800E+02  0.7818608E-02  0.1130116E+00
         25   -1    0    0    0    0  0.00000000000E+00  0.00000000000E+00  0.99999998245E-14  0.12500000000E+03  0.12500000000E+03 0.  0.
        -11    1    3    3    0    0 -0.44051695552E+02  0.35833457713E+02  0.22512227200E+02  0.61085095944E+02  0.51100000000E-03 0.  1.
         23    2    1    0    0    0 -0.20567426891E+02  0.11012647179E+02  0.17961287210E+02  0.95556744660E+02  0.90907569349E+02 0.  0.
         11    1    3    3    0    0  0.23484268661E+02 -0.24820810534E+02 -0.45509399901E+01  0.34471648716E+02  0.51100000000E-03 0. -1.
         22    1    1    0    0    0  0.20567426891E+02 -0.11012647179E+02 -0.17961287210E+02  0.29443255340E+02  0.00000000000E+00 0.  1.
</event>
<event>
 5    1  0.8957809E-005  0.9118800E+02  0.7818608E-02  0.1130116E+00
         25   -1    0    0    0    0  0.00000000000E+00  0.00000000000E+00  0.99999998245E-14  0.12500000000E+03  0.12500000000E+03 0.  0.
        -11    1    3    3    0    0 -0.32590404780E+01 -0.13465813249E+02 -0.34503142147E+02  0.37180859183E+02  0.51100000000E-03 0. -1.
         23    2    1    0    0    0 -0.11828467374E+02  0.25229956219E+02  0.86989429263E+01  0.95808649581E+02  0.91253287038E+02 0.  0.
         11    1    3    3    0    0 -0.85694268965E+01  0.38695769468E+02  0.43202085073E+02  0.58627790398E+02  0.51100000000E-03 0.  1.
         22    1    1    0    0    0  0.11828467374E+02 -0.25229956219E+02 -0.86989429263E+01  0.29191350419E+02  0.00000000000E+00 0.  1.
</event>
<event>
 5    1  0.8957809E-005  0.9118800E+02  0.7818608E-02  0.1130116E+00
         25   -1    0    0    0    0  0.00000000000E+00  0.00000000000E+00  0.99999998245E-14  0.12500000000E+03  0.12500000000E+03 0.  0.
        -11    1    3    3    0    0  0.76693114813E+01 -0.10867910462E+02  0.32268500773E+02  0.34902520809E+02  0.51100000000E-03 0.  1.
         23    2    1    0    0    0  0.11216850178E+02  0.27970645251E+02 -0.10783431488E+02  0.92992858323E+02  0.87311022103E+02 0.  0.
         11    1    3    3    0    0  0.35475386972E+01  0.38838555714E+02 -0.43051932262E+02  0.58090337514E+02  0.51100000000E-03 0. -1.
         22    1    1    0    0    0 -0.11216850178E+02 -0.27970645251E+02  0.10783431488E+02  0.32007141677E+02  0.00000000000E+00 0. -1.
</event>
<event>
 5    1  0.8957809E-005  0.9118800E+02  0.7818608E-02  0.1130116E+00
         25   -1    0    0    0    0  0.00000000000E+00  0.00000000000E+00  0.99999998245E-14  0.12500000000E+03  0.12500000000E+03 0.  0.
        -11    1    3    3    0    0 -0.61139075728E+01 -0.41424983310E+02  0.39192860088E+02  0.57354070389E+02  0.51100000000E-03 0. -1.
         23    2    1    0    0    0 -0.19097942389E+02 -0.15551090871E+02  0.10145981160E+02  0.98363394277E+02  0.94688164884E+02 0.  0.
         11    1    3    3    0    0 -0.12984034816E+02  0.25873892439E+02 -0.29046878927E+02  0.41009323888E+02  0.51100000000E-03 0.  1.
         22    1    1    0    0    0  0.19097942389E+02  0.15551090871E+02 -0.10145981160E+02  0.26636605723E+02  0.00000000000E+00 0. -1.
</event>
<event>
 5    1  0.8957809E-005  0.9118800E+02  0.7818608E-02  0.1130116E+00
         25   -1    0    0    0    0  0.00000000000E+00  0.00000000000E+00  0.99999998245E-14  0.12500000000E+03  0.12500000000E+03 0.  0.
        -11    1    3    3    0    0  0.12008577265E+02  0.52528562052E+01 -0.55701917723E+02  0.57223265064E+02  0.51100000000E-03 0.  1.
         23    2    1    0    0    0  0.18624278521E+02 -0.94533225874E+01 -0.21557540881E+02  0.94984060448E+02  0.90116674994E+02 0.  0.
         11    1    3    3    0    0  0.66157012567E+01 -0.14706178793E+02  0.34144376843E+02  0.37760795384E+02  0.51100000000E-03 0. -1.
         22    1    1    0    0    0 -0.18624278521E+02  0.94533225874E+01  0.21557540881E+02  0.30015939552E+02  0.00000000000E+00 0.  1.
</event>
<event>
 5    1  0.8957809E-005  0.9118800E+02  0.7818608E-02  0.1130116E+00
         25   -1    0    0    0    0  0.00000000000E+00  0.00000000000E+00  0.99999998245E-14  0.12500000000E+03  0.12500000000E+03 0.  0.
        -11    1    3    3    0    0  0.53122295923E+02  0.28583705862E+02  0.83468209088E+01  0.60898899699E+02  0.51100000000E-03 0.  1.
         23    2    1    0    0    0  0.25115976532E+02  0.12012216370E+02 -0.60926910106E+01  0.96500412231E+02  0.92196003480E+02 0.  0.
         11    1    3    3    0    0 -0.28006319391E+02 -0.16571489492E+02 -0.14439511919E+02  0.35601512532E+02  0.51100000000E-03 0. -1.
         22    1    1    0    0    0 -0.25115976532E+02 -0.12012216370E+02  0.60926910106E+01  0.28499587769E+02  0.00000000000E+00 0.  1.
</event>
<event>
 5    1  0.8957809E-005  0.9118800E+02  0.7818608E-02  0.1130116E+00
         25   -1    0    0    0    0  0.00000000000E+00  0.00000000000E+00  0.99999998245E-14  0.12500000000E+03  0.12500000000E+03 0.  0.
        -11    1    3    3    0    0  0.35888519946E+02  0.12323761789E+02 -0.37580619828E+02  0.53405654715E+02  0.51100000000E-03 0.  1.
         23    2    1    0    0    0  0.26353247051E+02  0.15664634047E+02  0.20212492776E+01  0.94276070587E+02  0.89129218816E+02 0.  0.
         11    1    3    3    0    0 -0.95352728950E+01  0.33408722578E+01  0.39601869106E+02  0.40870415872E+02  0.51100000000E-03 0. -1.
         22    1    1    0    0    0 -0.26353247051E+02 -0.15664634047E+02 -0.20212492776E+01  0.30723929413E+02  0.00000000000E+00 0. -1.
</event>
<event>
 5    1  0.8957809E-005  0.9118800E+02  0.7818608E-02  0.1130116E+00
         25   -1    0    0    0    0  0.00000000000E+00  0.00000000000E+00  0.99999998245E-14  0.12500000000E+03  0.12500000000E+03 0.  0.
        -11    1    3    3    0    0 -0.29704229306E+02 -0.43703019815E+02  0.32801732017E+02  0.62195247433E+02  0.51100000000E-03 0. -1.
         23    2    1    0    0    0 -0.13365003496E+02 -0.18814261461E+02  0.19424508215E+02  0.94835264427E+02  0.89910044527E+02 0.  0.
         11    1    3    3    0    0  0.16339225810E+02  0.24888758354E+02 -0.13377223801E+02  0.32640016994E+02  0.51100000000E-03 0.  1.
         22    1    1    0    0    0  0.13365003496E+02  0.18814261461E+02 -0.19424508215E+02  0.30164735573E+02  0.00000000000E+00 0. -1.
</event>
<event>
 5    1  0.8957809E-005  0.9118800E+02  0.7818608E-02  0.1130116E+00
         25   -1    0    0    0    0  0.00000000000E+00  0.00000000000E+00  0.99999998245E-14  0.12500000000E+03  0.12500000000E+03 0.  0.
        -11    1    3    3    0    0 -0.25747844700E+02 -0.27857654893E+02  0.22345516897E+01  0.37999916636E+02  0.51100000000E-03 0.  1.
         23    2    1    0    0    0  0.17059757354E+02  0.57986592178E+01  0.22563572059E+02  0.96124845390E+02  0.91685393315E+02 0.  0.
         11    1    3    3    0    0  0.42807602054E+02  0.33656314111E+02  0.20329020370E+02  0.58124928753E+02  0.51100000000E-03 0. -1.
         22    1    1    0    0    0 -0.17059757354E+02 -0.57986592178E+01 -0.22563572059E+02  0.28875154610E+02  0.00000000000E+00 0. -1.
</event>
<event>
 5    1  0.8957809E-005  0.9118800E+02  0.7818608E-02  0.1130116E+00
         25   -1    0    0    0    0  0.00000000000E+00  0.00000000000E+00  0.99999998245E-14  0.12500000000E+03  0.12500000000E+03 0.  0.
        -11    1    3    3    0    0 -0.30784897278E+00  0.58972678980E+02  0.66974556539E+00  0.58977285428E+02  0.51100000000E-03 0. -1.
         23    2    1    0    0    0  0.13443683054E+02  0.26028957116E+02  0.60698963522E+01  0.95082064505E+02  0.90252513129E+02 0.  0.
         11    1    3    3    0    0  0.13751532027E+02 -0.32943721865E+02  0.54001507868E+01  0.36104779076E+02  0.51100000000E-03 0.  1.
         22    1    1    0    0    0 -0.13443683054E+02 -0.26028957116E+02 -0.60698963522E+01  0.29917935495E+02  0.00000000000E+00 0. -1.
</event>
<event>
 5    1  0.8957809E-005  0.9118800E+02  0.7818608E-02  0.1130116E+00
         25   -1    0    0    0    0  0.00000000000E+00  0.00000000000E+00  0.99999998245E-14  0.12500000000E+03  0.12500000000E+03 0.  0.
        -11    1    3    3    0    0 -0.21959789885E+02 -0.35020806328E+02  0.24153194621E+02  0.47875526716E+02  0.51100000000E-03 0. -1.
         23    2    1    0    0    0 -0.25183137158E+02 -0.70678911606E+01 -0.14039337244E+02  0.95314170505E+02  0.90573410150E+02 0.  0.
         11    1    3    3    0    0 -0.32233472735E+01  0.27952915168E+02 -0.38192531865E+02  0.47438643789E+02  0.51100000000E-03 0.  1.
         22    1    1    0    0    0  0.25183137158E+02  0.70678911606E+01  0.14039337244E+02  0.29685829495E+02  0.00000000000E+00 0. -1.
</event>
<event>
 5    1  0.8957809E-005  0.9118800E+02  0.7818608E-02  0.1130116E+00
         25   -1    0    0    0    0  0.00000000000E+00  0.00000000000E+00  0.99999998245E-14  0.12500000000E+03  0.12500000000E+03 0.  0.
        -11    1    3    3    0    0  0.24983945768E+02  0.22328044744E+02 -0.23116147945E+02  0.40707436966E+02  0.51100000000E-03 0.  1.
         23    2    1    0    0    0  0.11106531923E+00  0.24276843908E+01  0.25802609880E+02  0.99083197273E+02  0.95633672512E+02 0.  0.
         11    1    3    3    0    0 -0.24872880449E+02 -0.19900360353E+02  0.48918757825E+02  0.58375760307E+02  0.51100000000E-03 0. -1.
         22    1    1    0    0    0 -0.11106531923E+00 -0.24276843908E+01 -0.25802609880E+02  0.25916802727E+02  0.00000000000E+00 0. -1.
</event>
<event>
 5    1  0.8957809E-005  0.9118800E+02  0.7818608E-02  0.1130116E+00
         25   -1    0    0    0    0  0.00000000000E+00  0.00000000000E+00  0.99999998245E-14  0.12500000000E+03  0.12500000000E+03 0.  0.
        -11    1    3    3    0    0  0.33674007046E+02 -0.13438015131E+02  0.15807834503E+02  0.39552580613E+02  0.51100000000E-03 0.  1.
         23    2    1    0    0    0 -0.12764254122E+02 -0.19446150308E+02 -0.16534067801E+02  0.96461353517E+02  0.92143032179E+02 0.  0.
         11    1    3    3    0    0 -0.46438261167E+02 -0.60081351761E+01 -0.32341902304E+02  0.56908772904E+02  0.51100000000E-03 0. -1.
         22    1    1    0    0    0  0.12764254122E+02  0.19446150308E+02  0.16534067801E+02  0.28538646483E+02  0.00000000000E+00 0. -1.
</event>
<event>
 5    1  0.8957809E-005  0.9118800E+02  0.7818608E-02  0.1130116E+00
         25   -1    0    0    0    0  0.00000000000E+00  0.00000000000E+00  0.99999998245E-14  0.12500000000E+03  0.12500000000E+03 0.  0.
        -11    1    3    3    0    0  0.30876889151E+02 -0.33497646674E+02 -0.14142097915E+02  0.47701923965E+02  0.51100000000E-03 0. -1.
         23    2    1    0    0    0  0.11035281149E+02  0.49101156271E+01 -0.29136938888E+02  0.93458790872E+02  0.87975551820E+02 0.  0.
         11    1    3    3    0    0 -0.19841608002E+02  0.38407762301E+02 -0.14994840973E+02  0.45756866907E+02  0.51100000000E-03 0.  1.
         22    1    1    0    0    0 -0.11035281149E+02 -0.49101156271E+01  0.29136938888E+02  0.31541209128E+02  0.00000000000E+00 0.  1.
</event>
<event>
 5    1  0.8957809E-005  0.9118800E+02  0.7818608E-02  0.1130116E+00
         25   -1    0    0    0    0  0.00000000000E+00  0.00000000000E+00  0.99999998245E-14  0.12500000000E+03  0.12500000000E+03 0.  0.
        -11    1    3    3    0    0 -0.45426662207E+02 -0.38815438167E+02 -0.11898967098E+02  0.60924586972E+02  0.51100000000E-03 0. -1.
         23    2    1    0    0    0 -0.19202590207E+02 -0.20125404849E+02  0.41000268436E+01  0.96882716861E+02  0.92712885918E+02 0.  0.
         11    1    3    3    0    0  0.26224072001E+02  0.18690033318E+02  0.15998993942E+02  0.35958129889E+02  0.51100000000E-03 0.  1.
         22    1    1    0    0    0  0.19202590207E+02  0.20125404849E+02 -0.41000268436E+01  0.28117283139E+02  0.00000000000E+00 0. -1.
</event>
<event>
 5    1  0.8957809E-005  0.9118800E+02  0.7818608E-02  0.1130116E+00
         25   -1    0    0    0    0  0.00000000000E+00  0.00000000000E+00  0.99999998245E-14  0.12500000000E+03  0.12500000000E+03 0.  0.
        -11    1    3    3    0    0  0.23216137277E+02 -0.19953847475E+02  0.31219090368E+02  0.43723868342E+02  0.51100000000E-03 0. -1.
         23    2    1    0    0    0 -0.15562879664E+02 -0.24635471532E+02 -0.30695935852E+01  0.95699281821E+02  0.91103350406E+02 0.  0.
         11    1    3    3    0    0 -0.38779016942E+02 -0.46816240566E+01 -0.34288683953E+02  0.51975413478E+02  0.51100000000E-03 0.  1.
         22    1    1    0    0    0  0.15562879664E+02  0.24635471532E+02  0.30695935852E+01  0.29300718179E+02  0.00000000000E+00 0.  1.
</event>
<event>
 5    1  0.8957809E-005  0.9118800E+02  0.7818608E-02  0.1130116E+00
         25   -1    0    0    0    0  0.00000000000E+00  0.00000000000E+00  0.99999998245E-14  0.12500000000E+03  0.12500000000E+03 0.  0.
        -11    1    3    3    0    0 -0.16725475811E+02  0.17101634074E+02 -0.25914652969E+02  0.35267218034E+02  0.51100000000E-03 0.  1.
         23    2    1    0    0    0  0.31814235734E+02 -0.16451720238E+01 -0.19383584058E+02  0.87709578747E+02  0.79387623007E+02 0.  0.
         11    1    3    3    0    0  0.48539711545E+02 -0.18746806097E+02  0.65310689113E+01  0.52442360713E+02  0.51100000000E-03 0. -1.
         22    1    1    0    0    0 -0.31814235734E+02  0.16451720238E+01  0.19383584058E+02  0.37290421253E+02  0.00000000000E+00 0.  1.
</event>
<event>
 5    1  0.8957809E-005  0.9118800E+02  0.7818608E-02  0.1130116E+00
         25   -1    0    0    0    0  0.00000000000E+00  0.00000000000E+00  0.99999998245E-14  0.12500000000E+03  0.12500000000E+03 0.  0.
        -11    1    3    3    0    0  0.31114976372E+02  0.28242605376E+02 -0.23800252851E+02  0.48293255731E+02  0.51100000000E-03 0.  1.
         23    2    1    0    0    0  0.13821683288E+02  0.14307356188E+02  0.19617152535E+02  0.97061280566E+02  0.92953322381E+02 0.  0.
         11    1    3    3    0    0 -0.17293293085E+02 -0.13935249188E+02  0.43417405386E+02  0.48768024836E+02  0.51100000000E-03 0. -1.
         22    1    1    0    0    0 -0.13821683288E+02 -0.14307356188E+02 -0.19617152535E+02  0.27938719434E+02  0.00000000000E+00 0. -1.
</event>
<event>
 5    1  0.8957809E-005  0.9118800E+02  0.7818608E-02  0.1130116E+00
         25   -1    0    0    0    0  0.00000000000E+00  0.00000000000E+00  0.99999998245E-14  0.12500000000E+03  0.12500000000E+03 0.  0.
        -11    1    3    3    0    0  0.24714412695E+02  0.33958508451E+02  0.25258547005E+02  0.49009965193E+02  0.51100000000E-03 0.  1.
         23    2    1    0    0    0 -0.61480706161E+01 -0.12398863850E+00  0.29201395395E+02  0.95158156248E+02  0.90357838963E+02 0.  0.
         11    1    3    3    0    0 -0.30862483311E+02 -0.34082497090E+02  0.39428483899E+01  0.46148191056E+02  0.51100000000E-03 0. -1.
         22    1    1    0    0    0  0.61480706161E+01  0.12398863850E+00 -0.29201395395E+02  0.29841843752E+02  0.00000000000E+00 0.  1.
</event>
<event>
 5    1  0.8957809E-005  0.9118800E+02  0.7818608E-02  0.1130116E+00
         25   -1    0    0    0    0  0.00000000000E+00  0.00000000000E+00  0.99999998245E-14  0.12500000000E+03  0.12500000000E+03 0.  0.
        -11    1    3    3    0    0 -0.22277844752E+02  0.46497527548E+02 -0.34367517871E+02  0.61963285256E+02  0.51100000000E-03 0. -1.
         23    2    1    0    0    0 -0.15364984538E+02  0.20578130544E+02 -0.13260325103E+02  0.96097086161E+02  0.91647539740E+02 0.  0.
         11    1    3    3    0    0  0.69128602138E+01 -0.25919397005E+02  0.21107192768E+02  0.34133800905E+02  0.51100000000E-03 0.  1.
         22    1    1    0    0    0  0.15364984538E+02 -0.20578130544E+02  0.13260325103E+02  0.28902913839E+02  0.00000000000E+00 0. -1.
</event>
<event>
 5    1  0.8957809E-005  0.9118800E+02  0.7818608E-02  0.1130116E+00
         25   -1    0    0    0    0  0.00000000000E+00  0.00000000000E+00  0.99999998245E-14  0.12500000000E+03  0.12500000000E+03 0.  0.
        -11    1    3    3    0    0 -0.21743632042E+02  0.32797210941E+02 -0.62877604180E+00  0.39355278420E+02  0.51100000000E-03 0.  1.
         23    2    1    0    0    0 -0.46438107054E+01 -0.16226335945E+02 -0.23481379142E+02  0.96082287046E+02  0.91627352693E+02 0.  0.
         11    1    3    3    0    0  0.17099821336E+02 -0.49023546886E+02 -0.22852603100E+02  0.56727008627E+02  0.51100000000E-03 0. -1.
         22    1    1    0    0    0  0.46438107054E+01  0.16226335945E+02  0.23481379142E+02  0.28917712954E+02  0.00000000000E+00 0. -1.
</event>
<event>
 5    1  0.8957809E-005  0.9118800E+02  0.7818608E-02  0.1130116E+00
         25   -1    0    0    0    0  0.00000000000E+00  0.00000000000E+00  0.99999998245E-14  0.12500000000E+03  0.12500000000E+03 0.  0.
        -11    1    3    3    0    0 -0.20677291707E+02 -0.42200571661E+02 -0.36925872408E+02  0.59765865627E+02  0.51100000000E-03 0. -1.
         23    2    1    0    0    0 -0.26128788376E+01 -0.12204082661E+02 -0.25518349485E+02  0.96593083063E+02  0.92321561759E+02 0.  0.
         11    1    3    3    0    0  0.18064412869E+02  0.29996488999E+02  0.11407522922E+02  0.36827217436E+02  0.51100000000E-03 0.  1.
         22    1    1    0    0    0  0.26128788376E+01  0.12204082661E+02  0.25518349485E+02  0.28406916937E+02  0.00000000000E+00 0. -1.
</event>
<event>
 5    1  0.8957809E-005  0.9118800E+02  0.7818608E-02  0.1130116E+00
         25   -1    0    0    0    0  0.00000000000E+00  0.00000000000E+00  0.99999998245E-14  0.12500000000E+03  0.12500000000E+03 0.  0.
        -11    1    3    3    0    0 -0.37249924422E+01 -0.21954870902E+02  0.50614110252E+02  0.55296293564E+02  0.51100000000E-03 0. -1.
         23    2    1    0    0    0  0.67256700556E+01  0.98322771105E+01  0.24556310647E+02  0.97706764511E+02  0.93817328505E+02 0.  0.
         11    1    3    3    0    0  0.10450662498E+02  0.31787148012E+02 -0.26057799606E+02  0.42410470947E+02  0.51100000000E-03 0.  1.
         22    1    1    0    0    0 -0.67256700556E+01 -0.98322771105E+01 -0.24556310647E+02  0.27293235489E+02  0.00000000000E+00 0. -1.
</event>
<event>
 5    1  0.8957809E-005  0.9118800E+02  0.7818608E-02  0.1130116E+00
         25   -1    0    0    0    0  0.00000000000E+00  0.00000000000E+00  0.99999998245E-14  0.12500000000E+03  0.12500000000E+03 0.  0.
        -11    1    3    3    0    0 -0.11768575852E+02 -0.47414202105E+02  0.21055549845E+01  0.48898254579E+02  0.51100000000E-03 0.  1.
         23    2    1    0    0    0  0.14390209716E+01 -0.68738799601E+01  0.26201605822E+02  0.97873534055E+02  0.94039265808E+02 0.  0.
         11    1    3    3    0    0  0.13207596824E+02  0.40540322145E+02  0.24096050837E+02  0.48975279475E+02  0.51100000000E-03 0. -1.
         22    1    1    0    0    0 -0.14390209716E+01  0.68738799601E+01 -0.26201605822E+02  0.27126465945E+02  0.00000000000E+00 0.  1.
</event>
<event>
 5    1  0.8957809E-005  0.9118800E+02  0.7818608E-02  0.1130116E+00
         25   -1    0    0    0    0  0.00000000000E+00  0.00000000000E+00  0.99999998245E-14  0.12500000000E+03  0.12500000000E+03 0.  0.
        -11    1    3    3    0    0 -0.66217177087E+00  0.50884230707E+02  0.13910899938E+02  0.52755630443E+02  0.51100000000E-03 0.  1.
         23    2    1    0    0    0  0.22364370632E+02  0.15074786582E+02  0.12292163570E+02  0.95360304497E+02  0.90637057125E+02 0.  0.
         11    1    3    3    0    0  0.23026542403E+02 -0.35809444125E+02 -0.16187363680E+01  0.42604674054E+02  0.51100000000E-03 0. -1.
         22    1    1    0    0    0 -0.22364370632E+02 -0.15074786582E+02 -0.12292163570E+02  0.29639695503E+02  0.00000000000E+00 0.  1.
</event>
<event>
 5    1  0.8957809E-005  0.9118800E+02  0.7818608E-02  0.1130116E+00
         25   -1    0    0    0    0  0.00000000000E+00  0.00000000000E+00  0.99999998245E-14  0.12500000000E+03  0.12500000000E+03 0.  0.
        -11    1    3    3    0    0  0.10618499349E+02 -0.28625540439E+01 -0.34767809383E+02  0.36465700509E+02  0.51100000000E-03 0.  1.
         23    2    1    0    0    0 -0.22260130289E+02  0.41330218948E+00  0.16381374916E+02  0.97358841137E+02  0.93352612627E+02 0.  0.
         11    1    3    3    0    0 -0.32878629638E+02  0.32758562334E+01  0.51149184298E+02  0.60893140628E+02  0.51100000000E-03 0. -1.
         22    1    1    0    0    0  0.22260130289E+02 -0.41330218948E+00 -0.16381374916E+02  0.27641158863E+02  0.00000000000E+00 0. -1.
</event>
<event>
 5    1  0.8957809E-005  0.9118800E+02  0.7818608E-02  0.1130116E+00
         25   -1    0    0    0    0  0.00000000000E+00  0.00000000000E+00  0.99999998245E-14  0.12500000000E+03  0.12500000000E+03 0.  0.
        -11    1    3    3    0    0  0.21174644721E+02  0.20128435923E+02 -0.51320950995E+02  0.59053869670E+02  0.51100000000E-03 0. -1.
         23    2    1    0    0    0  0.17556001202E+02 -0.31626637552E+01 -0.22566330969E+02  0.96234483950E+02  0.91834748257E+02 0.  0.
         11    1    3    3    0    0 -0.36186435190E+01 -0.23291099678E+02  0.28754620025E+02  0.37180614279E+02  0.51100000000E-03 0.  1.
         22    1    1    0    0    0 -0.17556001202E+02  0.31626637552E+01  0.22566330969E+02  0.28765516050E+02  0.00000000000E+00 0. -1.
</event>
<event>
 5    1  0.8957809E-005  0.9118800E+02  0.7818608E-02  0.1130116E+00
         25   -1    0    0    0    0  0.00000000000E+00  0.00000000000E+00  0.99999998245E-14  0.12500000000E+03  0.12500000000E+03 0.  0.
        -11    1    3    3    0    0 -0.42704742566E+01  0.14566979695E+02  0.42435919010E+02  0.45069291877E+02  0.51100000000E-03 0.  1.
         23    2    1    0    0    0 -0.25129134724E+02  0.98472246956E+01 -0.54066209600E+01  0.97474143130E+02  0.93506875590E+02 0.  0.
         11    1    3    3    0    0 -0.20858660468E+02 -0.47197549996E+01 -0.47842539970E+02  0.52404851253E+02  0.51100000000E-03 0. -1.
         22    1    1    0    0    0  0.25129134724E+02 -0.98472246956E+01  0.54066209600E+01  0.27525856870E+02  0.00000000000E+00 0. -1.
</event>
<event>
 5    1  0.8957809E-005  0.9118800E+02  0.7818608E-02  0.1130116E+00
         25   -1    0    0    0    0  0.00000000000E+00  0.00000000000E+00  0.99999998245E-14  0.12500000000E+03  0.12500000000E+03 0.  0.
        -11    1    3    3    0    0 -0.58582702325E+02 -0.19234962933E+02  0.22612655209E+01  0.61701135587E+02  0.51100000000E-03 0. -1.
         23    2    1    0    0    0 -0.24394154456E+02 -0.14488878732E+02  0.44210966155E+01  0.96285047905E+02  0.91903547136E+02 0.  0.
         11    1    3    3    0    0  0.34188547868E+02  0.47460842010E+01  0.21598310946E+01  0.34583912318E+02  0.51100000000E-03 0.  1.
         22    1    1    0    0    0  0.24394154456E+02  0.14488878732E+02 -0.44210966155E+01  0.28714952095E+02  0.00000000000E+00 0. -1.
</event>
<event>
 5    1  0.8957809E-005  0.9118800E+02  0.7818608E-02  0.1130116E+00
         25   -1    0    0    0    0  0.00000000000E+00  0.00000000000E+00  0.99999998245E-14  0.12500000000E+03  0.12500000000E+03 0.  0.
        -11    1    3    3    0    0  0.26300606454E+02 -0.36243047830E+02  0.37776789432E+01  0.44939417824E+02  0.51100000000E-03 0.  1.
         23    2    1    0    0    0 -0.21573554206E+02 -0.17823978997E+02  0.63697515422E+01  0.96300066149E+02  0.91923971504E+02 0.  0.
         11    1    3    3    0    0 -0.47874160661E+02  0.18419068834E+02  0.25920725990E+01  0.51360648324E+02  0.51100000000E-03 0. -1.
         22    1    1    0    0    0  0.21573554206E+02  0.17823978997E+02 -0.63697515422E+01  0.28699933851E+02  0.00000000000E+00 0.  1.
</event>
<event>
 5    1  0.8957809E-005  0.9118800E+02  0.7818608E-02  0.1130116E+00
         25   -1    0    0    0    0  0.00000000000E+00  0.00000000000E+00  0.99999998245E-14  0.12500000000E+03  0.12500000000E+03 0.  0.
        -11    1    3    3    0    0 -0.23615477867E+02 -0.29755849555E+02 -0.60703783099E+01  0.38470129591E+02  0.51100000000E-03 0.  1.
         23    2    1    0    0    0  0.26650049873E+02 -0.46219511988E+01  0.87170811502E+01  0.96582134230E+02  0.92306736252E+02 0.  0.
         11    1    3    3    0    0  0.50265527741E+02  0.25133898357E+02  0.14787459460E+02  0.58112004639E+02  0.51100000000E-03 0. -1.
         22    1    1    0    0    0 -0.26650049873E+02  0.46219511988E+01 -0.87170811502E+01  0.28417865770E+02  0.00000000000E+00 0. -1.
</event>
<event>
 5    1  0.8957809E-005  0.9118800E+02  0.7818608E-02  0.1130116E+00
         25   -1    0    0    0    0  0.00000000000E+00  0.00000000000E+00  0.99999998245E-14  0.12500000000E+03  0.12500000000E+03 0.  0.
        -11    1    3    3    0    0  0.12371924850E+02  0.22397237437E+02 -0.35883453049E+02  0.44071793386E+02  0.51100000000E-03 0. -1.
         23    2    1    0    0    0  0.23789025644E+02  0.13211827968E+02  0.12811221159E+02  0.94923472160E+02  0.90032594320E+02 0.  0.
         11    1    3    3    0    0  0.11417100794E+02 -0.91854094695E+01  0.48694674208E+02  0.50851678774E+02  0.51100000000E-03 0.  1.
         22    1    1    0    0    0 -0.23789025644E+02 -0.13211827968E+02 -0.12811221159E+02  0.30076527840E+02  0.00000000000E+00 0.  1.
</event>
<event>
 5    1  0.8957809E-005  0.9118800E+02  0.7818608E-02  0.1130116E+00
         25   -1    0    0    0    0  0.00000000000E+00  0.00000000000E+00  0.99999998245E-14  0.12500000000E+03  0.12500000000E+03 0.  0.
        -11    1    3    3    0    0  0.12841764942E+02  0.29207601378E+02 -0.18508740954E+02  0.36885883439E+02  0.51100000000E-03 0.  1.
         23    2    1    0    0    0 -0.26681527585E+02 -0.11425701319E+02 -0.20933927034E+01  0.95899607255E+02  0.91377797160E+02 0.  0.
         11    1    3    3    0    0 -0.39523292527E+02 -0.40633302697E+02  0.16415348250E+02  0.59013723817E+02  0.51100000000E-03 0. -1.
         22    1    1    0    0    0  0.26681527585E+02  0.11425701319E+02  0.20933927034E+01  0.29100392745E+02  0.00000000000E+00 0. -1.
</event>
<event>
 5    1  0.8957809E-005  0.9118800E+02  0.7818608E-02  0.1130116E+00
         25   -1    0    0    0    0  0.00000000000E+00  0.00000000000E+00  0.99999998245E-14  0.12500000000E+03  0.12500000000E+03 0.  0.
        -11    1    3    3    0    0  0.24614799384E+02  0.16872884350E+02  0.20005397117E+02  0.35927684159E+02  0.51100000000E-03 0. -1.
         23    2    1    0    0    0 -0.42579418904E+01 -0.28795556471E+02 -0.50026307346E+01  0.95464589797E+02  0.90780765855E+02 0.  0.
         11    1    3    3    0    0 -0.28872741274E+02 -0.45668440820E+02 -0.25008027851E+02  0.59536905638E+02  0.51100000000E-03 0.  1.
         22    1    1    0    0    0  0.42579418904E+01  0.28795556471E+02  0.50026307346E+01  0.29535410203E+02  0.00000000000E+00 0.  1.
</event>
<event>
 4    1  0.8957809E-005  0.9118800E+02  0.7818608E-02  0.1130116E+00
         25   -1    0    0    0    0  0.00000000000E+00  0.00000000000E+00  0.99999998245E-14  0.12500000000E+03  0.12500000000E+03 0.  0.
        -11    1    1    0    0    0 -0.13518223751E+01 -0.27571531468E+01  0.59210838899E+01  0.66699739056E+01  0.51100000000E-03 0. -1.
         11    1    1    0    0    0  0.68392202314E+01 -0.25392574586E+02 -0.55295631852E+02  0.61230422828E+02  0.51100000000E-03 0.  1.
         22    1    1    0    0    0 -0.54873978563E+01  0.28149727733E+02  0.49374547963E+02  0.57099603266E+02  0.00000000000E+00 0.  1.
</event>
<event>
 5    1  0.8957809E-005  0.9118800E+02  0.7818608E-02  0.1130116E+00
         25   -1    0    0    0    0  0.00000000000E+00  0.00000000000E+00  0.99999998245E-14  0.12500000000E+03  0.12500000000E+03 0.  0.
        -11    1    3    3    0    0 -0.17707693220E+02  0.25356661804E+02 -0.79657029589E+01  0.31937049346E+02  0.51100000000E-03 0.  1.
         23    2    1    0    0    0  0.21880482242E+02 -0.94899629432E+01  0.21963582021E+02  0.92577572037E+02  0.86714433685E+02 0.  0.
         11    1    3    3    0    0  0.39588175462E+02 -0.34846624747E+02  0.29929284980E+02  0.60640522692E+02  0.51100000000E-03 0. -1.
         22    1    1    0    0    0 -0.21880482242E+02  0.94899629432E+01 -0.21963582021E+02  0.32422427963E+02  0.00000000000E+00 0. -1.
</event>
<event>
 5    1  0.8957809E-005  0.9118800E+02  0.7818608E-02  0.1130116E+00
         25   -1    0    0    0    0  0.00000000000E+00  0.00000000000E+00  0.99999998245E-14  0.12500000000E+03  0.12500000000E+03 0.  0.
        -11    1    3    3    0    0  0.17348203043E+02  0.88262178441E+01  0.39786168807E+02  0.44292228425E+02  0.51100000000E-03 0.  1.
         23    2    1    0    0    0 -0.25836524420E+02  0.75672138180E+01  0.17325035495E+02  0.92985228816E+02  0.87300098534E+02 0.  0.
         11    1    3    3    0    0 -0.43184727463E+02 -0.12590040261E+01 -0.22461133312E+02  0.48693000391E+02  0.51100000000E-03 0. -1.
         22    1    1    0    0    0  0.25836524420E+02 -0.75672138180E+01 -0.17325035495E+02  0.32014771184E+02  0.00000000000E+00 0. -1.
</event>
<event>
 5    1  0.8957809E-005  0.9118800E+02  0.7818608E-02  0.1130116E+00
         25   -1    0    0    0    0  0.00000000000E+00  0.00000000000E+00  0.99999998245E-14  0.12500000000E+03  0.12500000000E+03 0.  0.
        -11    1    3    3    0    0  0.25209666665E+02 -0.10748915412E+02 -0.36358192871E+02  0.45530041346E+02  0.51100000000E-03 0.  1.
         23    2    1    0    0    0 -0.33665317413E+01  0.24282792081E+02 -0.19107453209E+02  0.93918135588E+02  0.88625808301E+02 0.  0.
         11    1    3    3    0    0 -0.28576198406E+02  0.35031707492E+02  0.17250739663E+02  0.48388094242E+02  0.51100000000E-03 0. -1.
         22    1    1    0    0    0  0.33665317413E+01 -0.24282792081E+02  0.19107453209E+02  0.31081864412E+02  0.00000000000E+00 0.  1.
</event>
<event>
 5    1  0.8957809E-005  0.9118800E+02  0.7818608E-02  0.1130116E+00
         25   -1    0    0    0    0  0.00000000000E+00  0.00000000000E+00  0.99999998245E-14  0.12500000000E+03  0.12500000000E+03 0.  0.
        -11    1    3    3    0    0  0.11897878659E+02  0.28342651788E+02  0.52252197071E+02  0.60623077503E+02  0.51100000000E-03 0.  1.
         23    2    1    0    0    0  0.13330776641E+02  0.67442873137E+01  0.28916097863E+02  0.92452561808E+02  0.86534042157E+02 0.  0.
         11    1    3    3    0    0  0.14328979823E+01 -0.21598364474E+02 -0.23336099208E+02  0.31829484304E+02  0.51100000000E-03 0. -1.
         22    1    1    0    0    0 -0.13330776641E+02 -0.67442873137E+01 -0.28916097863E+02  0.32547438192E+02  0.00000000000E+00 0.  1.
</event>
<event>
 5    1  0.8957809E-005  0.9118800E+02  0.7818608E-02  0.1130116E+00
         25   -1    0    0    0    0  0.00000000000E+00  0.00000000000E+00  0.99999998245E-14  0.12500000000E+03  0.12500000000E+03 0.  0.
        -11    1    3    3    0    0 -0.31600933842E+02  0.11547144792E+02  0.21872269568E+02  0.40129188241E+02  0.51100000000E-03 0.  1.
         23    2    1    0    0    0  0.19219569342E+02  0.22166318782E+02  0.24564132010E+01  0.95559016663E+02  0.90910693352E+02 0.  0.
         11    1    3    3    0    0  0.50820503184E+02  0.10619173990E+02 -0.19415856367E+02  0.55429828422E+02  0.51100000000E-03 0. -1.
         22    1    1    0    0    0 -0.19219569342E+02 -0.22166318782E+02 -0.24564132010E+01  0.29440983337E+02  0.00000000000E+00 0. -1.
</event>
<event>
 5    1  0.8957809E-005  0.9118800E+02  0.7818608E-02  0.1130116E+00
         25   -1    0    0    0    0  0.00000000000E+00  0.00000000000E+00  0.99999998245E-14  0.12500000000E+03  0.12500000000E+03 0.  0.
        -11    1    3    3    0    0 -0.30804828306E+02 -0.31965767721E+02  0.34777087131E+02  0.56393204755E+02  0.51100000000E-03 0.  1.
         23    2    1    0    0    0 -0.23997624275E+02 -0.15362394656E+02 -0.10757343665E+01  0.96486032461E+02  0.92176505223E+02 0.  0.
         11    1    3    3    0    0  0.68072040308E+01  0.16603373066E+02 -0.35852821497E+02  0.40092827706E+02  0.51100000000E-03 0. -1.
         22    1    1    0    0    0  0.23997624275E+02  0.15362394656E+02  0.10757343665E+01  0.28513967539E+02  0.00000000000E+00 0.  1.
</event>
<event>
 5    1  0.8957809E-005  0.9118800E+02  0.7818608E-02  0.1130116E+00
         25   -1    0    0    0    0  0.00000000000E+00  0.00000000000E+00  0.99999998245E-14  0.12500000000E+03  0.12500000000E+03 0.  0.
        -11    1    3    3    0    0  0.80657779709E+01 -0.54749431021E+02 -0.26834803569E+02  0.61503362951E+02  0.51100000000E-03 0.  1.
         23    2    1    0    0    0  0.56081856174E+01 -0.32176940700E+02 -0.71264267792E+01  0.91569576471E+02  0.85249012415E+02 0.  0.
         11    1    3    3    0    0 -0.24575923535E+01  0.22572490322E+02  0.19708376789E+02  0.30066213520E+02  0.51100000000E-03 0. -1.
         22    1    1    0    0    0 -0.56081856174E+01  0.32176940700E+02  0.71264267792E+01  0.33430423529E+02  0.00000000000E+00 0.  1.
</event>
<event>
 5    1  0.8957809E-005  0.9118800E+02  0.7818608E-02  0.1130116E+00
         25   -1    0    0    0    0  0.00000000000E+00  0.00000000000E+00  0.99999998245E-14  0.12500000000E+03  0.12500000000E+03 0.  0.
        -11    1    3    3    0    0  0.19499665839E+02  0.45873617514E+02  0.18155427662E+02  0.53049460936E+02  0.51100000000E-03 0. -1.
         23    2    1    0    0    0 -0.14154947517E+02  0.21279335443E+02 -0.20281643210E+01  0.99362408330E+02  0.95997927491E+02 0.  0.
         11    1    3    3    0    0 -0.33654613356E+02 -0.24594282072E+02 -0.20183591983E+02  0.46312947395E+02  0.51100000000E-03 0.  1.
         22    1    1    0    0    0  0.14154947517E+02 -0.21279335443E+02  0.20281643210E+01  0.25637591670E+02  0.00000000000E+00 0. -1.
</event>
<event>
 5    1  0.8957809E-005  0.9118800E+02  0.7818608E-02  0.1130116E+00
         25   -1    0    0    0    0  0.00000000000E+00  0.00000000000E+00  0.99999998245E-14  0.12500000000E+03  0.12500000000E+03 0.  0.
        -11    1    3    3    0    0  0.47595510731E+02 -0.50351488077E+01  0.27805584155E+02  0.55351927480E+02  0.51100000000E-03 0.  1.
         23    2    1    0    0    0  0.89440705748E+01  0.68207136067E+01  0.26957794028E+02  0.95789707440E+02  0.91227336145E+02 0.  0.
         11    1    3    3    0    0 -0.38651440156E+02  0.11855862414E+02 -0.84779012670E+00  0.40437779960E+02  0.51100000000E-03 0. -1.
         22    1    1    0    0    0 -0.89440705748E+01 -0.68207136067E+01 -0.26957794028E+02  0.29210292560E+02  0.00000000000E+00 0.  1.
</event>
<event>
 5    1  0.8957809E-005  0.9118800E+02  0.7818608E-02  0.1130116E+00
         25   -1    0    0    0    0  0.00000000000E+00  0.00000000000E+00  0.99999998245E-14  0.12500000000E+03  0.12500000000E+03 0.  0.
        -11    1    3    3    0    0  0.20568537707E+02 -0.24225543898E+02  0.25619458441E+02  0.40820318122E+02  0.51100000000E-03 0.  1.
         23    2    1    0    0    0 -0.24597855217E+02 -0.62474073484E+01  0.24910683276E+02  0.89438409468E+02  0.82064623115E+02 0.  0.
         11    1    3    3    0    0 -0.45166392925E+02  0.17978136549E+02 -0.70877516435E+00  0.48618091346E+02  0.51100000000E-03 0. -1.
         22    1    1    0    0    0  0.24597855217E+02  0.62474073484E+01 -0.24910683276E+02  0.35561590532E+02  0.00000000000E+00 0. -1.
</event>
<event>
 5    1  0.8957809E-005  0.9118800E+02  0.7818608E-02  0.1130116E+00
         25   -1    0    0    0    0  0.00000000000E+00  0.00000000000E+00  0.99999998245E-14  0.12500000000E+03  0.12500000000E+03 0.  0.
        -11    1    3    3    0    0  0.35159412676E+02  0.46188368365E+01  0.89596175359E+01  0.36575848590E+02  0.51100000000E-03 0.  1.
         23    2    1    0    0    0 -0.23660839600E+02 -0.12044401036E+02  0.59886113248E+01  0.97782976054E+02  0.93918816078E+02 0.  0.
         11    1    3    3    0    0 -0.58820252276E+02 -0.16663237872E+02 -0.29710062111E+01  0.61207127464E+02  0.51100000000E-03 0. -1.
         22    1    1    0    0    0  0.23660839600E+02  0.12044401036E+02 -0.59886113248E+01  0.27217023946E+02  0.00000000000E+00 0. -1.
</event>
<event>
 5    1  0.8957809E-005  0.9118800E+02  0.7818608E-02  0.1130116E+00
         25   -1    0    0    0    0  0.00000000000E+00  0.00000000000E+00  0.99999998245E-14  0.12500000000E+03  0.12500000000E+03 0.  0.
        -11    1    3    3    0    0  0.34481619659E+02  0.22009927255E+02 -0.54079451034E+01  0.41263359807E+02  0.51100000000E-03 0. -1.
         23    2    1    0    0    0  0.32306175561E+01 -0.24515937519E+02 -0.11665257112E+02  0.97658706948E+02  0.93753275874E+02 0.  0.
         11    1    3    3    0    0 -0.31251002103E+02 -0.46525864774E+02 -0.62573120087E+01  0.56395347142E+02  0.51100000000E-03 0.  1.
         22    1    1    0    0    0 -0.32306175561E+01  0.24515937519E+02  0.11665257112E+02  0.27341293052E+02  0.00000000000E+00 0.  1.
</event>
<event>
 5    1  0.8957809E-005  0.9118800E+02  0.7818608E-02  0.1130116E+00
         25   -1    0    0    0    0  0.00000000000E+00  0.00000000000E+00  0.99999998245E-14  0.12500000000E+03  0.12500000000E+03 0.  0.
        -11    1    3    3    0    0  0.52910150499E+02  0.14063388679E+02  0.16640296639E+02  0.57220297093E+02  0.51100000000E-03 0. -1.
         23    2    1    0    0    0  0.14706999103E+02  0.18401925585E+02  0.17460445849E+02  0.95677758320E+02  0.91073813910E+02 0.  0.
         11    1    3    3    0    0 -0.38203151395E+02  0.43385369060E+01  0.82014921018E+00  0.38457461227E+02  0.51100000000E-03 0.  1.
         22    1    1    0    0    0 -0.14706999103E+02 -0.18401925585E+02 -0.17460445849E+02  0.29322241680E+02  0.00000000000E+00 0. -1.
</event>
<event>
 5    1  0.8957809E-005  0.9118800E+02  0.7818608E-02  0.1130116E+00
         25   -1    0    0    0    0  0.00000000000E+00  0.00000000000E+00  0.99999998245E-14  0.12500000000E+03  0.12500000000E+03 0.  0.
        -11    1    3    3    0    0  0.41987426544E+02 -0.16168296890E+02 -0.45916994814E+01  0.45226557646E+02  0.51100000000E-03 0.  1.
         23    2    1    0    0    0  0.17844250210E+02  0.24212201902E+02  0.78964131905E+01  0.93903355040E+02  0.88604959004E+02 0.  0.
         11    1    3    3    0    0 -0.24143176334E+02  0.40380498792E+02  0.12488112672E+02  0.48676797394E+02  0.51100000000E-03 0. -1.
         22    1    1    0    0    0 -0.17844250210E+02 -0.24212201902E+02 -0.78964131905E+01  0.31096644960E+02  0.00000000000E+00 0. -1.
</event>
<event>
 5    1  0.8957809E-005  0.9118800E+02  0.7818608E-02  0.1130116E+00
         25   -1    0    0    0    0  0.00000000000E+00  0.00000000000E+00  0.99999998245E-14  0.12500000000E+03  0.12500000000E+03 0.  0.
        -11    1    3    3    0    0 -0.91483519705E+01  0.35824112460E+02 -0.21045179101E+02  0.42543612223E+02  0.51100000000E-03 0.  1.
         23    2    1    0    0    0  0.11659199570E+02 -0.12313229715E+02 -0.24617726860E+02  0.95107107260E+02  0.90287190758E+02 0.  0.
         11    1    3    3    0    0  0.20807551541E+02 -0.48137342175E+02 -0.35725477590E+01  0.52563495037E+02  0.51100000000E-03 0. -1.
         22    1    1    0    0    0 -0.11659199570E+02  0.12313229715E+02  0.24617726860E+02  0.29892892740E+02  0.00000000000E+00 0. -1.
</event>
<event>
 5    1  0.8957809E-005  0.9118800E+02  0.7818608E-02  0.1130116E+00
         25   -1    0    0    0    0  0.00000000000E+00  0.00000000000E+00  0.99999998245E-14  0.12500000000E+03  0.12500000000E+03 0.  0.
        -11    1    3    3    0    0 -0.22263543331E+02 -0.85236698495E+01 -0.26172893588E+02  0.35402523475E+02  0.51100000000E-03 0. -1.
         23    2    1    0    0    0 -0.44168390264E+01 -0.12229928410E+02  0.28844143409E+02  0.93360401000E+02  0.87835643391E+02 0.  0.
         11    1    3    3    0    0  0.17846704305E+02 -0.37062585608E+01  0.55017036996E+02  0.57957877525E+02  0.51100000000E-03 0.  1.
         22    1    1    0    0    0  0.44168390264E+01  0.12229928410E+02 -0.28844143409E+02  0.31639599000E+02  0.00000000000E+00 0.  1.
</event>
<event>
 5    1  0.8957809E-005  0.9118800E+02  0.7818608E-02  0.1130116E+00
         25   -1    0    0    0    0  0.00000000000E+00  0.00000000000E+00  0.99999998245E-14  0.12500000000E+03  0.12500000000E+03 0.  0.
        -11    1    3    3    0    0 -0.17010100211E+02  0.85216476294E+00 -0.26586252472E+02  0.31573699731E+02  0.51100000000E-03 0. -1.
         23    2    1    0    0    0 -0.27695683784E+02  0.27076873365E+02  0.16309500117E+02  0.82973725295E+02  0.71543212982E+02 0.  0.
         11    1    3    3    0    0 -0.10685583573E+02  0.26224708602E+02  0.42895752589E+02  0.51400025564E+02  0.51100000000E-03 0.  1.
         22    1    1    0    0    0  0.27695683784E+02 -0.27076873365E+02 -0.16309500117E+02  0.42026274705E+02  0.00000000000E+00 0.  1.
</event>
<event>
 5    1  0.8957809E-005  0.9118800E+02  0.7818608E-02  0.1130116E+00
         25   -1    0    0    0    0  0.00000000000E+00  0.00000000000E+00  0.99999998245E-14  0.12500000000E+03  0.12500000000E+03 0.  0.
        -11    1    3    3    0    0  0.63019230567E+00  0.59748787982E+02 -0.48154843564E+01  0.59945839701E+02  0.51100000000E-03 0.  1.
         23    2    1    0    0    0 -0.11416453475E+02  0.27568865342E+02  0.24290083753E+01  0.95062100477E+02  0.90224858654E+02 0.  0.
         11    1    3    3    0    0 -0.12046645780E+02 -0.32179922640E+02  0.72444927317E+01  0.35116260776E+02  0.51100000000E-03 0. -1.
         22    1    1    0    0    0  0.11416453475E+02 -0.27568865342E+02 -0.24290083753E+01  0.29937899523E+02  0.00000000000E+00 0.  1.
</event>
<event>
 5    1  0.8957809E-005  0.9118800E+02  0.7818608E-02  0.1130116E+00
         25   -1    0    0    0    0  0.00000000000E+00  0.00000000000E+00  0.99999998245E-14  0.12500000000E+03  0.12500000000E+03 0.  0.
        -11    1    3    3    0    0 -0.10579243237E+02  0.18310067804E+01 -0.28246167966E+02  0.30217858599E+02  0.51100000000E-03 0.  1.
         23    2    1    0    0    0  0.55896330816E+01 -0.68544406967E+01  0.31271771899E+02  0.92501521990E+02  0.86604737154E+02 0.  0.
         11    1    3    3    0    0  0.16168876318E+02 -0.86854474772E+01  0.59517939865E+02  0.62283663391E+02  0.51100000000E-03 0. -1.
         22    1    1    0    0    0 -0.55896330816E+01  0.68544406967E+01 -0.31271771899E+02  0.32498478010E+02  0.00000000000E+00 0. -1.
</event>
<event>
 5    1  0.8957809E-005  0.9118800E+02  0.7818608E-02  0.1130116E+00
         25   -1    0    0    0    0  0.00000000000E+00  0.00000000000E+00  0.99999998245E-14  0.12500000000E+03  0.12500000000E+03 0.  0.
        -11    1    3    3    0    0 -0.32090156224E+02  0.10466008112E+02 -0.29910102011E+01  0.33886008832E+02  0.51100000000E-03 0. -1.
         23    2    1    0    0    0  0.28878165313E+02  0.55326912459E+01 -0.54174632880E+01  0.95101705521E+02  0.90279711897E+02 0.  0.
         11    1    3    3    0    0  0.60968321537E+02 -0.49333168663E+01 -0.24264530868E+01  0.61215696689E+02  0.51100000000E-03 0.  1.
         22    1    1    0    0    0 -0.28878165313E+02 -0.55326912459E+01  0.54174632880E+01  0.29898294479E+02  0.00000000000E+00 0.  1.
</event>
<event>
 5    1  0.8957809E-005  0.9118800E+02  0.7818608E-02  0.1130116E+00
         25   -1    0    0    0    0  0.00000000000E+00  0.00000000000E+00  0.99999998245E-14  0.12500000000E+03  0.12500000000E+03 0.  0.
        -11    1    3    3    0    0  0.10361120233E+02 -0.80320078817E+01  0.56000439864E+02  0.57514478424E+02  0.51100000000E-03 0. -1.
         23    2    1    0    0    0 -0.12136959692E+02 -0.81058685203E+01  0.27913356776E+02  0.93501327305E+02  0.88035968934E+02 0.  0.
         11    1    3    3    0    0 -0.22498079925E+02 -0.73860638601E-01 -0.28087083088E+02  0.35986848881E+02  0.51100000000E-03 0.  1.
         22    1    1    0    0    0  0.12136959692E+02  0.81058685203E+01 -0.27913356776E+02  0.31498672695E+02  0.00000000000E+00 0. -1.
</event>
<event>
 5    1  0.8957809E-005  0.9118800E+02  0.7818608E-02  0.1130116E+00
         25   -1    0    0    0    0  0.00000000000E+00  0.00000000000E+00  0.99999998245E-14  0.12500000000E+03  0.12500000000E+03 0.  0.
        -11    1    3    3    0    0 -0.18082370234E+02 -0.25039663344E+02  0.23956019507E+02  0.39087692751E+02  0.51100000000E-03 0. -1.
         23    2    1    0    0    0  0.20055691472E+02 -0.85399134244E+01 -0.16942069355E+02  0.97392128011E+02  0.93397173420E+02 0.  0.
         11    1    3    3    0    0  0.38138061706E+02  0.16499749920E+02 -0.40898088863E+02  0.58304435260E+02  0.51100000000E-03 0.  1.
         22    1    1    0    0    0 -0.20055691472E+02  0.85399134244E+01  0.16942069355E+02  0.27607871989E+02  0.00000000000E+00 0.  1.
</event>
<event>
 5    1  0.8957809E-005  0.9118800E+02  0.7818608E-02  0.1130116E+00
         25   -1    0    0    0    0  0.00000000000E+00  0.00000000000E+00  0.99999998245E-14  0.12500000000E+03  0.12500000000E+03 0.  0.
        -11    1    3    3    0    0 -0.16874001826E+02  0.50229151963E+02 -0.86276072577E+01  0.53685521808E+02  0.51100000000E-03 0. -1.
         23    2    1    0    0    0 -0.27136566038E+02  0.12386618293E+02  0.40566067721E+01  0.94895555351E+02  0.89993826665E+02 0.  0.
         11    1    3    3    0    0 -0.10262564212E+02 -0.37842533670E+02  0.12684214030E+02  0.41210033543E+02  0.51100000000E-03 0.  1.
         22    1    1    0    0    0  0.27136566038E+02 -0.12386618293E+02 -0.40566067721E+01  0.30104444649E+02  0.00000000000E+00 0. -1.
</event>
<event>
 5    1  0.8957809E-005  0.9118800E+02  0.7818608E-02  0.1130116E+00
         25   -1    0    0    0    0  0.00000000000E+00  0.00000000000E+00  0.99999998245E-14  0.12500000000E+03  0.12500000000E+03 0.  0.
        -11    1    3    3    0    0  0.47737584886E+02 -0.13741588667E+02 -0.14812998602E+02  0.51837565507E+02  0.51100000000E-03 0.  1.
         23    2    1    0    0    0  0.94916757537E+01  0.20726765550E+01 -0.28070631139E+02  0.95295653024E+02  0.90547850643E+02 0.  0.
         11    1    3    3    0    0 -0.38245909132E+02  0.15814265222E+02 -0.13257632537E+02  0.43458087517E+02  0.51100000000E-03 0. -1.
         22    1    1    0    0    0 -0.94916757537E+01 -0.20726765550E+01  0.28070631139E+02  0.29704346976E+02  0.00000000000E+00 0.  1.
</event>
<event>
 5    1  0.8957809E-005  0.9118800E+02  0.7818608E-02  0.1130116E+00
         25   -1    0    0    0    0  0.00000000000E+00  0.00000000000E+00  0.99999998245E-14  0.12500000000E+03  0.12500000000E+03 0.  0.
        -11    1    3    3    0    0  0.90598310485E+01  0.29039453027E+02 -0.29643052255E+02  0.42474473722E+02  0.51100000000E-03 0.  1.
         23    2    1    0    0    0 -0.16019949362E+01  0.10256527931E+02  0.23212242381E+02  0.99572240576E+02  0.96270764742E+02 0.  0.
         11    1    3    3    0    0 -0.10661825985E+02 -0.18782925095E+02  0.52855294635E+02  0.57097766854E+02  0.51100000000E-03 0. -1.
         22    1    1    0    0    0  0.16019949362E+01 -0.10256527931E+02 -0.23212242381E+02  0.25427759424E+02  0.00000000000E+00 0. -1.
</event>
<event>
 5    1  0.8957809E-005  0.9118800E+02  0.7818608E-02  0.1130116E+00
         25   -1    0    0    0    0  0.00000000000E+00  0.00000000000E+00  0.99999998245E-14  0.12500000000E+03  0.12500000000E+03 0.  0.
        -11    1    3    3    0    0 -0.17137189521E+02  0.38938383657E+01 -0.32670347910E+02  0.37097127580E+02  0.51100000000E-03 0. -1.
         23    2    1    0    0    0 -0.52413672967E+01  0.38602861720E+02 -0.27637827369E+00  0.86041955271E+02  0.76716939575E+02 0.  0.
         11    1    3    3    0    0  0.11895822224E+02  0.34709023355E+02  0.32393969636E+02  0.48944827691E+02  0.51100000000E-03 0.  1.
         22    1    1    0    0    0  0.52413672967E+01 -0.38602861720E+02  0.27637827369E+00  0.38958044729E+02  0.00000000000E+00 0.  1.
</event>
<event>
 5    1  0.8957809E-005  0.9118800E+02  0.7818608E-02  0.1130116E+00
         25   -1    0    0    0    0  0.00000000000E+00  0.00000000000E+00  0.99999998245E-14  0.12500000000E+03  0.12500000000E+03 0.  0.
        -11    1    3    3    0    0 -0.20606015751E+02 -0.42421784804E+02 -0.37491975313E+02  0.60248352046E+02  0.51100000000E-03 0.  1.
         23    2    1    0    0    0 -0.52729247766E+01 -0.12277259659E+02 -0.25644127303E+02  0.96083636024E+02  0.91629192979E+02 0.  0.
         11    1    3    3    0    0  0.15333090974E+02  0.30144525146E+02  0.11847848009E+02  0.35835283978E+02  0.51100000000E-03 0. -1.
         22    1    1    0    0    0  0.52729247766E+01  0.12277259659E+02  0.25644127303E+02  0.28916363976E+02  0.00000000000E+00 0.  1.
</event>
<event>
 5    1  0.8957809E-005  0.9118800E+02  0.7818608E-02  0.1130116E+00
         25   -1    0    0    0    0  0.00000000000E+00  0.00000000000E+00  0.99999998245E-14  0.12500000000E+03  0.12500000000E+03 0.  0.
        -11    1    3    3    0    0  0.22620645474E+02 -0.84719754895E+01 -0.22371273913E+02  0.32923272424E+02  0.51100000000E-03 0.  1.
         23    2    1    0    0    0 -0.15466985174E+01  0.73120200080E+01  0.30736147654E+02  0.93368232969E+02  0.87846788457E+02 0.  0.
         11    1    3    3    0    0 -0.24167343992E+02  0.15783995498E+02  0.53107421567E+02  0.60444960545E+02  0.51100000000E-03 0. -1.
         22    1    1    0    0    0  0.15466985174E+01 -0.73120200080E+01 -0.30736147654E+02  0.31631767031E+02  0.00000000000E+00 0. -1.
</event>
<event>
 5    1  0.8957809E-005  0.9118800E+02  0.7818608E-02  0.1130116E+00
         25   -1    0    0    0    0  0.00000000000E+00  0.00000000000E+00  0.99999998245E-14  0.12500000000E+03  0.12500000000E+03 0.  0.
        -11    1    3    3    0    0 -0.10169895671E+02  0.21788394540E+02 -0.26909335788E+02  0.36087023532E+02  0.51100000000E-03 0. -1.
         23    2    1    0    0    0  0.29104341364E+02 -0.65941671751E+00  0.97349531852E+01  0.94303634903E+02  0.89167868236E+02 0.  0.
         11    1    3    3    0    0  0.39274237035E+02 -0.22447811257E+02  0.36644288973E+02  0.58216611371E+02  0.51100000000E-03 0.  1.
         22    1    1    0    0    0 -0.29104341364E+02  0.65941671751E+00 -0.97349531852E+01  0.30696365097E+02  0.00000000000E+00 0.  1.
</event>
<event>
 5    1  0.8957809E-005  0.9118800E+02  0.7818608E-02  0.1130116E+00
         25   -1    0    0    0    0  0.00000000000E+00  0.00000000000E+00  0.99999998245E-14  0.12500000000E+03  0.12500000000E+03 0.  0.
        -11    1    3    3    0    0 -0.35624736176E+02 -0.39749714612E+02  0.23472294904E+01  0.53429122451E+02  0.51100000000E-03 0. -1.
         23    2    1    0    0    0 -0.68658952928E+01 -0.19742468817E+02 -0.20873838723E+02  0.95459811507E+02  0.90774186180E+02 0.  0.
         11    1    3    3    0    0  0.28758840883E+02  0.20007245795E+02 -0.23221068214E+02  0.42030689056E+02  0.51100000000E-03 0.  1.
         22    1    1    0    0    0  0.68658952928E+01  0.19742468817E+02  0.20873838723E+02  0.29540188493E+02  0.00000000000E+00 0.  1.
</event>
<event>
 5    1  0.8957809E-005  0.9118800E+02  0.7818608E-02  0.1130116E+00
         25   -1    0    0    0    0  0.00000000000E+00  0.00000000000E+00  0.99999998245E-14  0.12500000000E+03  0.12500000000E+03 0.  0.
        -11    1    3    3    0    0  0.22217575523E+02 -0.30325565433E+02  0.26655546999E+02  0.46084474252E+02  0.51100000000E-03 0. -1.
         23    2    1    0    0    0  0.24906957304E+02 -0.40446567334E+01 -0.15172317869E+02  0.95556579686E+02  0.90907342506E+02 0.  0.
         11    1    3    3    0    0  0.26893817812E+01  0.26280908700E+02 -0.41827864868E+02  0.49472105435E+02  0.51100000000E-03 0.  1.
         22    1    1    0    0    0 -0.24906957304E+02  0.40446567334E+01  0.15172317869E+02  0.29443420314E+02  0.00000000000E+00 0.  1.
</event>
<event>
 5    1  0.8957809E-005  0.9118800E+02  0.7818608E-02  0.1130116E+00
         25   -1    0    0    0    0  0.00000000000E+00  0.00000000000E+00  0.99999998245E-14  0.12500000000E+03  0.12500000000E+03 0.  0.
        -11    1    3    3    0    0  0.49966708923E+02  0.29076812766E+02 -0.17664110842E+02  0.60449597628E+02  0.51100000000E-03 0. -1.
         23    2    1    0    0    0  0.19671186313E+02  0.73626964661E+01 -0.17401389696E+02  0.97724127263E+02  0.93840459376E+02 0.  0.
         11    1    3    3    0    0 -0.30295522610E+02 -0.21714116300E+02  0.26272114650E+00  0.37274529636E+02  0.51100000000E-03 0.  1.
         22    1    1    0    0    0 -0.19671186313E+02 -0.73626964661E+01  0.17401389696E+02  0.27275872737E+02  0.00000000000E+00 0. -1.
</event>
<event>
 5    1  0.8957809E-005  0.9118800E+02  0.7818608E-02  0.1130116E+00
         25   -1    0    0    0    0  0.00000000000E+00  0.00000000000E+00  0.99999998245E-14  0.12500000000E+03  0.12500000000E+03 0.  0.
        -11    1    3    3    0    0  0.51268911980E+02 -0.18869850157E+02  0.31850290769E+00  0.54632170238E+02  0.51100000000E-03 0.  1.
         23    2    1    0    0    0  0.28563438273E+02  0.12817348725E+02  0.17820919184E+01  0.93641902387E+02  0.88235342106E+02 0.  0.
         11    1    3    3    0    0 -0.22705473707E+02  0.31687198882E+02  0.14635890107E+01  0.39009732148E+02  0.51100000000E-03 0. -1.
         22    1    1    0    0    0 -0.28563438273E+02 -0.12817348725E+02 -0.17820919184E+01  0.31358097613E+02  0.00000000000E+00 0.  1.
</event>
<event>
 5    1  0.8957809E-005  0.9118800E+02  0.7818608E-02  0.1130116E+00
         25   -1    0    0    0    0  0.00000000000E+00  0.00000000000E+00  0.99999998245E-14  0.12500000000E+03  0.12500000000E+03 0.  0.
        -11    1    3    3    0    0  0.41280770659E+02 -0.36263380736E+02 -0.13762599592E+01  0.54963887239E+02  0.51100000000E-03 0.  1.
         23    2    1    0    0    0  0.81481936941E+01 -0.20249043614E+02 -0.19270349301E+02  0.95883626772E+02  0.91355934088E+02 0.  0.
         11    1    3    3    0    0 -0.33132576965E+02  0.16014337123E+02 -0.17894089342E+02  0.40919739533E+02  0.51100000000E-03 0. -1.
         22    1    1    0    0    0 -0.81481936941E+01  0.20249043614E+02  0.19270349301E+02  0.29116373228E+02  0.00000000000E+00 0.  1.
</event>
<event>
 5    1  0.8957809E-005  0.9118800E+02  0.7818608E-02  0.1130116E+00
         25   -1    0    0    0    0  0.00000000000E+00  0.00000000000E+00  0.99999998245E-14  0.12500000000E+03  0.12500000000E+03 0.  0.
        -11    1    3    3    0    0  0.22716208817E+02 -0.38766463737E+02 -0.42171946048E+02  0.61622543662E+02  0.51100000000E-03 0. -1.
         23    2    1    0    0    0  0.71232509105E+01 -0.24070101058E+02 -0.16980862316E+02  0.94693892472E+02  0.89713282840E+02 0.  0.
         11    1    3    3    0    0 -0.15592957906E+02  0.14696362679E+02  0.25191083731E+02  0.33071348809E+02  0.51100000000E-03 0.  1.
         22    1    1    0    0    0 -0.71232509105E+01  0.24070101058E+02  0.16980862316E+02  0.30306107528E+02  0.00000000000E+00 0. -1.
</event>
<event>
 5    1  0.8957809E-005  0.9118800E+02  0.7818608E-02  0.1130116E+00
         25   -1    0    0    0    0  0.00000000000E+00  0.00000000000E+00  0.99999998245E-14  0.12500000000E+03  0.12500000000E+03 0.  0.
        -11    1    3    3    0    0 -0.25235926446E+02 -0.45706029989E+02  0.67157390217E+01  0.52640234724E+02  0.51100000000E-03 0. -1.
         23    2    1    0    0    0 -0.23946597275E+02 -0.39925178981E+01  0.16677745154E+02  0.95546190337E+02  0.90893055754E+02 0.  0.
         11    1    3    3    0    0  0.12893291707E+01  0.41713512090E+02  0.99620061325E+01  0.42905955613E+02  0.51100000000E-03 0.  1.
         22    1    1    0    0    0  0.23946597275E+02  0.39925178981E+01 -0.16677745154E+02  0.29453809663E+02  0.00000000000E+00 0. -1.
</event>
<event>
 5    1  0.8957809E-005  0.9118800E+02  0.7818608E-02  0.1130116E+00
         25   -1    0    0    0    0  0.00000000000E+00  0.00000000000E+00  0.99999998245E-14  0.12500000000E+03  0.12500000000E+03 0.  0.
        -11    1    3    3    0    0  0.18315931047E+02  0.14518721773E+02  0.16703942121E+02  0.28727831361E+02  0.51100000000E-03 0.  1.
         23    2    1    0    0    0  0.13361667451E+02 -0.32669700212E+02  0.30725060470E+02  0.78203923135E+02  0.62657647449E+02 0.  0.
         11    1    3    3    0    0 -0.49542635954E+01 -0.47188421986E+02  0.14021118349E+02  0.49476091774E+02  0.51100000000E-03 0. -1.
         22    1    1    0    0    0 -0.13361667451E+02  0.32669700212E+02 -0.30725060470E+02  0.46796076865E+02  0.00000000000E+00 0. -1.
</event>
<event>
 5    1  0.8957809E-005  0.9118800E+02  0.7818608E-02  0.1130116E+00
         25   -1    0    0    0    0  0.00000000000E+00  0.00000000000E+00  0.99999998245E-14  0.12500000000E+03  0.12500000000E+03 0.  0.
        -11    1    3    3    0    0  0.19925430432E+02  0.73840488005E+01 -0.26482368196E+02  0.33953833069E+02  0.51100000000E-03 0.  1.
         23    2    1    0    0    0 -0.20815174875E+02  0.14822686839E+02  0.17238534327E+02  0.94175486768E+02  0.88988042411E+02 0.  0.
         11    1    3    3    0    0 -0.40740605307E+02  0.74386380386E+01  0.43720902523E+02  0.60221653699E+02  0.51100000000E-03 0. -1.
         22    1    1    0    0    0  0.20815174875E+02 -0.14822686839E+02 -0.17238534327E+02  0.30824513232E+02  0.00000000000E+00 0. -1.
</event>
<event>
 5    1  0.8957809E-005  0.9118800E+02  0.7818608E-02  0.1130116E+00
         25   -1    0    0    0    0  0.00000000000E+00  0.00000000000E+00  0.99999998245E-14  0.12500000000E+03  0.12500000000E+03 0.  0.
        -11    1    3    3    0    0  0.85739929871E+01 -0.32112391436E+02 -0.39792928085E+01  0.33474674173E+02  0.51100000000E-03 0.  1.
         23    2    1    0    0    0 -0.36409541315E+02 -0.42613558192E+00 -0.11824704616E+01  0.88568769899E+02  0.80729130274E+02 0.  0.
         11    1    3    3    0    0 -0.44983534302E+02  0.31686255854E+02  0.27968223469E+01  0.55094095726E+02  0.51100000000E-03 0. -1.
         22    1    1    0    0    0  0.36409541315E+02  0.42613558192E+00  0.11824704616E+01  0.36431230101E+02  0.00000000000E+00 0. -1.
</event>
<event>
 5    1  0.8957809E-005  0.9118800E+02  0.7818608E-02  0.1130116E+00
         25   -1    0    0    0    0  0.00000000000E+00  0.00000000000E+00  0.99999998245E-14  0.12500000000E+03  0.12500000000E+03 0.  0.
        -11    1    3    3    0    0 -0.54181287357E+02 -0.10140442859E+02 -0.15582810295E+02  0.57282322387E+02  0.51100000000E-03 0.  1.
         23    2    1    0    0    0 -0.24205846681E+02  0.13195424335E+02 -0.99750620638E+01  0.95682017462E+02  0.91079659450E+02 0.  0.
         11    1    3    3    0    0  0.29975440676E+02  0.23335867194E+02  0.56077482317E+01  0.38399695075E+02  0.51100000000E-03 0. -1.
         22    1    1    0    0    0  0.24205846681E+02 -0.13195424335E+02  0.99750620638E+01  0.29317982538E+02  0.00000000000E+00 0.  1.
</event>
<event>
 5    1  0.8957809E-005  0.9118800E+02  0.7818608E-02  0.1130116E+00
         25   -1    0    0    0    0  0.00000000000E+00  0.00000000000E+00  0.99999998245E-14  0.12500000000E+03  0.12500000000E+03 0.  0.
        -11    1    3    3    0    0  0.44278140069E+02 -0.23458961187E+02 -0.26045326882E+02  0.56473317598E+02  0.51100000000E-03 0. -1.
         23    2    1    0    0    0  0.28551861990E+02  0.53221122252E+01 -0.47689881871E+01  0.95567416865E+02  0.90922242693E+02 0.  0.
         11    1    3    3    0    0 -0.15726278079E+02  0.28781073412E+02  0.21276338695E+02  0.39094099267E+02  0.51100000000E-03 0.  1.
         22    1    1    0    0    0 -0.28551861990E+02 -0.53221122252E+01  0.47689881871E+01  0.29432583135E+02  0.00000000000E+00 0. -1.
</event>
<event>
 5    1  0.8957809E-005  0.9118800E+02  0.7818608E-02  0.1130116E+00
         25   -1    0    0    0    0  0.00000000000E+00  0.00000000000E+00  0.99999998245E-14  0.12500000000E+03  0.12500000000E+03 0.  0.
        -11    1    3    3    0    0  0.29882093132E+02  0.99725250058E+01 -0.14834731431E+02  0.34820396348E+02  0.51100000000E-03 0. -1.
         23    2    1    0    0    0 -0.16241585239E+02 -0.22453158537E+02  0.87562127085E+01  0.95937916792E+02  0.91430187564E+02 0.  0.
         11    1    3    3    0    0 -0.46123678371E+02 -0.32425683543E+02  0.23590944139E+02  0.61117520445E+02  0.51100000000E-03 0.  1.
         22    1    1    0    0    0  0.16241585239E+02  0.22453158537E+02 -0.87562127085E+01  0.29062083208E+02  0.00000000000E+00 0.  1.
</event>
<event>
 5    1  0.8957809E-005  0.9118800E+02  0.7818608E-02  0.1130116E+00
         25   -1    0    0    0    0  0.00000000000E+00  0.00000000000E+00  0.99999998245E-14  0.12500000000E+03  0.12500000000E+03 0.  0.
        -11    1    3    3    0    0 -0.30364643716E+02  0.19236869794E+02  0.30892461494E+02  0.47396338728E+02  0.51100000000E-03 0.  1.
         23    2    1    0    0    0 -0.18312044223E+02 -0.21350724002E+02  0.69911306847E+01  0.96016206471E+02  0.91537159765E+02 0.  0.
         11    1    3    3    0    0  0.12052599493E+02 -0.40587593796E+02 -0.23901330809E+02  0.48619867743E+02  0.51100000000E-03 0. -1.
         22    1    1    0    0    0  0.18312044223E+02  0.21350724002E+02 -0.69911306847E+01  0.28983793529E+02  0.00000000000E+00 0. -1.
</event>
<event>
 5    1  0.8957809E-005  0.9118800E+02  0.7818608E-02  0.1130116E+00
         25   -1    0    0    0    0  0.00000000000E+00  0.00000000000E+00  0.99999998245E-14  0.12500000000E+03  0.12500000000E+03 0.  0.
        -11    1    3    3    0    0 -0.14806729205E+02 -0.44877421980E+02  0.31520224783E+02  0.56804461127E+02  0.51100000000E-03 0.  1.
         23    2    1    0    0    0 -0.99511738882E+01 -0.25289409391E+02 -0.38746596289E+01  0.97548350207E+02  0.93606023053E+02 0.  0.
         11    1    3    3    0    0  0.48555553172E+01  0.19588012589E+02 -0.35394884412E+02  0.40743889080E+02  0.51100000000E-03 0. -1.
         22    1    1    0    0    0  0.99511738882E+01  0.25289409391E+02  0.38746596289E+01  0.27451649793E+02  0.00000000000E+00 0.  1.
</event>
<event>
 5    1  0.8957809E-005  0.9118800E+02  0.7818608E-02  0.1130116E+00
         25   -1    0    0    0    0  0.00000000000E+00  0.00000000000E+00  0.99999998245E-14  0.12500000000E+03  0.12500000000E+03 0.  0.
        -11    1    3    3    0    0 -0.27802520315E+01  0.94924060161E+01  0.34094498490E+02  0.35500287335E+02  0.51100000000E-03 0.  1.
         23    2    1    0    0    0  0.40011460901E+01 -0.24855587924E+02 -0.14920487483E+02  0.95735168413E+02  0.91152575955E+02 0.  0.
         11    1    3    3    0    0  0.67813981216E+01 -0.34347993940E+02 -0.49014985973E+02  0.60234881078E+02  0.51100000000E-03 0. -1.
         22    1    1    0    0    0 -0.40011460901E+01  0.24855587924E+02  0.14920487483E+02  0.29264831587E+02  0.00000000000E+00 0. -1.
</event>
<event>
 5    1  0.8957809E-005  0.9118800E+02  0.7818608E-02  0.1130116E+00
         25   -1    0    0    0    0  0.00000000000E+00  0.00000000000E+00  0.99999998245E-14  0.12500000000E+03  0.12500000000E+03 0.  0.
        -11    1    3    3    0    0  0.39285970729E+02  0.38137716637E+02  0.16580659862E+02  0.57208314152E+02  0.51100000000E-03 0. -1.
         23    2    1    0    0    0  0.28978392947E+01  0.25123345755E+02  0.14360081403E+02  0.95917498175E+02  0.91402267716E+02 0.  0.
         11    1    3    3    0    0 -0.36388131434E+02 -0.13014370882E+02 -0.22205784590E+01  0.38709184023E+02  0.51100000000E-03 0.  1.
         22    1    1    0    0    0 -0.28978392947E+01 -0.25123345755E+02 -0.14360081403E+02  0.29082501825E+02  0.00000000000E+00 0. -1.
</event>
<event>
 5    1  0.8957809E-005  0.9118800E+02  0.7818608E-02  0.1130116E+00
         25   -1    0    0    0    0  0.00000000000E+00  0.00000000000E+00  0.99999998245E-14  0.12500000000E+03  0.12500000000E+03 0.  0.
        -11    1    3    3    0    0  0.16904039825E+02 -0.35671483818E+02  0.36440082650E+01  0.39641898500E+02  0.51100000000E-03 0.  1.
         23    2    1    0    0    0 -0.74906026905E+01  0.26670255914E+01 -0.28570367306E+02  0.95343836355E+02  0.90614342621E+02 0.  0.
         11    1    3    3    0    0 -0.24394642515E+02  0.38338509409E+02 -0.32214375571E+02  0.55701937855E+02  0.51100000000E-03 0. -1.
         22    1    1    0    0    0  0.74906026905E+01 -0.26670255914E+01  0.28570367306E+02  0.29656163645E+02  0.00000000000E+00 0. -1.
</event>
<event>
 5    1  0.8957809E-005  0.9118800E+02  0.7818608E-02  0.1130116E+00
         25   -1    0    0    0    0  0.00000000000E+00  0.00000000000E+00  0.99999998245E-14  0.12500000000E+03  0.12500000000E+03 0.  0.
        -11    1    3    3    0    0 -0.21051562756E+02 -0.23621856607E+02  0.13496175213E+02  0.34399231818E+02  0.51100000000E-03 0. -1.
         23    2    1    0    0    0  0.16211090058E+02  0.74543379692E+01 -0.23555975107E+02  0.95449186836E+02  0.90759554367E+02 0.  0.
         11    1    3    3    0    0  0.37262652814E+02  0.31076194576E+02 -0.37052150320E+02  0.61049955018E+02  0.51100000000E-03 0.  1.
         22    1    1    0    0    0 -0.16211090058E+02 -0.74543379692E+01  0.23555975107E+02  0.29550813164E+02  0.00000000000E+00 0.  1.
</event>
<event>
 5    1  0.8957809E-005  0.9118800E+02  0.7818608E-02  0.1130116E+00
         25   -1    0    0    0    0  0.00000000000E+00  0.00000000000E+00  0.99999998245E-14  0.12500000000E+03  0.12500000000E+03 0.  0.
        -11    1    3    3    0    0 -0.11277119087E+01  0.36201727506E+02 -0.10748165894E+02  0.37780416606E+02  0.51100000000E-03 0. -1.
         23    2    1    0    0    0 -0.19935980143E+02 -0.18401068447E+02 -0.11491448206E+02  0.95536530990E+02  0.90879770837E+02 0.  0.
         11    1    3    3    0    0 -0.18808268234E+02 -0.54602795953E+02 -0.74328231159E+00  0.57756114384E+02  0.51100000000E-03 0.  1.
         22    1    1    0    0    0  0.19935980143E+02  0.18401068447E+02  0.11491448206E+02  0.29463469010E+02  0.00000000000E+00 0. -1.
</event>
<event>
 5    1  0.8957809E-005  0.9118800E+02  0.7818608E-02  0.1130116E+00
         25   -1    0    0    0    0  0.00000000000E+00  0.00000000000E+00  0.99999998245E-14  0.12500000000E+03  0.12500000000E+03 0.  0.
        -11    1    3    3    0    0 -0.44093272415E+02 -0.41526462817E+02  0.58120654987E+01  0.60847710655E+02  0.51100000000E-03 0. -1.
         23    2    1    0    0    0 -0.34557326002E+02 -0.19056669907E+02  0.42761720929E+01  0.85305528142E+02  0.75507496552E+02 0.  0.
         11    1    3    3    0    0  0.95359464131E+01  0.22469792910E+02 -0.15358934058E+01  0.24457817487E+02  0.51100000000E-03 0.  1.
         22    1    1    0    0    0  0.34557326002E+02  0.19056669907E+02 -0.42761720929E+01  0.39694471858E+02  0.00000000000E+00 0. -1.
</event>
<event>
 5    1  0.8957809E-005  0.9118800E+02  0.7818608E-02  0.1130116E+00
         25   -1    0    0    0    0  0.00000000000E+00  0.00000000000E+00  0.99999998245E-14  0.12500000000E+03  0.12500000000E+03 0.  0.
        -11    1    3    3    0    0 -0.33973292553E+02 -0.26432216562E+02 -0.45203641116E+02  0.62419675181E+02  0.51100000000E-03 0.  1.
         23    2    1    0    0    0 -0.13623894919E+02 -0.13074423808E+02 -0.21287918561E+02  0.96544305538E+02  0.92255495145E+02 0.  0.
         11    1    3    3    0    0  0.20349397634E+02  0.13357792755E+02  0.23915722556E+02  0.34124630357E+02  0.51100000000E-03 0. -1.
         22    1    1    0    0    0  0.13623894919E+02  0.13074423808E+02  0.21287918561E+02  0.28455694462E+02  0.00000000000E+00 0.  1.
</event>
<event>
 5    1  0.8957809E-005  0.9118800E+02  0.7818608E-02  0.1130116E+00
         25   -1    0    0    0    0  0.00000000000E+00  0.00000000000E+00  0.99999998245E-14  0.12500000000E+03  0.12500000000E+03 0.  0.
        -11    1    3    3    0    0  0.31907400100E+02  0.26984671935E+02  0.27450535810E+02  0.49997866125E+02  0.51100000000E-03 0. -1.
         23    2    1    0    0    0  0.15733324145E+02  0.21491963189E+02 -0.14057143364E+02  0.94882808066E+02  0.89976119146E+02 0.  0.
         11    1    3    3    0    0 -0.16174075954E+02 -0.54927087451E+01 -0.41507679175E+02  0.44884941941E+02  0.51100000000E-03 0.  1.
         22    1    1    0    0    0 -0.15733324145E+02 -0.21491963189E+02  0.14057143364E+02  0.30117191934E+02  0.00000000000E+00 0. -1.
</event>
<event>
 5    1  0.8957809E-005  0.9118800E+02  0.7818608E-02  0.1130116E+00
         25   -1    0    0    0    0  0.00000000000E+00  0.00000000000E+00  0.99999998245E-14  0.12500000000E+03  0.12500000000E+03 0.  0.
        -11    1    3    3    0    0  0.19711935617E+02 -0.14294524705E+02  0.55065901026E+02  0.60209196128E+02  0.51100000000E-03 0. -1.
         23    2    1    0    0    0 -0.23586123529E+01 -0.47607636531E+01  0.28376919651E+02  0.96129989753E+02  0.91692406656E+02 0.  0.
         11    1    3    3    0    0 -0.22070547970E+02  0.95337610517E+01 -0.26688981376E+02  0.35920793625E+02  0.51100000000E-03 0.  1.
         22    1    1    0    0    0  0.23586123529E+01  0.47607636531E+01 -0.28376919651E+02  0.28870010247E+02  0.00000000000E+00 0. -1.
</event>
<event>
 5    1  0.8957809E-005  0.9118800E+02  0.7818608E-02  0.1130116E+00
         25   -1    0    0    0    0  0.00000000000E+00  0.00000000000E+00  0.99999998245E-14  0.12500000000E+03  0.12500000000E+03 0.  0.
        -11    1    3    3    0    0  0.21257802626E+02 -0.12245693627E+02  0.57442579334E+02  0.62461997292E+02  0.51100000000E-03 0.  1.
         23    2    1    0    0    0  0.95960572332E+01 -0.71899310882E+01  0.26503122328E+02  0.95910570363E+02  0.91392792882E+02 0.  0.
         11    1    3    3    0    0 -0.11661745392E+02  0.50557625390E+01 -0.30939457006E+02  0.33448573071E+02  0.51100000000E-03 0. -1.
         22    1    1    0    0    0 -0.95960572332E+01  0.71899310882E+01 -0.26503122328E+02  0.29089429637E+02  0.00000000000E+00 0.  1.
</event>
<event>
 5    1  0.8957809E-005  0.9118800E+02  0.7818608E-02  0.1130116E+00
         25   -1    0    0    0    0  0.00000000000E+00  0.00000000000E+00  0.99999998245E-14  0.12500000000E+03  0.12500000000E+03 0.  0.
        -11    1    3    3    0    0  0.61698007416E+02  0.80764503460E+01  0.88146926630E+00  0.62230620740E+02  0.51100000000E-03 0. -1.
         23    2    1    0    0    0  0.24704147680E+02  0.73373945332E+00 -0.28069367075E+01  0.10012607430E+03  0.96987208302E+02 0.  0.
         11    1    3    3    0    0 -0.36993859736E+02 -0.73427108927E+01 -0.36884059738E+01  0.37895453557E+02  0.51100000000E-03 0.  1.
         22    1    1    0    0    0 -0.24704147680E+02 -0.73373945332E+00  0.28069367075E+01  0.24873925703E+02  0.00000000000E+00 0. -1.
</event>
<event>
 5    1  0.8957809E-005  0.9118800E+02  0.7818608E-02  0.1130116E+00
         25   -1    0    0    0    0  0.00000000000E+00  0.00000000000E+00  0.99999998245E-14  0.12500000000E+03  0.12500000000E+03 0.  0.
        -11    1    3    3    0    0 -0.22112947402E+02 -0.17529634313E+02  0.26587246998E+02  0.38770507157E+02  0.51100000000E-03 0. -1.
         23    2    1    0    0    0  0.25776122870E+01 -0.14095843209E+02 -0.25067539462E+02  0.96125817492E+02  0.91686718629E+02 0.  0.
         11    1    3    3    0    0  0.24690559690E+02  0.34337911041E+01 -0.51654786460E+02  0.57355310335E+02  0.51100000000E-03 0.  1.
         22    1    1    0    0    0 -0.25776122870E+01  0.14095843209E+02  0.25067539462E+02  0.28874182508E+02  0.00000000000E+00 0.  1.
</event>
<event>
 5    1  0.8957809E-005  0.9118800E+02  0.7818608E-02  0.1130116E+00
         25   -1    0    0    0    0  0.00000000000E+00  0.00000000000E+00  0.99999998245E-14  0.12500000000E+03  0.12500000000E+03 0.  0.
        -11    1    3    3    0    0  0.74938210950E+01  0.85492344276E+01  0.33484069393E+02  0.35361414950E+02  0.51100000000E-03 0. -1.
         23    2    1    0    0    0 -0.13481336503E+02 -0.21180441285E+02 -0.14827716318E+02  0.95841490125E+02  0.91298261381E+02 0.  0.
         11    1    3    3    0    0 -0.20975157598E+02 -0.29729675713E+02 -0.48311785711E+02  0.60480075174E+02  0.51100000000E-03 0.  1.
         22    1    1    0    0    0  0.13481336503E+02  0.21180441285E+02  0.14827716318E+02  0.29158509875E+02  0.00000000000E+00 0.  1.
</event>
<event>
 5    1  0.8957809E-005  0.9118800E+02  0.7818608E-02  0.1130116E+00
         25   -1    0    0    0    0  0.00000000000E+00  0.00000000000E+00  0.99999998245E-14  0.12500000000E+03  0.12500000000E+03 0.  0.
        -11    1    3    3    0    0  0.65000458148E+01  0.13446501406E+02  0.38230438257E+02  0.41044188446E+02  0.51100000000E-03 0.  1.
         23    2    1    0    0    0  0.28178153558E+02  0.84621500680E+01 -0.98115011642E+01  0.93985779442E+02  0.88721163543E+02 0.  0.
         11    1    3    3    0    0  0.21678107743E+02 -0.49843513380E+01 -0.48041939421E+02  0.52941590996E+02  0.51100000000E-03 0. -1.
         22    1    1    0    0    0 -0.28178153558E+02 -0.84621500680E+01  0.98115011642E+01  0.31014220558E+02  0.00000000000E+00 0. -1.
</event>
<event>
 5    1  0.8957809E-005  0.9118800E+02  0.7818608E-02  0.1130116E+00
         25   -1    0    0    0    0  0.00000000000E+00  0.00000000000E+00  0.99999998245E-14  0.12500000000E+03  0.12500000000E+03 0.  0.
        -11    1    3    3    0    0  0.47706461739E+02  0.15296312375E+02 -0.14785415752E+02  0.52234970883E+02  0.51100000000E-03 0. -1.
         23    2    1    0    0    0  0.74369003920E+01  0.23915222843E+02 -0.18903375500E+02  0.93621934790E+02  0.88207050157E+02 0.  0.
         11    1    3    3    0    0 -0.40269561347E+02  0.86189104682E+01 -0.41179597479E+01  0.41386963907E+02  0.51100000000E-03 0.  1.
         22    1    1    0    0    0 -0.74369003920E+01 -0.23915222843E+02  0.18903375500E+02  0.31378065210E+02  0.00000000000E+00 0. -1.
</event>
<event>
 5    1  0.8957809E-005  0.9118800E+02  0.7818608E-02  0.1130116E+00
         25   -1    0    0    0    0  0.00000000000E+00  0.00000000000E+00  0.99999998245E-14  0.12500000000E+03  0.12500000000E+03 0.  0.
        -11    1    3    3    0    0 -0.17002775791E+02 -0.50408138987E+02 -0.51037680475E+01  0.53442710534E+02  0.51100000000E-03 0. -1.
         23    2    1    0    0    0  0.15965706748E+02 -0.25130506029E+02 -0.70789604806E+00  0.95218340509E+02  0.90441058857E+02 0.  0.
         11    1    3    3    0    0  0.32968482539E+02  0.25277632958E+02  0.43958719994E+01  0.41775629975E+02  0.51100000000E-03 0.  1.
         22    1    1    0    0    0 -0.15965706748E+02  0.25130506029E+02  0.70789604806E+00  0.29781659491E+02  0.00000000000E+00 0.  1.
</event>
<event>
 5    1  0.8957809E-005  0.9118800E+02  0.7818608E-02  0.1130116E+00
         25   -1    0    0    0    0  0.00000000000E+00  0.00000000000E+00  0.99999998245E-14  0.12500000000E+03  0.12500000000E+03 0.  0.
        -11    1    3    3    0    0  0.27025406074E+01 -0.37738172853E+02 -0.89082147998E+01  0.38869392936E+02  0.51100000000E-03 0. -1.
         23    2    1    0    0    0  0.68557725935E+01  0.55791941725E+01  0.27817680894E+02  0.95811776420E+02  0.91257570124E+02 0.  0.
         11    1    3    3    0    0  0.41532319860E+01  0.43317367026E+02  0.36725895694E+02  0.56942383483E+02  0.51100000000E-03 0.  1.
         22    1    1    0    0    0 -0.68557725935E+01 -0.55791941725E+01 -0.27817680894E+02  0.29188223580E+02  0.00000000000E+00 0.  1.
</event>
<event>
 5    1  0.8957809E-005  0.9118800E+02  0.7818608E-02  0.1130116E+00
         25   -1    0    0    0    0  0.00000000000E+00  0.00000000000E+00  0.99999998245E-14  0.12500000000E+03  0.12500000000E+03 0.  0.
        -11    1    3    3    0    0  0.32889314135E+02  0.16981519362E+02 -0.47910031327E+02  0.60542960666E+02  0.51100000000E-03 0. -1.
         23    2    1    0    0    0  0.11914493377E+02 -0.99833440486E+00 -0.27873596740E+02  0.94670324445E+02  0.89680438845E+02 0.  0.
         11    1    3    3    0    0 -0.20974820758E+02 -0.17979853767E+02  0.20036434587E+02  0.34127363780E+02  0.51100000000E-03 0.  1.
         22    1    1    0    0    0 -0.11914493377E+02  0.99833440486E+00  0.27873596740E+02  0.30329675555E+02  0.00000000000E+00 0. -1.
</event>
<event>
 5    1  0.8957809E-005  0.9118800E+02  0.7818608E-02  0.1130116E+00
         25   -1    0    0    0    0  0.00000000000E+00  0.00000000000E+00  0.99999998245E-14  0.12500000000E+03  0.12500000000E+03 0.  0.
        -11    1    3    3    0    0 -0.16864726784E+02 -0.45965303132E+02  0.28700020051E+02  0.56753143108E+02  0.51100000000E-03 0.  1.
         23    2    1    0    0    0  0.68723501970E+01 -0.29319093905E+02  0.44315663478E+01  0.94561911280E+02  0.89529200934E+02 0.  0.
         11    1    3    3    0    0  0.23737076981E+02  0.16646209227E+02 -0.24268453703E+02  0.37808768171E+02  0.51100000000E-03 0. -1.
         22    1    1    0    0    0 -0.68723501970E+01  0.29319093905E+02 -0.44315663478E+01  0.30438088720E+02  0.00000000000E+00 0.  1.
</event>
<event>
 5    1  0.8957809E-005  0.9118800E+02  0.7818608E-02  0.1130116E+00
         25   -1    0    0    0    0  0.00000000000E+00  0.00000000000E+00  0.99999998245E-14  0.12500000000E+03  0.12500000000E+03 0.  0.
        -11    1    3    3    0    0  0.28282283905E+02  0.18510646222E+01 -0.51266612221E+02  0.58579685489E+02  0.51100000000E-03 0. -1.
         23    2    1    0    0    0  0.16984470073E+02 -0.14180770265E+02 -0.22098941666E+02  0.93728132583E+02  0.88357417039E+02 0.  0.
         11    1    3    3    0    0 -0.11297813832E+02 -0.16031834887E+02  0.29167670556E+02  0.35148447094E+02  0.51100000000E-03 0.  1.
         22    1    1    0    0    0 -0.16984470073E+02  0.14180770265E+02  0.22098941666E+02  0.31271867417E+02  0.00000000000E+00 0. -1.
</event>
<event>
 5    1  0.8957809E-005  0.9118800E+02  0.7818608E-02  0.1130116E+00
         25   -1    0    0    0    0  0.00000000000E+00  0.00000000000E+00  0.99999998245E-14  0.12500000000E+03  0.12500000000E+03 0.  0.
        -11    1    3    3    0    0 -0.54842073236E+02  0.14382765757E+00 -0.19176561096E+02  0.58098314769E+02  0.51100000000E-03 0. -1.
         23    2    1    0    0    0 -0.19192136234E+02  0.97670464261E+01 -0.20800800162E+02  0.95059950292E+02  0.90221879681E+02 0.  0.
         11    1    3    3    0    0  0.35649937003E+02  0.96232187685E+01 -0.16242390657E+01  0.36961635523E+02  0.51100000000E-03 0.  1.
         22    1    1    0    0    0  0.19192136234E+02 -0.97670464261E+01  0.20800800162E+02  0.29940049708E+02  0.00000000000E+00 0. -1.
</event>
<event>
 5    1  0.8957809E-005  0.9118800E+02  0.7818608E-02  0.1130116E+00
         25   -1    0    0    0    0  0.00000000000E+00  0.00000000000E+00  0.99999998245E-14  0.12500000000E+03  0.12500000000E+03 0.  0.
        -11    1    3    3    0    0  0.30688501975E+01 -0.39381057937E+02  0.19046679886E+02  0.43852726035E+02  0.51100000000E-03 0.  1.
         23    2    1    0    0    0  0.20160725891E+02 -0.13891711735E+02 -0.19908120336E+02  0.93444211645E+02  0.87954834497E+02 0.  0.
         11    1    3    3    0    0  0.17091875693E+02  0.25489346201E+02 -0.38954800222E+02  0.49591485610E+02  0.51100000000E-03 0. -1.
         22    1    1    0    0    0 -0.20160725891E+02  0.13891711735E+02  0.19908120336E+02  0.31555788355E+02  0.00000000000E+00 0. -1.
</event>
<event>
 5    1  0.8957809E-005  0.9118800E+02  0.7818608E-02  0.1130116E+00
         25   -1    0    0    0    0  0.00000000000E+00  0.00000000000E+00  0.99999998245E-14  0.12500000000E+03  0.12500000000E+03 0.  0.
        -11    1    3    3    0    0 -0.10210374448E+02  0.59848289093E+02 -0.36431913041E+01  0.60822218776E+02  0.51100000000E-03 0. -1.
         23    2    1    0    0    0 -0.10097464242E+02  0.25104712889E+02 -0.10017659729E+02  0.96145903240E+02  0.91714098208E+02 0.  0.
         11    1    3    3    0    0  0.11291020584E+00 -0.34743576204E+02 -0.63744684251E+01  0.35323684464E+02  0.51100000000E-03 0.  1.
         22    1    1    0    0    0  0.10097464242E+02 -0.25104712889E+02  0.10017659729E+02  0.28854096760E+02  0.00000000000E+00 0. -1.
</event>
<event>
 5    1  0.8957809E-005  0.9118800E+02  0.7818608E-02  0.1130116E+00
         25   -1    0    0    0    0  0.00000000000E+00  0.00000000000E+00  0.99999998245E-14  0.12500000000E+03  0.12500000000E+03 0.  0.
        -11    1    3    3    0    0  0.48504951450E+01  0.40707671778E+02  0.18859458260E+02  0.45125613689E+02  0.51100000000E-03 0.  1.
         23    2    1    0    0    0  0.27512252879E+02 -0.35146358286E+01  0.94433908587E+01  0.95700608293E+02  0.91105170398E+02 0.  0.
         11    1    3    3    0    0  0.22661757734E+02 -0.44222307606E+02 -0.94160674013E+01  0.50574994604E+02  0.51100000000E-03 0. -1.
         22    1    1    0    0    0 -0.27512252879E+02  0.35146358286E+01 -0.94433908587E+01  0.29299391707E+02  0.00000000000E+00 0.  1.
</event>
<event>
 5    1  0.8957809E-005  0.9118800E+02  0.7818608E-02  0.1130116E+00
         25   -1    0    0    0    0  0.00000000000E+00  0.00000000000E+00  0.99999998245E-14  0.12500000000E+03  0.12500000000E+03 0.  0.
        -11    1    3    3    0    0 -0.21278440415E+02  0.28971287221E+02 -0.46547678243E+02  0.58811511286E+02  0.51100000000E-03 0.  1.
         23    2    1    0    0    0  0.45141934902E+01  0.18749212352E+02 -0.20178922411E+02  0.97087640437E+02  0.92988763350E+02 0.  0.
         11    1    3    3    0    0  0.25792633905E+02 -0.10222074869E+02  0.26368755832E+02  0.38276129151E+02  0.51100000000E-03 0. -1.
         22    1    1    0    0    0 -0.45141934902E+01 -0.18749212352E+02  0.20178922411E+02  0.27912359563E+02  0.00000000000E+00 0.  1.
</event>
<event>
 5    1  0.8957809E-005  0.9118800E+02  0.7818608E-02  0.1130116E+00
         25   -1    0    0    0    0  0.00000000000E+00  0.00000000000E+00  0.99999998245E-14  0.12500000000E+03  0.12500000000E+03 0.  0.
        -11    1    3    3    0    0  0.28724753199E+02 -0.32625533088E+02  0.37381810025E+02  0.57331811210E+02  0.51100000000E-03 0. -1.
         23    2    1    0    0    0 -0.18338347601E+01 -0.24788397481E+02  0.16202110097E+02  0.95329543799E+02  0.90594624287E+02 0.  0.
         11    1    3    3    0    0 -0.30558587959E+02  0.78371356075E+01 -0.21179699929E+02  0.37997732589E+02  0.51100000000E-03 0.  1.
         22    1    1    0    0    0  0.18338347601E+01  0.24788397481E+02 -0.16202110097E+02  0.29670456201E+02  0.00000000000E+00 0. -1.
</event>
<event>
 5    1  0.8957809E-005  0.9118800E+02  0.7818608E-02  0.1130116E+00
         25   -1    0    0    0    0  0.00000000000E+00  0.00000000000E+00  0.99999998245E-14  0.12500000000E+03  0.12500000000E+03 0.  0.
        -11    1    3    3    0    0 -0.51742187434E+02  0.16857062633E+01  0.26783910272E+02  0.58287849641E+02  0.51100000000E-03 0.  1.
         23    2    1    0    0    0 -0.13717784270E+02  0.29354657252E+01  0.24949603950E+02  0.96376979517E+02  0.92028500364E+02 0.  0.
         11    1    3    3    0    0  0.38024403165E+02  0.12497594620E+01 -0.18343063215E+01  0.38089129876E+02  0.51100000000E-03 0. -1.
         22    1    1    0    0    0  0.13717784270E+02 -0.29354657252E+01 -0.24949603950E+02  0.28623020483E+02  0.00000000000E+00 0.  1.
</event>
<event>
 5    1  0.8957809E-005  0.9118800E+02  0.7818608E-02  0.1130116E+00
         25   -1    0    0    0    0  0.00000000000E+00  0.00000000000E+00  0.99999998245E-14  0.12500000000E+03  0.12500000000E+03 0.  0.
        -11    1    3    3    0    0 -0.19473691979E+02  0.34599938004E+02 -0.39225086782E+02  0.55812075956E+02  0.51100000000E-03 0.  1.
         23    2    1    0    0    0 -0.24247536077E+02  0.10551516059E+02 -0.47239868212E+01  0.98137506660E+02  0.94389494463E+02 0.  0.
         11    1    3    3    0    0 -0.47738440978E+01 -0.24048421945E+02  0.34501099961E+02  0.42325430704E+02  0.51100000000E-03 0. -1.
         22    1    1    0    0    0  0.24247536077E+02 -0.10551516059E+02  0.47239868212E+01  0.26862493340E+02  0.00000000000E+00 0.  1.
</event>
<event>
 5    1  0.8957809E-005  0.9118800E+02  0.7818608E-02  0.1130116E+00
         25   -1    0    0    0    0  0.00000000000E+00  0.00000000000E+00  0.99999998245E-14  0.12500000000E+03  0.12500000000E+03 0.  0.
        -11    1    3    3    0    0 -0.10520313001E+02  0.72769336489E+01 -0.36264164692E+02  0.38454133588E+02  0.51100000000E-03 0. -1.
         23    2    1    0    0    0 -0.24319447691E+02 -0.43325304915E+01  0.17214317762E+02  0.94891212371E+02  0.89987794133E+02 0.  0.
         11    1    3    3    0    0 -0.13799134690E+02 -0.11609464140E+02  0.53478482453E+02  0.56437078783E+02  0.51100000000E-03 0.  1.
         22    1    1    0    0    0  0.24319447691E+02  0.43325304915E+01 -0.17214317762E+02  0.30108787629E+02  0.00000000000E+00 0.  1.
</event>
<event>
 5    1  0.8957809E-005  0.9118800E+02  0.7818608E-02  0.1130116E+00
         25   -1    0    0    0    0  0.00000000000E+00  0.00000000000E+00  0.99999998245E-14  0.12500000000E+03  0.12500000000E+03 0.  0.
        -11    1    3    3    0    0 -0.49841368233E+01 -0.15728078356E+02  0.31661515087E+02  0.35702459390E+02  0.51100000000E-03 0. -1.
         23    2    1    0    0    0 -0.13006845836E+02  0.17090649391E+02 -0.18818262421E+02  0.96444871989E+02  0.92120670846E+02 0.  0.
         11    1    3    3    0    0 -0.80227090123E+01  0.32818727747E+02 -0.50479777508E+02  0.60742412599E+02  0.51100000000E-03 0.  1.
         22    1    1    0    0    0  0.13006845836E+02 -0.17090649391E+02  0.18818262421E+02  0.28555128011E+02  0.00000000000E+00 0.  1.
</event>
<event>
 5    1  0.8957809E-005  0.9118800E+02  0.7818608E-02  0.1130116E+00
         25   -1    0    0    0    0  0.00000000000E+00  0.00000000000E+00  0.99999998245E-14  0.12500000000E+03  0.12500000000E+03 0.  0.
        -11    1    3    3    0    0  0.56356497194E+02 -0.92725297358E+01 -0.67971470542E+01  0.57517265164E+02  0.51100000000E-03 0.  1.
         23    2    1    0    0    0  0.24165843751E+02 -0.35137696298E+01  0.14553953651E+02  0.96571983043E+02  0.92292988687E+02 0.  0.
         11    1    3    3    0    0 -0.32190653443E+02  0.57587601060E+01  0.21351100706E+02  0.39054717879E+02  0.51100000000E-03 0. -1.
         22    1    1    0    0    0 -0.24165843751E+02  0.35137696298E+01 -0.14553953651E+02  0.28428016957E+02  0.00000000000E+00 0.  1.
</event>
<event>
 5    1  0.8957809E-005  0.9118800E+02  0.7818608E-02  0.1130116E+00
         25   -1    0    0    0    0  0.00000000000E+00  0.00000000000E+00  0.99999998245E-14  0.12500000000E+03  0.12500000000E+03 0.  0.
        -11    1    3    3    0    0  0.36600620536E+02  0.34697543880E+02 -0.58592254979E+01  0.50772586093E+02  0.51100000000E-03 0.  1.
         23    2    1    0    0    0 -0.66331159378E+01  0.29749157740E+02 -0.24798442158E+01  0.94419610195E+02  0.89330300284E+02 0.  0.
         11    1    3    3    0    0 -0.43233736473E+02 -0.49483861400E+01  0.33793812821E+01  0.43647024102E+02  0.51100000000E-03 0. -1.
         22    1    1    0    0    0  0.66331159378E+01 -0.29749157740E+02  0.24798442158E+01  0.30580389805E+02  0.00000000000E+00 0.  1.
</event>
<event>
 5    1  0.8957809E-005  0.9118800E+02  0.7818608E-02  0.1130116E+00
         25   -1    0    0    0    0  0.00000000000E+00  0.00000000000E+00  0.99999998245E-14  0.12500000000E+03  0.12500000000E+03 0.  0.
        -11    1    3    3    0    0  0.89760536630E+01  0.43146654143E+01  0.34631942620E+02  0.36035500925E+02  0.51100000000E-03 0. -1.
         23    2    1    0    0    0 -0.21395663818E+02  0.78546389276E+01 -0.17358128018E+02  0.96350839608E+02  0.91992988331E+02 0.  0.
         11    1    3    3    0    0 -0.30371717481E+02  0.35399735133E+01 -0.51990070638E+02  0.60315338683E+02  0.51100000000E-03 0.  1.
         22    1    1    0    0    0  0.21395663818E+02 -0.78546389276E+01  0.17358128018E+02  0.28649160392E+02  0.00000000000E+00 0.  1.
</event>
<event>
 5    1  0.8957809E-005  0.9118800E+02  0.7818608E-02  0.1130116E+00
         25   -1    0    0    0    0  0.00000000000E+00  0.00000000000E+00  0.99999998245E-14  0.12500000000E+03  0.12500000000E+03 0.  0.
        -11    1    3    3    0    0 -0.38486667714E+02 -0.41698025459E+02 -0.23244460892E+02  0.61320909006E+02  0.51100000000E-03 0. -1.
         23    2    1    0    0    0 -0.23104197918E+02 -0.12475339900E+02 -0.10659393606E+02  0.96661673671E+02  0.92414384258E+02 0.  0.
         11    1    3    3    0    0  0.15382469796E+02  0.29222685559E+02  0.12585067286E+02  0.35340764665E+02  0.51100000000E-03 0.  1.
         22    1    1    0    0    0  0.23104197918E+02  0.12475339900E+02  0.10659393606E+02  0.28338326329E+02  0.00000000000E+00 0. -1.
</event>
<event>
 5    1  0.8957809E-005  0.9118800E+02  0.7818608E-02  0.1130116E+00
         25   -1    0    0    0    0  0.00000000000E+00  0.00000000000E+00  0.99999998245E-14  0.12500000000E+03  0.12500000000E+03 0.  0.
        -11    1    3    3    0    0 -0.19372022279E+02 -0.44697366565E+02  0.26376640127E+02  0.55397265002E+02  0.51100000000E-03 0.  1.
         23    2    1    0    0    0  0.12886140163E+02 -0.14388848354E+02  0.13289512098E+02  0.10155426058E+03  0.98810754195E+02 0.  0.
         11    1    3    3    0    0  0.32258162441E+02  0.30308518212E+02 -0.13087128030E+02  0.46156995576E+02  0.51100000000E-03 0. -1.
         22    1    1    0    0    0 -0.12886140163E+02  0.14388848354E+02 -0.13289512098E+02  0.23445739422E+02  0.00000000000E+00 0.  1.
</event>
<event>
 5    1  0.8957809E-005  0.9118800E+02  0.7818608E-02  0.1130116E+00
         25   -1    0    0    0    0  0.00000000000E+00  0.00000000000E+00  0.99999998245E-14  0.12500000000E+03  0.12500000000E+03 0.  0.
        -11    1    3    3    0    0 -0.11871434189E+02 -0.25503950239E+02 -0.25778287299E+02  0.38156290750E+02  0.51100000000E-03 0. -1.
         23    2    1    0    0    0  0.25384287705E+02  0.12055139767E+02 -0.24677711517E+00  0.96897520465E+02  0.92732842705E+02 0.  0.
         11    1    3    3    0    0  0.37255721894E+02  0.37559090005E+02  0.25531510184E+02  0.58741229715E+02  0.51100000000E-03 0.  1.
         22    1    1    0    0    0 -0.25384287705E+02 -0.12055139767E+02  0.24677711517E+00  0.28102479535E+02  0.00000000000E+00 0.  1.
</event>
<event>
 5    1  0.8957809E-005  0.9118800E+02  0.7818608E-02  0.1130116E+00
         25   -1    0    0    0    0  0.00000000000E+00  0.00000000000E+00  0.99999998245E-14  0.12500000000E+03  0.12500000000E+03 0.  0.
        -11    1    3    3    0    0 -0.47909015755E+01 -0.56944288907E+02 -0.66576181319E+01  0.57531979424E+02  0.51100000000E-03 0. -1.
         23    2    1    0    0    0 -0.18269009503E+02 -0.21553271082E+02  0.29210750979E+01  0.96595196141E+02  0.92324422746E+02 0.  0.
         11    1    3    3    0    0 -0.13478107927E+02  0.35391017825E+02  0.95786932298E+01  0.39063216717E+02  0.51100000000E-03 0.  1.
         22    1    1    0    0    0  0.18269009503E+02  0.21553271082E+02 -0.29210750979E+01  0.28404803859E+02  0.00000000000E+00 0. -1.
</event>
<event>
 5    1  0.8957809E-005  0.9118800E+02  0.7818608E-02  0.1130116E+00
         25   -1    0    0    0    0  0.00000000000E+00  0.00000000000E+00  0.99999998245E-14  0.12500000000E+03  0.12500000000E+03 0.  0.
        -11    1    3    3    0    0 -0.10754136606E+02  0.69567706739E+00  0.33325598630E+02  0.35024719057E+02  0.51100000000E-03 0.  1.
         23    2    1    0    0    0 -0.79548248445E+01  0.12108038330E+02 -0.25856163104E+02  0.95361764544E+02  0.90639070692E+02 0.  0.
         11    1    3    3    0    0  0.27993117614E+01  0.11412361263E+02 -0.59181761734E+02  0.60337045487E+02  0.51100000000E-03 0. -1.
         22    1    1    0    0    0  0.79548248445E+01 -0.12108038330E+02  0.25856163104E+02  0.29638235456E+02  0.00000000000E+00 0. -1.
</event>
<event>
 5    1  0.8957809E-005  0.9118800E+02  0.7818608E-02  0.1130116E+00
         25   -1    0    0    0    0  0.00000000000E+00  0.00000000000E+00  0.99999998245E-14  0.12500000000E+03  0.12500000000E+03 0.  0.
        -11    1    3    3    0    0 -0.14996076595E+02  0.42853268710E+02  0.45227973226E+01  0.45626096132E+02  0.51100000000E-03 0. -1.
         23    2    1    0    0    0 -0.39160349838E+01  0.65228861526E+01 -0.28219374181E+02  0.95773018409E+02  0.91204465912E+02 0.  0.
         11    1    3    3    0    0  0.11080041612E+02 -0.36330382557E+02 -0.32742171504E+02  0.50146922277E+02  0.51100000000E-03 0.  1.
         22    1    1    0    0    0  0.39160349838E+01 -0.65228861526E+01  0.28219374181E+02  0.29226981591E+02  0.00000000000E+00 0. -1.
</event>
<event>
 5    1  0.8957809E-005  0.9118800E+02  0.7818608E-02  0.1130116E+00
         25   -1    0    0    0    0  0.00000000000E+00  0.00000000000E+00  0.99999998245E-14  0.12500000000E+03  0.12500000000E+03 0.  0.
        -11    1    3    3    0    0 -0.11896826359E+02 -0.35081830760E+02  0.97453749559E+01  0.38304590589E+02  0.51100000000E-03 0.  1.
         23    2    1    0    0    0  0.19821896455E+02  0.38382752263E+01 -0.19932818611E+02  0.96628232456E+02  0.92369140485E+02 0.  0.
         11    1    3    3    0    0  0.31718722814E+02  0.38920105987E+02 -0.29678193567E+02  0.58323641867E+02  0.51100000000E-03 0. -1.
         22    1    1    0    0    0 -0.19821896455E+02 -0.38382752263E+01  0.19932818611E+02  0.28371767544E+02  0.00000000000E+00 0. -1.
</event>
<event>
 5    1  0.8957809E-005  0.9118800E+02  0.7818608E-02  0.1130116E+00
         25   -1    0    0    0    0  0.00000000000E+00  0.00000000000E+00  0.99999998245E-14  0.12500000000E+03  0.12500000000E+03 0.  0.
        -11    1    3    3    0    0 -0.26186399573E+02  0.17892712626E+02  0.51147502897E+02  0.60182586689E+02  0.51100000000E-03 0.  1.
         23    2    1    0    0    0 -0.12458594104E+01  0.12032052290E+02  0.27111112129E+02  0.95312715704E+02  0.90571402363E+02 0.  0.
         11    1    3    3    0    0  0.24940540163E+02 -0.58606603358E+01 -0.24036390768E+02  0.35130129015E+02  0.51100000000E-03 0. -1.
         22    1    1    0    0    0  0.12458594104E+01 -0.12032052290E+02 -0.27111112129E+02  0.29687284296E+02  0.00000000000E+00 0.  1.
</event>
<event>
 5    1  0.8957809E-005  0.9118800E+02  0.7818608E-02  0.1130116E+00
         25   -1    0    0    0    0  0.00000000000E+00  0.00000000000E+00  0.99999998245E-14  0.12500000000E+03  0.12500000000E+03 0.  0.
        -11    1    3    3    0    0  0.30491996418E+02 -0.36871735961E+00  0.47271017873E+02  0.56253417044E+02  0.51100000000E-03 0.  1.
         23    2    1    0    0    0  0.27788097238E+02 -0.46924735809E+01  0.82085541085E+01  0.95647350768E+02  0.91032069580E+02 0.  0.
         11    1    3    3    0    0 -0.27038991808E+01 -0.43237562213E+01 -0.39062463765E+02  0.39393933724E+02  0.51100000000E-03 0. -1.
         22    1    1    0    0    0 -0.27788097238E+02  0.46924735809E+01 -0.82085541085E+01  0.29352649232E+02  0.00000000000E+00 0.  1.
</event>
<event>
 5    1  0.8957809E-005  0.9118800E+02  0.7818608E-02  0.1130116E+00
         25   -1    0    0    0    0  0.00000000000E+00  0.00000000000E+00  0.99999998245E-14  0.12500000000E+03  0.12500000000E+03 0.  0.
        -11    1    3    3    0    0  0.55347307802E+02 -0.17607093343E+02 -0.20937779806E+01  0.58118139367E+02  0.51100000000E-03 0.  1.
         23    2    1    0    0    0  0.24859830940E+02 -0.17928204837E+01 -0.16228465167E+02  0.95257967767E+02  0.90495811736E+02 0.  0.
         11    1    3    3    0    0 -0.30487476862E+02  0.15814272860E+02 -0.14134687186E+02  0.37139828400E+02  0.51100000000E-03 0. -1.
         22    1    1    0    0    0 -0.24859830940E+02  0.17928204837E+01  0.16228465167E+02  0.29742032233E+02  0.00000000000E+00 0.  1.
</event>
<event>
 5    1  0.8957809E-005  0.9118800E+02  0.7818608E-02  0.1130116E+00
         25   -1    0    0    0    0  0.00000000000E+00  0.00000000000E+00  0.99999998245E-14  0.12500000000E+03  0.12500000000E+03 0.  0.
        -11    1    3    3    0    0 -0.54920268159E+02  0.20978358880E+01  0.16727451886E+02  0.57449494488E+02  0.51100000000E-03 0.  1.
         23    2    1    0    0    0 -0.22228387343E+02 -0.60718286429E+01  0.23791253451E+02  0.91879129726E+02  0.85701706118E+02 0.  0.
         11    1    3    3    0    0  0.32691880816E+02 -0.81696645310E+01  0.70638015648E+01  0.34429635238E+02  0.51100000000E-03 0. -1.
         22    1    1    0    0    0  0.22228387343E+02  0.60718286429E+01 -0.23791253451E+02  0.33120870274E+02  0.00000000000E+00 0.  1.
</event>
<event>
 5    1  0.8957809E-005  0.9118800E+02  0.7818608E-02  0.1130116E+00
         25   -1    0    0    0    0  0.00000000000E+00  0.00000000000E+00  0.99999998245E-14  0.12500000000E+03  0.12500000000E+03 0.  0.
        -11    1    3    3    0    0 -0.26289775894E+02  0.47515802241E+02  0.18352955085E+02  0.57321328838E+02  0.51100000000E-03 0.  1.
         23    2    1    0    0    0 -0.80961824503E+01  0.24855363354E+02 -0.91218745463E+01  0.97313435515E+02  0.93291794274E+02 0.  0.
         11    1    3    3    0    0  0.18193593444E+02 -0.22660438887E+02 -0.27474829631E+02  0.39992106677E+02  0.51100000000E-03 0. -1.
         22    1    1    0    0    0  0.80961824503E+01 -0.24855363354E+02  0.91218745463E+01  0.27686564485E+02  0.00000000000E+00 0.  1.
</event>
<event>
 5    1  0.8957809E-005  0.9118800E+02  0.7818608E-02  0.1130116E+00
         25   -1    0    0    0    0  0.00000000000E+00  0.00000000000E+00  0.99999998245E-14  0.12500000000E+03  0.12500000000E+03 0.  0.
        -11    1    3    3    0    0 -0.28486315635E+02  0.10639437988E+02 -0.23913435555E+02  0.38684883604E+02  0.51100000000E-03 0. -1.
         23    2    1    0    0    0  0.26209214636E+02  0.10459021489E+02 -0.72085906813E+01  0.95874790268E+02  0.91343842524E+02 0.  0.
         11    1    3    3    0    0  0.54695530271E+02 -0.18041649936E+00  0.16704844874E+02  0.57189906664E+02  0.51100000000E-03 0.  1.
         22    1    1    0    0    0 -0.26209214636E+02 -0.10459021489E+02  0.72085906813E+01  0.29125209732E+02  0.00000000000E+00 0.  1.
</event>
<event>
 5    1  0.8957809E-005  0.9118800E+02  0.7818608E-02  0.1130116E+00
         25   -1    0    0    0    0  0.00000000000E+00  0.00000000000E+00  0.99999998245E-14  0.12500000000E+03  0.12500000000E+03 0.  0.
        -11    1    3    3    0    0 -0.48297102100E+02 -0.36876729991E+02 -0.12461354804E+01  0.60778747437E+02  0.51100000000E-03 0. -1.
         23    2    1    0    0    0 -0.14934976060E+02 -0.23566246775E+02  0.29585556924E+01  0.96943368899E+02  0.92794623900E+02 0.  0.
         11    1    3    3    0    0  0.33362126040E+02  0.13310483216E+02  0.42046911729E+01  0.36164621462E+02  0.51100000000E-03 0.  1.
         22    1    1    0    0    0  0.14934976060E+02  0.23566246775E+02 -0.29585556924E+01  0.28056631101E+02  0.00000000000E+00 0. -1.
</event>
<event>
 5    1  0.8957809E-005  0.9118800E+02  0.7818608E-02  0.1130116E+00
         25   -1    0    0    0    0  0.00000000000E+00  0.00000000000E+00  0.99999998245E-14  0.12500000000E+03  0.12500000000E+03 0.  0.
        -11    1    3    3    0    0  0.20033820558E+02  0.50325042434E+02 -0.39349981759E+01  0.54308821319E+02  0.51100000000E-03 0. -1.
         23    2    1    0    0    0 -0.13487856433E+02  0.24089068053E+02  0.21448136568E+01  0.97308743322E+02  0.93285507076E+02 0.  0.
         11    1    3    3    0    0 -0.33521676992E+02 -0.26235974381E+02  0.60798118327E+01  0.42999922003E+02  0.51100000000E-03 0.  1.
         22    1    1    0    0    0  0.13487856433E+02 -0.24089068053E+02 -0.21448136568E+01  0.27691256678E+02  0.00000000000E+00 0.  1.
</event>
<event>
 5    1  0.8957809E-005  0.9118800E+02  0.7818608E-02  0.1130116E+00
         25   -1    0    0    0    0  0.00000000000E+00  0.00000000000E+00  0.99999998245E-14  0.12500000000E+03  0.12500000000E+03 0.  0.
        -11    1    3    3    0    0  0.30396584981E+02  0.33956991268E+02 -0.14760928486E+02  0.47905267399E+02  0.51100000000E-03 0. -1.
         23    2    1    0    0    0  0.21303774682E+02 -0.13310956095E+02 -0.14407736367E+02  0.96041145826E+02  0.91571209758E+02 0.  0.
         11    1    3    3    0    0 -0.90928102984E+01 -0.47267947363E+02  0.35319211962E+00  0.48135878427E+02  0.51100000000E-03 0.  1.
         22    1    1    0    0    0 -0.21303774682E+02  0.13310956095E+02  0.14407736367E+02  0.28958854174E+02  0.00000000000E+00 0.  1.
</event>
<event>
 5    1  0.8957809E-005  0.9118800E+02  0.7818608E-02  0.1130116E+00
         25   -1    0    0    0    0  0.00000000000E+00  0.00000000000E+00  0.99999998245E-14  0.12500000000E+03  0.12500000000E+03 0.  0.
        -11    1    3    3    0    0  0.19264588029E+02 -0.36329912291E+02  0.62036014010E+00  0.41126289961E+02  0.51100000000E-03 0. -1.
         23    2    1    0    0    0 -0.15065591600E+02 -0.89794368129E+01 -0.26866439887E+02  0.92915612396E+02  0.87200361805E+02 0.  0.
         11    1    3    3    0    0 -0.34330179630E+02  0.27350475478E+02 -0.27486800027E+02  0.51789322435E+02  0.51100000000E-03 0.  1.
         22    1    1    0    0    0  0.15065591600E+02  0.89794368129E+01  0.26866439887E+02  0.32084387604E+02  0.00000000000E+00 0.  1.
</event>
<event>
 5    1  0.8957809E-005  0.9118800E+02  0.7818608E-02  0.1130116E+00
         25   -1    0    0    0    0  0.00000000000E+00  0.00000000000E+00  0.99999998245E-14  0.12500000000E+03  0.12500000000E+03 0.  0.
        -11    1    3    3    0    0 -0.55736117374E+02 -0.11238787859E+02  0.20026092053E+02  0.60281585046E+02  0.51100000000E-03 0.  1.
         23    2    1    0    0    0 -0.28504357842E+02  0.60024506924E+01  0.70282133027E+01  0.95034626441E+02  0.90186787337E+02 0.  0.
         11    1    3    3    0    0  0.27231759532E+02  0.17241238551E+02 -0.12997878750E+02  0.34753041395E+02  0.51100000000E-03 0. -1.
         22    1    1    0    0    0  0.28504357842E+02 -0.60024506924E+01 -0.70282133027E+01  0.29965373559E+02  0.00000000000E+00 0.  1.
</event>
<event>
 5    1  0.8957809E-005  0.9118800E+02  0.7818608E-02  0.1130116E+00
         25   -1    0    0    0    0  0.00000000000E+00  0.00000000000E+00  0.99999998245E-14  0.12500000000E+03  0.12500000000E+03 0.  0.
        -11    1    3    3    0    0  0.21603412390E+01 -0.26321909189E+02  0.31144228651E+02  0.40834702842E+02  0.51100000000E-03 0.  1.
         23    2    1    0    0    0 -0.28678178076E+02 -0.36066989477E+01 -0.73902396948E+01  0.95166096169E+02  0.90368822291E+02 0.  0.
         11    1    3    3    0    0 -0.30838519315E+02  0.22715210242E+02 -0.38534468346E+02  0.54331393327E+02  0.51100000000E-03 0. -1.
         22    1    1    0    0    0  0.28678178076E+02  0.36066989477E+01  0.73902396948E+01  0.29833903831E+02  0.00000000000E+00 0. -1.
</event>
<event>
 5    1  0.8957809E-005  0.9118800E+02  0.7818608E-02  0.1130116E+00
         25   -1    0    0    0    0  0.00000000000E+00  0.00000000000E+00  0.99999998245E-14  0.12500000000E+03  0.12500000000E+03 0.  0.
        -11    1    3    3    0    0 -0.15484148320E+02 -0.14959311376E+02  0.33246671503E+02  0.39609102645E+02  0.51100000000E-03 0. -1.
         23    2    1    0    0    0  0.17881428736E+02 -0.23715523924E+02 -0.88256496133E+01  0.94015105943E+02  0.88762472283E+02 0.  0.
         11    1    3    3    0    0  0.33365577056E+02 -0.87562125475E+01 -0.42072321117E+02  0.54406003298E+02  0.51100000000E-03 0.  1.
         22    1    1    0    0    0 -0.17881428736E+02  0.23715523924E+02  0.88256496133E+01  0.30984894057E+02  0.00000000000E+00 0.  1.
</event>
<event>
 5    1  0.8957809E-005  0.9118800E+02  0.7818608E-02  0.1130116E+00
         25   -1    0    0    0    0  0.00000000000E+00  0.00000000000E+00  0.99999998245E-14  0.12500000000E+03  0.12500000000E+03 0.  0.
        -11    1    3    3    0    0  0.10997818584E+02 -0.46082875499E+02 -0.22616654308E+02  0.52498537887E+02  0.51100000000E-03 0.  1.
         23    2    1    0    0    0 -0.83126806007E+01 -0.25948983344E+02  0.10499437999E+02  0.95799167929E+02  0.91240298017E+02 0.  0.
         11    1    3    3    0    0 -0.19310499184E+02  0.20133892155E+02  0.33116092307E+02  0.43300630042E+02  0.51100000000E-03 0. -1.
         22    1    1    0    0    0  0.83126806007E+01  0.25948983344E+02 -0.10499437999E+02  0.29200832071E+02  0.00000000000E+00 0.  1.
</event>
<event>
 5    1  0.8957809E-005  0.9118800E+02  0.7818608E-02  0.1130116E+00
         25   -1    0    0    0    0  0.00000000000E+00  0.00000000000E+00  0.99999998245E-14  0.12500000000E+03  0.12500000000E+03 0.  0.
        -11    1    3    3    0    0  0.22419331397E+02  0.16697769488E+02  0.14718181197E+01  0.27993002251E+02  0.51100000000E-03 0.  1.
         23    2    1    0    0    0 -0.14871166920E+02 -0.27515314111E+02 -0.17866893350E+02  0.88979589200E+02  0.81362751305E+02 0.  0.
         11    1    3    3    0    0 -0.37290498317E+02 -0.44213083600E+02 -0.19338711470E+02  0.60986586949E+02  0.51100000000E-03 0. -1.
         22    1    1    0    0    0  0.14871166920E+02  0.27515314111E+02  0.17866893350E+02  0.36020410800E+02  0.00000000000E+00 0. -1.
</event>
<event>
 5    1  0.8957809E-005  0.9118800E+02  0.7818608E-02  0.1130116E+00
         25   -1    0    0    0    0  0.00000000000E+00  0.00000000000E+00  0.99999998245E-14  0.12500000000E+03  0.12500000000E+03 0.  0.
        -11    1    3    3    0    0 -0.21943535940E+02  0.31786228573E+02  0.18205218064E+02  0.42700270040E+02  0.51100000000E-03 0. -1.
         23    2    1    0    0    0  0.25321474392E+02  0.14169571279E+02  0.11009301981E+01  0.95962681547E+02  0.91464038763E+02 0.  0.
         11    1    3    3    0    0  0.47265010332E+02 -0.17616657295E+02 -0.17104287865E+02  0.53262411508E+02  0.51100000000E-03 0.  1.
         22    1    1    0    0    0 -0.25321474392E+02 -0.14169571279E+02 -0.11009301981E+01  0.29037318453E+02  0.00000000000E+00 0.  1.
</event>
<event>
 5    1  0.8957809E-005  0.9118800E+02  0.7818608E-02  0.1130116E+00
         25   -1    0    0    0    0  0.00000000000E+00  0.00000000000E+00  0.99999998245E-14  0.12500000000E+03  0.12500000000E+03 0.  0.
        -11    1    3    3    0    0 -0.33033912024E+02  0.18258190647E+02 -0.14753246697E+02  0.40524796824E+02  0.51100000000E-03 0.  1.
         23    2    1    0    0    0  0.13926123825E+02  0.29526231885E+02 -0.15585190372E+02  0.88824960911E+02  0.81124843469E+02 0.  0.
         11    1    3    3    0    0  0.46960035849E+02  0.11268041238E+02 -0.83194367472E+00  0.48300164087E+02  0.51100000000E-03 0. -1.
         22    1    1    0    0    0 -0.13926123825E+02 -0.29526231885E+02  0.15585190372E+02  0.36175039089E+02  0.00000000000E+00 0. -1.
</event>
<event>
 5    1  0.8957809E-005  0.9118800E+02  0.7818608E-02  0.1130116E+00
         25   -1    0    0    0    0  0.00000000000E+00  0.00000000000E+00  0.99999998245E-14  0.12500000000E+03  0.12500000000E+03 0.  0.
        -11    1    3    3    0    0 -0.20474387562E+02  0.82524262387E+01 -0.34511020902E+02  0.40967226521E+02  0.51100000000E-03 0.  1.
         23    2    1    0    0    0  0.27489282074E+02 -0.18523878905E+01 -0.13896045973E+02  0.94142390508E+02  0.88941540503E+02 0.  0.
         11    1    3    3    0    0  0.47963669636E+02 -0.10104814129E+02  0.20614974929E+02  0.53175163988E+02  0.51100000000E-03 0. -1.
         22    1    1    0    0    0 -0.27489282074E+02  0.18523878905E+01  0.13896045973E+02  0.30857609492E+02  0.00000000000E+00 0. -1.
</event>
<event>
 5    1  0.8957809E-005  0.9118800E+02  0.7818608E-02  0.1130116E+00
         25   -1    0    0    0    0  0.00000000000E+00  0.00000000000E+00  0.99999998245E-14  0.12500000000E+03  0.12500000000E+03 0.  0.
        -11    1    3    3    0    0  0.13364442636E+02 -0.36584701690E+02  0.53034942310E+01  0.39308723917E+02  0.51100000000E-03 0.  1.
         23    2    1    0    0    0  0.18686606094E+01  0.87613921058E+01 -0.27259167451E+02  0.96306514778E+02  0.91932740057E+02 0.  0.
         11    1    3    3    0    0 -0.11495782027E+02  0.45346093795E+02 -0.32562661681E+02  0.56997790860E+02  0.51100000000E-03 0. -1.
         22    1    1    0    0    0 -0.18686606094E+01 -0.87613921058E+01  0.27259167451E+02  0.28693485222E+02  0.00000000000E+00 0. -1.
</event>
<event>
 5    1  0.8957809E-005  0.9118800E+02  0.7818608E-02  0.1130116E+00
         25   -1    0    0    0    0  0.00000000000E+00  0.00000000000E+00  0.99999998245E-14  0.12500000000E+03  0.12500000000E+03 0.  0.
        -11    1    3    3    0    0 -0.79213611990E+01 -0.76686437866E+01  0.56596194755E+02  0.57660084303E+02  0.51100000000E-03 0.  1.
         23    2    1    0    0    0 -0.88305144016E+01 -0.19922620777E+02  0.23562341991E+02  0.92905253337E+02  0.87185511035E+02 0.  0.
         11    1    3    3    0    0 -0.90915320254E+00 -0.12253976990E+02 -0.33033852764E+02  0.35245169035E+02  0.51100000000E-03 0. -1.
         22    1    1    0    0    0  0.88305144016E+01  0.19922620777E+02 -0.23562341991E+02  0.32094746663E+02  0.00000000000E+00 0.  1.
</event>
<event>
 5    1  0.8957809E-005  0.9118800E+02  0.7818608E-02  0.1130116E+00
         25   -1    0    0    0    0  0.00000000000E+00  0.00000000000E+00  0.99999998245E-14  0.12500000000E+03  0.12500000000E+03 0.  0.
        -11    1    3    3    0    0 -0.14720555551E+02  0.35617866490E+02 -0.14786070628E+02  0.41278990466E+02  0.51100000000E-03 0. -1.
         23    2    1    0    0    0  0.26056671601E+01 -0.15109505622E+02 -0.24830968664E+02  0.95816722832E+02  0.91264345217E+02 0.  0.
         11    1    3    3    0    0  0.17326222711E+02 -0.50727372112E+02 -0.10044898036E+02  0.54537732366E+02  0.51100000000E-03 0.  1.
         22    1    1    0    0    0 -0.26056671601E+01  0.15109505622E+02  0.24830968664E+02  0.29183277168E+02  0.00000000000E+00 0.  1.
</event>
<event>
 4    1  0.8957809E-005  0.9118800E+02  0.7818608E-02  0.1130116E+00
         25   -1    0    0    0    0  0.00000000000E+00  0.00000000000E+00  0.99999998245E-14  0.12500000000E+03  0.12500000000E+03 0.  0.
        -11    1    1    0    0    0 -0.42078237315E+02  0.41695433523E+01  0.13931386224E+02  0.44520182724E+02  0.51100000000E-03 0.  1.
         11    1    1    0    0    0 -0.16975625510E+02 -0.66634271705E+01 -0.11007312593E+02  0.21301034104E+02  0.51100000000E-03 0. -1.
         22    1    1    0    0    0  0.59053862826E+02  0.24938838182E+01 -0.29240736317E+01  0.59178783172E+02  0.00000000000E+00 0.  1.
</event>
<event>
 5    1  0.8957809E-005  0.9118800E+02  0.7818608E-02  0.1130116E+00
         25   -1    0    0    0    0  0.00000000000E+00  0.00000000000E+00  0.99999998245E-14  0.12500000000E+03  0.12500000000E+03 0.  0.
        -11    1    3    3    0    0  0.26485053519E+02 -0.38850997382E+02 -0.36041570711E+01  0.47157692966E+02  0.51100000000E-03 0.  1.
         23    2    1    0    0    0 -0.50412696207E+01 -0.15761250333E+02 -0.27458546370E+02  0.92940630384E+02  0.87236217226E+02 0.  0.
         11    1    3    3    0    0 -0.31526323139E+02  0.23089747049E+02 -0.23854389299E+02  0.45782937417E+02  0.51100000000E-03 0. -1.
         22    1    1    0    0    0  0.50412696207E+01  0.15761250333E+02  0.27458546370E+02  0.32059369616E+02  0.00000000000E+00 0. -1.
</event>
<event>
 5    1  0.8957809E-005  0.9118800E+02  0.7818608E-02  0.1130116E+00
         25   -1    0    0    0    0  0.00000000000E+00  0.00000000000E+00  0.99999998245E-14  0.12500000000E+03  0.12500000000E+03 0.  0.
        -11    1    3    3    0    0 -0.11422001643E+02 -0.51905214041E+02  0.25460097168E+02  0.58930721311E+02  0.51100000000E-03 0. -1.
         23    2    1    0    0    0  0.31782611064E+01 -0.19773682019E+02  0.23279503401E+02  0.94291123061E+02  0.89150326782E+02 0.  0.
         11    1    3    3    0    0  0.14600262749E+02  0.32131532023E+02 -0.21805937666E+01  0.35360401750E+02  0.51100000000E-03 0.  1.
         22    1    1    0    0    0 -0.31782611064E+01  0.19773682019E+02 -0.23279503401E+02  0.30708876939E+02  0.00000000000E+00 0. -1.
</event>
<event>
 5    1  0.8957809E-005  0.9118800E+02  0.7818608E-02  0.1130116E+00
         25   -1    0    0    0    0  0.00000000000E+00  0.00000000000E+00  0.99999998245E-14  0.12500000000E+03  0.12500000000E+03 0.  0.
        -11    1    3    3    0    0 -0.22358842866E+02  0.30963768033E+02  0.32674462524E+00  0.38193972658E+02  0.51100000000E-03 0.  1.
         23    2    1    0    0    0  0.10300221383E+02 -0.93315635427E+01  0.25583585830E+02  0.95884840673E+02  0.91357595023E+02 0.  0.
         11    1    3    3    0    0  0.32659064249E+02 -0.40295331576E+02  0.25256841205E+02  0.57690868015E+02  0.51100000000E-03 0. -1.
         22    1    1    0    0    0 -0.10300221383E+02  0.93315635427E+01 -0.25583585830E+02  0.29115159327E+02  0.00000000000E+00 0. -1.
</event>
<event>
 5    1  0.8957809E-005  0.9118800E+02  0.7818608E-02  0.1130116E+00
         25   -1    0    0    0    0  0.00000000000E+00  0.00000000000E+00  0.99999998245E-14  0.12500000000E+03  0.12500000000E+03 0.  0.
        -11    1    3    3    0    0 -0.27567447873E+02  0.30767442311E+02 -0.39256268009E+02  0.56988194100E+02  0.51100000000E-03 0. -1.
         23    2    1    0    0    0 -0.28821742608E+02  0.77208418195E+01 -0.11658738406E+02  0.92965168542E+02  0.87271370651E+02 0.  0.
         11    1    3    3    0    0 -0.12542947351E+01 -0.23046600491E+02  0.27597529603E+02  0.35976974441E+02  0.51100000000E-03 0.  1.
         22    1    1    0    0    0  0.28821742608E+02 -0.77208418195E+01  0.11658738406E+02  0.32034831458E+02  0.00000000000E+00 0. -1.
</event>
<event>
 5    1  0.8957809E-005  0.9118800E+02  0.7818608E-02  0.1130116E+00
         25   -1    0    0    0    0  0.00000000000E+00  0.00000000000E+00  0.99999998245E-14  0.12500000000E+03  0.12500000000E+03 0.  0.
        -11    1    3    3    0    0  0.14275069352E+02 -0.23588806118E+02  0.35014982657E+02  0.44567458867E+02  0.51100000000E-03 0.  1.
         23    2    1    0    0    0 -0.72299462745E+00  0.22034153500E+02  0.20895209240E+02  0.94625069368E+02  0.89617338401E+02 0.  0.
         11    1    3    3    0    0 -0.14998063979E+02  0.45622959619E+02 -0.14119773417E+02  0.50057610501E+02  0.51100000000E-03 0. -1.
         22    1    1    0    0    0  0.72299462745E+00 -0.22034153500E+02 -0.20895209240E+02  0.30374930632E+02  0.00000000000E+00 0. -1.
</event>
<event>
 5    1  0.8957809E-005  0.9118800E+02  0.7818608E-02  0.1130116E+00
         25   -1    0    0    0    0  0.00000000000E+00  0.00000000000E+00  0.99999998245E-14  0.12500000000E+03  0.12500000000E+03 0.  0.
        -11    1    3    3    0    0 -0.68634411748E+01 -0.19639273179E+02 -0.40143994824E+02  0.45214468884E+02  0.51100000000E-03 0. -1.
         23    2    1    0    0    0  0.14613130510E+02  0.19420670458E+02 -0.15910661733E+02  0.95950814450E+02  0.91447819069E+02 0.  0.
         11    1    3    3    0    0  0.21476571685E+02  0.39059943638E+02  0.24233333092E+02  0.50736345565E+02  0.51100000000E-03 0.  1.
         22    1    1    0    0    0 -0.14613130510E+02 -0.19420670458E+02  0.15910661733E+02  0.29049185550E+02  0.00000000000E+00 0. -1.
</event>
<event>
 5    1  0.8957809E-005  0.9118800E+02  0.7818608E-02  0.1130116E+00
         25   -1    0    0    0    0  0.00000000000E+00  0.00000000000E+00  0.99999998245E-14  0.12500000000E+03  0.12500000000E+03 0.  0.
        -11    1    3    3    0    0  0.32781880221E+02  0.14244459724E+02  0.11124804313E+02  0.37434176563E+02  0.51100000000E-03 0.  1.
         23    2    1    0    0    0 -0.23666115265E+02  0.15441670784E+02  0.12930726203E+02  0.93923740758E+02  0.88633713617E+02 0.  0.
         11    1    3    3    0    0 -0.56447995487E+02  0.11972110596E+01  0.18059218902E+01  0.56489564195E+02  0.51100000000E-03 0. -1.
         22    1    1    0    0    0  0.23666115265E+02 -0.15441670784E+02 -0.12930726203E+02  0.31076259242E+02  0.00000000000E+00 0. -1.
</event>
<event>
 5    1  0.8957809E-005  0.9118800E+02  0.7818608E-02  0.1130116E+00
         25   -1    0    0    0    0  0.00000000000E+00  0.00000000000E+00  0.99999998245E-14  0.12500000000E+03  0.12500000000E+03 0.  0.
        -11    1    3    3    0    0  0.32515208287E+02  0.40007861450E+02  0.33934040766E+02  0.61720230644E+02  0.51100000000E-03 0. -1.
         23    2    1    0    0    0  0.88411150308E+01  0.19344070250E+02  0.18864870671E+02  0.96570407772E+02  0.92290855143E+02 0.  0.
         11    1    3    3    0    0 -0.23674093256E+02 -0.20663791201E+02 -0.15069170095E+02  0.34850177128E+02  0.51100000000E-03 0.  1.
         22    1    1    0    0    0 -0.88411150308E+01 -0.19344070250E+02 -0.18864870671E+02  0.28429592228E+02  0.00000000000E+00 0. -1.
</event>
<event>
 5    1  0.8957809E-005  0.9118800E+02  0.7818608E-02  0.1130116E+00
         25   -1    0    0    0    0  0.00000000000E+00  0.00000000000E+00  0.99999998245E-14  0.12500000000E+03  0.12500000000E+03 0.  0.
        -11    1    3    3    0    0 -0.27462111746E+02  0.12321228849E+02  0.17457193107E+02  0.34795601063E+02  0.51100000000E-03 0. -1.
         23    2    1    0    0    0  0.22212080337E+02 -0.19204818231E+02  0.23217002470E+01  0.95545087876E+02  0.90891539590E+02 0.  0.
         11    1    3    3    0    0  0.49674192084E+02 -0.31526047080E+02 -0.15135492860E+02  0.60749486813E+02  0.51100000000E-03 0.  1.
         22    1    1    0    0    0 -0.22212080337E+02  0.19204818231E+02 -0.23217002470E+01  0.29454912124E+02  0.00000000000E+00 0.  1.
</event>
<event>
 5    1  0.8957809E-005  0.9118800E+02  0.7818608E-02  0.1130116E+00
         25   -1    0    0    0    0  0.00000000000E+00  0.00000000000E+00  0.99999998245E-14  0.12500000000E+03  0.12500000000E+03 0.  0.
        -11    1    3    3    0    0  0.36565247140E+02  0.16270361598E+02  0.80309631274E+01  0.40819582726E+02  0.51100000000E-03 0.  1.
         23    2    1    0    0    0 -0.18090199322E+02  0.22130185778E+02 -0.29511859211E+00  0.96415257058E+02  0.92080477109E+02 0.  0.
         11    1    3    3    0    0 -0.54655446462E+02  0.58598241800E+01 -0.83260817195E+01  0.55595674332E+02  0.51100000000E-03 0. -1.
         22    1    1    0    0    0  0.18090199322E+02 -0.22130185778E+02  0.29511859211E+00  0.28584742942E+02  0.00000000000E+00 0. -1.
</event>
<event>
 5    1  0.8957809E-005  0.9118800E+02  0.7818608E-02  0.1130116E+00
         25   -1    0    0    0    0  0.00000000000E+00  0.00000000000E+00  0.99999998245E-14  0.12500000000E+03  0.12500000000E+03 0.  0.
        -11    1    3    3    0    0 -0.42698110253E+02 -0.27720664736E+02 -0.30355434631E+02  0.59270703424E+02  0.51100000000E-03 0.  1.
         23    2    1    0    0    0 -0.15470846987E+02  0.95285219441E+00 -0.19138607816E+02  0.10037193993E+03  0.97303571270E+02 0.  0.
         11    1    3    3    0    0  0.27227263266E+02  0.28673516930E+02  0.11216826815E+02  0.41101236504E+02  0.51100000000E-03 0. -1.
         22    1    1    0    0    0  0.15470846987E+02 -0.95285219441E+00  0.19138607816E+02  0.24628060072E+02  0.00000000000E+00 0.  1.
</event>
<event>
 5    1  0.8957809E-005  0.9118800E+02  0.7818608E-02  0.1130116E+00
         25   -1    0    0    0    0  0.00000000000E+00  0.00000000000E+00  0.99999998245E-14  0.12500000000E+03  0.12500000000E+03 0.  0.
        -11    1    3    3    0    0 -0.11731462075E+02 -0.20256650454E+02 -0.21868403199E+02  0.32034140363E+02  0.51100000000E-03 0. -1.
         23    2    1    0    0    0 -0.35398823702E+00  0.31086115633E+02  0.85126532114E+01  0.92767451892E+02  0.86987717369E+02 0.  0.
         11    1    3    3    0    0  0.11377473838E+02  0.51342766087E+02  0.30381056411E+02  0.60733311529E+02  0.51100000000E-03 0.  1.
         22    1    1    0    0    0  0.35398823702E+00 -0.31086115633E+02 -0.85126532114E+01  0.32232548108E+02  0.00000000000E+00 0.  1.
</event>
<event>
 5    1  0.8957809E-005  0.9118800E+02  0.7818608E-02  0.1130116E+00
         25   -1    0    0    0    0  0.00000000000E+00  0.00000000000E+00  0.99999998245E-14  0.12500000000E+03  0.12500000000E+03 0.  0.
        -11    1    3    3    0    0  0.47358957892E+02 -0.74158034865E+01  0.38258043688E+02  0.61331418874E+02  0.51100000000E-03 0. -1.
         23    2    1    0    0    0  0.26013696371E+02 -0.73816210380E+00  0.10602237539E+02  0.96899026298E+02  0.92734872483E+02 0.  0.
         11    1    3    3    0    0 -0.21345261521E+02  0.66776413827E+01 -0.27655806149E+02  0.35567607424E+02  0.51100000000E-03 0.  1.
         22    1    1    0    0    0 -0.26013696371E+02  0.73816210380E+00 -0.10602237539E+02  0.28100973702E+02  0.00000000000E+00 0. -1.
</event>
<event>
 5    1  0.8957809E-005  0.9118800E+02  0.7818608E-02  0.1130116E+00
         25   -1    0    0    0    0  0.00000000000E+00  0.00000000000E+00  0.99999998245E-14  0.12500000000E+03  0.12500000000E+03 0.  0.
        -11    1    3    3    0    0  0.62729710265E+01 -0.26300816018E+02  0.28831538368E+02  0.39526455617E+02  0.51100000000E-03 0. -1.
         23    2    1    0    0    0  0.14673606062E+02  0.17173689393E+02 -0.11705453310E+02  0.99558538575E+02  0.96252972130E+02 0.  0.
         11    1    3    3    0    0  0.84006350359E+01  0.43474505410E+02 -0.40536991679E+02  0.60032082958E+02  0.51100000000E-03 0.  1.
         22    1    1    0    0    0 -0.14673606062E+02 -0.17173689393E+02  0.11705453310E+02  0.25441461425E+02  0.00000000000E+00 0.  1.
</event>
<event>
 5    1  0.8957809E-005  0.9118800E+02  0.7818608E-02  0.1130116E+00
         25   -1    0    0    0    0  0.00000000000E+00  0.00000000000E+00  0.99999998245E-14  0.12500000000E+03  0.12500000000E+03 0.  0.
        -11    1    3    3    0    0  0.15014851622E+02  0.14171276439E+02 -0.23138993647E+02  0.31011028239E+02  0.51100000000E-03 0.  1.
         23    2    1    0    0    0 -0.35236165412E+02 -0.66677415080E+01 -0.30245761167E+01  0.89011193539E+02  0.81411291507E+02 0.  0.
         11    1    3    3    0    0 -0.50251017035E+02 -0.20839017947E+02  0.20114417531E+02  0.58000165300E+02  0.51100000000E-03 0. -1.
         22    1    1    0    0    0  0.35236165412E+02  0.66677415080E+01  0.30245761167E+01  0.35988806461E+02  0.00000000000E+00 0. -1.
</event>
<event>
 5    1  0.8957809E-005  0.9118800E+02  0.7818608E-02  0.1130116E+00
         25   -1    0    0    0    0  0.00000000000E+00  0.00000000000E+00  0.99999998245E-14  0.12500000000E+03  0.12500000000E+03 0.  0.
        -11    1    3    3    0    0 -0.49858970598E+02 -0.28089096565E+02 -0.67259528545E+01  0.57620766543E+02  0.51100000000E-03 0. -1.
         23    2    1    0    0    0 -0.11726359770E+02 -0.23413121541E+02 -0.11624811942E+02  0.96350078072E+02  0.91991953551E+02 0.  0.
         11    1    3    3    0    0  0.38132610827E+02  0.46759750231E+01 -0.48988590875E+01  0.38729311530E+02  0.51100000000E-03 0.  1.
         22    1    1    0    0    0  0.11726359770E+02  0.23413121541E+02  0.11624811942E+02  0.28649921928E+02  0.00000000000E+00 0. -1.
</event>
<event>
 5    1  0.8957809E-005  0.9118800E+02  0.7818608E-02  0.1130116E+00
         25   -1    0    0    0    0  0.00000000000E+00  0.00000000000E+00  0.99999998245E-14  0.12500000000E+03  0.12500000000E+03 0.  0.
        -11    1    3    3    0    0  0.35735321404E+01  0.39413552140E+02  0.18615089948E+02  0.43734652145E+02  0.51100000000E-03 0.  1.
         23    2    1    0    0    0  0.18198566744E+02 -0.66448676331E+01  0.25953049997E+02  0.92613229529E+02  0.86765819205E+02 0.  0.
         11    1    3    3    0    0  0.14625034604E+02 -0.46058419773E+02  0.73379600485E+01  0.48878577384E+02  0.51100000000E-03 0. -1.
         22    1    1    0    0    0 -0.18198566744E+02  0.66448676331E+01 -0.25953049997E+02  0.32386770471E+02  0.00000000000E+00 0.  1.
</event>
<event>
 5    1  0.8957809E-005  0.9118800E+02  0.7818608E-02  0.1130116E+00
         25   -1    0    0    0    0  0.00000000000E+00  0.00000000000E+00  0.99999998245E-14  0.12500000000E+03  0.12500000000E+03 0.  0.
        -11    1    3    3    0    0 -0.17471844844E+02 -0.24751468161E+02  0.18049465130E+02  0.35265900388E+02  0.51100000000E-03 0. -1.
         23    2    1    0    0    0 -0.40493195673E+01  0.20402383467E+02 -0.20244758841E+02  0.95974071925E+02  0.91479604182E+02 0.  0.
         11    1    3    3    0    0  0.13422525277E+02  0.45153851628E+02 -0.38294223971E+02  0.60708171538E+02  0.51100000000E-03 0.  1.
         22    1    1    0    0    0  0.40493195673E+01 -0.20402383467E+02  0.20244758841E+02  0.29025928075E+02  0.00000000000E+00 0.  1.
</event>
<event>
 5    1  0.8957809E-005  0.9118800E+02  0.7818608E-02  0.1130116E+00
         25   -1    0    0    0    0  0.00000000000E+00  0.00000000000E+00  0.99999998245E-14  0.12500000000E+03  0.12500000000E+03 0.  0.
        -11    1    3    3    0    0 -0.29562950521E+02 -0.24448516354E+02  0.13157034522E+02  0.40556202400E+02  0.51100000000E-03 0.  1.
         23    2    1    0    0    0 -0.14519263122E+02  0.26506134037E+02  0.32172759586E+01  0.94606990808E+02  0.89592118525E+02 0.  0.
         11    1    3    3    0    0  0.15043687399E+02  0.50954650390E+02 -0.99397585638E+01  0.54050788408E+02  0.51100000000E-03 0. -1.
         22    1    1    0    0    0  0.14519263122E+02 -0.26506134037E+02 -0.32172759586E+01  0.30393009192E+02  0.00000000000E+00 0.  1.
</event>
<event>
 5    1  0.8957809E-005  0.9118800E+02  0.7818608E-02  0.1130116E+00
         25   -1    0    0    0    0  0.00000000000E+00  0.00000000000E+00  0.99999998245E-14  0.12500000000E+03  0.12500000000E+03 0.  0.
        -11    1    3    3    0    0  0.18738921965E+02  0.41320615595E+02  0.34203721439E+01  0.45499883685E+02  0.51100000000E-03 0. -1.
         23    2    1    0    0    0  0.20811765148E+02 -0.69886249436E+01  0.18648538974E+02  0.96194818990E+02  0.91780742792E+02 0.  0.
         11    1    3    3    0    0  0.20728431830E+01 -0.48309240538E+02  0.15228166830E+02  0.50694935304E+02  0.51100000000E-03 0.  1.
         22    1    1    0    0    0 -0.20811765148E+02  0.69886249436E+01 -0.18648538974E+02  0.28805181010E+02  0.00000000000E+00 0. -1.
</event>
<event>
 5    1  0.8957809E-005  0.9118800E+02  0.7818608E-02  0.1130116E+00
         25   -1    0    0    0    0  0.00000000000E+00  0.00000000000E+00  0.99999998245E-14  0.12500000000E+03  0.12500000000E+03 0.  0.
        -11    1    3    3    0    0 -0.24759907120E+02  0.26141548801E+02  0.10970515414E+02  0.37640214970E+02  0.51100000000E-03 0.  1.
         23    2    1    0    0    0  0.15126473352E+02 -0.14049271267E+02  0.21454400883E+02  0.95226126613E+02  0.90451819513E+02 0.  0.
         11    1    3    3    0    0  0.39886380472E+02 -0.40190820069E+02  0.10483885470E+02  0.57585911643E+02  0.51100000000E-03 0. -1.
         22    1    1    0    0    0 -0.15126473352E+02  0.14049271267E+02 -0.21454400883E+02  0.29773873387E+02  0.00000000000E+00 0. -1.
</event>
<event>
 5    1  0.8957809E-005  0.9118800E+02  0.7818608E-02  0.1130116E+00
         25   -1    0    0    0    0  0.00000000000E+00  0.00000000000E+00  0.99999998245E-14  0.12500000000E+03  0.12500000000E+03 0.  0.
        -11    1    3    3    0    0 -0.38378681742E+02 -0.37549387620E+02  0.29847366630E+02  0.61430814889E+02  0.51100000000E-03 0.  1.
         23    2    1    0    0    0 -0.11869780686E+02 -0.15460734650E+02  0.19438650321E+02  0.97472066264E+02  0.93504099194E+02 0.  0.
         11    1    3    3    0    0  0.26508901056E+02  0.22088652971E+02 -0.10408716309E+02  0.36041251375E+02  0.51100000000E-03 0. -1.
         22    1    1    0    0    0  0.11869780686E+02  0.15460734650E+02 -0.19438650321E+02  0.27527933736E+02  0.00000000000E+00 0.  1.
</event>
<event>
 5    1  0.8957809E-005  0.9118800E+02  0.7818608E-02  0.1130116E+00
         25   -1    0    0    0    0  0.00000000000E+00  0.00000000000E+00  0.99999998245E-14  0.12500000000E+03  0.12500000000E+03 0.  0.
        -11    1    3    3    0    0  0.30261852432E+02 -0.29579060144E+01 -0.23471275184E+02  0.38411322285E+02  0.51100000000E-03 0.  1.
         23    2    1    0    0    0 -0.10183241763E+02 -0.25865821521E+02  0.97464404977E+01  0.95542704840E+02  0.90888262224E+02 0.  0.
         11    1    3    3    0    0 -0.40445094195E+02 -0.22907915506E+02  0.33217715682E+02  0.57131382556E+02  0.51100000000E-03 0. -1.
         22    1    1    0    0    0  0.10183241763E+02  0.25865821521E+02 -0.97464404977E+01  0.29457295160E+02  0.00000000000E+00 0. -1.
</event>
<event>
 5    1  0.8957809E-005  0.9118800E+02  0.7818608E-02  0.1130116E+00
         25   -1    0    0    0    0  0.00000000000E+00  0.00000000000E+00  0.99999998245E-14  0.12500000000E+03  0.12500000000E+03 0.  0.
        -11    1    3    3    0    0  0.66670003537E+01  0.33420892563E+02 -0.34240334438E+02  0.48309475842E+02  0.51100000000E-03 0.  1.
         23    2    1    0    0    0  0.11178960059E+02  0.23776215607E+02  0.12255572873E+02  0.96009024800E+02  0.91527352196E+02 0.  0.
         11    1    3    3    0    0  0.45119597050E+01 -0.96446769557E+01  0.46495907310E+02  0.47699548958E+02  0.51100000000E-03 0. -1.
         22    1    1    0    0    0 -0.11178960059E+02 -0.23776215607E+02 -0.12255572873E+02  0.28990975200E+02  0.00000000000E+00 0.  1.
</event>
<event>
 5    1  0.8957809E-005  0.9118800E+02  0.7818608E-02  0.1130116E+00
         25   -1    0    0    0    0  0.00000000000E+00  0.00000000000E+00  0.99999998245E-14  0.12500000000E+03  0.12500000000E+03 0.  0.
        -11    1    3    3    0    0 -0.39981388833E+01  0.39402371440E+01  0.38941355185E+02  0.39343865178E+02  0.51100000000E-03 0. -1.
         23    2    1    0    0    0 -0.27278396257E+02  0.12545113348E+01 -0.11812931138E+02  0.95247184283E+02  0.90480915505E+02 0.  0.
         11    1    3    3    0    0 -0.23280257374E+02 -0.26857258092E+01 -0.50754286322E+02  0.55903319104E+02  0.51100000000E-03 0.  1.
         22    1    1    0    0    0  0.27278396257E+02 -0.12545113348E+01  0.11812931138E+02  0.29752815717E+02  0.00000000000E+00 0.  1.
</event>
<event>
 5    1  0.8957809E-005  0.9118800E+02  0.7818608E-02  0.1130116E+00
         25   -1    0    0    0    0  0.00000000000E+00  0.00000000000E+00  0.99999998245E-14  0.12500000000E+03  0.12500000000E+03 0.  0.
        -11    1    3    3    0    0  0.45237227807E+01 -0.49661021405E+02  0.10006011356E+02  0.50860607334E+02  0.51100000000E-03 0. -1.
         23    2    1    0    0    0 -0.21725339501E+02 -0.14708125300E+02  0.14871629702E+02  0.94842336028E+02  0.89919875484E+02 0.  0.
         11    1    3    3    0    0 -0.26249062281E+02  0.34952896105E+02  0.48656183461E+01  0.43981728695E+02  0.51100000000E-03 0.  1.
         22    1    1    0    0    0  0.21725339501E+02  0.14708125300E+02 -0.14871629702E+02  0.30157663972E+02  0.00000000000E+00 0. -1.
</event>
<event>
 5    1  0.8957809E-005  0.9118800E+02  0.7818608E-02  0.1130116E+00
         25   -1    0    0    0    0  0.00000000000E+00  0.00000000000E+00  0.99999998245E-14  0.12500000000E+03  0.12500000000E+03 0.  0.
        -11    1    3    3    0    0  0.45482668516E+01  0.50980401505E+02  0.12451962333E+02  0.52675795535E+02  0.51100000000E-03 0.  1.
         23    2    1    0    0    0 -0.14695634716E+02  0.13517066426E+02  0.21398951493E+02  0.95732477223E+02  0.91148885379E+02 0.  0.
         11    1    3    3    0    0 -0.19243901567E+02 -0.37463335079E+02  0.89469891598E+01  0.43056681689E+02  0.51100000000E-03 0. -1.
         22    1    1    0    0    0  0.14695634716E+02 -0.13517066426E+02 -0.21398951493E+02  0.29267522777E+02  0.00000000000E+00 0. -1.
</event>
<event>
 5    1  0.8957809E-005  0.9118800E+02  0.7818608E-02  0.1130116E+00
         25   -1    0    0    0    0  0.00000000000E+00  0.00000000000E+00  0.99999998245E-14  0.12500000000E+03  0.12500000000E+03 0.  0.
        -11    1    3    3    0    0 -0.46523178089E+02 -0.11267933458E+02 -0.39097748160E+02  0.61806199813E+02  0.51100000000E-03 0. -1.
         23    2    1    0    0    0 -0.23591395652E+02  0.10352245130E+01 -0.17994232261E+02  0.95311314727E+02  0.90569468816E+02 0.  0.
         11    1    3    3    0    0  0.22931782437E+02  0.12303157971E+02  0.21103515899E+02  0.33505114914E+02  0.51100000000E-03 0.  1.
         22    1    1    0    0    0  0.23591395652E+02 -0.10352245130E+01  0.17994232261E+02  0.29688685273E+02  0.00000000000E+00 0. -1.
</event>
<event>
 5    1  0.8957809E-005  0.9118800E+02  0.7818608E-02  0.1130116E+00
         25   -1    0    0    0    0  0.00000000000E+00  0.00000000000E+00  0.99999998245E-14  0.12500000000E+03  0.12500000000E+03 0.  0.
        -11    1    3    3    0    0 -0.11107911239E+02  0.17692666456E+02  0.53350125809E+02  0.57294433085E+02  0.51100000000E-03 0. -1.
         23    2    1    0    0    0  0.74576195315E+01  0.17729332564E+02  0.12789744034E+02  0.10190188591E+03  0.99249541443E+02 0.  0.
         11    1    3    3    0    0  0.18565530770E+02  0.36666107873E-01 -0.40560381776E+02  0.44607452822E+02  0.51100000000E-03 0.  1.
         22    1    1    0    0    0 -0.74576195315E+01 -0.17729332564E+02 -0.12789744034E+02  0.23098114093E+02  0.00000000000E+00 0. -1.
</event>
<event>
 5    1  0.8957809E-005  0.9118800E+02  0.7818608E-02  0.1130116E+00
         25   -1    0    0    0    0  0.00000000000E+00  0.00000000000E+00  0.99999998245E-14  0.12500000000E+03  0.12500000000E+03 0.  0.
        -11    1    3    3    0    0 -0.11034779630E+01 -0.16640966301E+02  0.32835419836E+02  0.36828035776E+02  0.51100000000E-03 0.  1.
         23    2    1    0    0    0  0.12729205488E+02  0.24599725453E+02 -0.76636940340E+01  0.96261326214E+02  0.91871277087E+02 0.  0.
         11    1    3    3    0    0  0.13832683451E+02  0.41240691754E+02 -0.40499113870E+02  0.59433290438E+02  0.51100000000E-03 0. -1.
         22    1    1    0    0    0 -0.12729205488E+02 -0.24599725453E+02  0.76636940340E+01  0.28738673786E+02  0.00000000000E+00 0. -1.
</event>
<event>
 5    1  0.8957809E-005  0.9118800E+02  0.7818608E-02  0.1130116E+00
         25   -1    0    0    0    0  0.00000000000E+00  0.00000000000E+00  0.99999998245E-14  0.12500000000E+03  0.12500000000E+03 0.  0.
        -11    1    3    3    0    0 -0.21321800635E+02  0.86345410510E+01 -0.33662027757E+02  0.40771394316E+02  0.51100000000E-03 0.  1.
         23    2    1    0    0    0  0.23924221943E+02  0.16625528710E+02 -0.36798848074E+01  0.95634745827E+02  0.91014759554E+02 0.  0.
         11    1    3    3    0    0  0.45246022578E+02  0.79909876585E+01  0.29982142950E+02  0.54863351511E+02  0.51100000000E-03 0. -1.
         22    1    1    0    0    0 -0.23924221943E+02 -0.16625528710E+02  0.36798848074E+01  0.29365254173E+02  0.00000000000E+00 0. -1.
</event>
<event>
 5    1  0.8957809E-005  0.9118800E+02  0.7818608E-02  0.1130116E+00
         25   -1    0    0    0    0  0.00000000000E+00  0.00000000000E+00  0.99999998245E-14  0.12500000000E+03  0.12500000000E+03 0.  0.
        -11    1    3    3    0    0 -0.33846013990E+02  0.15547525435E+02  0.30734954647E+02  0.48289912483E+02  0.51100000000E-03 0.  1.
         23    2    1    0    0    0 -0.22571333560E+02 -0.19314321131E+02  0.13415054278E+01  0.95262687811E+02  0.90502331201E+02 0.  0.
         11    1    3    3    0    0  0.11274680430E+02 -0.34861846566E+02 -0.29393449219E+02  0.46972775328E+02  0.51100000000E-03 0. -1.
         22    1    1    0    0    0  0.22571333560E+02  0.19314321131E+02 -0.13415054278E+01  0.29737312189E+02  0.00000000000E+00 0. -1.
</event>
<event>
 5    1  0.8957809E-005  0.9118800E+02  0.7818608E-02  0.1130116E+00
         25   -1    0    0    0    0  0.00000000000E+00  0.00000000000E+00  0.99999998245E-14  0.12500000000E+03  0.12500000000E+03 0.  0.
        -11    1    3    3    0    0  0.51977319423E+02  0.78337878062E+01 -0.20871137527E+02  0.56556293617E+02  0.51100000000E-03 0.  1.
         23    2    1    0    0    0  0.19136230756E+02 -0.14760122855E+02 -0.14189817687E+02  0.96974877695E+02  0.92837058462E+02 0.  0.
         11    1    3    3    0    0 -0.32841088667E+02 -0.22593910661E+02  0.66813198402E+01  0.40418584078E+02  0.51100000000E-03 0. -1.
         22    1    1    0    0    0 -0.19136230756E+02  0.14760122855E+02  0.14189817687E+02  0.28025122305E+02  0.00000000000E+00 0.  1.
</event>
<event>
 5    1  0.8957809E-005  0.9118800E+02  0.7818608E-02  0.1130116E+00
         25   -1    0    0    0    0  0.00000000000E+00  0.00000000000E+00  0.99999998245E-14  0.12500000000E+03  0.12500000000E+03 0.  0.
        -11    1    3    3    0    0 -0.48676573492E+02 -0.34750199774E+02 -0.15195278233E+02  0.61708035718E+02  0.51100000000E-03 0.  1.
         23    2    1    0    0    0 -0.23550945197E+02 -0.12702597956E+02 -0.13116110270E+02  0.95200077801E+02  0.90415814160E+02 0.  0.
         11    1    3    3    0    0  0.25125628296E+02  0.22047601819E+02  0.20791679632E+01  0.33492042083E+02  0.51100000000E-03 0. -1.
         22    1    1    0    0    0  0.23550945197E+02  0.12702597956E+02  0.13116110270E+02  0.29799922199E+02  0.00000000000E+00 0.  1.
</event>
<event>
 5    1  0.8957809E-005  0.9118800E+02  0.7818608E-02  0.1130116E+00
         25   -1    0    0    0    0  0.00000000000E+00  0.00000000000E+00  0.99999998245E-14  0.12500000000E+03  0.12500000000E+03 0.  0.
        -11    1    3    3    0    0 -0.29902112736E+02 -0.36968137130E+02  0.23861024646E+02  0.53198947418E+02  0.51100000000E-03 0. -1.
         23    2    1    0    0    0 -0.16099865836E+02  0.31471832521E+01  0.24367218145E+02  0.95625321066E+02  0.91001814633E+02 0.  0.
         11    1    3    3    0    0  0.13802246899E+02  0.40115320382E+02  0.50619349844E+00  0.42426373648E+02  0.51100000000E-03 0.  1.
         22    1    1    0    0    0  0.16099865836E+02 -0.31471832521E+01 -0.24367218145E+02  0.29374678934E+02  0.00000000000E+00 0. -1.
</event>
<event>
 5    1  0.8957809E-005  0.9118800E+02  0.7818608E-02  0.1130116E+00
         25   -1    0    0    0    0  0.00000000000E+00  0.00000000000E+00  0.99999998245E-14  0.12500000000E+03  0.12500000000E+03 0.  0.
        -11    1    3    3    0    0  0.35161847136E+02 -0.12598205904E+01  0.86306166843E+01  0.36227478335E+02  0.51100000000E-03 0.  1.
         23    2    1    0    0    0 -0.22821759601E+02  0.10941715936E+02  0.14601201334E+02  0.95781017483E+02  0.91215428360E+02 0.  0.
         11    1    3    3    0    0 -0.57983606736E+02  0.12201536526E+02  0.59705846499E+01  0.59553539148E+02  0.51100000000E-03 0. -1.
         22    1    1    0    0    0  0.22821759601E+02 -0.10941715936E+02 -0.14601201334E+02  0.29218982517E+02  0.00000000000E+00 0. -1.
</event>
<event>
 5    1  0.8957809E-005  0.9118800E+02  0.7818608E-02  0.1130116E+00
         25   -1    0    0    0    0  0.00000000000E+00  0.00000000000E+00  0.99999998245E-14  0.12500000000E+03  0.12500000000E+03 0.  0.
        -11    1    3    3    0    0 -0.38438268583E+02 -0.19391473175E+02 -0.29141253182E+01  0.43151151203E+02  0.51100000000E-03 0. -1.
         23    2    1    0    0    0  0.69944376880E+01  0.10363300514E+02  0.19444579656E+02  0.10188265080E+03  0.99225312797E+02 0.  0.
         11    1    3    3    0    0  0.45432706271E+02  0.29754773689E+02  0.22358704974E+02  0.58731499595E+02  0.51100000000E-03 0.  1.
         22    1    1    0    0    0 -0.69944376880E+01 -0.10363300514E+02 -0.19444579656E+02  0.23117349201E+02  0.00000000000E+00 0.  1.
</event>
<event>
 5    1  0.8957809E-005  0.9118800E+02  0.7818608E-02  0.1130116E+00
         25   -1    0    0    0    0  0.00000000000E+00  0.00000000000E+00  0.99999998245E-14  0.12500000000E+03  0.12500000000E+03 0.  0.
        -11    1    3    3    0    0 -0.87327219029E+01  0.10224970564E+02  0.45556960670E+02  0.47499969691E+02  0.51100000000E-03 0.  1.
         23    2    1    0    0    0 -0.21868827952E+02 -0.17218446300E+02  0.75974209078E+01  0.96147940569E+02  0.91716874904E+02 0.  0.
         11    1    3    3    0    0 -0.13136106049E+02 -0.27443416864E+02 -0.37959539762E+02  0.48647970878E+02  0.51100000000E-03 0. -1.
         22    1    1    0    0    0  0.21868827952E+02  0.17218446300E+02 -0.75974209078E+01  0.28852059431E+02  0.00000000000E+00 0. -1.
</event>
<event>
 5    1  0.8957809E-005  0.9118800E+02  0.7818608E-02  0.1130116E+00
         25   -1    0    0    0    0  0.00000000000E+00  0.00000000000E+00  0.99999998245E-14  0.12500000000E+03  0.12500000000E+03 0.  0.
        -11    1    3    3    0    0  0.13470159427E+02  0.45655462051E+02  0.26712381866E+02  0.54584043047E+02  0.51100000000E-03 0.  1.
         23    2    1    0    0    0  0.87666204755E+01  0.26013592713E+02 -0.94195463109E+01  0.95977793104E+02  0.91484688752E+02 0.  0.
         11    1    3    3    0    0 -0.47035389515E+01 -0.19641869337E+02 -0.36131928177E+02  0.41393750057E+02  0.51100000000E-03 0. -1.
         22    1    1    0    0    0 -0.87666204755E+01 -0.26013592713E+02  0.94195463109E+01  0.29022206896E+02  0.00000000000E+00 0.  1.
</event>
<event>
 5    1  0.8957809E-005  0.9118800E+02  0.7818608E-02  0.1130116E+00
         25   -1    0    0    0    0  0.00000000000E+00  0.00000000000E+00  0.99999998245E-14  0.12500000000E+03  0.12500000000E+03 0.  0.
        -11    1    3    3    0    0 -0.40438899544E+02 -0.41353536047E+02 -0.21548466537E+02  0.61723220511E+02  0.51100000000E-03 0.  1.
         23    2    1    0    0    0 -0.11847527943E+02 -0.21093779913E+02 -0.11721584206E+02  0.98116789520E+02  0.94362054768E+02 0.  0.
         11    1    3    3    0    0  0.28591371601E+02  0.20259756133E+02  0.98268823306E+01  0.36393569009E+02  0.51100000000E-03 0. -1.
         22    1    1    0    0    0  0.11847527943E+02  0.21093779913E+02  0.11721584206E+02  0.26883210480E+02  0.00000000000E+00 0.  1.
</event>
<event>
 5    1  0.8957809E-005  0.9118800E+02  0.7818608E-02  0.1130116E+00
         25   -1    0    0    0    0  0.00000000000E+00  0.00000000000E+00  0.99999998245E-14  0.12500000000E+03  0.12500000000E+03 0.  0.
        -11    1    3    3    0    0 -0.40398628714E+02 -0.24079325840E+02 -0.24689765236E+02  0.53117300784E+02  0.51100000000E-03 0.  1.
         23    2    1    0    0    0  0.10511378058E+01 -0.10343936306E+02 -0.26202790374E+02  0.96809786585E+02  0.92614505593E+02 0.  0.
         11    1    3    3    0    0  0.41449766520E+02  0.13735389534E+02 -0.15130251380E+01  0.43692485801E+02  0.51100000000E-03 0. -1.
         22    1    1    0    0    0 -0.10511378058E+01  0.10343936306E+02  0.26202790374E+02  0.28190213415E+02  0.00000000000E+00 0. -1.
</event>
<event>
 5    1  0.8957809E-005  0.9118800E+02  0.7818608E-02  0.1130116E+00
         25   -1    0    0    0    0  0.00000000000E+00  0.00000000000E+00  0.99999998245E-14  0.12500000000E+03  0.12500000000E+03 0.  0.
        -11    1    3    3    0    0 -0.99864233536E+01  0.47977637447E+02  0.21508073891E+02  0.53518030505E+02  0.51100000000E-03 0.  1.
         23    2    1    0    0    0 -0.22805743952E+02  0.85232456188E+01 -0.83948081978E+00  0.10063912150E+03  0.97646200007E+02 0.  0.
         11    1    3    3    0    0 -0.12819320598E+02 -0.39454391828E+02 -0.22347554710E+02  0.47121090999E+02  0.51100000000E-03 0. -1.
         22    1    1    0    0    0  0.22805743952E+02 -0.85232456188E+01  0.83948081978E+00  0.24360878496E+02  0.00000000000E+00 0.  1.
</event>
<event>
 5    1  0.8957809E-005  0.9118800E+02  0.7818608E-02  0.1130116E+00
         25   -1    0    0    0    0  0.00000000000E+00  0.00000000000E+00  0.99999998245E-14  0.12500000000E+03  0.12500000000E+03 0.  0.
        -11    1    3    3    0    0 -0.20480406843E+02 -0.15989956407E+02  0.43080267994E+02  0.50309395355E+02  0.51100000000E-03 0.  1.
         23    2    1    0    0    0  0.10225450965E+02 -0.18656037171E+02 -0.53838454896E+00  0.10371861310E+03  0.10151183811E+03 0.  0.
         11    1    3    3    0    0  0.30705857808E+02 -0.26660807647E+01 -0.43618652543E+02  0.53409217747E+02  0.51100000000E-03 0. -1.
         22    1    1    0    0    0 -0.10225450965E+02  0.18656037171E+02  0.53838454896E+00  0.21281386898E+02  0.00000000000E+00 0. -1.
</event>
<event>
 5    1  0.8957809E-005  0.9118800E+02  0.7818608E-02  0.1130116E+00
         25   -1    0    0    0    0  0.00000000000E+00  0.00000000000E+00  0.99999998245E-14  0.12500000000E+03  0.12500000000E+03 0.  0.
        -11    1    3    3    0    0 -0.46935657828E+01  0.12008962899E+02 -0.36615240723E+02  0.38819075249E+02  0.51100000000E-03 0.  1.
         23    2    1    0    0    0 -0.29616045220E+02 -0.16220270262E+02 -0.15751111585E+00  0.91232676866E+02  0.84753579373E+02 0.  0.
         11    1    3    3    0    0 -0.24922479437E+02 -0.28229233161E+02  0.36457729607E+02  0.52413601618E+02  0.51100000000E-03 0. -1.
         22    1    1    0    0    0  0.29616045220E+02  0.16220270262E+02  0.15751111585E+00  0.33767323134E+02  0.00000000000E+00 0. -1.
</event>
<event>
 5    1  0.8957809E-005  0.9118800E+02  0.7818608E-02  0.1130116E+00
         25   -1    0    0    0    0  0.00000000000E+00  0.00000000000E+00  0.99999998245E-14  0.12500000000E+03  0.12500000000E+03 0.  0.
        -11    1    3    3    0    0  0.10020471624E+02 -0.18380290061E+02  0.54869118005E+02  0.58727038280E+02  0.51100000000E-03 0. -1.
         23    2    1    0    0    0  0.10280710660E+02 -0.21205296915E+02  0.18944757710E+02  0.94763243004E+02  0.89809858874E+02 0.  0.
         11    1    3    3    0    0  0.26023903627E+00 -0.28250068534E+01 -0.35924360294E+02  0.36036204724E+02  0.51100000000E-03 0.  1.
         22    1    1    0    0    0 -0.10280710660E+02  0.21205296915E+02 -0.18944757710E+02  0.30236756996E+02  0.00000000000E+00 0. -1.
</event>
<event>
 5    1  0.8957809E-005  0.9118800E+02  0.7818608E-02  0.1130116E+00
         25   -1    0    0    0    0  0.00000000000E+00  0.00000000000E+00  0.99999998245E-14  0.12500000000E+03  0.12500000000E+03 0.  0.
        -11    1    3    3    0    0  0.54202671908E+02 -0.13520265407E+02 -0.26000593107E+02  0.61617838820E+02  0.51100000000E-03 0. -1.
         23    2    1    0    0    0  0.22521850424E+02 -0.12938300544E+02 -0.13942006648E+02  0.95520974967E+02  0.90858371886E+02 0.  0.
         11    1    3    3    0    0 -0.31680821484E+02  0.58196486373E+00  0.12058586459E+02  0.33903136147E+02  0.51100000000E-03 0.  1.
         22    1    1    0    0    0 -0.22521850424E+02  0.12938300544E+02  0.13942006648E+02  0.29479025033E+02  0.00000000000E+00 0. -1.
</event>
<event>
 5    1  0.8957809E-005  0.9118800E+02  0.7818608E-02  0.1130116E+00
         25   -1    0    0    0    0  0.00000000000E+00  0.00000000000E+00  0.99999998245E-14  0.12500000000E+03  0.12500000000E+03 0.  0.
        -11    1    3    3    0    0  0.11730936521E+02 -0.37747586883E+02  0.15215367785E+02  0.42355667912E+02  0.51100000000E-03 0.  1.
         23    2    1    0    0    0  0.25053584775E+02  0.13374063603E+02  0.49968706612E+01  0.96163973857E+02  0.91738723908E+02 0.  0.
         11    1    3    3    0    0  0.13322648253E+02  0.51121650486E+02 -0.10218497124E+02  0.53808305945E+02  0.51100000000E-03 0. -1.
         22    1    1    0    0    0 -0.25053584775E+02 -0.13374063603E+02 -0.49968706612E+01  0.28836026143E+02  0.00000000000E+00 0. -1.
</event>
<event>
 5    1  0.8957809E-005  0.9118800E+02  0.7818608E-02  0.1130116E+00
         25   -1    0    0    0    0  0.00000000000E+00  0.00000000000E+00  0.99999998245E-14  0.12500000000E+03  0.12500000000E+03 0.  0.
        -11    1    3    3    0    0  0.25364630351E+02  0.22040944227E+02 -0.83125265900E+01  0.34615975992E+02  0.51100000000E-03 0. -1.
         23    2    1    0    0    0 -0.30209028960E+02  0.12435276146E+01  0.13500052984E+01  0.94735262995E+02  0.89770907029E+02 0.  0.
         11    1    3    3    0    0 -0.55573659312E+02 -0.20797416612E+02  0.96625318884E+01  0.60119287004E+02  0.51100000000E-03 0.  1.
         22    1    1    0    0    0  0.30209028960E+02 -0.12435276146E+01 -0.13500052984E+01  0.30264737005E+02  0.00000000000E+00 0.  1.
</event>
<event>
 5    1  0.8957809E-005  0.9118800E+02  0.7818608E-02  0.1130116E+00
         25   -1    0    0    0    0  0.00000000000E+00  0.00000000000E+00  0.99999998245E-14  0.12500000000E+03  0.12500000000E+03 0.  0.
        -11    1    3    3    0    0 -0.25008337303E+02 -0.51931069044E+02 -0.19415106097E+02  0.60821042508E+02  0.51100000000E-03 0.  1.
         23    2    1    0    0    0 -0.59851026336E+01 -0.28270662852E+02 -0.15185188288E+01  0.96062865880E+02  0.91600854091E+02 0.  0.
         11    1    3    3    0    0  0.19023234669E+02  0.23660406193E+02  0.17896587268E+02  0.35241823372E+02  0.51100000000E-03 0. -1.
         22    1    1    0    0    0  0.59851026336E+01  0.28270662852E+02  0.15185188288E+01  0.28937134120E+02  0.00000000000E+00 0.  1.
</event>
<event>
 5    1  0.8957809E-005  0.9118800E+02  0.7818608E-02  0.1130116E+00
         25   -1    0    0    0    0  0.00000000000E+00  0.00000000000E+00  0.99999998245E-14  0.12500000000E+03  0.12500000000E+03 0.  0.
        -11    1    3    3    0    0 -0.36027350157E+02 -0.28530057802E+02 -0.40587298320E+02  0.61312828533E+02  0.51100000000E-03 0. -1.
         23    2    1    0    0    0 -0.24253852168E+02 -0.12290045534E+02 -0.14609186920E+02  0.94133790212E+02  0.88929452674E+02 0.  0.
         11    1    3    3    0    0  0.11773497989E+02  0.16240012269E+02  0.25978111399E+02  0.32820961679E+02  0.51100000000E-03 0.  1.
         22    1    1    0    0    0  0.24253852168E+02  0.12290045534E+02  0.14609186920E+02  0.30866209788E+02  0.00000000000E+00 0. -1.
</event>
<event>
 5    1  0.8957809E-005  0.9118800E+02  0.7818608E-02  0.1130116E+00
         25   -1    0    0    0    0  0.00000000000E+00  0.00000000000E+00  0.99999998245E-14  0.12500000000E+03  0.12500000000E+03 0.  0.
        -11    1    3    3    0    0  0.23395782286E+02  0.21898455223E+02  0.46904869645E+01  0.32386812719E+02  0.51100000000E-03 0.  1.
         23    2    1    0    0    0 -0.13804483372E+02 -0.25748691676E+02 -0.91206054522E+01  0.94393720775E+02  0.89294065837E+02 0.  0.
         11    1    3    3    0    0 -0.37200265658E+02 -0.47647146899E+02 -0.13811092417E+02  0.62006908055E+02  0.51100000000E-03 0. -1.
         22    1    1    0    0    0  0.13804483372E+02  0.25748691676E+02  0.91206054522E+01  0.30606279225E+02  0.00000000000E+00 0. -1.
</event>
<event>
 5    1  0.8957809E-005  0.9118800E+02  0.7818608E-02  0.1130116E+00
         25   -1    0    0    0    0  0.00000000000E+00  0.00000000000E+00  0.99999998245E-14  0.12500000000E+03  0.12500000000E+03 0.  0.
        -11    1    3    3    0    0 -0.28143312839E+02 -0.93000606389E+01 -0.25890534369E+02  0.39355520015E+02  0.51100000000E-03 0.  1.
         23    2    1    0    0    0  0.23922585864E+01  0.30709531532E+02 -0.52547656576E+01  0.93752427451E+02  0.88391780516E+02 0.  0.
         11    1    3    3    0    0  0.30535571426E+02  0.40009592171E+02  0.20635768712E+02  0.54396907436E+02  0.51100000000E-03 0. -1.
         22    1    1    0    0    0 -0.23922585864E+01 -0.30709531532E+02  0.52547656576E+01  0.31247572549E+02  0.00000000000E+00 0. -1.
</event>
<event>
 5    1  0.8957809E-005  0.9118800E+02  0.7818608E-02  0.1130116E+00
         25   -1    0    0    0    0  0.00000000000E+00  0.00000000000E+00  0.99999998245E-14  0.12500000000E+03  0.12500000000E+03 0.  0.
        -11    1    3    3    0    0 -0.46485568544E+01 -0.33449492758E+02 -0.15815407798E+02  0.37290813489E+02  0.51100000000E-03 0.  1.
         23    2    1    0    0    0 -0.36072613075E+01  0.10914751747E+02  0.24937275552E+02  0.97540723757E+02  0.93595838258E+02 0.  0.
         11    1    3    3    0    0  0.10412955469E+01  0.44364244505E+02  0.40752683349E+02  0.60249910268E+02  0.51100000000E-03 0. -1.
         22    1    1    0    0    0  0.36072613075E+01 -0.10914751747E+02 -0.24937275552E+02  0.27459276243E+02  0.00000000000E+00 0. -1.
</event>
<event>
 5    1  0.8957809E-005  0.9118800E+02  0.7818608E-02  0.1130116E+00
         25   -1    0    0    0    0  0.00000000000E+00  0.00000000000E+00  0.99999998245E-14  0.12500000000E+03  0.12500000000E+03 0.  0.
        -11    1    3    3    0    0 -0.32801937580E+02  0.18087171531E+02 -0.20983212972E+02  0.42934928787E+02  0.51100000000E-03 0.  1.
         23    2    1    0    0    0 -0.26970406641E+02 -0.20862373785E+02  0.55931411487E+01  0.90446784487E+02  0.83586458962E+02 0.  0.
         11    1    3    3    0    0  0.58315309390E+01 -0.38949545317E+02  0.26576354121E+02  0.47511855700E+02  0.51100000000E-03 0. -1.
         22    1    1    0    0    0  0.26970406641E+02  0.20862373785E+02 -0.55931411487E+01  0.34553215513E+02  0.00000000000E+00 0. -1.
</event>
<event>
 5    1  0.8957809E-005  0.9118800E+02  0.7818608E-02  0.1130116E+00
         25   -1    0    0    0    0  0.00000000000E+00  0.00000000000E+00  0.99999998245E-14  0.12500000000E+03  0.12500000000E+03 0.  0.
        -11    1    3    3    0    0 -0.22042106774E+02 -0.53925263554E+02  0.34895287684E+01  0.58360648828E+02  0.51100000000E-03 0. -1.
         23    2    1    0    0    0 -0.81843835583E+01 -0.24849756591E+02 -0.14329340761E+02  0.95170073022E+02  0.90374322988E+02 0.  0.
         11    1    3    3    0    0  0.13857723216E+02  0.29075506963E+02 -0.17818869530E+02  0.36809424194E+02  0.51100000000E-03 0.  1.
         22    1    1    0    0    0  0.81843835583E+01  0.24849756591E+02  0.14329340761E+02  0.29829926978E+02  0.00000000000E+00 0. -1.
</event>
<event>
 5    1  0.8957809E-005  0.9118800E+02  0.7818608E-02  0.1130116E+00
         25   -1    0    0    0    0  0.00000000000E+00  0.00000000000E+00  0.99999998245E-14  0.12500000000E+03  0.12500000000E+03 0.  0.
        -11    1    3    3    0    0  0.28494417318E+02 -0.21440235659E+02 -0.18533190583E+02  0.40188240530E+02  0.51100000000E-03 0. -1.
         23    2    1    0    0    0 -0.24313774945E+02 -0.19920864783E+01 -0.14528860080E+02  0.96606059875E+02  0.92339130214E+02 0.  0.
         11    1    3    3    0    0 -0.52808192263E+02  0.19448149181E+02  0.40043305031E+01  0.56417819345E+02  0.51100000000E-03 0.  1.
         22    1    1    0    0    0  0.24313774945E+02  0.19920864783E+01  0.14528860080E+02  0.28393940125E+02  0.00000000000E+00 0.  1.
</event>
<event>
 5    1  0.8957809E-005  0.9118800E+02  0.7818608E-02  0.1130116E+00
         25   -1    0    0    0    0  0.00000000000E+00  0.00000000000E+00  0.99999998245E-14  0.12500000000E+03  0.12500000000E+03 0.  0.
        -11    1    3    3    0    0 -0.30094370189E+02  0.51037198988E+01 -0.30853884632E+02  0.43401397109E+02  0.51100000000E-03 0. -1.
         23    2    1    0    0    0 -0.20363357846E+02 -0.13930867104E+02  0.16473734352E+02  0.95333194906E+02  0.90599661845E+02 0.  0.
         11    1    3    3    0    0  0.97310123428E+01 -0.19034587002E+02  0.47327618983E+02  0.51931797797E+02  0.51100000000E-03 0.  1.
         22    1    1    0    0    0  0.20363357846E+02  0.13930867104E+02 -0.16473734352E+02  0.29666805094E+02  0.00000000000E+00 0.  1.
</event>
<event>
 5    1  0.8957809E-005  0.9118800E+02  0.7818608E-02  0.1130116E+00
         25   -1    0    0    0    0  0.00000000000E+00  0.00000000000E+00  0.99999998245E-14  0.12500000000E+03  0.12500000000E+03 0.  0.
        -11    1    3    3    0    0 -0.83368690293E+00  0.57351110663E+02 -0.10822113212E+02  0.58369196181E+02  0.51100000000E-03 0. -1.
         23    2    1    0    0    0 -0.17402273082E+01  0.24619174905E+02 -0.20931364867E+02  0.92638692868E+02  0.86802495454E+02 0.  0.
         11    1    3    3    0    0 -0.90654040528E+00 -0.32731935758E+02 -0.10109251654E+02  0.34269496688E+02  0.51100000000E-03 0.  1.
         22    1    1    0    0    0  0.17402273082E+01 -0.24619174905E+02  0.20931364867E+02  0.32361307132E+02  0.00000000000E+00 0. -1.
</event>
<event>
 5    1  0.8957809E-005  0.9118800E+02  0.7818608E-02  0.1130116E+00
         25   -1    0    0    0    0  0.00000000000E+00  0.00000000000E+00  0.99999998245E-14  0.12500000000E+03  0.12500000000E+03 0.  0.
        -11    1    3    3    0    0  0.34596858878E+02 -0.25231910739E+02 -0.24497815702E+02  0.49332899146E+02  0.51100000000E-03 0.  1.
         23    2    1    0    0    0  0.27678137487E+02  0.12535970539E+02 -0.50114435149E+00  0.94611169852E+02  0.89597948988E+02 0.  0.
         11    1    3    3    0    0 -0.69187213903E+01  0.37767881278E+02  0.23996671350E+02  0.45278270705E+02  0.51100000000E-03 0. -1.
         22    1    1    0    0    0 -0.27678137487E+02 -0.12535970539E+02  0.50114435149E+00  0.30388830148E+02  0.00000000000E+00 0. -1.
</event>
<event>
 5    1  0.8957809E-005  0.9118800E+02  0.7818608E-02  0.1130116E+00
         25   -1    0    0    0    0  0.00000000000E+00  0.00000000000E+00  0.99999998245E-14  0.12500000000E+03  0.12500000000E+03 0.  0.
        -11    1    3    3    0    0  0.32254117917E+02 -0.48483159033E+02 -0.15121623248E+02  0.60163180786E+02  0.51100000000E-03 0.  1.
         23    2    1    0    0    0  0.80141595047E+01 -0.27383012528E+02  0.16639228719E+01  0.96419853622E+02  0.92086716770E+02 0.  0.
         11    1    3    3    0    0 -0.24239958412E+02  0.21100146505E+02  0.16785546120E+02  0.36256672836E+02  0.51100000000E-03 0. -1.
         22    1    1    0    0    0 -0.80141595047E+01  0.27383012528E+02 -0.16639228719E+01  0.28580146378E+02  0.00000000000E+00 0.  1.
</event>
<event>
 5    1  0.8957809E-005  0.9118800E+02  0.7818608E-02  0.1130116E+00
         25   -1    0    0    0    0  0.00000000000E+00  0.00000000000E+00  0.99999998245E-14  0.12500000000E+03  0.12500000000E+03 0.  0.
        -11    1    3    3    0    0  0.11789906737E+02 -0.56955623976E+01  0.61059511728E+02  0.62447620488E+02  0.51100000000E-03 0. -1.
         23    2    1    0    0    0  0.73009904265E+01 -0.23287043364E+01  0.28471521368E+02  0.95515175868E+02  0.90850393323E+02 0.  0.
         11    1    3    3    0    0 -0.44889163110E+01  0.33668580612E+01 -0.32587990360E+02  0.33067555380E+02  0.51100000000E-03 0.  1.
         22    1    1    0    0    0 -0.73009904265E+01  0.23287043364E+01 -0.28471521368E+02  0.29484824132E+02  0.00000000000E+00 0. -1.
</event>
<event>
 5    1  0.8957809E-005  0.9118800E+02  0.7818608E-02  0.1130116E+00
         25   -1    0    0    0    0  0.00000000000E+00  0.00000000000E+00  0.99999998245E-14  0.12500000000E+03  0.12500000000E+03 0.  0.
        -11    1    3    3    0    0 -0.46278036516E+02  0.28824248040E+02  0.32746378923E+01  0.54618835509E+02  0.51100000000E-03 0.  1.
         23    2    1    0    0    0 -0.28476706902E+02 -0.60617585922E+01  0.97088386833E+01  0.94309133251E+02  0.89175575763E+02 0.  0.
         11    1    3    3    0    0  0.17801329613E+02 -0.34886006632E+02  0.64342007910E+01  0.39690297742E+02  0.51100000000E-03 0. -1.
         22    1    1    0    0    0  0.28476706902E+02  0.60617585922E+01 -0.97088386833E+01  0.30690866749E+02  0.00000000000E+00 0.  1.
</event>
<event>
 5    1  0.8957809E-005  0.9118800E+02  0.7818608E-02  0.1130116E+00
         25   -1    0    0    0    0  0.00000000000E+00  0.00000000000E+00  0.99999998245E-14  0.12500000000E+03  0.12500000000E+03 0.  0.
        -11    1    3    3    0    0  0.73597128333E+01  0.33067140602E+02 -0.41101328135E+02  0.53262748101E+02  0.51100000000E-03 0. -1.
         23    2    1    0    0    0 -0.14024074884E+02 -0.12355538935E+00 -0.25853550179E+02  0.95587485671E+02  0.90949829125E+02 0.  0.
         11    1    3    3    0    0 -0.21383787717E+02 -0.33190695991E+02  0.15247777956E+02  0.42324737570E+02  0.51100000000E-03 0.  1.
         22    1    1    0    0    0  0.14024074884E+02  0.12355538935E+00  0.25853550179E+02  0.29412514329E+02  0.00000000000E+00 0. -1.
</event>
<event>
 5    1  0.8957809E-005  0.9118800E+02  0.7818608E-02  0.1130116E+00
         25   -1    0    0    0    0  0.00000000000E+00  0.00000000000E+00  0.99999998245E-14  0.12500000000E+03  0.12500000000E+03 0.  0.
        -11    1    3    3    0    0 -0.21122209656E+02 -0.12799457016E+02 -0.33424335272E+02  0.41559114876E+02  0.51100000000E-03 0. -1.
         23    2    1    0    0    0 -0.20720666171E+02  0.13102411128E+02  0.14844694737E+02  0.96340199830E+02  0.91978529873E+02 0.  0.
         11    1    3    3    0    0  0.40154348536E+00  0.25901868144E+02  0.48269030008E+02  0.54781084954E+02  0.51100000000E-03 0.  1.
         22    1    1    0    0    0  0.20720666171E+02 -0.13102411128E+02 -0.14844694737E+02  0.28659800170E+02  0.00000000000E+00 0. -1.
</event>
<event>
 5    1  0.8957809E-005  0.9118800E+02  0.7818608E-02  0.1130116E+00
         25   -1    0    0    0    0  0.00000000000E+00  0.00000000000E+00  0.99999998245E-14  0.12500000000E+03  0.12500000000E+03 0.  0.
        -11    1    3    3    0    0  0.43920565225E+02 -0.40134468467E+02  0.15291799134E+01  0.59515796225E+02  0.51100000000E-03 0. -1.
         23    2    1    0    0    0  0.18448302639E+02 -0.18501212535E+02 -0.12834083557E+02  0.95890749988E+02  0.91365680083E+02 0.  0.
         11    1    3    3    0    0 -0.25472262586E+02  0.21633255932E+02 -0.14363263470E+02  0.36374953763E+02  0.51100000000E-03 0.  1.
         22    1    1    0    0    0 -0.18448302639E+02  0.18501212535E+02  0.12834083557E+02  0.29109250012E+02  0.00000000000E+00 0. -1.
</event>
<event>
 5    1  0.8957809E-005  0.9118800E+02  0.7818608E-02  0.1130116E+00
         25   -1    0    0    0    0  0.00000000000E+00  0.00000000000E+00  0.99999998245E-14  0.12500000000E+03  0.12500000000E+03 0.  0.
        -11    1    3    3    0    0 -0.24078483909E+02  0.32845700527E+02  0.45690087146E+01  0.40981572339E+02  0.51100000000E-03 0.  1.
         23    2    1    0    0    0  0.22080054652E+02  0.96231512633E+01  0.18650841401E+02  0.94537108826E+02  0.89494565235E+02 0.  0.
         11    1    3    3    0    0  0.46158538561E+02 -0.23222549263E+02  0.14081832687E+02  0.53555536488E+02  0.51100000000E-03 0. -1.
         22    1    1    0    0    0 -0.22080054652E+02 -0.96231512633E+01 -0.18650841401E+02  0.30462891174E+02  0.00000000000E+00 0. -1.
</event>
<event>
 5    1  0.8957809E-005  0.9118800E+02  0.7818608E-02  0.1130116E+00
         25   -1    0    0    0    0  0.00000000000E+00  0.00000000000E+00  0.99999998245E-14  0.12500000000E+03  0.12500000000E+03 0.  0.
        -11    1    3    3    0    0  0.19006120002E+02  0.13391669373E+02  0.30028169655E+02  0.37977103355E+02  0.51100000000E-03 0.  1.
         23    2    1    0    0    0  0.12526971431E+02 -0.15751672334E+02 -0.20249297925E+02  0.96450494557E+02  0.92128299883E+02 0.  0.
         11    1    3    3    0    0 -0.64791485717E+01 -0.29143341707E+02 -0.50277467581E+02  0.58473391202E+02  0.51100000000E-03 0. -1.
         22    1    1    0    0    0 -0.12526971431E+02  0.15751672334E+02  0.20249297925E+02  0.28549505443E+02  0.00000000000E+00 0. -1.
</event>
<event>
 5    1  0.8957809E-005  0.9118800E+02  0.7818608E-02  0.1130116E+00
         25   -1    0    0    0    0  0.00000000000E+00  0.00000000000E+00  0.99999998245E-14  0.12500000000E+03  0.12500000000E+03 0.  0.
        -11    1    3    3    0    0  0.23978906029E+02 -0.27556948686E+01  0.54894741706E+02  0.59966777934E+02  0.51100000000E-03 0. -1.
         23    2    1    0    0    0 -0.11801715907E+01 -0.32493071272E+01  0.27958966082E+02  0.96828124199E+02  0.92639252209E+02 0.  0.
         11    1    3    3    0    0 -0.25159077620E+02 -0.49361225854E+00 -0.26935775624E+02  0.36861346265E+02  0.51100000000E-03 0.  1.
         22    1    1    0    0    0  0.11801715907E+01  0.32493071272E+01 -0.27958966082E+02  0.28171875801E+02  0.00000000000E+00 0. -1.
</event>
<event>
 5    1  0.8957809E-005  0.9118800E+02  0.7818608E-02  0.1130116E+00
         25   -1    0    0    0    0  0.00000000000E+00  0.00000000000E+00  0.99999998245E-14  0.12500000000E+03  0.12500000000E+03 0.  0.
        -11    1    3    3    0    0 -0.50537818199E+01 -0.48149245916E+02  0.67845755725E+01  0.48886818867E+02  0.51100000000E-03 0.  1.
         23    2    1    0    0    0 -0.11246208604E+02 -0.78544398935E+01  0.27241752825E+02  0.94499466710E+02  0.89441973801E+02 0.  0.
         11    1    3    3    0    0 -0.61924267844E+01  0.40294806022E+02  0.20457177253E+02  0.45612647843E+02  0.51100000000E-03 0. -1.
         22    1    1    0    0    0  0.11246208604E+02  0.78544398935E+01 -0.27241752825E+02  0.30500533290E+02  0.00000000000E+00 0.  1.
</event>
<event>
 5    1  0.8957809E-005  0.9118800E+02  0.7818608E-02  0.1130116E+00
         25   -1    0    0    0    0  0.00000000000E+00  0.00000000000E+00  0.99999998245E-14  0.12500000000E+03  0.12500000000E+03 0.  0.
        -11    1    3    3    0    0 -0.28852020447E+02 -0.26320800274E+02  0.95909673922E+01  0.40214552922E+02  0.51100000000E-03 0.  1.
         23    2    1    0    0    0  0.18346651025E+02 -0.79626202554E+00  0.23044118403E+02  0.95533662766E+02  0.90875825671E+02 0.  0.
         11    1    3    3    0    0  0.47198671471E+02  0.25524538249E+02  0.13453151011E+02  0.55319109843E+02  0.51100000000E-03 0. -1.
         22    1    1    0    0    0 -0.18346651025E+02  0.79626202554E+00 -0.23044118403E+02  0.29466337234E+02  0.00000000000E+00 0. -1.
</event>
<event>
 5    1  0.8957809E-005  0.9118800E+02  0.7818608E-02  0.1130116E+00
         25   -1    0    0    0    0  0.00000000000E+00  0.00000000000E+00  0.99999998245E-14  0.12500000000E+03  0.12500000000E+03 0.  0.
        -11    1    3    3    0    0 -0.11370993188E+02 -0.25335024099E+02  0.38752104456E+02  0.47674820736E+02  0.51100000000E-03 0. -1.
         23    2    1    0    0    0 -0.68239139283E+01 -0.30892183933E+02 -0.58291126544E+01  0.92830583099E+02  0.87078388677E+02 0.  0.
         11    1    3    3    0    0  0.45470792598E+01 -0.55571598341E+01 -0.44581217111E+02  0.45155762363E+02  0.51100000000E-03 0.  1.
         22    1    1    0    0    0  0.68239139283E+01  0.30892183933E+02  0.58291126544E+01  0.32169416901E+02  0.00000000000E+00 0. -1.
</event>
<event>
 5    1  0.8957809E-005  0.9118800E+02  0.7818608E-02  0.1130116E+00
         25   -1    0    0    0    0  0.00000000000E+00  0.00000000000E+00  0.99999998245E-14  0.12500000000E+03  0.12500000000E+03 0.  0.
        -11    1    3    3    0    0  0.90640482088E+00 -0.59076856317E+02 -0.49434792703E+01  0.59290256447E+02  0.51100000000E-03 0. -1.
         23    2    1    0    0    0  0.12654766336E+02 -0.25173691155E+02  0.46777972070E+01  0.96438844139E+02  0.92112491199E+02 0.  0.
         11    1    3    3    0    0  0.11748361515E+02  0.33903165162E+02  0.96212764773E+01  0.37148587693E+02  0.51100000000E-03 0.  1.
         22    1    1    0    0    0 -0.12654766336E+02  0.25173691155E+02 -0.46777972070E+01  0.28561155861E+02  0.00000000000E+00 0. -1.
</event>
<event>
 5    1  0.8957809E-005  0.9118800E+02  0.7818608E-02  0.1130116E+00
         25   -1    0    0    0    0  0.00000000000E+00  0.00000000000E+00  0.99999998245E-14  0.12500000000E+03  0.12500000000E+03 0.  0.
        -11    1    3    3    0    0  0.41721324636E+02 -0.40072008004E+02  0.20817826118E+01  0.57885823601E+02  0.51100000000E-03 0.  1.
         23    2    1    0    0    0  0.14304643413E+02 -0.29462771220E+02 -0.11524682900E+02  0.90279746155E+02  0.83336285847E+02 0.  0.
         11    1    3    3    0    0 -0.27416681224E+02  0.10609236784E+02 -0.13606465512E+02  0.32393922554E+02  0.51100000000E-03 0. -1.
         22    1    1    0    0    0 -0.14304643413E+02  0.29462771220E+02  0.11524682900E+02  0.34720253845E+02  0.00000000000E+00 0.  1.
</event>
<event>
 5    1  0.8957809E-005  0.9118800E+02  0.7818608E-02  0.1130116E+00
         25   -1    0    0    0    0  0.00000000000E+00  0.00000000000E+00  0.99999998245E-14  0.12500000000E+03  0.12500000000E+03 0.  0.
        -11    1    3    3    0    0  0.39547029577E+01 -0.18683007400E+02  0.37109024257E+02  0.41734567478E+02  0.51100000000E-03 0.  1.
         23    2    1    0    0    0  0.29300521549E+02  0.85024360923E+00 -0.56562327195E+01  0.95146416533E+02  0.90341596916E+02 0.  0.
         11    1    3    3    0    0  0.25345818591E+02  0.19533251009E+02 -0.42765256977E+02  0.53411849056E+02  0.51100000000E-03 0. -1.
         22    1    1    0    0    0 -0.29300521549E+02 -0.85024360923E+00  0.56562327195E+01  0.29853583467E+02  0.00000000000E+00 0. -1.
</event>
<event>
 5    1  0.8957809E-005  0.9118800E+02  0.7818608E-02  0.1130116E+00
         25   -1    0    0    0    0  0.00000000000E+00  0.00000000000E+00  0.99999998245E-14  0.12500000000E+03  0.12500000000E+03 0.  0.
        -11    1    3    3    0    0  0.44680126956E+02  0.57040951351E+01 -0.17931814969E+02  0.48480928564E+02  0.51100000000E-03 0. -1.
         23    2    1    0    0    0  0.12132277187E+00 -0.16101540314E+02 -0.21409853985E+02  0.98210894615E+02  0.94486632143E+02 0.  0.
         11    1    3    3    0    0 -0.44558804184E+02 -0.21805635449E+02 -0.34780390156E+01  0.49729966050E+02  0.51100000000E-03 0.  1.
         22    1    1    0    0    0 -0.12132277187E+00  0.16101540314E+02  0.21409853985E+02  0.26789105385E+02  0.00000000000E+00 0.  1.
</event>
<event>
 5    1  0.8957809E-005  0.9118800E+02  0.7818608E-02  0.1130116E+00
         25   -1    0    0    0    0  0.00000000000E+00  0.00000000000E+00  0.99999998245E-14  0.12500000000E+03  0.12500000000E+03 0.  0.
        -11    1    3    3    0    0 -0.50904689108E+02 -0.33614656458E+02  0.12097356541E+01  0.61013899749E+02  0.51100000000E-03 0. -1.
         23    2    1    0    0    0 -0.25552281054E+02 -0.12578131486E+02 -0.83577903324E+01  0.95318673918E+02  0.90579625079E+02 0.  0.
         11    1    3    3    0    0  0.25352408053E+02  0.21036524972E+02 -0.95675259865E+01  0.34304774169E+02  0.51100000000E-03 0.  1.
         22    1    1    0    0    0  0.25552281054E+02  0.12578131486E+02  0.83577903324E+01  0.29681326082E+02  0.00000000000E+00 0. -1.
</event>
<event>
 5    1  0.8957809E-005  0.9118800E+02  0.7818608E-02  0.1130116E+00
         25   -1    0    0    0    0  0.00000000000E+00  0.00000000000E+00  0.99999998245E-14  0.12500000000E+03  0.12500000000E+03 0.  0.
        -11    1    3    3    0    0 -0.29567137108E+02 -0.11166969029E+02  0.30483197685E+02  0.43910615293E+02  0.51100000000E-03 0.  1.
         23    2    1    0    0    0 -0.16344690910E+02  0.24009672140E+02 -0.49211792749E+01  0.95541023733E+02  0.90885950142E+02 0.  0.
         11    1    3    3    0    0  0.13222446198E+02  0.35176641170E+02 -0.35404376960E+02  0.51630408440E+02  0.51100000000E-03 0. -1.
         22    1    1    0    0    0  0.16344690910E+02 -0.24009672140E+02  0.49211792749E+01  0.29458976267E+02  0.00000000000E+00 0.  1.
</event>
<event>
 5    1  0.8957809E-005  0.9118800E+02  0.7818608E-02  0.1130116E+00
         25   -1    0    0    0    0  0.00000000000E+00  0.00000000000E+00  0.99999998245E-14  0.12500000000E+03  0.12500000000E+03 0.  0.
        -11    1    3    3    0    0  0.37837206161E+02 -0.39904128330E+02  0.21869458297E+02  0.59179952977E+02  0.51100000000E-03 0.  1.
         23    2    1    0    0    0  0.15437750718E+02 -0.11237213949E+02  0.22402425046E+02  0.95564175356E+02  0.90917786153E+02 0.  0.
         11    1    3    3    0    0 -0.22399455443E+02  0.28666914382E+02  0.53296674870E+00  0.36384222379E+02  0.51100000000E-03 0. -1.
         22    1    1    0    0    0 -0.15437750718E+02  0.11237213949E+02 -0.22402425046E+02  0.29435824644E+02  0.00000000000E+00 0.  1.
</event>
<event>
 5    1  0.8957809E-005  0.9118800E+02  0.7818608E-02  0.1130116E+00
         25   -1    0    0    0    0  0.00000000000E+00  0.00000000000E+00  0.99999998245E-14  0.12500000000E+03  0.12500000000E+03 0.  0.
        -11    1    3    3    0    0 -0.37029090383E+02 -0.10119239104E+02 -0.46418324231E+02  0.60234652479E+02  0.51100000000E-03 0.  1.
         23    2    1    0    0    0 -0.74203890830E+01 -0.88872570534E+01 -0.26886358564E+02  0.95726773514E+02  0.91141063076E+02 0.  0.
         11    1    3    3    0    0  0.29608701300E+02  0.12319820501E+01  0.19531965667E+02  0.35492121035E+02  0.51100000000E-03 0. -1.
         22    1    1    0    0    0  0.74203890830E+01  0.88872570534E+01  0.26886358564E+02  0.29273226486E+02  0.00000000000E+00 0.  1.
</event>
<event>
 5    1  0.8957809E-005  0.9118800E+02  0.7818608E-02  0.1130116E+00
         25   -1    0    0    0    0  0.00000000000E+00  0.00000000000E+00  0.99999998245E-14  0.12500000000E+03  0.12500000000E+03 0.  0.
        -11    1    3    3    0    0 -0.37691050341E+02  0.28405101999E+02 -0.37338767142E+02  0.60180134823E+02  0.51100000000E-03 0.  1.
         23    2    1    0    0    0 -0.24961785582E+02  0.54375837824E+01 -0.11626003027E+02  0.96931832920E+02  0.92779082933E+02 0.  0.
         11    1    3    3    0    0  0.12729264758E+02 -0.22967518216E+02  0.25712764115E+02  0.36751698097E+02  0.51100000000E-03 0. -1.
         22    1    1    0    0    0  0.24961785582E+02 -0.54375837824E+01  0.11626003027E+02  0.28068167080E+02  0.00000000000E+00 0.  1.
</event>
<event>
 5    1  0.8957809E-005  0.9118800E+02  0.7818608E-02  0.1130116E+00
         25   -1    0    0    0    0  0.00000000000E+00  0.00000000000E+00  0.99999998245E-14  0.12500000000E+03  0.12500000000E+03 0.  0.
        -11    1    3    3    0    0  0.88290948321E+01  0.40159950296E+02 -0.37845269322E+02  0.55884156374E+02  0.51100000000E-03 0. -1.
         23    2    1    0    0    0 -0.14978618999E+02  0.12231025917E+02 -0.21570966747E+02  0.96029952908E+02  0.91555929503E+02 0.  0.
         11    1    3    3    0    0 -0.23807713831E+02 -0.27928924379E+02  0.16274302575E+02  0.40145796535E+02  0.51100000000E-03 0.  1.
         22    1    1    0    0    0  0.14978618999E+02 -0.12231025917E+02  0.21570966747E+02  0.28970047092E+02  0.00000000000E+00 0. -1.
</event>
<event>
 5    1  0.8957809E-005  0.9118800E+02  0.7818608E-02  0.1130116E+00
         25   -1    0    0    0    0  0.00000000000E+00  0.00000000000E+00  0.99999998245E-14  0.12500000000E+03  0.12500000000E+03 0.  0.
        -11    1    3    3    0    0 -0.13498286031E+02  0.30814270613E+02 -0.10082159020E+02  0.35119409590E+02  0.51100000000E-03 0.  1.
         23    2    1    0    0    0 -0.22459130348E+01 -0.28372706627E+02  0.16199475005E+01  0.96492477544E+02  0.92185244947E+02 0.  0.
         11    1    3    3    0    0  0.11252372996E+02 -0.59186977240E+02  0.11702106521E+02  0.61373067954E+02  0.51100000000E-03 0. -1.
         22    1    1    0    0    0  0.22459130348E+01  0.28372706627E+02 -0.16199475005E+01  0.28507522456E+02  0.00000000000E+00 0. -1.
</event>
<event>
 5    1  0.8957809E-005  0.9118800E+02  0.7818608E-02  0.1130116E+00
         25   -1    0    0    0    0  0.00000000000E+00  0.00000000000E+00  0.99999998245E-14  0.12500000000E+03  0.12500000000E+03 0.  0.
        -11    1    3    3    0    0  0.26970635992E+02 -0.45237279836E+02  0.32085496916E+02  0.61670947823E+02  0.51100000000E-03 0.  1.
         23    2    1    0    0    0  0.91341201933E+01 -0.18123484116E+02  0.20557790368E+02  0.96112016806E+02  0.91667901697E+02 0.  0.
         11    1    3    3    0    0 -0.17836515799E+02  0.27113795720E+02 -0.11527706549E+02  0.34441068983E+02  0.51100000000E-03 0. -1.
         22    1    1    0    0    0 -0.91341201933E+01  0.18123484116E+02 -0.20557790368E+02  0.28887983194E+02  0.00000000000E+00 0.  1.
</event>
<event>
 5    1  0.8957809E-005  0.9118800E+02  0.7818608E-02  0.1130116E+00
         25   -1    0    0    0    0  0.00000000000E+00  0.00000000000E+00  0.99999998245E-14  0.12500000000E+03  0.12500000000E+03 0.  0.
        -11    1    3    3    0    0 -0.18565897788E+02  0.27842913197E+02 -0.18093202146E+02  0.38043190456E+02  0.51100000000E-03 0.  1.
         23    2    1    0    0    0  0.86650694065E+01 -0.22456000578E+02 -0.17495719770E+02  0.95243394010E+02  0.90475679066E+02 0.  0.
         11    1    3    3    0    0  0.27230967194E+02 -0.50298913774E+02  0.59748237561E+00  0.57200203554E+02  0.51100000000E-03 0. -1.
         22    1    1    0    0    0 -0.86650694065E+01  0.22456000578E+02  0.17495719770E+02  0.29756605990E+02  0.00000000000E+00 0.  1.
</event>
<event>
 5    1  0.8957809E-005  0.9118800E+02  0.7818608E-02  0.1130116E+00
         25   -1    0    0    0    0  0.00000000000E+00  0.00000000000E+00  0.99999998245E-14  0.12500000000E+03  0.12500000000E+03 0.  0.
        -11    1    3    3    0    0 -0.10666628317E+01  0.15113695686E+01 -0.49086148123E+02  0.49120992920E+02  0.51100000000E-03 0.  1.
         23    2    1    0    0    0 -0.22142164355E+02  0.15967032296E+02 -0.97856348611E+01  0.96000341169E+02  0.91515492089E+02 0.  0.
         11    1    3    3    0    0 -0.21075501524E+02  0.14455662727E+02  0.39300513262E+02  0.46879348249E+02  0.51100000000E-03 0. -1.
         22    1    1    0    0    0  0.22142164355E+02 -0.15967032296E+02  0.97856348611E+01  0.28999658831E+02  0.00000000000E+00 0.  1.
</event>
<event>
 5    1  0.8957809E-005  0.9118800E+02  0.7818608E-02  0.1130116E+00
         25   -1    0    0    0    0  0.00000000000E+00  0.00000000000E+00  0.99999998245E-14  0.12500000000E+03  0.12500000000E+03 0.  0.
        -11    1    3    3    0    0  0.23980346061E+02  0.34768987093E+02 -0.15732450950E+02  0.45071603853E+02  0.51100000000E-03 0.  1.
         23    2    1    0    0    0  0.33071123714E+02 -0.83423092937E+01 -0.96883253831E+01  0.89543590188E+02  0.82224677238E+02 0.  0.
         11    1    3    3    0    0  0.90907776524E+01 -0.43111296387E+02  0.60441255666E+01  0.44471986335E+02  0.51100000000E-03 0. -1.
         22    1    1    0    0    0 -0.33071123714E+02  0.83423092937E+01  0.96883253831E+01  0.35456409812E+02  0.00000000000E+00 0. -1.
</event>
<event>
 5    1  0.8957809E-005  0.9118800E+02  0.7818608E-02  0.1130116E+00
         25   -1    0    0    0    0  0.00000000000E+00  0.00000000000E+00  0.99999998245E-14  0.12500000000E+03  0.12500000000E+03 0.  0.
        -11    1    3    3    0    0  0.31430038620E+02  0.45412434041E+02 -0.24983609274E+02  0.60616146577E+02  0.51100000000E-03 0. -1.
         23    2    1    0    0    0  0.15815625502E+02  0.12054701674E+02 -0.18150954082E+02  0.98075903422E+02  0.94307878014E+02 0.  0.
         11    1    3    3    0    0 -0.15614413118E+02 -0.33357732367E+02  0.68326551918E+01  0.37459756845E+02  0.51100000000E-03 0.  1.
         22    1    1    0    0    0 -0.15815625502E+02 -0.12054701674E+02  0.18150954082E+02  0.26924096578E+02  0.00000000000E+00 0. -1.
</event>
<event>
 5    1  0.8957809E-005  0.9118800E+02  0.7818608E-02  0.1130116E+00
         25   -1    0    0    0    0  0.00000000000E+00  0.00000000000E+00  0.99999998245E-14  0.12500000000E+03  0.12500000000E+03 0.  0.
        -11    1    3    3    0    0 -0.29056026674E+02 -0.28285905125E+02 -0.18093835209E+02  0.44404188853E+02  0.51100000000E-03 0.  1.
         23    2    1    0    0    0  0.11959952151E+02  0.76013745401E+01 -0.21765942375E+02  0.99027368293E+02  0.95560672210E+02 0.  0.
         11    1    3    3    0    0  0.41015978825E+02  0.35887279665E+02 -0.36721071654E+01  0.54623179440E+02  0.51100000000E-03 0. -1.
         22    1    1    0    0    0 -0.11959952151E+02 -0.76013745401E+01  0.21765942375E+02  0.25972631707E+02  0.00000000000E+00 0. -1.
</event>
<event>
 5    1  0.8957809E-005  0.9118800E+02  0.7818608E-02  0.1130116E+00
         25   -1    0    0    0    0  0.00000000000E+00  0.00000000000E+00  0.99999998245E-14  0.12500000000E+03  0.12500000000E+03 0.  0.
        -11    1    3    3    0    0  0.38211800288E+02 -0.46480123676E+02  0.13308218904E+02  0.61625094474E+02  0.51100000000E-03 0.  1.
         23    2    1    0    0    0  0.18998353391E+02 -0.17918448173E+02  0.12475408666E+02  0.96057919255E+02  0.91594103597E+02 0.  0.
         11    1    3    3    0    0 -0.19213446897E+02  0.28561675504E+02 -0.83281023778E+00  0.34432824781E+02  0.51100000000E-03 0. -1.
         22    1    1    0    0    0 -0.18998353391E+02  0.17918448173E+02 -0.12475408666E+02  0.28942080745E+02  0.00000000000E+00 0.  1.
</event>
<event>
 5    1  0.8957809E-005  0.9118800E+02  0.7818608E-02  0.1130116E+00
         25   -1    0    0    0    0  0.00000000000E+00  0.00000000000E+00  0.99999998245E-14  0.12500000000E+03  0.12500000000E+03 0.  0.
        -11    1    3    3    0    0 -0.15320435217E+02  0.58800411742E+01 -0.38684343093E+02  0.42021054488E+02  0.51100000000E-03 0. -1.
         23    2    1    0    0    0 -0.49613044751E+01  0.27119342255E+02  0.96236882770E+01  0.95799167092E+02  0.91240296871E+02 0.  0.
         11    1    3    3    0    0  0.10359130742E+02  0.21239301081E+02  0.48308031370E+02  0.53778112604E+02  0.51100000000E-03 0.  1.
         22    1    1    0    0    0  0.49613044751E+01 -0.27119342255E+02 -0.96236882770E+01  0.29200832908E+02  0.00000000000E+00 0.  1.
</event>
<event>
 5    1  0.8957809E-005  0.9118800E+02  0.7818608E-02  0.1130116E+00
         25   -1    0    0    0    0  0.00000000000E+00  0.00000000000E+00  0.99999998245E-14  0.12500000000E+03  0.12500000000E+03 0.  0.
        -11    1    3    3    0    0 -0.30055004456E+02 -0.12154876160E+02 -0.41958540192E+01  0.32690204933E+02  0.51100000000E-03 0. -1.
         23    2    1    0    0    0  0.25709198450E+02  0.14704380738E+02  0.39537023382E+01  0.95120015729E+02  0.90305060391E+02 0.  0.
         11    1    3    3    0    0  0.55764202907E+02  0.26859256899E+02  0.81495563574E+01  0.62429810796E+02  0.51100000000E-03 0.  1.
         22    1    1    0    0    0 -0.25709198450E+02 -0.14704380738E+02 -0.39537023382E+01  0.29879984271E+02  0.00000000000E+00 0.  1.
</event>
<event>
 5    1  0.8957809E-005  0.9118800E+02  0.7818608E-02  0.1130116E+00
         25   -1    0    0    0    0  0.00000000000E+00  0.00000000000E+00  0.99999998245E-14  0.12500000000E+03  0.12500000000E+03 0.  0.
        -11    1    3    3    0    0 -0.40147461966E+02 -0.17649471513E+00 -0.32009325352E+01  0.40275250738E+02  0.51100000000E-03 0. -1.
         23    2    1    0    0    0  0.11905402345E+02 -0.24007545886E+02  0.37385814375E+01  0.97943062708E+02  0.94131640148E+02 0.  0.
         11    1    3    3    0    0  0.52052864311E+02 -0.23831051171E+02  0.69395139727E+01  0.57667811969E+02  0.51100000000E-03 0.  1.
         22    1    1    0    0    0 -0.11905402345E+02  0.24007545886E+02 -0.37385814375E+01  0.27056937292E+02  0.00000000000E+00 0. -1.
</event>
<event>
 5    1  0.8957809E-005  0.9118800E+02  0.7818608E-02  0.1130116E+00
         25   -1    0    0    0    0  0.00000000000E+00  0.00000000000E+00  0.99999998245E-14  0.12500000000E+03  0.12500000000E+03 0.  0.
        -11    1    3    3    0    0 -0.86413071479E+01  0.10112807501E+02  0.50259705856E+02  0.51990182706E+02  0.51100000000E-03 0. -1.
         23    2    1    0    0    0  0.21606865618E+02  0.24829095947E+01  0.21408131435E+02  0.94482307207E+02  0.89417989251E+02 0.  0.
         11    1    3    3    0    0  0.30248172766E+02 -0.76298979059E+01 -0.28851574422E+02  0.42492124501E+02  0.51100000000E-03 0.  1.
         22    1    1    0    0    0 -0.21606865618E+02 -0.24829095947E+01 -0.21408131435E+02  0.30517692793E+02  0.00000000000E+00 0. -1.
</event>
<event>
 5    1  0.8957809E-005  0.9118800E+02  0.7818608E-02  0.1130116E+00
         25   -1    0    0    0    0  0.00000000000E+00  0.00000000000E+00  0.99999998245E-14  0.12500000000E+03  0.12500000000E+03 0.  0.
        -11    1    3    3    0    0  0.57140249584E+01 -0.60005617267E+02  0.10756140000E+02  0.61229231032E+02  0.51100000000E-03 0.  1.
         23    2    1    0    0    0 -0.51211278918E+00 -0.29160409006E+02 -0.32145795747E+01  0.95658472522E+02  0.91047340052E+02 0.  0.
         11    1    3    3    0    0 -0.62261377476E+01  0.30845208261E+02 -0.13970719574E+02  0.34429241490E+02  0.51100000000E-03 0. -1.
         22    1    1    0    0    0  0.51211278918E+00  0.29160409006E+02  0.32145795747E+01  0.29341527478E+02  0.00000000000E+00 0.  1.
</event>
<event>
 5    1  0.8957809E-005  0.9118800E+02  0.7818608E-02  0.1130116E+00
         25   -1    0    0    0    0  0.00000000000E+00  0.00000000000E+00  0.99999998245E-14  0.12500000000E+03  0.12500000000E+03 0.  0.
        -11    1    3    3    0    0 -0.45048097496E+02  0.87886105645E+01 -0.34436227052E+01  0.46026397874E+02  0.51100000000E-03 0. -1.
         23    2    1    0    0    0 -0.21635403202E+00  0.28385690137E+02 -0.88840466065E+01  0.95255748493E+02  0.90492746246E+02 0.  0.
         11    1    3    3    0    0  0.44831743464E+02  0.19597079572E+02 -0.54404239012E+01  0.49229350618E+02  0.51100000000E-03 0.  1.
         22    1    1    0    0    0  0.21635403202E+00 -0.28385690137E+02  0.88840466065E+01  0.29744251507E+02  0.00000000000E+00 0. -1.
</event>
<event>
 5    1  0.8957809E-005  0.9118800E+02  0.7818608E-02  0.1130116E+00
         25   -1    0    0    0    0  0.00000000000E+00  0.00000000000E+00  0.99999998245E-14  0.12500000000E+03  0.12500000000E+03 0.  0.
        -11    1    3    3    0    0  0.96293836496E+01 -0.28369223977E+02  0.14118237237E+02  0.33118914859E+02  0.51100000000E-03 0.  1.
         23    2    1    0    0    0 -0.10527834622E+02  0.24955609580E+02 -0.11445333878E+02  0.95595690470E+02  0.90961104971E+02 0.  0.
         11    1    3    3    0    0 -0.20157218272E+02  0.53324833557E+02 -0.25563571115E+02  0.62476775611E+02  0.51100000000E-03 0. -1.
         22    1    1    0    0    0  0.10527834622E+02 -0.24955609580E+02  0.11445333878E+02  0.29404309530E+02  0.00000000000E+00 0. -1.
</event>
<event>
 5    1  0.8957809E-005  0.9118800E+02  0.7818608E-02  0.1130116E+00
         25   -1    0    0    0    0  0.00000000000E+00  0.00000000000E+00  0.99999998245E-14  0.12500000000E+03  0.12500000000E+03 0.  0.
        -11    1    3    3    0    0 -0.18812022363E+02 -0.24234509631E+02  0.17499758496E+02  0.35319190111E+02  0.51100000000E-03 0. -1.
         23    2    1    0    0    0  0.13076483425E+02  0.14363241051E+01 -0.26497892038E+02  0.95416292860E+02  0.90714239318E+02 0.  0.
         11    1    3    3    0    0  0.31888505788E+02  0.25670833736E+02 -0.43997650534E+02  0.60097102749E+02  0.51100000000E-03 0.  1.
         22    1    1    0    0    0 -0.13076483425E+02 -0.14363241051E+01  0.26497892038E+02  0.29583707140E+02  0.00000000000E+00 0.  1.
</event>
<event>
 5    1  0.8957809E-005  0.9118800E+02  0.7818608E-02  0.1130116E+00
         25   -1    0    0    0    0  0.00000000000E+00  0.00000000000E+00  0.99999998245E-14  0.12500000000E+03  0.12500000000E+03 0.  0.
        -11    1    3    3    0    0  0.32420824978E+02 -0.32521658800E+02 -0.37024165499E+02  0.58987770042E+02  0.51100000000E-03 0.  1.
         23    2    1    0    0    0  0.16542656440E+02 -0.20486201673E+01 -0.24094513233E+02  0.95701503543E+02  0.91106398710E+02 0.  0.
         11    1    3    3    0    0 -0.15878168538E+02  0.30473038633E+02  0.12929652266E+02  0.36713733501E+02  0.51100000000E-03 0. -1.
         22    1    1    0    0    0 -0.16542656440E+02  0.20486201673E+01  0.24094513233E+02  0.29298496457E+02  0.00000000000E+00 0.  1.
</event>
<event>
 5    1  0.8957809E-005  0.9118800E+02  0.7818608E-02  0.1130116E+00
         25   -1    0    0    0    0  0.00000000000E+00  0.00000000000E+00  0.99999998245E-14  0.12500000000E+03  0.12500000000E+03 0.  0.
        -11    1    3    3    0    0  0.27141160272E+02  0.12288339584E+02 -0.42816964967E+02  0.52162614580E+02  0.51100000000E-03 0.  1.
         23    2    1    0    0    0  0.24116283876E+02 -0.13516633268E+02 -0.68748816382E+01  0.96512133804E+02  0.92211894303E+02 0.  0.
         11    1    3    3    0    0 -0.30248763959E+01 -0.25804972852E+02  0.35942083329E+02  0.44349519223E+02  0.51100000000E-03 0. -1.
         22    1    1    0    0    0 -0.24116283876E+02  0.13516633268E+02  0.68748816382E+01  0.28487866196E+02  0.00000000000E+00 0.  1.
</event>
<event>
 5    1  0.8957809E-005  0.9118800E+02  0.7818608E-02  0.1130116E+00
         25   -1    0    0    0    0  0.00000000000E+00  0.00000000000E+00  0.99999998245E-14  0.12500000000E+03  0.12500000000E+03 0.  0.
        -11    1    3    3    0    0 -0.11121267550E+02 -0.42358450763E+02 -0.23723619963E+02  0.49806938145E+02  0.51100000000E-03 0.  1.
         23    2    1    0    0    0 -0.15452201093E+02  0.35724105719E+01 -0.24343778447E+02  0.95945702814E+02  0.91440831708E+02 0.  0.
         11    1    3    3    0    0 -0.43309335429E+01  0.45930861335E+02 -0.62015848419E+00  0.46138764669E+02  0.51100000000E-03 0. -1.
         22    1    1    0    0    0  0.15452201093E+02 -0.35724105719E+01  0.24343778447E+02  0.29054297186E+02  0.00000000000E+00 0.  1.
</event>
<event>
 5    1  0.8957809E-005  0.9118800E+02  0.7818608E-02  0.1130116E+00
         25   -1    0    0    0    0  0.00000000000E+00  0.00000000000E+00  0.99999998245E-14  0.12500000000E+03  0.12500000000E+03 0.  0.
        -11    1    3    3    0    0 -0.13585118918E+02 -0.47064513275E+02 -0.10447834412E+02  0.50087734127E+02  0.51100000000E-03 0.  1.
         23    2    1    0    0    0 -0.16776720667E+02 -0.14624294023E+02  0.20284080520E+02  0.94887340626E+02  0.89982415819E+02 0.  0.
         11    1    3    3    0    0 -0.31916017494E+01  0.32440219252E+02  0.30731914932E+02  0.44799606499E+02  0.51100000000E-03 0. -1.
         22    1    1    0    0    0  0.16776720667E+02  0.14624294023E+02 -0.20284080520E+02  0.30112659374E+02  0.00000000000E+00 0.  1.
</event>
<event>
 5    1  0.8957809E-005  0.9118800E+02  0.7818608E-02  0.1130116E+00
         25   -1    0    0    0    0  0.00000000000E+00  0.00000000000E+00  0.99999998245E-14  0.12500000000E+03  0.12500000000E+03 0.  0.
        -11    1    3    3    0    0 -0.29852187840E+02 -0.16031374752E+02  0.72474193678E+01  0.34650875646E+02  0.51100000000E-03 0. -1.
         23    2    1    0    0    0  0.23546900436E+02  0.99210381267E+01  0.16275793737E+02  0.94705033762E+02  0.89728804965E+02 0.  0.
         11    1    3    3    0    0  0.53399088276E+02  0.25952412879E+02  0.90283743689E+01  0.60054158115E+02  0.51100000000E-03 0.  1.
         22    1    1    0    0    0 -0.23546900436E+02 -0.99210381267E+01 -0.16275793737E+02  0.30294966238E+02  0.00000000000E+00 0.  1.
</event>
<event>
 5    1  0.8957809E-005  0.9118800E+02  0.7818608E-02  0.1130116E+00
         25   -1    0    0    0    0  0.00000000000E+00  0.00000000000E+00  0.99999998245E-14  0.12500000000E+03  0.12500000000E+03 0.  0.
        -11    1    3    3    0    0  0.28996286303E+02 -0.13219231355E+02 -0.43842536980E+02  0.54200560385E+02  0.51100000000E-03 0.  1.
         23    2    1    0    0    0  0.67182672359E+01 -0.26463846060E+02 -0.12220972482E+02  0.95086417277E+02  0.90258541530E+02 0.  0.
         11    1    3    3    0    0 -0.22278019067E+02 -0.13244614705E+02  0.31621564498E+02  0.40885856892E+02  0.51100000000E-03 0. -1.
         22    1    1    0    0    0 -0.67182672359E+01  0.26463846060E+02  0.12220972482E+02  0.29913582723E+02  0.00000000000E+00 0.  1.
</event>
<event>
 5    1  0.8957809E-005  0.9118800E+02  0.7818608E-02  0.1130116E+00
         25   -1    0    0    0    0  0.00000000000E+00  0.00000000000E+00  0.99999998245E-14  0.12500000000E+03  0.12500000000E+03 0.  0.
        -11    1    3    3    0    0 -0.22327559496E+02  0.12214188303E+02  0.30738663128E+02  0.39907038478E+02  0.51100000000E-03 0.  1.
         23    2    1    0    0    0 -0.86779479660E+01 -0.29039198350E+02 -0.24621718224E+01  0.94592038678E+02  0.89571254705E+02 0.  0.
         11    1    3    3    0    0  0.13649611530E+02 -0.41253386652E+02 -0.33200834951E+02  0.54685000200E+02  0.51100000000E-03 0. -1.
         22    1    1    0    0    0  0.86779479660E+01  0.29039198350E+02  0.24621718224E+01  0.30407961322E+02  0.00000000000E+00 0. -1.
</event>
<event>
 5    1  0.8957809E-005  0.9118800E+02  0.7818608E-02  0.1130116E+00
         25   -1    0    0    0    0  0.00000000000E+00  0.00000000000E+00  0.99999998245E-14  0.12500000000E+03  0.12500000000E+03 0.  0.
        -11    1    3    3    0    0 -0.45939195054E+01  0.25930290540E+02  0.25265477963E+02  0.36494224760E+02  0.51100000000E-03 0. -1.
         23    2    1    0    0    0 -0.56204094564E+01 -0.77960783489E+01 -0.25668751473E+02  0.97591011652E+02  0.93662975145E+02 0.  0.
         11    1    3    3    0    0 -0.10264899510E+01 -0.33726368888E+02 -0.50934229436E+02  0.61096786892E+02  0.51100000000E-03 0.  1.
         22    1    1    0    0    0  0.56204094564E+01  0.77960783489E+01  0.25668751473E+02  0.27408988348E+02  0.00000000000E+00 0.  1.
</event>
<event>
 5    1  0.8957809E-005  0.9118800E+02  0.7818608E-02  0.1130116E+00
         25   -1    0    0    0    0  0.00000000000E+00  0.00000000000E+00  0.99999998245E-14  0.12500000000E+03  0.12500000000E+03 0.  0.
        -11    1    3    3    0    0 -0.52836369308E+02 -0.18634547144E+02  0.20111051680E+02  0.59526319127E+02  0.51100000000E-03 0.  1.
         23    2    1    0    0    0 -0.30084649604E+02 -0.26704784855E+01 -0.15399716996E+01  0.94757825641E+02  0.89802318513E+02 0.  0.
         11    1    3    3    0    0  0.22751719704E+02  0.15964068658E+02 -0.21651023380E+02  0.35231506514E+02  0.51100000000E-03 0. -1.
         22    1    1    0    0    0  0.30084649604E+02  0.26704784855E+01  0.15399716996E+01  0.30242174359E+02  0.00000000000E+00 0.  1.
</event>
<event>
 5    1  0.8957809E-005  0.9118800E+02  0.7818608E-02  0.1130116E+00
         25   -1    0    0    0    0  0.00000000000E+00  0.00000000000E+00  0.99999998245E-14  0.12500000000E+03  0.12500000000E+03 0.  0.
        -11    1    3    3    0    0 -0.59512035488E+01  0.37936022708E+02  0.15102040911E+02  0.41262940789E+02  0.51100000000E-03 0.  1.
         23    2    1    0    0    0 -0.23475023016E+02 -0.15865851488E+01 -0.17721095026E+02  0.95544420445E+02  0.90890621690E+02 0.  0.
         11    1    3    3    0    0 -0.17523819467E+02 -0.39522607857E+02 -0.32823135938E+02  0.54281479655E+02  0.51100000000E-03 0. -1.
         22    1    1    0    0    0  0.23475023016E+02  0.15865851488E+01  0.17721095026E+02  0.29455579555E+02  0.00000000000E+00 0. -1.
</event>
<event>
 5    1  0.8957809E-005  0.9118800E+02  0.7818608E-02  0.1130116E+00
         25   -1    0    0    0    0  0.00000000000E+00  0.00000000000E+00  0.99999998245E-14  0.12500000000E+03  0.12500000000E+03 0.  0.
        -11    1    3    3    0    0 -0.36353138178E+02 -0.14801143871E+02 -0.49097566325E+01  0.39556671065E+02  0.51100000000E-03 0.  1.
         23    2    1    0    0    0  0.23014462166E+01  0.10027560251E+02  0.27406593495E+02  0.95725950293E+02  0.91139934020E+02 0.  0.
         11    1    3    3    0    0  0.38654584395E+02  0.24828704122E+02  0.32316350127E+02  0.56169279228E+02  0.51100000000E-03 0. -1.
         22    1    1    0    0    0 -0.23014462166E+01 -0.10027560251E+02 -0.27406593495E+02  0.29274049707E+02  0.00000000000E+00 0. -1.
</event>
<event>
 5    1  0.8957809E-005  0.9118800E+02  0.7818608E-02  0.1130116E+00
         25   -1    0    0    0    0  0.00000000000E+00  0.00000000000E+00  0.99999998245E-14  0.12500000000E+03  0.12500000000E+03 0.  0.
        -11    1    3    3    0    0  0.15232861134E+02  0.23784459054E+02 -0.25978663227E+02  0.38374881031E+02  0.51100000000E-03 0. -1.
         23    2    1    0    0    0 -0.26390052398E+02  0.48624989268E+01  0.98002955574E+01  0.96432106231E+02  0.92103347158E+02 0.  0.
         11    1    3    3    0    0 -0.41622913532E+02 -0.18921960127E+02  0.35778958784E+02  0.58057225200E+02  0.51100000000E-03 0.  1.
         22    1    1    0    0    0  0.26390052398E+02 -0.48624989268E+01 -0.98002955574E+01  0.28567893769E+02  0.00000000000E+00 0.  1.
</event>
<event>
 5    1  0.8957809E-005  0.9118800E+02  0.7818608E-02  0.1130116E+00
         25   -1    0    0    0    0  0.00000000000E+00  0.00000000000E+00  0.99999998245E-14  0.12500000000E+03  0.12500000000E+03 0.  0.
        -11    1    3    3    0    0  0.20321639807E+02 -0.10010945705E+02  0.29519664008E+02  0.37210195401E+02  0.51100000000E-03 0.  1.
         23    2    1    0    0    0  0.34825283979E+01  0.17359447107E+02 -0.21277921779E+02  0.97319169754E+02  0.93299477161E+02 0.  0.
         11    1    3    3    0    0 -0.16839111409E+02  0.27370392811E+02 -0.50797585787E+02  0.60108974353E+02  0.51100000000E-03 0. -1.
         22    1    1    0    0    0 -0.34825283979E+01 -0.17359447107E+02  0.21277921779E+02  0.27680830246E+02  0.00000000000E+00 0. -1.
</event>
<event>
 5    1  0.8957809E-005  0.9118800E+02  0.7818608E-02  0.1130116E+00
         25   -1    0    0    0    0  0.00000000000E+00  0.00000000000E+00  0.99999998245E-14  0.12500000000E+03  0.12500000000E+03 0.  0.
        -11    1    3    3    0    0 -0.87870964501E+00  0.36267995419E+02 -0.21548553380E+02  0.42195731720E+02  0.51100000000E-03 0. -1.
         23    2    1    0    0    0  0.25300816695E+02  0.47477295860E+01  0.13335673553E+02  0.96008407240E+02  0.91526508783E+02 0.  0.
         11    1    3    3    0    0  0.26179526340E+02 -0.31520265833E+02  0.34884226933E+02  0.53812675520E+02  0.51100000000E-03 0.  1.
         22    1    1    0    0    0 -0.25300816695E+02 -0.47477295860E+01 -0.13335673553E+02  0.28991592760E+02  0.00000000000E+00 0.  1.
</event>
<event>
 5    1  0.8957809E-005  0.9118800E+02  0.7818608E-02  0.1130116E+00
         25   -1    0    0    0    0  0.00000000000E+00  0.00000000000E+00  0.99999998245E-14  0.12500000000E+03  0.12500000000E+03 0.  0.
        -11    1    3    3    0    0  0.12663160188E+02 -0.40113641353E+02  0.45796024254E+01  0.42313503840E+02  0.51100000000E-03 0. -1.
         23    2    1    0    0    0 -0.21420883689E+02 -0.18926945709E+01  0.19831297757E+02  0.95747360436E+02  0.91169293673E+02 0.  0.
         11    1    3    3    0    0 -0.34084043877E+02  0.38220946782E+02  0.15251695331E+02  0.53433856596E+02  0.51100000000E-03 0.  1.
         22    1    1    0    0    0  0.21420883689E+02  0.18926945709E+01 -0.19831297757E+02  0.29252639564E+02  0.00000000000E+00 0.  1.
</event>
<event>
 5    1  0.8957809E-005  0.9118800E+02  0.7818608E-02  0.1130116E+00
         25   -1    0    0    0    0  0.00000000000E+00  0.00000000000E+00  0.99999998245E-14  0.12500000000E+03  0.12500000000E+03 0.  0.
        -11    1    3    3    0    0  0.51089969129E+02  0.26345289149E+02  0.12242258156E+02  0.58771864790E+02  0.51100000000E-03 0.  1.
         23    2    1    0    0    0  0.15638045688E+02  0.23532484135E+02  0.11912599619E+02  0.94336726982E+02  0.89214246315E+02 0.  0.
         11    1    3    3    0    0 -0.35451923441E+02 -0.28128050142E+01 -0.32965853685E+00  0.35564862192E+02  0.51100000000E-03 0. -1.
         22    1    1    0    0    0 -0.15638045688E+02 -0.23532484135E+02 -0.11912599619E+02  0.30663273018E+02  0.00000000000E+00 0.  1.
</event>
<event>
 5    1  0.8957809E-005  0.9118800E+02  0.7818608E-02  0.1130116E+00
         25   -1    0    0    0    0  0.00000000000E+00  0.00000000000E+00  0.99999998245E-14  0.12500000000E+03  0.12500000000E+03 0.  0.
        -11    1    3    3    0    0 -0.72304049355E+01  0.44695775784E+02  0.11892109681E+02  0.46812534661E+02  0.51100000000E-03 0. -1.
         23    2    1    0    0    0 -0.18895493432E+02 -0.25132854000E+01  0.21377809025E+02  0.96357950593E+02  0.92002650223E+02 0.  0.
         11    1    3    3    0    0 -0.11665088496E+02 -0.47209061184E+02  0.94856993445E+01  0.49545415931E+02  0.51100000000E-03 0.  1.
         22    1    1    0    0    0  0.18895493432E+02  0.25132854000E+01 -0.21377809025E+02  0.28642049407E+02  0.00000000000E+00 0.  1.
</event>
<event>
 5    1  0.8957809E-005  0.9118800E+02  0.7818608E-02  0.1130116E+00
         25   -1    0    0    0    0  0.00000000000E+00  0.00000000000E+00  0.99999998245E-14  0.12500000000E+03  0.12500000000E+03 0.  0.
        -11    1    3    3    0    0  0.22222373821E+02  0.31476326323E+02  0.44726211812E+02  0.59034117596E+02  0.51100000000E-03 0.  1.
         23    2    1    0    0    0 -0.24204419569E+01  0.15018189100E+02  0.28185869911E+02  0.92971141049E+02  0.87279924737E+02 0.  0.
         11    1    3    3    0    0 -0.24642815778E+02 -0.16458137223E+02 -0.16540341902E+02  0.33937023452E+02  0.51100000000E-03 0. -1.
         22    1    1    0    0    0  0.24204419569E+01 -0.15018189100E+02 -0.28185869911E+02  0.32028858951E+02  0.00000000000E+00 0.  1.
</event>
<event>
 5    1  0.8957809E-005  0.9118800E+02  0.7818608E-02  0.1130116E+00
         25   -1    0    0    0    0  0.00000000000E+00  0.00000000000E+00  0.99999998245E-14  0.12500000000E+03  0.12500000000E+03 0.  0.
        -11    1    3    3    0    0  0.31362337381E+02  0.41309102785E+02 -0.23930318514E+02  0.57120034343E+02  0.51100000000E-03 0. -1.
         23    2    1    0    0    0  0.19657470590E+01  0.18884915821E+02 -0.24383677373E+02  0.94095826668E+02  0.88876074773E+02 0.  0.
         11    1    3    3    0    0 -0.29396590322E+02 -0.22424186963E+02 -0.45335885880E+00  0.36975792325E+02  0.51100000000E-03 0.  1.
         22    1    1    0    0    0 -0.19657470590E+01 -0.18884915821E+02  0.24383677373E+02  0.30904173332E+02  0.00000000000E+00 0. -1.
</event>
<event>
 5    1  0.8957809E-005  0.9118800E+02  0.7818608E-02  0.1130116E+00
         25   -1    0    0    0    0  0.00000000000E+00  0.00000000000E+00  0.99999998245E-14  0.12500000000E+03  0.12500000000E+03 0.  0.
        -11    1    3    3    0    0  0.54577312252E+02 -0.17889936752E+02  0.20159052292E+02  0.60869698860E+02  0.51100000000E-03 0. -1.
         23    2    1    0    0    0  0.24465539517E+02 -0.47442147741E-01  0.15139947487E+02  0.96228783749E+02  0.91826989156E+02 0.  0.
         11    1    3    3    0    0 -0.30111772735E+02  0.17842494604E+02 -0.50191048053E+01  0.35359084890E+02  0.51100000000E-03 0.  1.
         22    1    1    0    0    0 -0.24465539517E+02  0.47442147741E-01 -0.15139947487E+02  0.28771216251E+02  0.00000000000E+00 0. -1.
</event>
<event>
 5    1  0.8957809E-005  0.9118800E+02  0.7818608E-02  0.1130116E+00
         25   -1    0    0    0    0  0.00000000000E+00  0.00000000000E+00  0.99999998245E-14  0.12500000000E+03  0.12500000000E+03 0.  0.
        -11    1    3    3    0    0 -0.54188415260E+02  0.98419753201E+01  0.25279421145E+02  0.60599488119E+02  0.51100000000E-03 0.  1.
         23    2    1    0    0    0 -0.25266997364E+02  0.13660093590E+02  0.57456375502E+01  0.95707822485E+02  0.91115068026E+02 0.  0.
         11    1    3    3    0    0  0.28921417895E+02  0.38181182699E+01 -0.19533783595E+02  0.35108334367E+02  0.51100000000E-03 0. -1.
         22    1    1    0    0    0  0.25266997364E+02 -0.13660093590E+02 -0.57456375502E+01  0.29292177515E+02  0.00000000000E+00 0.  1.
</event>
<event>
 5    1  0.8957809E-005  0.9118800E+02  0.7818608E-02  0.1130116E+00
         25   -1    0    0    0    0  0.00000000000E+00  0.00000000000E+00  0.99999998245E-14  0.12500000000E+03  0.12500000000E+03 0.  0.
        -11    1    3    3    0    0  0.44125107606E+01 -0.11158236825E+02 -0.59956579356E+02  0.61145465152E+02  0.51100000000E-03 0. -1.
         23    2    1    0    0    0  0.74325586228E+01 -0.12480193428E+02 -0.26365933746E+02  0.94897498144E+02  0.89996525133E+02 0.  0.
         11    1    3    3    0    0  0.30200478622E+01 -0.13219566037E+01  0.33590645610E+02  0.33752032992E+02  0.51100000000E-03 0.  1.
         22    1    1    0    0    0 -0.74325586228E+01  0.12480193428E+02  0.26365933746E+02  0.30102501856E+02  0.00000000000E+00 0. -1.
</event>
<event>
 5    1  0.8957809E-005  0.9118800E+02  0.7818608E-02  0.1130116E+00
         25   -1    0    0    0    0  0.00000000000E+00  0.00000000000E+00  0.99999998245E-14  0.12500000000E+03  0.12500000000E+03 0.  0.
        -11    1    3    3    0    0  0.24980478706E+01 -0.31651104494E+02  0.22870105179E+02  0.39128945424E+02  0.51100000000E-03 0.  1.
         23    2    1    0    0    0  0.23941655177E+01 -0.79188198661E+01 -0.28289757999E+02  0.95525432246E+02  0.90864503859E+02 0.  0.
         11    1    3    3    0    0 -0.10388235288E+00  0.23732284628E+02 -0.51159863178E+02  0.56396486822E+02  0.51100000000E-03 0. -1.
         22    1    1    0    0    0 -0.23941655177E+01  0.79188198661E+01  0.28289757999E+02  0.29474567754E+02  0.00000000000E+00 0. -1.
</event>
<event>
 5    1  0.8957809E-005  0.9118800E+02  0.7818608E-02  0.1130116E+00
         25   -1    0    0    0    0  0.00000000000E+00  0.00000000000E+00  0.99999998245E-14  0.12500000000E+03  0.12500000000E+03 0.  0.
        -11    1    3    3    0    0  0.52159426209E+02  0.18479609439E+02 -0.17717628904E+02  0.58103494574E+02  0.51100000000E-03 0. -1.
         23    2    1    0    0    0  0.15172525598E+02  0.12724950241E+02 -0.21552816912E+02  0.95731351098E+02  0.91147341018E+02 0.  0.
         11    1    3    3    0    0 -0.36986900611E+02 -0.57546591975E+01 -0.38351880082E+01  0.37627856524E+02  0.51100000000E-03 0.  1.
         22    1    1    0    0    0 -0.15172525598E+02 -0.12724950241E+02  0.21552816912E+02  0.29268648902E+02  0.00000000000E+00 0. -1.
</event>
<event>
 5    1  0.8957809E-005  0.9118800E+02  0.7818608E-02  0.1130116E+00
         25   -1    0    0    0    0  0.00000000000E+00  0.00000000000E+00  0.99999998245E-14  0.12500000000E+03  0.12500000000E+03 0.  0.
        -11    1    3    3    0    0 -0.34135310829E+01  0.16736739605E+02 -0.28620394388E+02  0.33330130847E+02  0.51100000000E-03 0. -1.
         23    2    1    0    0    0  0.24195873974E+01 -0.15680463880E+02  0.24486819662E+02  0.95822342661E+02  0.91272042078E+02 0.  0.
         11    1    3    3    0    0  0.58331184802E+01 -0.32417203484E+02  0.53107214050E+02  0.62492211814E+02  0.51100000000E-03 0.  1.
         22    1    1    0    0    0 -0.24195873974E+01  0.15680463880E+02 -0.24486819662E+02  0.29177657339E+02  0.00000000000E+00 0.  1.
</event>
<event>
 5    1  0.8957809E-005  0.9118800E+02  0.7818608E-02  0.1130116E+00
         25   -1    0    0    0    0  0.00000000000E+00  0.00000000000E+00  0.99999998245E-14  0.12500000000E+03  0.12500000000E+03 0.  0.
        -11    1    3    3    0    0 -0.93532937590E+01  0.44987347182E+02  0.12168769377E+02  0.47533403613E+02  0.51100000000E-03 0. -1.
         23    2    1    0    0    0 -0.20648041762E+02  0.18888629184E+02 -0.20100247232E+02  0.90545074665E+02  0.83733318734E+02 0.  0.
         11    1    3    3    0    0 -0.11294748003E+02 -0.26098717997E+02 -0.32269016609E+02  0.43011671052E+02  0.51100000000E-03 0.  1.
         22    1    1    0    0    0  0.20648041762E+02 -0.18888629184E+02  0.20100247232E+02  0.34454925335E+02  0.00000000000E+00 0. -1.
</event>
<event>
 5    1  0.8957809E-005  0.9118800E+02  0.7818608E-02  0.1130116E+00
         25   -1    0    0    0    0  0.00000000000E+00  0.00000000000E+00  0.99999998245E-14  0.12500000000E+03  0.12500000000E+03 0.  0.
        -11    1    3    3    0    0 -0.35404623217E+02  0.92542855304E+01 -0.46344405185E+02  0.59050258577E+02  0.51100000000E-03 0. -1.
         23    2    1    0    0    0 -0.21945942223E+02  0.10315563698E+00 -0.64672507617E+01  0.10212074403E+03  0.99524800972E+02 0.  0.
         11    1    3    3    0    0  0.13458680994E+02 -0.91511298934E+01  0.39877154423E+02  0.43070485458E+02  0.51100000000E-03 0.  1.
         22    1    1    0    0    0  0.21945942223E+02 -0.10315563698E+00  0.64672507617E+01  0.22879255966E+02  0.00000000000E+00 0. -1.
</event>
<event>
 5    1  0.8957809E-005  0.9118800E+02  0.7818608E-02  0.1130116E+00
         25   -1    0    0    0    0  0.00000000000E+00  0.00000000000E+00  0.99999998245E-14  0.12500000000E+03  0.12500000000E+03 0.  0.
        -11    1    3    3    0    0 -0.31514742435E+02  0.49534226848E+02  0.93311969299E+00  0.58717027622E+02  0.51100000000E-03 0. -1.
         23    2    1    0    0    0 -0.62380921655E+01  0.26858918264E+02  0.12682616002E+02  0.94649315777E+02  0.89651151382E+02 0.  0.
         11    1    3    3    0    0  0.25276650269E+02 -0.22675308584E+02  0.11749496309E+02  0.35932288154E+02  0.51100000000E-03 0.  1.
         22    1    1    0    0    0  0.62380921655E+01 -0.26858918264E+02 -0.12682616002E+02  0.30350684223E+02  0.00000000000E+00 0. -1.
</event>
<event>
 5    1  0.8957809E-005  0.9118800E+02  0.7818608E-02  0.1130116E+00
         25   -1    0    0    0    0  0.00000000000E+00  0.00000000000E+00  0.99999998245E-14  0.12500000000E+03  0.12500000000E+03 0.  0.
        -11    1    3    3    0    0 -0.49315313302E+02  0.23601467226E+02  0.18083025942E+02  0.57584939080E+02  0.51100000000E-03 0.  1.
         23    2    1    0    0    0 -0.28637939580E+02  0.51045434646E+01 -0.71038475144E+01  0.95055842025E+02  0.90216187606E+02 0.  0.
         11    1    3    3    0    0  0.20677373723E+02 -0.18496923761E+02 -0.25186873457E+02  0.37470902945E+02  0.51100000000E-03 0. -1.
         22    1    1    0    0    0  0.28637939580E+02 -0.51045434646E+01  0.71038475144E+01  0.29944157975E+02  0.00000000000E+00 0.  1.
</event>
<event>
 5    1  0.8957809E-005  0.9118800E+02  0.7818608E-02  0.1130116E+00
         25   -1    0    0    0    0  0.00000000000E+00  0.00000000000E+00  0.99999998245E-14  0.12500000000E+03  0.12500000000E+03 0.  0.
        -11    1    3    3    0    0  0.19533393635E+02  0.55531230902E+00 -0.45582902947E+02  0.49594988456E+02  0.51100000000E-03 0.  1.
         23    2    1    0    0    0 -0.17865200581E+02  0.95641460675E+01 -0.23570676170E+02  0.93915999985E+02  0.88622796144E+02 0.  0.
         11    1    3    3    0    0 -0.37398594216E+02  0.90088337585E+01  0.22012226777E+02  0.44321011529E+02  0.51100000000E-03 0. -1.
         22    1    1    0    0    0  0.17865200581E+02 -0.95641460675E+01  0.23570676170E+02  0.31084000015E+02  0.00000000000E+00 0.  1.
</event>
<event>
 5    1  0.8957809E-005  0.9118800E+02  0.7818608E-02  0.1130116E+00
         25   -1    0    0    0    0  0.00000000000E+00  0.00000000000E+00  0.99999998245E-14  0.12500000000E+03  0.12500000000E+03 0.  0.
        -11    1    3    3    0    0  0.41639289266E+02  0.16497867604E+02 -0.38916311838E+02  0.59333711947E+02  0.51100000000E-03 0. -1.
         23    2    1    0    0    0  0.75902223378E+01  0.94587646768E+01 -0.25795003267E+02  0.96496282735E+02  0.92190404510E+02 0.  0.
         11    1    3    3    0    0 -0.34049066929E+02 -0.70391029269E+01  0.13121308571E+02  0.37162570788E+02  0.51100000000E-03 0.  1.
         22    1    1    0    0    0 -0.75902223378E+01 -0.94587646768E+01  0.25795003267E+02  0.28503717265E+02  0.00000000000E+00 0. -1.
</event>
<event>
 5    1  0.8957809E-005  0.9118800E+02  0.7818608E-02  0.1130116E+00
         25   -1    0    0    0    0  0.00000000000E+00  0.00000000000E+00  0.99999998245E-14  0.12500000000E+03  0.12500000000E+03 0.  0.
        -11    1    3    3    0    0  0.26768561584E+02  0.18161933055E+02 -0.32128669576E+02  0.45592358028E+02  0.51100000000E-03 0. -1.
         23    2    1    0    0    0 -0.12350097232E+02  0.27598914834E+02 -0.44384546869E+01  0.94439815418E+02  0.89358569004E+02 0.  0.
         11    1    3    3    0    0 -0.39118658816E+02  0.94369817798E+01  0.27690214889E+02  0.48847457390E+02  0.51100000000E-03 0.  1.
         22    1    1    0    0    0  0.12350097232E+02 -0.27598914834E+02  0.44384546869E+01  0.30560184582E+02  0.00000000000E+00 0. -1.
</event>
<event>
 5    1  0.8957809E-005  0.9118800E+02  0.7818608E-02  0.1130116E+00
         25   -1    0    0    0    0  0.00000000000E+00  0.00000000000E+00  0.99999998245E-14  0.12500000000E+03  0.12500000000E+03 0.  0.
        -11    1    3    3    0    0  0.39400196992E+01 -0.31585440729E+02 -0.22046557152E+02  0.38719691422E+02  0.51100000000E-03 0. -1.
         23    2    1    0    0    0 -0.22133483416E+02  0.11754173990E+02  0.93515380348E+01  0.98251112959E+02  0.94539823566E+02 0.  0.
         11    1    3    3    0    0 -0.26073503115E+02  0.43339614719E+02  0.31398095186E+02  0.59531421538E+02  0.51100000000E-03 0.  1.
         22    1    1    0    0    0  0.22133483416E+02 -0.11754173990E+02 -0.93515380348E+01  0.26748887041E+02  0.00000000000E+00 0.  1.
</event>
<event>
 5    1  0.8957809E-005  0.9118800E+02  0.7818608E-02  0.1130116E+00
         25   -1    0    0    0    0  0.00000000000E+00  0.00000000000E+00  0.99999998245E-14  0.12500000000E+03  0.12500000000E+03 0.  0.
        -11    1    3    3    0    0 -0.42124623511E+02  0.36303569048E+02 -0.61438609108E+01  0.55948012107E+02  0.51100000000E-03 0. -1.
         23    2    1    0    0    0 -0.10229276580E+02  0.14632776866E+02 -0.21146521857E+02  0.97324529908E+02  0.93306658268E+02 0.  0.
         11    1    3    3    0    0  0.31895346931E+02 -0.21670792182E+02 -0.15002660946E+02  0.41376517801E+02  0.51100000000E-03 0.  1.
         22    1    1    0    0    0  0.10229276580E+02 -0.14632776866E+02  0.21146521857E+02  0.27675470092E+02  0.00000000000E+00 0. -1.
</event>
<event>
 5    1  0.8957809E-005  0.9118800E+02  0.7818608E-02  0.1130116E+00
         25   -1    0    0    0    0  0.00000000000E+00  0.00000000000E+00  0.99999998245E-14  0.12500000000E+03  0.12500000000E+03 0.  0.
        -11    1    3    3    0    0  0.24267253520E+02  0.59929512160E+01 -0.26320627619E+02  0.36298629399E+02  0.51100000000E-03 0. -1.
         23    2    1    0    0    0 -0.34513050864E+00  0.17177784640E+02  0.25210954204E+02  0.94491187960E+02  0.89430403051E+02 0.  0.
         11    1    3    3    0    0 -0.24612384029E+02  0.11184833424E+02  0.51531581824E+02  0.58192558561E+02  0.51100000000E-03 0.  1.
         22    1    1    0    0    0  0.34513050864E+00 -0.17177784640E+02 -0.25210954204E+02  0.30508812040E+02  0.00000000000E+00 0.  1.
</event>
<event>
 5    1  0.8957809E-005  0.9118800E+02  0.7818608E-02  0.1130116E+00
         25   -1    0    0    0    0  0.00000000000E+00  0.00000000000E+00  0.99999998245E-14  0.12500000000E+03  0.12500000000E+03 0.  0.
        -11    1    3    3    0    0 -0.23534664114E+02 -0.18047809925E+02  0.26217870767E+02  0.39585105859E+02  0.51100000000E-03 0. -1.
         23    2    1    0    0    0  0.12510720751E+02 -0.19586887534E+02 -0.17236531537E+02  0.96064514582E+02  0.91603103908E+02 0.  0.
         11    1    3    3    0    0  0.36045384865E+02 -0.15390776084E+01 -0.43454402303E+02  0.56479408723E+02  0.51100000000E-03 0.  1.
         22    1    1    0    0    0 -0.12510720751E+02  0.19586887534E+02  0.17236531537E+02  0.28935485418E+02  0.00000000000E+00 0.  1.
</event>
<event>
 5    1  0.8957809E-005  0.9118800E+02  0.7818608E-02  0.1130116E+00
         25   -1    0    0    0    0  0.00000000000E+00  0.00000000000E+00  0.99999998245E-14  0.12500000000E+03  0.12500000000E+03 0.  0.
        -11    1    3    3    0    0 -0.51223361217E+02 -0.11535515386E+02 -0.19357231943E+02  0.55960729788E+02  0.51100000000E-03 0. -1.
         23    2    1    0    0    0 -0.24544052120E+02  0.14265425648E+02 -0.32275221952E+01  0.96428514864E+02  0.92098472929E+02 0.  0.
         11    1    3    3    0    0  0.26679309098E+02  0.25800941034E+02  0.16129709747E+02  0.40467785076E+02  0.51100000000E-03 0.  1.
         22    1    1    0    0    0  0.24544052120E+02 -0.14265425648E+02  0.32275221952E+01  0.28571485136E+02  0.00000000000E+00 0. -1.
</event>
<event>
 5    1  0.8957809E-005  0.9118800E+02  0.7818608E-02  0.1130116E+00
         25   -1    0    0    0    0  0.00000000000E+00  0.00000000000E+00  0.99999998245E-14  0.12500000000E+03  0.12500000000E+03 0.  0.
        -11    1    3    3    0    0 -0.36569758959E+02  0.16894402155E+02 -0.35850526564E+02  0.53926137908E+02  0.51100000000E-03 0. -1.
         23    2    1    0    0    0 -0.26429587200E+02  0.15495120243E+01  0.43832383317E+01  0.98164634429E+02  0.94425412931E+02 0.  0.
         11    1    3    3    0    0  0.10140171759E+02 -0.15344890130E+02  0.40233764896E+02  0.44238496520E+02  0.51100000000E-03 0.  1.
         22    1    1    0    0    0  0.26429587200E+02 -0.15495120243E+01 -0.43832383317E+01  0.26835365571E+02  0.00000000000E+00 0. -1.
</event>
<event>
 5    1  0.8957809E-005  0.9118800E+02  0.7818608E-02  0.1130116E+00
         25   -1    0    0    0    0  0.00000000000E+00  0.00000000000E+00  0.99999998245E-14  0.12500000000E+03  0.12500000000E+03 0.  0.
        -11    1    3    3    0    0  0.25472946016E+00  0.16381963656E+02 -0.26512535638E+02  0.31166458999E+02  0.51100000000E-03 0.  1.
         23    2    1    0    0    0  0.21717275932E+02  0.41594904351E+01  0.26998268620E+02  0.90102321810E+02  0.83069732469E+02 0.  0.
         11    1    3    3    0    0  0.21462546472E+02 -0.12222473220E+02  0.53510804258E+02  0.58935862811E+02  0.51100000000E-03 0. -1.
         22    1    1    0    0    0 -0.21717275932E+02 -0.41594904351E+01 -0.26998268620E+02  0.34897678190E+02  0.00000000000E+00 0. -1.
</event>
<event>
 5    1  0.8957809E-005  0.9118800E+02  0.7818608E-02  0.1130116E+00
         25   -1    0    0    0    0  0.00000000000E+00  0.00000000000E+00  0.99999998245E-14  0.12500000000E+03  0.12500000000E+03 0.  0.
        -11    1    3    3    0    0  0.80261252165E+01  0.19240961479E+02 -0.37944143943E+02  0.43294241470E+02  0.51100000000E-03 0. -1.
         23    2    1    0    0    0  0.13263360693E+02 -0.24719941506E+02 -0.13473852261E+02  0.93878673877E+02  0.88570133054E+02 0.  0.
         11    1    3    3    0    0  0.52372354761E+01 -0.43960902985E+02  0.24470291682E+02  0.50584432407E+02  0.51100000000E-03 0.  1.
         22    1    1    0    0    0 -0.13263360693E+02  0.24719941506E+02  0.13473852261E+02  0.31121326123E+02  0.00000000000E+00 0.  1.
</event>
<event>
 5    1  0.8957809E-005  0.9118800E+02  0.7818608E-02  0.1130116E+00
         25   -1    0    0    0    0  0.00000000000E+00  0.00000000000E+00  0.99999998245E-14  0.12500000000E+03  0.12500000000E+03 0.  0.
        -11    1    3    3    0    0 -0.43080025757E+02  0.12607274395E+02 -0.34846194457E+02  0.56825075937E+02  0.51100000000E-03 0.  1.
         23    2    1    0    0    0 -0.50367040159E+01  0.28963113997E+01 -0.27654872009E+02  0.96741391526E+02  0.92522148059E+02 0.  0.
         11    1    3    3    0    0  0.38043321741E+02 -0.97109629951E+01  0.71913224485E+01  0.39916315589E+02  0.51100000000E-03 0. -1.
         22    1    1    0    0    0  0.50367040159E+01 -0.28963113997E+01  0.27654872009E+02  0.28258608474E+02  0.00000000000E+00 0.  1.
</event>
<event>
 5    1  0.8957809E-005  0.9118800E+02  0.7818608E-02  0.1130116E+00
         25   -1    0    0    0    0  0.00000000000E+00  0.00000000000E+00  0.99999998245E-14  0.12500000000E+03  0.12500000000E+03 0.  0.
        -11    1    3    3    0    0 -0.41111933224E+02 -0.31226423465E+02 -0.50626376197E+01  0.51873990359E+02  0.51100000000E-03 0. -1.
         23    2    1    0    0    0 -0.28772550941E+02 -0.62636593877E+00 -0.21823946869E+02  0.88881629621E+02  0.81212113660E+02 0.  0.
         11    1    3    3    0    0  0.12339382284E+02  0.30600057526E+02 -0.16761309249E+02  0.37007639262E+02  0.51100000000E-03 0.  1.
         22    1    1    0    0    0  0.28772550941E+02  0.62636593877E+00  0.21823946869E+02  0.36118370379E+02  0.00000000000E+00 0. -1.
</event>
<event>
 5    1  0.8957809E-005  0.9118800E+02  0.7818608E-02  0.1130116E+00
         25   -1    0    0    0    0  0.00000000000E+00  0.00000000000E+00  0.99999998245E-14  0.12500000000E+03  0.12500000000E+03 0.  0.
        -11    1    3    3    0    0  0.44192492036E+01  0.18694326481E+02  0.34961751055E+02  0.39891498382E+02  0.51100000000E-03 0.  1.
         23    2    1    0    0    0 -0.23980594659E+02 -0.19233503825E+01 -0.11676073259E+02  0.98258667131E+02  0.94549811119E+02 0.  0.
         11    1    3    3    0    0 -0.28399843862E+02 -0.20617676863E+02 -0.46637824314E+02  0.58367168748E+02  0.51100000000E-03 0. -1.
         22    1    1    0    0    0  0.23980594659E+02  0.19233503825E+01  0.11676073259E+02  0.26741332869E+02  0.00000000000E+00 0. -1.
</event>
<event>
 5    1  0.8957809E-005  0.9118800E+02  0.7818608E-02  0.1130116E+00
         25   -1    0    0    0    0  0.00000000000E+00  0.00000000000E+00  0.99999998245E-14  0.12500000000E+03  0.12500000000E+03 0.  0.
        -11    1    3    3    0    0 -0.49439889888E+02  0.97331174532E+01 -0.17820291498E+02  0.53447161541E+02  0.51100000000E-03 0.  1.
         23    2    1    0    0    0 -0.12796198443E+02 -0.12575646050E+02 -0.22070029651E+02  0.96557500515E+02  0.92273371721E+02 0.  0.
         11    1    3    3    0    0  0.36643691445E+02 -0.22308763503E+02 -0.42497381531E+01  0.43110338974E+02  0.51100000000E-03 0. -1.
         22    1    1    0    0    0  0.12796198443E+02  0.12575646050E+02  0.22070029651E+02  0.28442499485E+02  0.00000000000E+00 0.  1.
</event>
<event>
 5    1  0.8957809E-005  0.9118800E+02  0.7818608E-02  0.1130116E+00
         25   -1    0    0    0    0  0.00000000000E+00  0.00000000000E+00  0.99999998245E-14  0.12500000000E+03  0.12500000000E+03 0.  0.
        -11    1    3    3    0    0  0.28236511952E+02 -0.14101294179E+02  0.19747910775E+02  0.37230727699E+02  0.51100000000E-03 0.  1.
         23    2    1    0    0    0 -0.17145610345E+01  0.10780226713E+02 -0.25700079576E+02  0.97077838591E+02  0.92975586300E+02 0.  0.
         11    1    3    3    0    0 -0.29951072986E+02  0.24881520892E+02 -0.45447990351E+02  0.59847110892E+02  0.51100000000E-03 0. -1.
         22    1    1    0    0    0  0.17145610345E+01 -0.10780226713E+02  0.25700079576E+02  0.27922161409E+02  0.00000000000E+00 0. -1.
</event>
<event>
 5    1  0.8957809E-005  0.9118800E+02  0.7818608E-02  0.1130116E+00
         25   -1    0    0    0    0  0.00000000000E+00  0.00000000000E+00  0.99999998245E-14  0.12500000000E+03  0.12500000000E+03 0.  0.
        -11    1    3    3    0    0  0.20234037751E+02 -0.47730596206E+02  0.31110795142E+02  0.60460794508E+02  0.51100000000E-03 0.  1.
         23    2    1    0    0    0  0.10325130343E+02 -0.15336190780E+02  0.23354541836E+02  0.95213397498E+02  0.90434226786E+02 0.  0.
         11    1    3    3    0    0 -0.99089074080E+01  0.32394405426E+02 -0.77562533058E+01  0.34752602989E+02  0.51100000000E-03 0. -1.
         22    1    1    0    0    0 -0.10325130343E+02  0.15336190780E+02 -0.23354541836E+02  0.29786602502E+02  0.00000000000E+00 0.  1.
</event>
<event>
 5    1  0.8957809E-005  0.9118800E+02  0.7818608E-02  0.1130116E+00
         25   -1    0    0    0    0  0.00000000000E+00  0.00000000000E+00  0.99999998245E-14  0.12500000000E+03  0.12500000000E+03 0.  0.
        -11    1    3    3    0    0  0.41823304928E+02  0.16721642995E+02 -0.34178185434E+02  0.56541582392E+02  0.51100000000E-03 0.  1.
         23    2    1    0    0    0  0.59974325981E+01  0.31158646825E+01 -0.29012581179E+02  0.95210611333E+02  0.90430375612E+02 0.  0.
         11    1    3    3    0    0 -0.35825872330E+02 -0.13605778312E+02  0.51656042558E+01  0.38669028941E+02  0.51100000000E-03 0. -1.
         22    1    1    0    0    0 -0.59974325981E+01 -0.31158646825E+01  0.29012581179E+02  0.29789388667E+02  0.00000000000E+00 0.  1.
</event>
<event>
 5    1  0.8957809E-005  0.9118800E+02  0.7818608E-02  0.1130116E+00
         25   -1    0    0    0    0  0.00000000000E+00  0.00000000000E+00  0.99999998245E-14  0.12500000000E+03  0.12500000000E+03 0.  0.
        -11    1    3    3    0    0  0.97699052920E+01  0.44057566140E+02  0.28081646364E+02  0.53151660805E+02  0.51100000000E-03 0.  1.
         23    2    1    0    0    0 -0.19607529961E+02  0.16832635554E+02  0.80562759953E+01  0.97931634076E+02  0.94116462530E+02 0.  0.
         11    1    3    3    0    0 -0.29377435253E+02 -0.27224930586E+02 -0.20025370369E+02  0.44779973271E+02  0.51100000000E-03 0. -1.
         22    1    1    0    0    0  0.19607529961E+02 -0.16832635554E+02 -0.80562759953E+01  0.27068365924E+02  0.00000000000E+00 0. -1.
</event>
<event>
 5    1  0.8957809E-005  0.9118800E+02  0.7818608E-02  0.1130116E+00
         25   -1    0    0    0    0  0.00000000000E+00  0.00000000000E+00  0.99999998245E-14  0.12500000000E+03  0.12500000000E+03 0.  0.
        -11    1    3    3    0    0 -0.18320267587E+02  0.23603703091E+02 -0.34296556501E+02  0.45486490216E+02  0.51100000000E-03 0.  1.
         23    2    1    0    0    0 -0.17392703930E+02 -0.20774212765E+02 -0.97771643950E+01  0.96196059131E+02  0.91782431776E+02 0.  0.
         11    1    3    3    0    0  0.92756365617E+00 -0.44377915855E+02  0.24519392106E+02  0.50709568915E+02  0.51100000000E-03 0. -1.
         22    1    1    0    0    0  0.17392703930E+02  0.20774212765E+02  0.97771643950E+01  0.28803940869E+02  0.00000000000E+00 0. -1.
</event>
<event>
 5    1  0.8957809E-005  0.9118800E+02  0.7818608E-02  0.1130116E+00
         25   -1    0    0    0    0  0.00000000000E+00  0.00000000000E+00  0.99999998245E-14  0.12500000000E+03  0.12500000000E+03 0.  0.
        -11    1    3    3    0    0 -0.26958854099E+02  0.42163896861E+02  0.36054829416E+02  0.61680829577E+02  0.51100000000E-03 0. -1.
         23    2    1    0    0    0 -0.17127861092E+02  0.21469873098E+02  0.11614831393E+02  0.95180151162E+02  0.90388261353E+02 0.  0.
         11    1    3    3    0    0  0.98309930070E+01 -0.20694023763E+02 -0.24439998023E+02  0.33499321585E+02  0.51100000000E-03 0.  1.
         22    1    1    0    0    0  0.17127861092E+02 -0.21469873098E+02 -0.11614831393E+02  0.29819848838E+02  0.00000000000E+00 0. -1.
</event>
<event>
 5    1  0.8957809E-005  0.9118800E+02  0.7818608E-02  0.1130116E+00
         25   -1    0    0    0    0  0.00000000000E+00  0.00000000000E+00  0.99999998245E-14  0.12500000000E+03  0.12500000000E+03 0.  0.
        -11    1    3    3    0    0  0.24010550637E+02 -0.39507532989E+02  0.34106418174E+02  0.57450843908E+02  0.51100000000E-03 0.  1.
         23    2    1    0    0    0  0.21398505909E+02 -0.22976524465E+02  0.21448127338E+01  0.93529109430E+02  0.88075407223E+02 0.  0.
         11    1    3    3    0    0 -0.26120447280E+01  0.16531008525E+02 -0.31961605440E+02  0.36078265522E+02  0.51100000000E-03 0. -1.
         22    1    1    0    0    0 -0.21398505909E+02  0.22976524465E+02 -0.21448127338E+01  0.31470890570E+02  0.00000000000E+00 0.  1.
</event>
<event>
 5    1  0.8957809E-005  0.9118800E+02  0.7818608E-02  0.1130116E+00
         25   -1    0    0    0    0  0.00000000000E+00  0.00000000000E+00  0.99999998245E-14  0.12500000000E+03  0.12500000000E+03 0.  0.
        -11    1    3    3    0    0 -0.10343108282E+02  0.25848334551E+02  0.25702867581E+02  0.37891340569E+02  0.51100000000E-03 0.  1.
         23    2    1    0    0    0  0.26105947436E+02  0.11810819157E+02 -0.13583511900E+02  0.93289942664E+02  0.87735315957E+02 0.  0.
         11    1    3    3    0    0  0.36449055718E+02 -0.14037515393E+02 -0.39286379481E+02  0.55398602095E+02  0.51100000000E-03 0. -1.
         22    1    1    0    0    0 -0.26105947436E+02 -0.11810819157E+02  0.13583511900E+02  0.31710057336E+02  0.00000000000E+00 0. -1.
</event>
<event>
 5    1  0.8957809E-005  0.9118800E+02  0.7818608E-02  0.1130116E+00
         25   -1    0    0    0    0  0.00000000000E+00  0.00000000000E+00  0.99999998245E-14  0.12500000000E+03  0.12500000000E+03 0.  0.
        -11    1    3    3    0    0 -0.58795889469E+01  0.12475871383E+02 -0.42336914917E+02  0.44526748117E+02  0.51100000000E-03 0.  1.
         23    2    1    0    0    0 -0.68840824204E+01 -0.24113487132E+02 -0.35138450999E+02  0.81831011234E+02  0.69518003486E+02 0.  0.
         11    1    3    3    0    0 -0.10044934735E+01 -0.36589358515E+02  0.71984639184E+01  0.37304263117E+02  0.51100000000E-03 0. -1.
         22    1    1    0    0    0  0.68840824204E+01  0.24113487132E+02  0.35138450999E+02  0.43168988766E+02  0.00000000000E+00 0.  1.
</event>
<event>
 5    1  0.8957809E-005  0.9118800E+02  0.7818608E-02  0.1130116E+00
         25   -1    0    0    0    0  0.00000000000E+00  0.00000000000E+00  0.99999998245E-14  0.12500000000E+03  0.12500000000E+03 0.  0.
        -11    1    3    3    0    0  0.25361791699E+01  0.56603678391E+02  0.21326871879E+02  0.60541259291E+02  0.51100000000E-03 0.  1.
         23    2    1    0    0    0 -0.89472260959E+01  0.23384073243E+02  0.13517197574E+02  0.96546839077E+02  0.92258927857E+02 0.  0.
         11    1    3    3    0    0 -0.11483405266E+02 -0.33219605148E+02 -0.78096743044E+01  0.36005579786E+02  0.51100000000E-03 0. -1.
         22    1    1    0    0    0  0.89472260959E+01 -0.23384073243E+02 -0.13517197574E+02  0.28453160923E+02  0.00000000000E+00 0. -1.
</event>
<event>
 5    1  0.8957809E-005  0.9118800E+02  0.7818608E-02  0.1130116E+00
         25   -1    0    0    0    0  0.00000000000E+00  0.00000000000E+00  0.99999998245E-14  0.12500000000E+03  0.12500000000E+03 0.  0.
        -11    1    3    3    0    0 -0.11796224702E+02  0.39194464676E+02 -0.18828149728E+02  0.45053925477E+02  0.51100000000E-03 0. -1.
         23    2    1    0    0    0  0.26071015051E+02  0.58270294185E+01 -0.21920009260E+01  0.98195952438E+02  0.94466862494E+02 0.  0.
         11    1    3    3    0    0  0.37867239754E+02 -0.33367435258E+02  0.16636148802E+02  0.53142026960E+02  0.51100000000E-03 0.  1.
         22    1    1    0    0    0 -0.26071015051E+02 -0.58270294185E+01  0.21920009260E+01  0.26804047562E+02  0.00000000000E+00 0.  1.
</event>
<event>
 5    1  0.8957809E-005  0.9118800E+02  0.7818608E-02  0.1130116E+00
         25   -1    0    0    0    0  0.00000000000E+00  0.00000000000E+00  0.99999998245E-14  0.12500000000E+03  0.12500000000E+03 0.  0.
        -11    1    3    3    0    0 -0.10109891917E+02  0.29885504173E+02  0.39223659303E+02  0.50337349191E+02  0.51100000000E-03 0. -1.
         23    2    1    0    0    0  0.20884107983E+02  0.71929305794E+00  0.14623654977E+02  0.99494811633E+02  0.96170176814E+02 0.  0.
         11    1    3    3    0    0  0.30993999900E+02 -0.29166211115E+02 -0.24600004327E+02  0.49157462442E+02  0.51100000000E-03 0.  1.
         22    1    1    0    0    0 -0.20884107983E+02 -0.71929305794E+00 -0.14623654977E+02  0.25505188367E+02  0.00000000000E+00 0. -1.
</event>
<event>
 5    1  0.8957809E-005  0.9118800E+02  0.7818608E-02  0.1130116E+00
         25   -1    0    0    0    0  0.00000000000E+00  0.00000000000E+00  0.99999998245E-14  0.12500000000E+03  0.12500000000E+03 0.  0.
        -11    1    3    3    0    0 -0.11289968776E+02 -0.34988308846E+02  0.74495855793E+01  0.37511884469E+02  0.51100000000E-03 0. -1.
         23    2    1    0    0    0  0.25884837213E+02  0.10657959204E+02  0.58476941951E+01  0.96402580198E+02  0.92063266559E+02 0.  0.
         11    1    3    3    0    0  0.37174805989E+02  0.45646268049E+02 -0.16018913842E+01  0.58890695729E+02  0.51100000000E-03 0.  1.
         22    1    1    0    0    0 -0.25884837213E+02 -0.10657959204E+02 -0.58476941951E+01  0.28597419802E+02  0.00000000000E+00 0.  1.
</event>
<event>
 5    1  0.8957809E-005  0.9118800E+02  0.7818608E-02  0.1130116E+00
         25   -1    0    0    0    0  0.00000000000E+00  0.00000000000E+00  0.99999998245E-14  0.12500000000E+03  0.12500000000E+03 0.  0.
        -11    1    3    3    0    0 -0.73816679027E+01 -0.46098185811E+01 -0.32274678891E+02  0.33427448992E+02  0.51100000000E-03 0. -1.
         23    2    1    0    0    0 -0.52770060540E+01  0.16842145018E+01  0.29210077756E+02  0.95269342189E+02  0.90511521627E+02 0.  0.
         11    1    3    3    0    0  0.21046618487E+01  0.62940330829E+01  0.61484756647E+02  0.61841893196E+02  0.51100000000E-03 0.  1.
         22    1    1    0    0    0  0.52770060540E+01 -0.16842145018E+01 -0.29210077756E+02  0.29730657811E+02  0.00000000000E+00 0.  1.
</event>
<event>
 5    1  0.8957809E-005  0.9118800E+02  0.7818608E-02  0.1130116E+00
         25   -1    0    0    0    0  0.00000000000E+00  0.00000000000E+00  0.99999998245E-14  0.12500000000E+03  0.12500000000E+03 0.  0.
        -11    1    3    3    0    0 -0.11259769444E+02 -0.45733022376E+02 -0.15910753885E+02  0.49713618185E+02  0.51100000000E-03 0. -1.
         23    2    1    0    0    0 -0.14910767527E+02  0.21164436876E+01 -0.22263806186E+02  0.98120874493E+02  0.94367465916E+02 0.  0.
         11    1    3    3    0    0 -0.36509980831E+01  0.47849466063E+02 -0.63530523004E+01  0.48407256309E+02  0.51100000000E-03 0.  1.
         22    1    1    0    0    0  0.14910767527E+02 -0.21164436876E+01  0.22263806186E+02  0.26879125507E+02  0.00000000000E+00 0. -1.
</event>
<event>
 5    1  0.8957809E-005  0.9118800E+02  0.7818608E-02  0.1130116E+00
         25   -1    0    0    0    0  0.00000000000E+00  0.00000000000E+00  0.99999998245E-14  0.12500000000E+03  0.12500000000E+03 0.  0.
        -11    1    3    3    0    0 -0.10411023061E+02 -0.14032219281E+02 -0.46675734341E+02  0.49838908050E+02  0.51100000000E-03 0.  1.
         23    2    1    0    0    0  0.20030355460E+02  0.25228351103E+01 -0.31311771508E+02  0.87744035755E+02  0.79441858857E+02 0.  0.
         11    1    3    3    0    0  0.30441378521E+02  0.16555054391E+02  0.15363962832E+02  0.37905127705E+02  0.51100000000E-03 0. -1.
         22    1    1    0    0    0 -0.20030355460E+02 -0.25228351103E+01  0.31311771508E+02  0.37255964245E+02  0.00000000000E+00 0.  1.
</event>
<event>
 5    1  0.8957809E-005  0.9118800E+02  0.7818608E-02  0.1130116E+00
         25   -1    0    0    0    0  0.00000000000E+00  0.00000000000E+00  0.99999998245E-14  0.12500000000E+03  0.12500000000E+03 0.  0.
        -11    1    3    3    0    0 -0.25762373876E+02 -0.13916049234E+02  0.30853541443E+02  0.42535836113E+02  0.51100000000E-03 0. -1.
         23    2    1    0    0    0  0.22023583311E+02  0.39193327364E+00  0.23212695869E+02  0.92999670579E+02  0.87320774417E+02 0.  0.
         11    1    3    3    0    0  0.47785957187E+02  0.14307982508E+02 -0.76408455741E+01  0.50463834466E+02  0.51100000000E-03 0.  1.
         22    1    1    0    0    0 -0.22023583311E+02 -0.39193327364E+00 -0.23212695869E+02  0.32000329421E+02  0.00000000000E+00 0. -1.
</event>
<event>
 5    1  0.8957809E-005  0.9118800E+02  0.7818608E-02  0.1130116E+00
         25   -1    0    0    0    0  0.00000000000E+00  0.00000000000E+00  0.99999998245E-14  0.12500000000E+03  0.12500000000E+03 0.  0.
        -11    1    3    3    0    0 -0.84240585112E+01  0.24888634671E+02 -0.32307336067E+02  0.41643401177E+02  0.51100000000E-03 0. -1.
         23    2    1    0    0    0  0.94056102603E+01  0.24531612418E+02  0.16750227804E+02  0.93841764432E+02  0.88518027023E+02 0.  0.
         11    1    3    3    0    0  0.17829668771E+02 -0.35702225276E+00  0.49057563870E+02  0.52198363255E+02  0.51100000000E-03 0.  1.
         22    1    1    0    0    0 -0.94056102603E+01 -0.24531612418E+02 -0.16750227804E+02  0.31158235568E+02  0.00000000000E+00 0.  1.
</event>
<event>
 5    1  0.8957809E-005  0.9118800E+02  0.7818608E-02  0.1130116E+00
         25   -1    0    0    0    0  0.00000000000E+00  0.00000000000E+00  0.99999998245E-14  0.12500000000E+03  0.12500000000E+03 0.  0.
        -11    1    3    3    0    0 -0.47823589901E+02 -0.48150780110E+01  0.39831889049E+02  0.62424835704E+02  0.51100000000E-03 0.  1.
         23    2    1    0    0    0 -0.22128482069E+02 -0.42907665777E+01  0.19496779378E+02  0.95197234984E+02  0.90411883876E+02 0.  0.
         11    1    3    3    0    0  0.25695107832E+02  0.52431143329E+00 -0.20335109671E+02  0.32772399280E+02  0.51100000000E-03 0. -1.
         22    1    1    0    0    0  0.22128482069E+02  0.42907665777E+01 -0.19496779378E+02  0.29802765016E+02  0.00000000000E+00 0.  1.
</event>
<event>
 5    1  0.8957809E-005  0.9118800E+02  0.7818608E-02  0.1130116E+00
         25   -1    0    0    0    0  0.00000000000E+00  0.00000000000E+00  0.99999998245E-14  0.12500000000E+03  0.12500000000E+03 0.  0.
        -11    1    3    3    0    0 -0.22156622261E+01 -0.17984074964E+02 -0.30656635935E+02  0.35611310542E+02  0.51100000000E-03 0.  1.
         23    2    1    0    0    0  0.81846982507E+01 -0.91479932937E+01  0.27254543422E+02  0.95108777143E+02  0.90289502633E+02 0.  0.
         11    1    3    3    0    0  0.10400360477E+02  0.88360816702E+01  0.57911179356E+02  0.59497466602E+02  0.51100000000E-03 0. -1.
         22    1    1    0    0    0 -0.81846982507E+01  0.91479932937E+01 -0.27254543422E+02  0.29891222857E+02  0.00000000000E+00 0. -1.
</event>
<event>
 5    1  0.8957809E-005  0.9118800E+02  0.7818608E-02  0.1130116E+00
         25   -1    0    0    0    0  0.00000000000E+00  0.00000000000E+00  0.99999998245E-14  0.12500000000E+03  0.12500000000E+03 0.  0.
        -11    1    3    3    0    0 -0.25411727953E+02  0.24538927316E+02  0.34298221517E+02  0.49237007127E+02  0.51100000000E-03 0. -1.
         23    2    1    0    0    0 -0.28109567638E+02  0.22187528566E+01 -0.67205601214E+01  0.96013165309E+02  0.91533006764E+02 0.  0.
         11    1    3    3    0    0 -0.26978396857E+01 -0.22320174459E+02 -0.41018781639E+02  0.46776158182E+02  0.51100000000E-03 0.  1.
         22    1    1    0    0    0  0.28109567638E+02 -0.22187528566E+01  0.67205601214E+01  0.28986834691E+02  0.00000000000E+00 0.  1.
</event>
<event>
 5    1  0.8957809E-005  0.9118800E+02  0.7818608E-02  0.1130116E+00
         25   -1    0    0    0    0  0.00000000000E+00  0.00000000000E+00  0.99999998245E-14  0.12500000000E+03  0.12500000000E+03 0.  0.
        -11    1    3    3    0    0 -0.58739864605E+02 -0.70748478398E+01  0.17165406316E+02  0.61604190929E+02  0.51100000000E-03 0.  1.
         23    2    1    0    0    0 -0.21564040598E+02 -0.40530880238E+01 -0.88448253075E+00  0.10304054466E+03  0.10067341340E+03 0.  0.
         11    1    3    3    0    0  0.37175824007E+02  0.30217598161E+01 -0.18049888846E+02  0.41436353732E+02  0.51100000000E-03 0. -1.
         22    1    1    0    0    0  0.21564040598E+02  0.40530880238E+01  0.88448253075E+00  0.21959455339E+02  0.00000000000E+00 0.  1.
</event>
<event>
 5    1  0.8957809E-005  0.9118800E+02  0.7818608E-02  0.1130116E+00
         25   -1    0    0    0    0  0.00000000000E+00  0.00000000000E+00  0.99999998245E-14  0.12500000000E+03  0.12500000000E+03 0.  0.
        -11    1    3    3    0    0 -0.27289430564E+02 -0.25843242829E+02 -0.10230356432E+02  0.38951847368E+02  0.51100000000E-03 0.  1.
         23    2    1    0    0    0 -0.92164498375E+01  0.27529638778E+02 -0.49647583439E+01  0.95547109068E+02  0.90894319223E+02 0.  0.
         11    1    3    3    0    0  0.18072980726E+02  0.53372881607E+02  0.52655980881E+01  0.56595261700E+02  0.51100000000E-03 0. -1.
         22    1    1    0    0    0  0.92164498375E+01 -0.27529638778E+02  0.49647583439E+01  0.29452890932E+02  0.00000000000E+00 0. -1.
</event>
<event>
 5    1  0.8957809E-005  0.9118800E+02  0.7818608E-02  0.1130116E+00
         25   -1    0    0    0    0  0.00000000000E+00  0.00000000000E+00  0.99999998245E-14  0.12500000000E+03  0.12500000000E+03 0.  0.
        -11    1    3    3    0    0  0.27508023426E+02 -0.22332353850E+02  0.12529097005E+02  0.37581959147E+02  0.51100000000E-03 0.  1.
         23    2    1    0    0    0  0.56857897461E+01  0.25906983809E+02 -0.11945265308E+02  0.95910665556E+02  0.91392923080E+02 0.  0.
         11    1    3    3    0    0 -0.21822233680E+02  0.48239337659E+02 -0.24474362313E+02  0.58328706410E+02  0.51100000000E-03 0. -1.
         22    1    1    0    0    0 -0.56857897461E+01 -0.25906983809E+02  0.11945265308E+02  0.29089334444E+02  0.00000000000E+00 0. -1.
</event>
<event>
 5    1  0.8957809E-005  0.9118800E+02  0.7818608E-02  0.1130116E+00
         25   -1    0    0    0    0  0.00000000000E+00  0.00000000000E+00  0.99999998245E-14  0.12500000000E+03  0.12500000000E+03 0.  0.
        -11    1    3    3    0    0 -0.15506668558E+02 -0.24104643252E+02  0.23335765107E+02  0.36960093742E+02  0.51100000000E-03 0.  1.
         23    2    1    0    0    0  0.27271146018E+02  0.93084032499E+01 -0.34653515424E+00  0.96181917780E+02  0.91763170417E+02 0.  0.
         11    1    3    3    0    0  0.42777814576E+02  0.33413046502E+02 -0.23682300261E+02  0.59221824038E+02  0.51100000000E-03 0. -1.
         22    1    1    0    0    0 -0.27271146018E+02 -0.93084032499E+01  0.34653515424E+00  0.28818082220E+02  0.00000000000E+00 0. -1.
</event>
<event>
 5    1  0.8957809E-005  0.9118800E+02  0.7818608E-02  0.1130116E+00
         25   -1    0    0    0    0  0.00000000000E+00  0.00000000000E+00  0.99999998245E-14  0.12500000000E+03  0.12500000000E+03 0.  0.
        -11    1    3    3    0    0 -0.52770788008E+01  0.27694688615E+02 -0.20700236121E+02  0.34976322189E+02  0.51100000000E-03 0.  1.
         23    2    1    0    0    0  0.37416210804E+01 -0.16590678763E+02  0.22027338098E+02  0.97170986834E+02  0.93100734199E+02 0.  0.
         11    1    3    3    0    0  0.90186998812E+01 -0.44285367378E+02  0.42727574219E+02  0.62194664645E+02  0.51100000000E-03 0. -1.
         22    1    1    0    0    0 -0.37416210804E+01  0.16590678763E+02 -0.22027338098E+02  0.27829013166E+02  0.00000000000E+00 0. -1.
</event>
<event>
 5    1  0.8957809E-005  0.9118800E+02  0.7818608E-02  0.1130116E+00
         25   -1    0    0    0    0  0.00000000000E+00  0.00000000000E+00  0.99999998245E-14  0.12500000000E+03  0.12500000000E+03 0.  0.
        -11    1    3    3    0    0  0.53739878834E+02  0.55174588738E+01  0.41614430694E+01  0.54182419088E+02  0.51100000000E-03 0. -1.
         23    2    1    0    0    0  0.16416021482E+02  0.18254794392E+02 -0.13032358562E+02  0.97204934804E+02  0.93146302669E+02 0.  0.
         11    1    3    3    0    0 -0.37323857352E+02  0.12737335518E+02 -0.17193801631E+02  0.43022515716E+02  0.51100000000E-03 0.  1.
         22    1    1    0    0    0 -0.16416021482E+02 -0.18254794392E+02  0.13032358562E+02  0.27795065196E+02  0.00000000000E+00 0. -1.
</event>
<event>
 5    1  0.8957809E-005  0.9118800E+02  0.7818608E-02  0.1130116E+00
         25   -1    0    0    0    0  0.00000000000E+00  0.00000000000E+00  0.99999998245E-14  0.12500000000E+03  0.12500000000E+03 0.  0.
        -11    1    3    3    0    0 -0.79258774178E+01 -0.15421735587E+02  0.56493467387E+02  0.59094511751E+02  0.51100000000E-03 0. -1.
         23    2    1    0    0    0  0.10771733119E+02 -0.87956293789E+01  0.26838445024E+02  0.94772604117E+02  0.89822887001E+02 0.  0.
         11    1    3    3    0    0  0.18697610537E+02  0.66261062086E+01 -0.29655022363E+02  0.35678092366E+02  0.51100000000E-03 0.  1.
         22    1    1    0    0    0 -0.10771733119E+02  0.87956293789E+01 -0.26838445024E+02  0.30227395883E+02  0.00000000000E+00 0. -1.
</event>
<event>
 5    1  0.8957809E-005  0.9118800E+02  0.7818608E-02  0.1130116E+00
         25   -1    0    0    0    0  0.00000000000E+00  0.00000000000E+00  0.99999998245E-14  0.12500000000E+03  0.12500000000E+03 0.  0.
        -11    1    3    3    0    0  0.35783329005E+02  0.46707481699E+02  0.33931056083E+01  0.58936819114E+02  0.51100000000E-03 0.  1.
         23    2    1    0    0    0  0.24403268449E+02  0.13250548075E+02 -0.80591627834E+01  0.96085528882E+02  0.91631775168E+02 0.  0.
         11    1    3    3    0    0 -0.11380060556E+02 -0.33456933625E+02 -0.11452268392E+02  0.37148709768E+02  0.51100000000E-03 0. -1.
         22    1    1    0    0    0 -0.24403268449E+02 -0.13250548075E+02  0.80591627834E+01  0.28914471118E+02  0.00000000000E+00 0.  1.
</event>
<event>
 5    1  0.8957809E-005  0.9118800E+02  0.7818608E-02  0.1130116E+00
         25   -1    0    0    0    0  0.00000000000E+00  0.00000000000E+00  0.99999998245E-14  0.12500000000E+03  0.12500000000E+03 0.  0.
        -11    1    3    3    0    0  0.23273629076E+01  0.47479433739E+02 -0.24494222975E+02  0.53475977837E+02  0.51100000000E-03 0.  1.
         23    2    1    0    0    0 -0.18788309457E+01  0.88055139391E+01 -0.30822533846E+02  0.92889321493E+02  0.87162666167E+02 0.  0.
         11    1    3    3    0    0 -0.42061938534E+01 -0.38673919800E+02 -0.63283108718E+01  0.39413343656E+02  0.51100000000E-03 0. -1.
         22    1    1    0    0    0  0.18788309457E+01 -0.88055139391E+01  0.30822533846E+02  0.32110678507E+02  0.00000000000E+00 0.  1.
</event>
<event>
 5    1  0.8957809E-005  0.9118800E+02  0.7818608E-02  0.1130116E+00
         25   -1    0    0    0    0  0.00000000000E+00  0.00000000000E+00  0.99999998245E-14  0.12500000000E+03  0.12500000000E+03 0.  0.
        -11    1    3    3    0    0  0.82668508286E+01  0.39725237911E+02 -0.13200311575E+02  0.42669468894E+02  0.51100000000E-03 0.  1.
         23    2    1    0    0    0 -0.26504602918E+02  0.50988132045E+01  0.90260360157E+01  0.96540182747E+02  0.92249908871E+02 0.  0.
         11    1    3    3    0    0 -0.34771453746E+02 -0.34626424707E+02  0.22226347590E+02  0.53870713853E+02  0.51100000000E-03 0. -1.
         22    1    1    0    0    0  0.26504602918E+02 -0.50988132045E+01 -0.90260360157E+01  0.28459817253E+02  0.00000000000E+00 0. -1.
</event>
<event>
 5    1  0.8957809E-005  0.9118800E+02  0.7818608E-02  0.1130116E+00
         25   -1    0    0    0    0  0.00000000000E+00  0.00000000000E+00  0.99999998245E-14  0.12500000000E+03  0.12500000000E+03 0.  0.
        -11    1    3    3    0    0  0.65349228076E+01 -0.11584726808E+02 -0.34581579358E+02  0.37051271806E+02  0.51100000000E-03 0.  1.
         23    2    1    0    0    0 -0.27464857822E+02 -0.35908457355E+01  0.11614642679E+02  0.94964812090E+02  0.90089971819E+02 0.  0.
         11    1    3    3    0    0 -0.33999780629E+02  0.79938810727E+01  0.46196222037E+02  0.57913540283E+02  0.51100000000E-03 0. -1.
         22    1    1    0    0    0  0.27464857822E+02  0.35908457355E+01 -0.11614642679E+02  0.30035187910E+02  0.00000000000E+00 0. -1.
</event>
<event>
 5    1  0.8957809E-005  0.9118800E+02  0.7818608E-02  0.1130116E+00
         25   -1    0    0    0    0  0.00000000000E+00  0.00000000000E+00  0.99999998245E-14  0.12500000000E+03  0.12500000000E+03 0.  0.
        -11    1    3    3    0    0  0.14250286985E+02  0.41178845192E+02  0.35422931755E+02  0.56156496195E+02  0.51100000000E-03 0.  1.
         23    2    1    0    0    0 -0.46339034729E+01  0.28242252149E+02  0.24779949048E+01  0.96273038334E+02  0.91887211207E+02 0.  0.
         11    1    3    3    0    0 -0.18884190458E+02 -0.12936593043E+02 -0.32944936851E+02  0.40116542139E+02  0.51100000000E-03 0. -1.
         22    1    1    0    0    0  0.46339034729E+01 -0.28242252149E+02 -0.24779949048E+01  0.28726961666E+02  0.00000000000E+00 0.  1.
</event>
<event>
 5    1  0.8957809E-005  0.9118800E+02  0.7818608E-02  0.1130116E+00
         25   -1    0    0    0    0  0.00000000000E+00  0.00000000000E+00  0.99999998245E-14  0.12500000000E+03  0.12500000000E+03 0.  0.
        -11    1    3    3    0    0  0.22495255568E+02  0.23195097117E+01  0.46132429821E+02  0.51377210218E+02  0.51100000000E-03 0.  1.
         23    2    1    0    0    0  0.21915144864E+02  0.25233625355E+02  0.20372504707E+02  0.85858610512E+02  0.76417619880E+02 0.  0.
         11    1    3    3    0    0 -0.58011070374E+00  0.22914115643E+02 -0.25759925114E+02  0.34481400294E+02  0.51100000000E-03 0. -1.
         22    1    1    0    0    0 -0.21915144864E+02 -0.25233625355E+02 -0.20372504707E+02  0.39141389488E+02  0.00000000000E+00 0.  1.
</event>
<event>
 5    1  0.8957809E-005  0.9118800E+02  0.7818608E-02  0.1130116E+00
         25   -1    0    0    0    0  0.00000000000E+00  0.00000000000E+00  0.99999998245E-14  0.12500000000E+03  0.12500000000E+03 0.  0.
        -11    1    3    3    0    0  0.26862255994E+02 -0.98577930048E+01 -0.18256286513E+02  0.33941845523E+02  0.51100000000E-03 0.  1.
         23    2    1    0    0    0 -0.23692207212E+02 -0.61392233443E+00  0.16621785522E+02  0.96052092698E+02  0.91586151652E+02 0.  0.
         11    1    3    3    0    0 -0.50554463206E+02  0.92438706704E+01  0.34878072035E+02  0.62110247175E+02  0.51100000000E-03 0. -1.
         22    1    1    0    0    0  0.23692207212E+02  0.61392233443E+00 -0.16621785522E+02  0.28947907302E+02  0.00000000000E+00 0. -1.
</event>
<event>
 5    1  0.8957809E-005  0.9118800E+02  0.7818608E-02  0.1130116E+00
         25   -1    0    0    0    0  0.00000000000E+00  0.00000000000E+00  0.99999998245E-14  0.12500000000E+03  0.12500000000E+03 0.  0.
        -11    1    3    3    0    0 -0.78274887045E+01  0.43294724329E+02  0.29767280562E+01  0.44097206763E+02  0.51100000000E-03 0.  1.
         23    2    1    0    0    0 -0.12002431190E+02 -0.11629643887E-02 -0.26000875327E+02  0.96362544219E+02  0.92008891172E+02 0.  0.
         11    1    3    3    0    0 -0.41749424855E+01 -0.43295887293E+02 -0.28977603383E+02  0.52265337456E+02  0.51100000000E-03 0. -1.
         22    1    1    0    0    0  0.12002431190E+02  0.11629643887E-02  0.26000875327E+02  0.28637455781E+02  0.00000000000E+00 0. -1.
</event>
<event>
 5    1  0.8957809E-005  0.9118800E+02  0.7818608E-02  0.1130116E+00
         25   -1    0    0    0    0  0.00000000000E+00  0.00000000000E+00  0.99999998245E-14  0.12500000000E+03  0.12500000000E+03 0.  0.
        -11    1    3    3    0    0  0.49801491119E+02  0.22627045193E+01 -0.47860577389E+01  0.50082079613E+02  0.51100000000E-03 0.  1.
         23    2    1    0    0    0  0.13065628033E+02  0.22763826258E+02 -0.16804560841E+02  0.93834382938E+02  0.88507602693E+02 0.  0.
         11    1    3    3    0    0 -0.36735863086E+02  0.20501121739E+02 -0.12018503102E+02  0.43752303325E+02  0.51100000000E-03 0. -1.
         22    1    1    0    0    0 -0.13065628033E+02 -0.22763826258E+02  0.16804560841E+02  0.31165617062E+02  0.00000000000E+00 0.  1.
</event>
<event>
 5    1  0.8957809E-005  0.9118800E+02  0.7818608E-02  0.1130116E+00
         25   -1    0    0    0    0  0.00000000000E+00  0.00000000000E+00  0.99999998245E-14  0.12500000000E+03  0.12500000000E+03 0.  0.
        -11    1    3    3    0    0 -0.34631638975E+02 -0.46529850359E+01 -0.39156603258E+01  0.35161528464E+02  0.51100000000E-03 0.  1.
         23    2    1    0    0    0  0.26627907734E+02  0.14383811184E+01  0.63863177768E+01  0.97579214721E+02  0.93647229966E+02 0.  0.
         11    1    3    3    0    0  0.61259546710E+02  0.60913661543E+01  0.10301978103E+02  0.62417686258E+02  0.51100000000E-03 0. -1.
         22    1    1    0    0    0 -0.26627907734E+02 -0.14383811184E+01 -0.63863177768E+01  0.27420785279E+02  0.00000000000E+00 0. -1.
</event>
<event>
 5    1  0.8957809E-005  0.9118800E+02  0.7818608E-02  0.1130116E+00
         25   -1    0    0    0    0  0.00000000000E+00  0.00000000000E+00  0.99999998245E-14  0.12500000000E+03  0.12500000000E+03 0.  0.
        -11    1    3    3    0    0  0.10228801842E+02 -0.13605200552E+02  0.40456684949E+02  0.43891607700E+02  0.51100000000E-03 0.  1.
         23    2    1    0    0    0  0.22419856321E+02 -0.20228836086E+02 -0.75587675810E+01  0.93871383999E+02  0.88559844171E+02 0.  0.
         11    1    3    3    0    0  0.12191054478E+02 -0.66236355333E+01 -0.48015452530E+02  0.49979776299E+02  0.51100000000E-03 0. -1.
         22    1    1    0    0    0 -0.22419856321E+02  0.20228836086E+02  0.75587675810E+01  0.31128616001E+02  0.00000000000E+00 0.  1.
</event>
<event>
 5    1  0.8957809E-005  0.9118800E+02  0.7818608E-02  0.1130116E+00
         25   -1    0    0    0    0  0.00000000000E+00  0.00000000000E+00  0.99999998245E-14  0.12500000000E+03  0.12500000000E+03 0.  0.
        -11    1    3    3    0    0  0.32199571265E+02 -0.14171838163E+02  0.29832859293E+02  0.46126487840E+02  0.51100000000E-03 0.  1.
         23    2    1    0    0    0 -0.13534821674E+02 -0.22591371831E+02  0.13431995315E+02  0.95436847646E+02  0.90742558436E+02 0.  0.
         11    1    3    3    0    0 -0.45734392940E+02 -0.84195336679E+01 -0.16400863977E+02  0.49310359806E+02  0.51100000000E-03 0. -1.
         22    1    1    0    0    0  0.13534821674E+02  0.22591371831E+02 -0.13431995315E+02  0.29563152354E+02  0.00000000000E+00 0. -1.
</event>
<event>
 5    1  0.8957809E-005  0.9118800E+02  0.7818608E-02  0.1130116E+00
         25   -1    0    0    0    0  0.00000000000E+00  0.00000000000E+00  0.99999998245E-14  0.12500000000E+03  0.12500000000E+03 0.  0.
        -11    1    3    3    0    0 -0.28491028104E+02  0.19423615073E+02 -0.25477880474E+02  0.42873510454E+02  0.51100000000E-03 0.  1.
         23    2    1    0    0    0 -0.22691702230E+02 -0.14140329737E+02  0.13840013659E+02  0.94893385224E+02  0.89990812342E+02 0.  0.
         11    1    3    3    0    0  0.57993258737E+01 -0.33563944810E+02  0.39317894133E+02  0.52019874770E+02  0.51100000000E-03 0. -1.
         22    1    1    0    0    0  0.22691702230E+02  0.14140329737E+02 -0.13840013659E+02  0.30106614776E+02  0.00000000000E+00 0. -1.
</event>
<event>
 5    1  0.8957809E-005  0.9118800E+02  0.7818608E-02  0.1130116E+00
         25   -1    0    0    0    0  0.00000000000E+00  0.00000000000E+00  0.99999998245E-14  0.12500000000E+03  0.12500000000E+03 0.  0.
        -11    1    3    3    0    0 -0.26176903076E+02  0.50301632114E+02 -0.24455096605E+02  0.61753835494E+02  0.51100000000E-03 0.  1.
         23    2    1    0    0    0 -0.15010347029E+02  0.28309959418E+02 -0.63909045609E+01  0.92325729062E+02  0.86350635583E+02 0.  0.
         11    1    3    3    0    0  0.11166556047E+02 -0.21991672696E+02  0.18064192044E+02  0.30571893568E+02  0.51100000000E-03 0. -1.
         22    1    1    0    0    0  0.15010347029E+02 -0.28309959418E+02  0.63909045609E+01  0.32674270938E+02  0.00000000000E+00 0.  1.
</event>
<event>
 5    1  0.8957809E-005  0.9118800E+02  0.7818608E-02  0.1130116E+00
         25   -1    0    0    0    0  0.00000000000E+00  0.00000000000E+00  0.99999998245E-14  0.12500000000E+03  0.12500000000E+03 0.  0.
        -11    1    3    3    0    0 -0.51286728439E+02  0.22771996507E+02  0.21382751073E+02  0.60050931571E+02  0.51100000000E-03 0.  1.
         23    2    1    0    0    0 -0.26044208389E+02  0.14979768526E+01  0.18149010690E+02  0.93220583481E+02  0.87636441452E+02 0.  0.
         11    1    3    3    0    0  0.25242520050E+02 -0.21274019654E+02 -0.32337403829E+01  0.33169651910E+02  0.51100000000E-03 0. -1.
         22    1    1    0    0    0  0.26044208389E+02 -0.14979768526E+01 -0.18149010690E+02  0.31779416519E+02  0.00000000000E+00 0.  1.
</event>
<event>
 5    1  0.8957809E-005  0.9118800E+02  0.7818608E-02  0.1130116E+00
         25   -1    0    0    0    0  0.00000000000E+00  0.00000000000E+00  0.99999998245E-14  0.12500000000E+03  0.12500000000E+03 0.  0.
        -11    1    3    3    0    0  0.26552029820E+02  0.19710370850E+02  0.25317467715E+01  0.33165022970E+02  0.51100000000E-03 0.  1.
         23    2    1    0    0    0 -0.84101980964E+01 -0.27678579057E+02 -0.11773314826E+02  0.93767867306E+02  0.88413612224E+02 0.  0.
         11    1    3    3    0    0 -0.34962227916E+02 -0.47388949907E+02 -0.14305061597E+02  0.60602844337E+02  0.51100000000E-03 0. -1.
         22    1    1    0    0    0  0.84101980964E+01  0.27678579057E+02  0.11773314826E+02  0.31232132694E+02  0.00000000000E+00 0. -1.
</event>
<event>
 5    1  0.8957809E-005  0.9118800E+02  0.7818608E-02  0.1130116E+00
         25   -1    0    0    0    0  0.00000000000E+00  0.00000000000E+00  0.99999998245E-14  0.12500000000E+03  0.12500000000E+03 0.  0.
        -11    1    3    3    0    0  0.71567072789E+01 -0.28091087056E+02  0.24829567971E+02  0.38168508969E+02  0.51100000000E-03 0.  1.
         23    2    1    0    0    0  0.79258442824E+01  0.24971786484E+02 -0.38957104181E+01  0.98512537165E+02  0.94884847532E+02 0.  0.
         11    1    3    3    0    0  0.76913700346E+00  0.53062873540E+02 -0.28725278389E+02  0.60344028195E+02  0.51100000000E-03 0. -1.
         22    1    1    0    0    0 -0.79258442824E+01 -0.24971786484E+02  0.38957104181E+01  0.26487462835E+02  0.00000000000E+00 0. -1.
</event>
<event>
 5    1  0.8957809E-005  0.9118800E+02  0.7818608E-02  0.1130116E+00
         25   -1    0    0    0    0  0.00000000000E+00  0.00000000000E+00  0.99999998245E-14  0.12500000000E+03  0.12500000000E+03 0.  0.
        -11    1    3    3    0    0  0.11246787032E+02  0.25946056481E+02  0.37904253679E+02  0.47290807909E+02  0.51100000000E-03 0. -1.
         23    2    1    0    0    0 -0.25644301412E+02  0.12291555504E+02  0.14256458896E+02  0.93188694590E+02  0.87590945009E+02 0.  0.
         11    1    3    3    0    0 -0.36891088444E+02 -0.13654500978E+02 -0.23647794782E+02  0.45897886682E+02  0.51100000000E-03 0.  1.
         22    1    1    0    0    0  0.25644301412E+02 -0.12291555504E+02 -0.14256458896E+02  0.31811305410E+02  0.00000000000E+00 0. -1.
</event>
<event>
 5    1  0.8957809E-005  0.9118800E+02  0.7818608E-02  0.1130116E+00
         25   -1    0    0    0    0  0.00000000000E+00  0.00000000000E+00  0.99999998245E-14  0.12500000000E+03  0.12500000000E+03 0.  0.
        -11    1    3    3    0    0  0.49048607415E+02  0.12065089051E+02  0.28351089391E+02  0.57923367764E+02  0.51100000000E-03 0. -1.
         23    2    1    0    0    0  0.19216304095E+02 -0.95321234746E+01  0.19965965499E+02  0.95695264900E+02  0.91097838750E+02 0.  0.
         11    1    3    3    0    0 -0.29832303320E+02 -0.21597212526E+02 -0.83851238928E+01  0.37771897136E+02  0.51100000000E-03 0.  1.
         22    1    1    0    0    0 -0.19216304095E+02  0.95321234746E+01 -0.19965965499E+02  0.29304735100E+02  0.00000000000E+00 0. -1.
</event>
<event>
 5    1  0.8957809E-005  0.9118800E+02  0.7818608E-02  0.1130116E+00
         25   -1    0    0    0    0  0.00000000000E+00  0.00000000000E+00  0.99999998245E-14  0.12500000000E+03  0.12500000000E+03 0.  0.
        -11    1    3    3    0    0  0.10870869048E+02  0.73533461530E+00 -0.44945878715E+02  0.46247686694E+02  0.51100000000E-03 0. -1.
         23    2    1    0    0    0  0.12097591704E+02 -0.27099320424E+02 -0.50698325665E+01  0.94893055706E+02  0.89990354630E+02 0.  0.
         11    1    3    3    0    0  0.12267226568E+01 -0.27834655039E+02  0.39876046148E+02  0.48645369012E+02  0.51100000000E-03 0.  1.
         22    1    1    0    0    0 -0.12097591704E+02  0.27099320424E+02  0.50698325665E+01  0.30106944294E+02  0.00000000000E+00 0. -1.
</event>
<event>
 5    1  0.8957809E-005  0.9118800E+02  0.7818608E-02  0.1130116E+00
         25   -1    0    0    0    0  0.00000000000E+00  0.00000000000E+00  0.99999998245E-14  0.12500000000E+03  0.12500000000E+03 0.  0.
        -11    1    3    3    0    0  0.56783167081E+02  0.92780953675E+01  0.87413181830E+01  0.58196406772E+02  0.51100000000E-03 0. -1.
         23    2    1    0    0    0  0.26274324588E+02  0.39361280483E+01 -0.12384136968E+02  0.95687885013E+02  0.91087711868E+02 0.  0.
         11    1    3    3    0    0 -0.30508842493E+02 -0.53419673192E+01 -0.21125455151E+02  0.37491478241E+02  0.51100000000E-03 0.  1.
         22    1    1    0    0    0 -0.26274324588E+02 -0.39361280483E+01  0.12384136968E+02  0.29312114987E+02  0.00000000000E+00 0. -1.
</event>
<event>
 5    1  0.8957809E-005  0.9118800E+02  0.7818608E-02  0.1130116E+00
         25   -1    0    0    0    0  0.00000000000E+00  0.00000000000E+00  0.99999998245E-14  0.12500000000E+03  0.12500000000E+03 0.  0.
        -11    1    3    3    0    0 -0.84065162700E+01  0.37752812470E+02  0.88289954411E+01  0.39672352161E+02  0.51100000000E-03 0.  1.
         23    2    1    0    0    0  0.28801043875E+02 -0.34519840630E+01  0.66894847238E+01  0.95231467485E+02  0.90459200036E+02 0.  0.
         11    1    3    3    0    0  0.37207560145E+02 -0.41204796533E+02 -0.21395107173E+01  0.55559115324E+02  0.51100000000E-03 0. -1.
         22    1    1    0    0    0 -0.28801043875E+02  0.34519840630E+01 -0.66894847238E+01  0.29768532515E+02  0.00000000000E+00 0.  1.
</event>
<event>
 5    1  0.8957809E-005  0.9118800E+02  0.7818608E-02  0.1130116E+00
         25   -1    0    0    0    0  0.00000000000E+00  0.00000000000E+00  0.99999998245E-14  0.12500000000E+03  0.12500000000E+03 0.  0.
        -11    1    3    3    0    0  0.35333311239E+02  0.24649566156E+02  0.73625039293E+00  0.43088119704E+02  0.51100000000E-03 0.  1.
         23    2    1    0    0    0  0.19454983441E+02 -0.21969938422E+02  0.11467730497E+02  0.93493121105E+02  0.88024316392E+02 0.  0.
         11    1    3    3    0    0 -0.15878327798E+02 -0.46619504578E+02  0.10731480104E+02  0.50405001401E+02  0.51100000000E-03 0. -1.
         22    1    1    0    0    0 -0.19454983441E+02  0.21969938422E+02 -0.11467730497E+02  0.31506878895E+02  0.00000000000E+00 0. -1.
</event>
<event>
 5    1  0.8957809E-005  0.9118800E+02  0.7818608E-02  0.1130116E+00
         25   -1    0    0    0    0  0.00000000000E+00  0.00000000000E+00  0.99999998245E-14  0.12500000000E+03  0.12500000000E+03 0.  0.
        -11    1    3    3    0    0  0.67017149922E+01 -0.27058873042E+02  0.51084713971E+02  0.58195735204E+02  0.51100000000E-03 0.  1.
         23    2    1    0    0    0 -0.14862839536E+01  0.23655502532E+01  0.28949872879E+02  0.95915639809E+02  0.91399726216E+02 0.  0.
         11    1    3    3    0    0 -0.81879989459E+01  0.29424423295E+02 -0.22134841092E+02  0.37719904605E+02  0.51100000000E-03 0. -1.
         22    1    1    0    0    0  0.14862839536E+01 -0.23655502532E+01 -0.28949872879E+02  0.29084360191E+02  0.00000000000E+00 0.  1.
</event>
<event>
 5    1  0.8957809E-005  0.9118800E+02  0.7818608E-02  0.1130116E+00
         25   -1    0    0    0    0  0.00000000000E+00  0.00000000000E+00  0.99999998245E-14  0.12500000000E+03  0.12500000000E+03 0.  0.
        -11    1    3    3    0    0  0.37967321184E+02 -0.33339165238E+02 -0.20747722150E+02  0.54621290641E+02  0.51100000000E-03 0.  1.
         23    2    1    0    0    0  0.18571076793E+02 -0.15093956782E+02  0.13123207511E+02  0.97706575884E+02  0.93817077182E+02 0.  0.
         11    1    3    3    0    0 -0.19396244391E+02  0.18245208456E+02  0.33870929661E+02  0.43085285243E+02  0.51100000000E-03 0. -1.
         22    1    1    0    0    0 -0.18571076793E+02  0.15093956782E+02 -0.13123207511E+02  0.27293424116E+02  0.00000000000E+00 0.  1.
</event>
<event>
 5    1  0.8957809E-005  0.9118800E+02  0.7818608E-02  0.1130116E+00
         25   -1    0    0    0    0  0.00000000000E+00  0.00000000000E+00  0.99999998245E-14  0.12500000000E+03  0.12500000000E+03 0.  0.
        -11    1    3    3    0    0  0.54020376501E+02 -0.21676880522E+02  0.13140549869E+02  0.59672123119E+02  0.51100000000E-03 0.  1.
         23    2    1    0    0    0  0.22810665108E+02 -0.67907324643E+01  0.18748961560E+02  0.94702078460E+02  0.89724687879E+02 0.  0.
         11    1    3    3    0    0 -0.31209711392E+02  0.14886148058E+02  0.56084116909E+01  0.35029955341E+02  0.51100000000E-03 0. -1.
         22    1    1    0    0    0 -0.22810665108E+02  0.67907324643E+01 -0.18748961560E+02  0.30297921540E+02  0.00000000000E+00 0.  1.
</event>
<event>
 5    1  0.8957809E-005  0.9118800E+02  0.7818608E-02  0.1130116E+00
         25   -1    0    0    0    0  0.00000000000E+00  0.00000000000E+00  0.99999998245E-14  0.12500000000E+03  0.12500000000E+03 0.  0.
        -11    1    3    3    0    0 -0.87749453582E+01  0.38219954107E+02 -0.17324239345E+02  0.42870663946E+02  0.51100000000E-03 0.  1.
         23    2    1    0    0    0  0.26669489800E+02 -0.80435103634E+00 -0.11624636964E+02  0.95896033753E+02  0.91372908666E+02 0.  0.
         11    1    3    3    0    0  0.35444435158E+02 -0.39024305143E+02  0.56996023807E+01  0.53025369807E+02  0.51100000000E-03 0. -1.
         22    1    1    0    0    0 -0.26669489800E+02  0.80435103634E+00  0.11624636964E+02  0.29103966247E+02  0.00000000000E+00 0. -1.
</event>
<event>
 5    1  0.8957809E-005  0.9118800E+02  0.7818608E-02  0.1130116E+00
         25   -1    0    0    0    0  0.00000000000E+00  0.00000000000E+00  0.99999998245E-14  0.12500000000E+03  0.12500000000E+03 0.  0.
        -11    1    3    3    0    0  0.71434030743E+01  0.56798201102E+02 -0.67405596792E+01  0.57641122482E+02  0.51100000000E-03 0. -1.
         23    2    1    0    0    0  0.94632591333E+01  0.20249725616E+02 -0.18372872552E+02  0.96066159834E+02  0.91605348963E+02 0.  0.
         11    1    3    3    0    0  0.23198560590E+01 -0.36548475486E+02 -0.11632312872E+02  0.38425037352E+02  0.51100000000E-03 0.  1.
         22    1    1    0    0    0 -0.94632591333E+01 -0.20249725616E+02  0.18372872552E+02  0.28933840166E+02  0.00000000000E+00 0. -1.
</event>
<event>
 5    1  0.8957809E-005  0.9118800E+02  0.7818608E-02  0.1130116E+00
         25   -1    0    0    0    0  0.00000000000E+00  0.00000000000E+00  0.99999998245E-14  0.12500000000E+03  0.12500000000E+03 0.  0.
        -11    1    3    3    0    0 -0.27299739998E+02  0.71789859374E+01 -0.43764573937E+02  0.52078321547E+02  0.51100000000E-03 0.  1.
         23    2    1    0    0    0  0.12545780431E+02  0.75572381902E+01 -0.24776145935E+02  0.96218654251E+02  0.91813199285E+02 0.  0.
         11    1    3    3    0    0  0.39845520429E+02  0.37825225281E+00  0.18988428001E+02  0.44140332704E+02  0.51100000000E-03 0. -1.
         22    1    1    0    0    0 -0.12545780431E+02 -0.75572381902E+01  0.24776145935E+02  0.28781345749E+02  0.00000000000E+00 0. -1.
</event>
<event>
 5    1  0.8957809E-005  0.9118800E+02  0.7818608E-02  0.1130116E+00
         25   -1    0    0    0    0  0.00000000000E+00  0.00000000000E+00  0.99999998245E-14  0.12500000000E+03  0.12500000000E+03 0.  0.
        -11    1    3    3    0    0  0.33235512190E+02 -0.17062903075E+02  0.17615119252E+02  0.41304168777E+02  0.51100000000E-03 0. -1.
         23    2    1    0    0    0 -0.13366484154E+01  0.25908093589E+02  0.10889289911E+02  0.96864744942E+02  0.92688652140E+02 0.  0.
         11    1    3    3    0    0 -0.34572160605E+02  0.42970996664E+02 -0.67258293402E+01  0.55560576165E+02  0.51100000000E-03 0.  1.
         22    1    1    0    0    0  0.13366484154E+01 -0.25908093589E+02 -0.10889289911E+02  0.28135255058E+02  0.00000000000E+00 0.  1.
</event>
<event>
 5    1  0.8957809E-005  0.9118800E+02  0.7818608E-02  0.1130116E+00
         25   -1    0    0    0    0  0.00000000000E+00  0.00000000000E+00  0.99999998245E-14  0.12500000000E+03  0.12500000000E+03 0.  0.
        -11    1    3    3    0    0  0.26661673665E+02 -0.26620172030E+02  0.49473053457E+02  0.62185701091E+02  0.51100000000E-03 0.  1.
         23    2    1    0    0    0  0.16251786328E+02 -0.13678855794E+02  0.21118844604E+02  0.95046081190E+02  0.90202662364E+02 0.  0.
         11    1    3    3    0    0 -0.10409887338E+02  0.12941316236E+02 -0.28354208853E+02  0.32860380099E+02  0.51100000000E-03 0. -1.
         22    1    1    0    0    0 -0.16251786328E+02  0.13678855794E+02 -0.21118844604E+02  0.29953918810E+02  0.00000000000E+00 0.  1.
</event>
<event>
 5    1  0.8957809E-005  0.9118800E+02  0.7818608E-02  0.1130116E+00
         25   -1    0    0    0    0  0.00000000000E+00  0.00000000000E+00  0.99999998245E-14  0.12500000000E+03  0.12500000000E+03 0.  0.
        -11    1    3    3    0    0  0.57013875696E+02 -0.23858207078E+02  0.81121779733E+00  0.61809822371E+02  0.51100000000E-03 0.  1.
         23    2    1    0    0    0  0.26626102613E+02 -0.80380029268E+01  0.62377426562E+01  0.96496171049E+02  0.92190253076E+02 0.  0.
         11    1    3    3    0    0 -0.30387773083E+02  0.15820204152E+02  0.54265248589E+01  0.34686348679E+02  0.51100000000E-03 0. -1.
         22    1    1    0    0    0 -0.26626102613E+02  0.80380029268E+01 -0.62377426562E+01  0.28503828951E+02  0.00000000000E+00 0.  1.
</event>
<event>
 5    1  0.8957809E-005  0.9118800E+02  0.7818608E-02  0.1130116E+00
         25   -1    0    0    0    0  0.00000000000E+00  0.00000000000E+00  0.99999998245E-14  0.12500000000E+03  0.12500000000E+03 0.  0.
        -11    1    3    3    0    0 -0.13735110072E+02 -0.18389129666E+02  0.48878557471E+02  0.53999321470E+02  0.51100000000E-03 0. -1.
         23    2    1    0    0    0 -0.27822557561E+02 -0.45173288414E+01  0.15398288668E+02  0.92881340891E+02  0.87151220432E+02 0.  0.
         11    1    3    3    0    0 -0.14087447488E+02  0.13871800824E+02 -0.33480268803E+02  0.38882019421E+02  0.51100000000E-03 0.  1.
         22    1    1    0    0    0  0.27822557561E+02  0.45173288414E+01 -0.15398288668E+02  0.32118659109E+02  0.00000000000E+00 0. -1.
</event>
<event>
 5    1  0.8957809E-005  0.9118800E+02  0.7818608E-02  0.1130116E+00
         25   -1    0    0    0    0  0.00000000000E+00  0.00000000000E+00  0.99999998245E-14  0.12500000000E+03  0.12500000000E+03 0.  0.
        -11    1    3    3    0    0 -0.16983518146E+02 -0.27758466595E+02 -0.19858331073E+01  0.32602390859E+02  0.51100000000E-03 0.  1.
         23    2    1    0    0    0  0.22882221051E+02  0.19837039044E+02 -0.11865675397E+01  0.94693035441E+02  0.89712088707E+02 0.  0.
         11    1    3    3    0    0  0.39865739197E+02  0.47595505640E+02  0.79926556763E+00  0.62090644581E+02  0.51100000000E-03 0. -1.
         22    1    1    0    0    0 -0.22882221051E+02 -0.19837039044E+02  0.11865675397E+01  0.30306964559E+02  0.00000000000E+00 0. -1.
</event>
<event>
 5    1  0.8957809E-005  0.9118800E+02  0.7818608E-02  0.1130116E+00
         25   -1    0    0    0    0  0.00000000000E+00  0.00000000000E+00  0.99999998245E-14  0.12500000000E+03  0.12500000000E+03 0.  0.
        -11    1    3    3    0    0 -0.28649893874E+01  0.41335887716E+02 -0.35099933560E+02  0.54303490805E+02  0.51100000000E-03 0. -1.
         23    2    1    0    0    0 -0.15050743733E+02  0.24614448875E+02  0.12413830851E+01  0.96122032407E+02  0.91681558133E+02 0.  0.
         11    1    3    3    0    0 -0.12185754346E+02 -0.16721438841E+02  0.36341316645E+02  0.41818541601E+02  0.51100000000E-03 0.  1.
         22    1    1    0    0    0  0.15050743733E+02 -0.24614448875E+02 -0.12413830851E+01  0.28877967593E+02  0.00000000000E+00 0. -1.
</event>
<event>
 5    1  0.8957809E-005  0.9118800E+02  0.7818608E-02  0.1130116E+00
         25   -1    0    0    0    0  0.00000000000E+00  0.00000000000E+00  0.99999998245E-14  0.12500000000E+03  0.12500000000E+03 0.  0.
        -11    1    3    3    0    0  0.29184730373E+01  0.40008872563E+02  0.27799218637E+01  0.40211383145E+02  0.51100000000E-03 0. -1.
         23    2    1    0    0    0  0.26557056051E+02 -0.10584408089E+02  0.43818946435E+01  0.96077553330E+02  0.91620894628E+02 0.  0.
         11    1    3    3    0    0  0.23638583014E+02 -0.50593280652E+02  0.16019727798E+01  0.55866170185E+02  0.51100000000E-03 0.  1.
         22    1    1    0    0    0 -0.26557056051E+02  0.10584408089E+02 -0.43818946435E+01  0.28922446670E+02  0.00000000000E+00 0.  1.
</event>
<event>
 5    1  0.8957809E-005  0.9118800E+02  0.7818608E-02  0.1130116E+00
         25   -1    0    0    0    0  0.00000000000E+00  0.00000000000E+00  0.99999998245E-14  0.12500000000E+03  0.12500000000E+03 0.  0.
        -11    1    3    3    0    0  0.19759369070E+01 -0.12207063617E+02  0.30935524040E+02  0.33315512554E+02  0.51100000000E-03 0.  1.
         23    2    1    0    0    0 -0.27739180641E+01  0.21208686291E+02 -0.20850521973E+02  0.95129491766E+02  0.90318176141E+02 0.  0.
         11    1    3    3    0    0 -0.47498549711E+01  0.33415749908E+02 -0.51786046013E+02  0.61813979212E+02  0.51100000000E-03 0. -1.
         22    1    1    0    0    0  0.27739180641E+01 -0.21208686291E+02  0.20850521973E+02  0.29870508234E+02  0.00000000000E+00 0. -1.
</event>
<event>
 5    1  0.8957809E-005  0.9118800E+02  0.7818608E-02  0.1130116E+00
         25   -1    0    0    0    0  0.00000000000E+00  0.00000000000E+00  0.99999998245E-14  0.12500000000E+03  0.12500000000E+03 0.  0.
        -11    1    3    3    0    0 -0.52513828557E+00  0.32693712420E+02 -0.48720815394E+02  0.58675995559E+02  0.51100000000E-03 0. -1.
         23    2    1    0    0    0  0.72702915906E+01  0.35335502261E+01 -0.29387659121E+02  0.94520865734E+02  0.89471875097E+02 0.  0.
         11    1    3    3    0    0  0.77954298761E+01 -0.29160162194E+02  0.19333156273E+02  0.35844870174E+02  0.51100000000E-03 0.  1.
         22    1    1    0    0    0 -0.72702915906E+01 -0.35335502261E+01  0.29387659121E+02  0.30479134266E+02  0.00000000000E+00 0. -1.
</event>
<event>
 5    1  0.8957809E-005  0.9118800E+02  0.7818608E-02  0.1130116E+00
         25   -1    0    0    0    0  0.00000000000E+00  0.00000000000E+00  0.99999998245E-14  0.12500000000E+03  0.12500000000E+03 0.  0.
        -11    1    3    3    0    0 -0.29884197172E+02  0.48004056547E+00 -0.39309271013E+02  0.49381316987E+02  0.51100000000E-03 0.  1.
         23    2    1    0    0    0  0.41964891713E+01 -0.22863934462E+02 -0.12828506702E+02  0.98449282408E+02  0.94801479956E+02 0.  0.
         11    1    3    3    0    0  0.34080686343E+02 -0.23343975028E+02  0.26480764311E+02  0.49067965420E+02  0.51100000000E-03 0. -1.
         22    1    1    0    0    0 -0.41964891713E+01  0.22863934462E+02  0.12828506702E+02  0.26550717592E+02  0.00000000000E+00 0.  1.
</event>
<event>
 5    1  0.8957809E-005  0.9118800E+02  0.7818608E-02  0.1130116E+00
         25   -1    0    0    0    0  0.00000000000E+00  0.00000000000E+00  0.99999998245E-14  0.12500000000E+03  0.12500000000E+03 0.  0.
        -11    1    3    3    0    0 -0.37018617841E+01 -0.33982313283E+02 -0.13055676710E+02  0.36591694295E+02  0.51100000000E-03 0. -1.
         23    2    1    0    0    0 -0.11406658592E+02  0.22344153353E+02 -0.18682517533E+02  0.93720461790E+02  0.88346564435E+02 0.  0.
         11    1    3    3    0    0 -0.77047968074E+01  0.56326466636E+02 -0.56268408230E+01  0.57128767495E+02  0.51100000000E-03 0.  1.
         22    1    1    0    0    0  0.11406658592E+02 -0.22344153353E+02  0.18682517533E+02  0.31279538210E+02  0.00000000000E+00 0.  1.
</event>
<event>
 5    1  0.8957809E-005  0.9118800E+02  0.7818608E-02  0.1130116E+00
         25   -1    0    0    0    0  0.00000000000E+00  0.00000000000E+00  0.99999998245E-14  0.12500000000E+03  0.12500000000E+03 0.  0.
        -11    1    3    3    0    0  0.35898981045E+02 -0.15616443571E+02  0.31120714656E+02  0.50011089079E+02  0.51100000000E-03 0.  1.
         23    2    1    0    0    0  0.78798730075E+01  0.79234594103E+01  0.36343843618E+02  0.86976999375E+02  0.78225634185E+02 0.  0.
         11    1    3    3    0    0 -0.28019108037E+02  0.23539902982E+02  0.52231289620E+01  0.36965910296E+02  0.51100000000E-03 0. -1.
         22    1    1    0    0    0 -0.78798730075E+01 -0.79234594103E+01 -0.36343843618E+02  0.38023000625E+02  0.00000000000E+00 0.  1.
</event>
<event>
 5    1  0.8957809E-005  0.9118800E+02  0.7818608E-02  0.1130116E+00
         25   -1    0    0    0    0  0.00000000000E+00  0.00000000000E+00  0.99999998245E-14  0.12500000000E+03  0.12500000000E+03 0.  0.
        -11    1    3    3    0    0 -0.19885754774E+02  0.33926999931E+02 -0.37127080822E+02  0.54082388056E+02  0.51100000000E-03 0.  1.
         23    2    1    0    0    0  0.48900531236E+01  0.14922013438E+01 -0.28814815028E+02  0.95735126013E+02  0.91152517811E+02 0.  0.
         11    1    3    3    0    0  0.24775807898E+02 -0.32434798587E+02  0.83122657948E+01  0.41652737957E+02  0.51100000000E-03 0. -1.
         22    1    1    0    0    0 -0.48900531236E+01 -0.14922013438E+01  0.28814815028E+02  0.29264873987E+02  0.00000000000E+00 0.  1.
</event>
<event>
 5    1  0.8957809E-005  0.9118800E+02  0.7818608E-02  0.1130116E+00
         25   -1    0    0    0    0  0.00000000000E+00  0.00000000000E+00  0.99999998245E-14  0.12500000000E+03  0.12500000000E+03 0.  0.
        -11    1    3    3    0    0  0.62023555121E+02 -0.99147084676E+00 -0.64777173507E+01  0.62368784072E+02  0.51100000000E-03 0. -1.
         23    2    1    0    0    0  0.28293513187E+02  0.18279110310E+01 -0.46771489733E+01  0.96264310175E+02  0.91875336972E+02 0.  0.
         11    1    3    3    0    0 -0.33730041934E+02  0.28193818777E+01  0.18005683775E+01  0.33895526103E+02  0.51100000000E-03 0.  1.
         22    1    1    0    0    0 -0.28293513187E+02 -0.18279110310E+01  0.46771489733E+01  0.28735689825E+02  0.00000000000E+00 0. -1.
</event>
<event>
 5    1  0.8957809E-005  0.9118800E+02  0.7818608E-02  0.1130116E+00
         25   -1    0    0    0    0  0.00000000000E+00  0.00000000000E+00  0.99999998245E-14  0.12500000000E+03  0.12500000000E+03 0.  0.
        -11    1    3    3    0    0  0.10521442140E+02  0.23723498491E+02  0.12321062052E+02  0.28728273455E+02  0.51100000000E-03 0.  1.
         23    2    1    0    0    0 -0.88726983243E+01 -0.57947416733E+01 -0.35371540381E+02  0.88075080562E+02  0.79961053897E+02 0.  0.
         11    1    3    3    0    0 -0.19394140464E+02 -0.29518240164E+02 -0.47692602433E+02  0.59346807107E+02  0.51100000000E-03 0. -1.
         22    1    1    0    0    0  0.88726983243E+01  0.57947416733E+01  0.35371540381E+02  0.36924919438E+02  0.00000000000E+00 0. -1.
</event>
<event>
 5    1  0.8957809E-005  0.9118800E+02  0.7818608E-02  0.1130116E+00
         25   -1    0    0    0    0  0.00000000000E+00  0.00000000000E+00  0.99999998245E-14  0.12500000000E+03  0.12500000000E+03 0.  0.
        -11    1    3    3    0    0 -0.39468400218E+02 -0.40062812757E+02  0.45192216902E+01  0.56419916224E+02  0.51100000000E-03 0.  1.
         23    2    1    0    0    0 -0.27819583883E+02 -0.25561630299E+01 -0.44657696754E+01  0.96708546950E+02  0.92477763476E+02 0.  0.
         11    1    3    3    0    0  0.11648816334E+02  0.37506649727E+02 -0.89849913655E+01  0.40288630727E+02  0.51100000000E-03 0. -1.
         22    1    1    0    0    0  0.27819583883E+02  0.25561630299E+01  0.44657696754E+01  0.28291453050E+02  0.00000000000E+00 0.  1.
</event>
<event>
 5    1  0.8957809E-005  0.9118800E+02  0.7818608E-02  0.1130116E+00
         25   -1    0    0    0    0  0.00000000000E+00  0.00000000000E+00  0.99999998245E-14  0.12500000000E+03  0.12500000000E+03 0.  0.
        -11    1    3    3    0    0  0.53787665166E+00  0.37018008437E+02  0.17796692590E+02  0.41077299416E+02  0.51100000000E-03 0.  1.
         23    2    1    0    0    0 -0.53817749648E+01 -0.18002393035E+02  0.21386947258E+02  0.96531575917E+02  0.92238245751E+02 0.  0.
         11    1    3    3    0    0 -0.59196516165E+01 -0.55020401472E+02  0.35902546679E+01  0.55454276501E+02  0.51100000000E-03 0. -1.
         22    1    1    0    0    0  0.53817749648E+01  0.18002393035E+02 -0.21386947258E+02  0.28468424083E+02  0.00000000000E+00 0. -1.
</event>
<event>
 5    1  0.8957809E-005  0.9118800E+02  0.7818608E-02  0.1130116E+00
         25   -1    0    0    0    0  0.00000000000E+00  0.00000000000E+00  0.99999998245E-14  0.12500000000E+03  0.12500000000E+03 0.  0.
        -11    1    3    3    0    0  0.84167473399E+01 -0.12032319800E+02  0.57346355135E+02  0.59196476272E+02  0.51100000000E-03 0. -1.
         23    2    1    0    0    0  0.36190313047E+01 -0.19422028503E+02  0.22881716207E+02  0.94769460551E+02  0.89818512223E+02 0.  0.
         11    1    3    3    0    0 -0.47977160351E+01 -0.73897087030E+01 -0.34464638927E+02  0.35572984279E+02  0.51100000000E-03 0.  1.
         22    1    1    0    0    0 -0.36190313047E+01  0.19422028503E+02 -0.22881716207E+02  0.30230539449E+02  0.00000000000E+00 0. -1.
</event>
<event>
 5    1  0.8957809E-005  0.9118800E+02  0.7818608E-02  0.1130116E+00
         25   -1    0    0    0    0  0.00000000000E+00  0.00000000000E+00  0.99999998245E-14  0.12500000000E+03  0.12500000000E+03 0.  0.
        -11    1    3    3    0    0  0.47184560092E+02 -0.25091336168E+02 -0.31830176810E+02  0.62202234830E+02  0.51100000000E-03 0.  1.
         23    2    1    0    0    0  0.16294735559E+02 -0.13417913484E+02 -0.12731557512E+02  0.10034941449E+03  0.97274629904E+02 0.  0.
         11    1    3    3    0    0 -0.30889824533E+02  0.11673422683E+02  0.19098619298E+02  0.38147179662E+02  0.51100000000E-03 0. -1.
         22    1    1    0    0    0 -0.16294735559E+02  0.13417913484E+02  0.12731557512E+02  0.24650585508E+02  0.00000000000E+00 0.  1.
</event>
<event>
 5    1  0.8957809E-005  0.9118800E+02  0.7818608E-02  0.1130116E+00
         25   -1    0    0    0    0  0.00000000000E+00  0.00000000000E+00  0.99999998245E-14  0.12500000000E+03  0.12500000000E+03 0.  0.
        -11    1    3    3    0    0  0.31371852889E+02  0.19296226454E+02 -0.38891710673E+02  0.53564005343E+02  0.51100000000E-03 0.  1.
         23    2    1    0    0    0 -0.67648206274E+01  0.19838733342E+02 -0.19588914378E+02  0.96310913133E+02  0.91938720261E+02 0.  0.
         11    1    3    3    0    0 -0.38136673516E+02  0.54250688725E+00  0.19302796294E+02  0.42746907790E+02  0.51100000000E-03 0. -1.
         22    1    1    0    0    0  0.67648206274E+01 -0.19838733342E+02  0.19588914378E+02  0.28689086867E+02  0.00000000000E+00 0.  1.
</event>
<event>
 5    1  0.8957809E-005  0.9118800E+02  0.7818608E-02  0.1130116E+00
         25   -1    0    0    0    0  0.00000000000E+00  0.00000000000E+00  0.99999998245E-14  0.12500000000E+03  0.12500000000E+03 0.  0.
        -11    1    3    3    0    0  0.42941348625E+02  0.47976792451E+01 -0.63885733955E+01  0.43678267115E+02  0.51100000000E-03 0.  1.
         23    2    1    0    0    0 -0.13297606871E+02  0.18431553679E+02  0.21418044541E+01  0.10217160002E+03  0.99588653992E+02 0.  0.
         11    1    3    3    0    0 -0.56238955496E+02  0.13633874434E+02  0.85303778496E+01  0.58493332901E+02  0.51100000000E-03 0. -1.
         22    1    1    0    0    0  0.13297606871E+02 -0.18431553679E+02 -0.21418044541E+01  0.22828399984E+02  0.00000000000E+00 0. -1.
</event>
<event>
 5    1  0.8957809E-005  0.9118800E+02  0.7818608E-02  0.1130116E+00
         25   -1    0    0    0    0  0.00000000000E+00  0.00000000000E+00  0.99999998245E-14  0.12500000000E+03  0.12500000000E+03 0.  0.
        -11    1    3    3    0    0  0.46415610404E+02 -0.13699899799E+02 -0.61942009230E+01  0.48790001732E+02  0.51100000000E-03 0. -1.
         23    2    1    0    0    0 -0.49368205971E+01 -0.52347184157E+01  0.17577061759E+02  0.10600717044E+03  0.10429186263E+03 0.  0.
         11    1    3    3    0    0 -0.51352431001E+02  0.84651813838E+01  0.23771262682E+02  0.57217168711E+02  0.51100000000E-03 0.  1.
         22    1    1    0    0    0  0.49368205971E+01  0.52347184157E+01 -0.17577061759E+02  0.18992829557E+02  0.00000000000E+00 0.  1.
</event>
<event>
 5    1  0.8957809E-005  0.9118800E+02  0.7818608E-02  0.1130116E+00
         25   -1    0    0    0    0  0.00000000000E+00  0.00000000000E+00  0.99999998245E-14  0.12500000000E+03  0.12500000000E+03 0.  0.
        -11    1    3    3    0    0 -0.57065655841E+02  0.97745312561E+01  0.39295850823E+01  0.58029924841E+02  0.51100000000E-03 0. -1.
         23    2    1    0    0    0 -0.24250656378E+02 -0.73420457224E+01  0.13544525139E+02  0.96269282442E+02  0.91882101687E+02 0.  0.
         11    1    3    3    0    0  0.32814999463E+02 -0.17116576979E+02  0.96149400566E+01  0.38239357601E+02  0.51100000000E-03 0.  1.
         22    1    1    0    0    0  0.24250656378E+02  0.73420457224E+01 -0.13544525139E+02  0.28730717558E+02  0.00000000000E+00 0. -1.
</event>
<event>
 5    1  0.8957809E-005  0.9118800E+02  0.7818608E-02  0.1130116E+00
         25   -1    0    0    0    0  0.00000000000E+00  0.00000000000E+00  0.99999998245E-14  0.12500000000E+03  0.12500000000E+03 0.  0.
        -11    1    3    3    0    0 -0.29282089689E+02 -0.12337351615E+02 -0.47173213903E+02  0.56876736295E+02  0.51100000000E-03 0.  1.
         23    2    1    0    0    0 -0.23724167018E+02 -0.14680676526E+02 -0.87638464324E+01  0.95756823561E+02  0.91182267411E+02 0.  0.
         11    1    3    3    0    0  0.55579226705E+01 -0.23433249106E+01  0.38409367470E+02  0.38880087266E+02  0.51100000000E-03 0. -1.
         22    1    1    0    0    0  0.23724167018E+02  0.14680676526E+02  0.87638464324E+01  0.29243176439E+02  0.00000000000E+00 0.  1.
</event>
<event>
 5    1  0.8957809E-005  0.9118800E+02  0.7818608E-02  0.1130116E+00
         25   -1    0    0    0    0  0.00000000000E+00  0.00000000000E+00  0.99999998245E-14  0.12500000000E+03  0.12500000000E+03 0.  0.
        -11    1    3    3    0    0 -0.35141574877E+02  0.14187892985E+01  0.49212722280E+02  0.60488306989E+02  0.51100000000E-03 0. -1.
         23    2    1    0    0    0 -0.64610624920E+01  0.28770573240E+01  0.27811534382E+02  0.96303236558E+02  0.91928282587E+02 0.  0.
         11    1    3    3    0    0  0.28680512385E+02  0.14582680255E+01 -0.21401187898E+02  0.35814929568E+02  0.51100000000E-03 0.  1.
         22    1    1    0    0    0  0.64610624920E+01 -0.28770573240E+01 -0.27811534382E+02  0.28696763442E+02  0.00000000000E+00 0. -1.
</event>
<event>
 5    1  0.8957809E-005  0.9118800E+02  0.7818608E-02  0.1130116E+00
         25   -1    0    0    0    0  0.00000000000E+00  0.00000000000E+00  0.99999998245E-14  0.12500000000E+03  0.12500000000E+03 0.  0.
        -11    1    3    3    0    0  0.66393051967E+00  0.71482743741E+01 -0.38344348428E+02  0.39010609927E+02  0.51100000000E-03 0.  1.
         23    2    1    0    0    0  0.80536498435E+01 -0.32402617244E+02 -0.30024682647E+02  0.80097077510E+02  0.66326988304E+02 0.  0.
         11    1    3    3    0    0  0.73897193238E+01 -0.39550891618E+02  0.83196657807E+01  0.41086467583E+02  0.51100000000E-03 0. -1.
         22    1    1    0    0    0 -0.80536498435E+01  0.32402617244E+02  0.30024682647E+02  0.44902922490E+02  0.00000000000E+00 0.  1.
</event>
<event>
 5    1  0.8957809E-005  0.9118800E+02  0.7818608E-02  0.1130116E+00
         25   -1    0    0    0    0  0.00000000000E+00  0.00000000000E+00  0.99999998245E-14  0.12500000000E+03  0.12500000000E+03 0.  0.
        -11    1    3    3    0    0 -0.35944561981E+02 -0.81001643866E+01  0.70480453536E+01  0.37513985961E+02  0.51100000000E-03 0. -1.
         23    2    1    0    0    0  0.20182813442E+02  0.25046270838E+01  0.20421290655E+02  0.96179031466E+02  0.91759238589E+02 0.  0.
         11    1    3    3    0    0  0.56127375423E+02  0.10604791470E+02  0.13373245301E+02  0.58665045505E+02  0.51100000000E-03 0.  1.
         22    1    1    0    0    0 -0.20182813442E+02 -0.25046270838E+01 -0.20421290655E+02  0.28820968534E+02  0.00000000000E+00 0.  1.
</event>
<event>
 5    1  0.8957809E-005  0.9118800E+02  0.7818608E-02  0.1130116E+00
         25   -1    0    0    0    0  0.00000000000E+00  0.00000000000E+00  0.99999998245E-14  0.12500000000E+03  0.12500000000E+03 0.  0.
        -11    1    3    3    0    0 -0.51149402142E+02 -0.21491775625E+02  0.76992551583E+01  0.56012822544E+02  0.51100000000E-03 0. -1.
         23    2    1    0    0    0 -0.14231039438E+02 -0.23919828710E+02 -0.77516987070E+01  0.96107621735E+02  0.91661908303E+02 0.  0.
         11    1    3    3    0    0  0.36918362705E+02 -0.24280530845E+01 -0.15450953865E+02  0.40094799191E+02  0.51100000000E-03 0.  1.
         22    1    1    0    0    0  0.14231039438E+02  0.23919828710E+02  0.77516987070E+01  0.28892378265E+02  0.00000000000E+00 0.  1.
</event>
<event>
 5    1  0.8957809E-005  0.9118800E+02  0.7818608E-02  0.1130116E+00
         25   -1    0    0    0    0  0.00000000000E+00  0.00000000000E+00  0.99999998245E-14  0.12500000000E+03  0.12500000000E+03 0.  0.
        -11    1    3    3    0    0  0.42265023545E+02  0.17682051323E+02 -0.26681614575E+02  0.53017881048E+02  0.51100000000E-03 0.  1.
         23    2    1    0    0    0 -0.78273523029E+00  0.19044708913E+02 -0.21291309361E+02  0.96423200558E+02  0.92091259844E+02 0.  0.
         11    1    3    3    0    0 -0.43047758775E+02  0.13626575902E+01  0.53903052139E+01  0.43405319511E+02  0.51100000000E-03 0. -1.
         22    1    1    0    0    0  0.78273523029E+00 -0.19044708913E+02  0.21291309361E+02  0.28576799442E+02  0.00000000000E+00 0.  1.
</event>
<event>
 5    1  0.8957809E-005  0.9118800E+02  0.7818608E-02  0.1130116E+00
         25   -1    0    0    0    0  0.00000000000E+00  0.00000000000E+00  0.99999998245E-14  0.12500000000E+03  0.12500000000E+03 0.  0.
        -11    1    3    3    0    0 -0.27571430463E+02  0.21040953628E+02  0.93374822944E+01  0.35917879715E+02  0.51100000000E-03 0.  1.
         23    2    1    0    0    0  0.14966442150E+02 -0.90008487746E+01 -0.22164779457E+02  0.96781440191E+02  0.92576239110E+02 0.  0.
         11    1    3    3    0    0  0.42537872614E+02 -0.30041802403E+02 -0.31502261751E+02  0.60863560476E+02  0.51100000000E-03 0. -1.
         22    1    1    0    0    0 -0.14966442150E+02  0.90008487746E+01  0.22164779457E+02  0.28218559809E+02  0.00000000000E+00 0. -1.
</event>
<event>
 5    1  0.8957809E-005  0.9118800E+02  0.7818608E-02  0.1130116E+00
         25   -1    0    0    0    0  0.00000000000E+00  0.00000000000E+00  0.99999998245E-14  0.12500000000E+03  0.12500000000E+03 0.  0.
        -11    1    3    3    0    0  0.36065976981E+02  0.24517633084E+02  0.14173802803E+02  0.45855923432E+02  0.51100000000E-03 0.  1.
         23    2    1    0    0    0  0.14003162065E+02  0.40419339367E+01 -0.25483665324E+02  0.95642837738E+02  0.91025872335E+02 0.  0.
         11    1    3    3    0    0 -0.22062814916E+02 -0.20475699147E+02 -0.39657468127E+02  0.49786914306E+02  0.51100000000E-03 0. -1.
         22    1    1    0    0    0 -0.14003162065E+02 -0.40419339367E+01  0.25483665324E+02  0.29357162262E+02  0.00000000000E+00 0.  1.
</event>
<event>
 5    1  0.8957809E-005  0.9118800E+02  0.7818608E-02  0.1130116E+00
         25   -1    0    0    0    0  0.00000000000E+00  0.00000000000E+00  0.99999998245E-14  0.12500000000E+03  0.12500000000E+03 0.  0.
        -11    1    3    3    0    0  0.15940026887E+02  0.16848892702E+02  0.32544406257E+02  0.39963833916E+02  0.51100000000E-03 0. -1.
         23    2    1    0    0    0 -0.26158405095E+02  0.15287460938E+02 -0.22728139564E+01  0.94616874711E+02  0.89605907605E+02 0.  0.
         11    1    3    3    0    0 -0.42098431982E+02 -0.15614317638E+01 -0.34817220213E+02  0.54653040795E+02  0.51100000000E-03 0.  1.
         22    1    1    0    0    0  0.26158405095E+02 -0.15287460938E+02  0.22728139564E+01  0.30383125289E+02  0.00000000000E+00 0. -1.
</event>
<event>
 5    1  0.8957809E-005  0.9118800E+02  0.7818608E-02  0.1130116E+00
         25   -1    0    0    0    0  0.00000000000E+00  0.00000000000E+00  0.99999998245E-14  0.12500000000E+03  0.12500000000E+03 0.  0.
        -11    1    3    3    0    0  0.31211606209E+02  0.22399986246E+02  0.18177255274E+02  0.42501015936E+02  0.51100000000E-03 0.  1.
         23    2    1    0    0    0 -0.17882429944E+02  0.25562454147E+02  0.52735779064E+01  0.93360926267E+02  0.87836390903E+02 0.  0.
         11    1    3    3    0    0 -0.49094036154E+02  0.31624679005E+01 -0.12903677368E+02  0.50859910332E+02  0.51100000000E-03 0. -1.
         22    1    1    0    0    0  0.17882429944E+02 -0.25562454147E+02 -0.52735779064E+01  0.31639073733E+02  0.00000000000E+00 0. -1.
</event>
<event>
 5    1  0.8957809E-005  0.9118800E+02  0.7818608E-02  0.1130116E+00
         25   -1    0    0    0    0  0.00000000000E+00  0.00000000000E+00  0.99999998245E-14  0.12500000000E+03  0.12500000000E+03 0.  0.
        -11    1    3    3    0    0 -0.26654425215E+02  0.51069570306E+01  0.26972764375E+02  0.38263159983E+02  0.51100000000E-03 0.  1.
         23    2    1    0    0    0  0.62739873361E+01  0.22599511606E+02 -0.17086281863E+02  0.95982042287E+02  0.91490494433E+02 0.  0.
         11    1    3    3    0    0  0.32928412551E+02  0.17492554576E+02 -0.44059046238E+02  0.57718882303E+02  0.51100000000E-03 0. -1.
         22    1    1    0    0    0 -0.62739873361E+01 -0.22599511606E+02  0.17086281863E+02  0.29017957713E+02  0.00000000000E+00 0. -1.
</event>
<event>
 5    1  0.8957809E-005  0.9118800E+02  0.7818608E-02  0.1130116E+00
         25   -1    0    0    0    0  0.00000000000E+00  0.00000000000E+00  0.99999998245E-14  0.12500000000E+03  0.12500000000E+03 0.  0.
        -11    1    3    3    0    0 -0.53199716296E+02  0.71852898905E+01  0.60427917647E+01  0.54021787617E+02  0.51100000000E-03 0.  1.
         23    2    1    0    0    0 -0.21998932571E+02 -0.18614741057E+02  0.95036762069E+01  0.94655618636E+02  0.89659938987E+02 0.  0.
         11    1    3    3    0    0  0.31200783725E+02 -0.25800030947E+02  0.34608844422E+01  0.40633831019E+02  0.51100000000E-03 0. -1.
         22    1    1    0    0    0  0.21998932571E+02  0.18614741057E+02 -0.95036762069E+01  0.30344381364E+02  0.00000000000E+00 0.  1.
</event>
<event>
 5    1  0.8957809E-005  0.9118800E+02  0.7818608E-02  0.1130116E+00
         25   -1    0    0    0    0  0.00000000000E+00  0.00000000000E+00  0.99999998245E-14  0.12500000000E+03  0.12500000000E+03 0.  0.
        -11    1    3    3    0    0  0.19628394431E+02  0.54151579564E+01 -0.57432198403E+02  0.60934844033E+02  0.51100000000E-03 0. -1.
         23    2    1    0    0    0  0.52542010794E+01 -0.66893104824E+01 -0.26905324451E+02  0.96782098102E+02  0.92577127442E+02 0.  0.
         11    1    3    3    0    0 -0.14374193352E+02 -0.12104468439E+02  0.30526873952E+02  0.35847254068E+02  0.51100000000E-03 0.  1.
         22    1    1    0    0    0 -0.52542010794E+01  0.66893104824E+01  0.26905324451E+02  0.28217901898E+02  0.00000000000E+00 0. -1.
</event>
<event>
 5    1  0.8957809E-005  0.9118800E+02  0.7818608E-02  0.1130116E+00
         25   -1    0    0    0    0  0.00000000000E+00  0.00000000000E+00  0.99999998245E-14  0.12500000000E+03  0.12500000000E+03 0.  0.
        -11    1    3    3    0    0 -0.32829735012E+02 -0.13757937897E+02 -0.18799922871E+02  0.40255551870E+02  0.51100000000E-03 0.  1.
         23    2    1    0    0    0 -0.65130055357E+01  0.95977265466E+01  0.25592746094E+02  0.96901525867E+02  0.92738241663E+02 0.  0.
         11    1    3    3    0    0  0.26316729477E+02  0.23355664443E+02  0.44392668965E+02  0.56645973997E+02  0.51100000000E-03 0. -1.
         22    1    1    0    0    0  0.65130055357E+01 -0.95977265466E+01 -0.25592746094E+02  0.28098474133E+02  0.00000000000E+00 0. -1.
</event>
<event>
 5    1  0.8957809E-005  0.9118800E+02  0.7818608E-02  0.1130116E+00
         25   -1    0    0    0    0  0.00000000000E+00  0.00000000000E+00  0.99999998245E-14  0.12500000000E+03  0.12500000000E+03 0.  0.
        -11    1    3    3    0    0  0.21805894921E+02 -0.25994322428E+02 -0.14938400008E+02  0.37072329936E+02  0.51100000000E-03 0.  1.
         23    2    1    0    0    0 -0.29534528224E+02 -0.14025550175E+01 -0.26181079193E+01  0.95316502782E+02  0.90576628859E+02 0.  0.
         11    1    3    3    0    0 -0.51340423145E+02  0.24591767411E+02  0.12320292088E+02  0.58244172846E+02  0.51100000000E-03 0. -1.
         22    1    1    0    0    0  0.29534528224E+02  0.14025550175E+01  0.26181079193E+01  0.29683497218E+02  0.00000000000E+00 0. -1.
</event>
<event>
 5    1  0.8957809E-005  0.9118800E+02  0.7818608E-02  0.1130116E+00
         25   -1    0    0    0    0  0.00000000000E+00  0.00000000000E+00  0.99999998245E-14  0.12500000000E+03  0.12500000000E+03 0.  0.
        -11    1    3    3    0    0  0.28309587127E+01 -0.35658591737E+02 -0.13814732589E+02  0.38345747204E+02  0.51100000000E-03 0. -1.
         23    2    1    0    0    0 -0.13700353197E+01  0.21917607236E+02 -0.18528834832E+02  0.96267157746E+02  0.91879211123E+02 0.  0.
         11    1    3    3    0    0 -0.42009940324E+01  0.57576198973E+02 -0.47141022436E+01  0.57921410542E+02  0.51100000000E-03 0.  1.
         22    1    1    0    0    0  0.13700353197E+01 -0.21917607236E+02  0.18528834832E+02  0.28732842254E+02  0.00000000000E+00 0.  1.
</event>
<event>
 5    1  0.8957809E-005  0.9118800E+02  0.7818608E-02  0.1130116E+00
         25   -1    0    0    0    0  0.00000000000E+00  0.00000000000E+00  0.99999998245E-14  0.12500000000E+03  0.12500000000E+03 0.  0.
        -11    1    3    3    0    0  0.74605494754E+01  0.11816757260E+02 -0.42431991055E+02  0.44674035141E+02  0.51100000000E-03 0.  1.
         23    2    1    0    0    0 -0.23599548790E+02 -0.13295145355E+02 -0.99949363587E+01  0.96127896753E+02  0.91689553321E+02 0.  0.
         11    1    3    3    0    0 -0.31060098265E+02 -0.25111902615E+02  0.32437054696E+02  0.51453861612E+02  0.51100000000E-03 0. -1.
         22    1    1    0    0    0  0.23599548790E+02  0.13295145355E+02  0.99949363587E+01  0.28872103247E+02  0.00000000000E+00 0. -1.
</event>
<event>
 5    1  0.8957809E-005  0.9118800E+02  0.7818608E-02  0.1130116E+00
         25   -1    0    0    0    0  0.00000000000E+00  0.00000000000E+00  0.99999998245E-14  0.12500000000E+03  0.12500000000E+03 0.  0.
        -11    1    3    3    0    0 -0.11762302303E+02 -0.25574297946E+02 -0.47488987590E+02  0.55205075975E+02  0.51100000000E-03 0.  1.
         23    2    1    0    0    0  0.10526845183E+02 -0.22013033757E+02 -0.10722542216E+02  0.98347400947E+02  0.94667049372E+02 0.  0.
         11    1    3    3    0    0  0.22289147487E+02  0.35612641884E+01  0.36766445373E+02  0.43142324972E+02  0.51100000000E-03 0. -1.
         22    1    1    0    0    0 -0.10526845183E+02  0.22013033757E+02  0.10722542216E+02  0.26652599053E+02  0.00000000000E+00 0.  1.
</event>
<event>
 5    1  0.8957809E-005  0.9118800E+02  0.7818608E-02  0.1130116E+00
         25   -1    0    0    0    0  0.00000000000E+00  0.00000000000E+00  0.99999998245E-14  0.12500000000E+03  0.12500000000E+03 0.  0.
        -11    1    3    3    0    0 -0.25170066905E+02  0.93286080194E+01  0.33304210758E+02  0.42775292518E+02  0.51100000000E-03 0. -1.
         23    2    1    0    0    0 -0.87056244885E+01  0.23398609777E+02 -0.15113555720E+02  0.95816059147E+02  0.91263436198E+02 0.  0.
         11    1    3    3    0    0  0.16464442416E+02  0.14070001758E+02 -0.48417766478E+02  0.53040766628E+02  0.51100000000E-03 0.  1.
         22    1    1    0    0    0  0.87056244885E+01 -0.23398609777E+02  0.15113555720E+02  0.29183940853E+02  0.00000000000E+00 0.  1.
</event>
<event>
 5    1  0.8957809E-005  0.9118800E+02  0.7818608E-02  0.1130116E+00
         25   -1    0    0    0    0  0.00000000000E+00  0.00000000000E+00  0.99999998245E-14  0.12500000000E+03  0.12500000000E+03 0.  0.
        -11    1    3    3    0    0 -0.16196938699E+02 -0.33456726517E+02 -0.23017962644E+02  0.43720932938E+02  0.51100000000E-03 0.  1.
         23    2    1    0    0    0 -0.44466088706E+01 -0.14340837644E+02  0.24497119509E+02  0.96267773859E+02  0.91880049329E+02 0.  0.
         11    1    3    3    0    0  0.11750329828E+02  0.19115888873E+02  0.47515082153E+02  0.52546840921E+02  0.51100000000E-03 0. -1.
         22    1    1    0    0    0  0.44466088706E+01  0.14340837644E+02 -0.24497119509E+02  0.28732226141E+02  0.00000000000E+00 0. -1.
</event>
<event>
 5    1  0.8957809E-005  0.9118800E+02  0.7818608E-02  0.1130116E+00
         25   -1    0    0    0    0  0.00000000000E+00  0.00000000000E+00  0.99999998245E-14  0.12500000000E+03  0.12500000000E+03 0.  0.
        -11    1    3    3    0    0  0.16467697248E+02  0.30742767051E+02 -0.13697866360E+02  0.37469111567E+02  0.51100000000E-03 0. -1.
         23    2    1    0    0    0 -0.45641746501E+00 -0.13175350641E+02  0.23897539858E+02  0.97707316133E+02  0.93818063470E+02 0.  0.
         11    1    3    3    0    0 -0.16924114713E+02 -0.43918117691E+02  0.37595406218E+02  0.60238204566E+02  0.51100000000E-03 0.  1.
         22    1    1    0    0    0  0.45641746501E+00  0.13175350641E+02 -0.23897539858E+02  0.27292683867E+02  0.00000000000E+00 0.  1.
</event>
<event>
 5    1  0.8957809E-005  0.9118800E+02  0.7818608E-02  0.1130116E+00
         25   -1    0    0    0    0  0.00000000000E+00  0.00000000000E+00  0.99999998245E-14  0.12500000000E+03  0.12500000000E+03 0.  0.
        -11    1    3    3    0    0  0.27250257821E+02  0.32453927087E+02 -0.56431707127E+01  0.42751366184E+02  0.51100000000E-03 0. -1.
         23    2    1    0    0    0  0.18909681710E+01  0.17511280047E+01  0.29213273021E+02  0.95673262532E+02  0.91067643172E+02 0.  0.
         11    1    3    3    0    0 -0.25359289650E+02 -0.30702799082E+02  0.34856443734E+02  0.52921896348E+02  0.51100000000E-03 0.  1.
         22    1    1    0    0    0 -0.18909681710E+01 -0.17511280047E+01 -0.29213273021E+02  0.29326737468E+02  0.00000000000E+00 0.  1.
</event>
<event>
 5    1  0.8957809E-005  0.9118800E+02  0.7818608E-02  0.1130116E+00
         25   -1    0    0    0    0  0.00000000000E+00  0.00000000000E+00  0.99999998245E-14  0.12500000000E+03  0.12500000000E+03 0.  0.
        -11    1    3    3    0    0 -0.19471351212E+02 -0.22708543328E+02  0.75485693977E-01  0.29913494554E+02  0.51100000000E-03 0.  1.
         23    2    1    0    0    0  0.26923371645E+02  0.12306183922E+02  0.17522222675E+02  0.90600314087E+02  0.83815741491E+02 0.  0.
         11    1    3    3    0    0  0.46394722858E+02  0.35014727250E+02  0.17446736981E+02  0.60686819532E+02  0.51100000000E-03 0. -1.
         22    1    1    0    0    0 -0.26923371645E+02 -0.12306183922E+02 -0.17522222675E+02  0.34399685913E+02  0.00000000000E+00 0. -1.
</event>
<event>
 5    1  0.8957809E-005  0.9118800E+02  0.7818608E-02  0.1130116E+00
         25   -1    0    0    0    0  0.00000000000E+00  0.00000000000E+00  0.99999998245E-14  0.12500000000E+03  0.12500000000E+03 0.  0.
        -11    1    3    3    0    0  0.21524977081E+02 -0.41375239002E+02  0.16374377263E+02  0.49430307220E+02  0.51100000000E-03 0. -1.
         23    2    1    0    0    0 -0.39464807714E+01 -0.13119273456E+01  0.26669127059E+02  0.98008553170E+02  0.94218566602E+02 0.  0.
         11    1    3    3    0    0 -0.25471457852E+02  0.40063311657E+02  0.10294749796E+02  0.48578245951E+02  0.51100000000E-03 0.  1.
         22    1    1    0    0    0  0.39464807714E+01  0.13119273456E+01 -0.26669127059E+02  0.26991446830E+02  0.00000000000E+00 0. -1.
</event>
<event>
 5    1  0.8957809E-005  0.9118800E+02  0.7818608E-02  0.1130116E+00
         25   -1    0    0    0    0  0.00000000000E+00  0.00000000000E+00  0.99999998245E-14  0.12500000000E+03  0.12500000000E+03 0.  0.
        -11    1    3    3    0    0 -0.42681080519E+01  0.44168669495E+02 -0.36296017912E+02  0.57327907932E+02  0.51100000000E-03 0. -1.
         23    2    1    0    0    0 -0.24544592270E+01  0.31722690860E+02 -0.28565259112E+01  0.93054527304E+02  0.87399266736E+02 0.  0.
         11    1    3    3    0    0  0.18136488248E+01 -0.12445978635E+02  0.33439492001E+02  0.35726619373E+02  0.51100000000E-03 0.  1.
         22    1    1    0    0    0  0.24544592270E+01 -0.31722690860E+02  0.28565259112E+01  0.31945472696E+02  0.00000000000E+00 0. -1.
</event>
<event>
 5    1  0.8957809E-005  0.9118800E+02  0.7818608E-02  0.1130116E+00
         25   -1    0    0    0    0  0.00000000000E+00  0.00000000000E+00  0.99999998245E-14  0.12500000000E+03  0.12500000000E+03 0.  0.
        -11    1    3    3    0    0  0.18672799703E+02  0.25944208524E+02  0.27643953631E+02  0.42260662292E+02  0.51100000000E-03 0.  1.
         23    2    1    0    0    0 -0.12530539137E+02  0.15323464424E+02 -0.17786120727E+02  0.98388553900E+02  0.94721372853E+02 0.  0.
         11    1    3    3    0    0 -0.31203338840E+02 -0.10620744100E+02 -0.45430074358E+02  0.56127891609E+02  0.51100000000E-03 0. -1.
         22    1    1    0    0    0  0.12530539137E+02 -0.15323464424E+02  0.17786120727E+02  0.26611446100E+02  0.00000000000E+00 0. -1.
</event>
<event>
 5    1  0.8957809E-005  0.9118800E+02  0.7818608E-02  0.1130116E+00
         25   -1    0    0    0    0  0.00000000000E+00  0.00000000000E+00  0.99999998245E-14  0.12500000000E+03  0.12500000000E+03 0.  0.
        -11    1    3    3    0    0 -0.29262507157E+02  0.17893666048E+02  0.49054675518E+02  0.59856819162E+02  0.51100000000E-03 0.  1.
         23    2    1    0    0    0 -0.17829920995E+02 -0.38323279920E+01  0.19005051082E+02  0.98660205256E+02  0.95079184441E+02 0.  0.
         11    1    3    3    0    0  0.11432586162E+02 -0.21725994040E+02 -0.30049624436E+02  0.38803386094E+02  0.51100000000E-03 0. -1.
         22    1    1    0    0    0  0.17829920995E+02  0.38323279920E+01 -0.19005051082E+02  0.26339794744E+02  0.00000000000E+00 0.  1.
</event>
<event>
 5    1  0.8957809E-005  0.9118800E+02  0.7818608E-02  0.1130116E+00
         25   -1    0    0    0    0  0.00000000000E+00  0.00000000000E+00  0.99999998245E-14  0.12500000000E+03  0.12500000000E+03 0.  0.
        -11    1    3    3    0    0 -0.24589722102E+02 -0.12699908483E+02 -0.32841095629E+02  0.42947405869E+02  0.51100000000E-03 0.  1.
         23    2    1    0    0    0 -0.18513983928E+02 -0.20154954973E+02  0.16383805309E+02  0.93102995638E+02  0.87468559549E+02 0.  0.
         11    1    3    3    0    0  0.60757381738E+01 -0.74550464907E+01  0.49224900938E+02  0.50155589769E+02  0.51100000000E-03 0. -1.
         22    1    1    0    0    0  0.18513983928E+02  0.20154954973E+02 -0.16383805309E+02  0.31897004362E+02  0.00000000000E+00 0.  1.
</event>
<event>
 5    1  0.8957809E-005  0.9118800E+02  0.7818608E-02  0.1130116E+00
         25   -1    0    0    0    0  0.00000000000E+00  0.00000000000E+00  0.99999998245E-14  0.12500000000E+03  0.12500000000E+03 0.  0.
        -11    1    3    3    0    0 -0.47022624533E+01  0.39778073298E+02  0.38321069896E+02  0.55433841521E+02  0.51100000000E-03 0. -1.
         23    2    1    0    0    0  0.15722691614E+02  0.89275995750E+01  0.23638114454E+02  0.95239866924E+02  0.90470805960E+02 0.  0.
         11    1    3    3    0    0  0.20424954067E+02 -0.30850473723E+02 -0.14682955442E+02  0.39806025403E+02  0.51100000000E-03 0.  1.
         22    1    1    0    0    0 -0.15722691614E+02 -0.89275995750E+01 -0.23638114454E+02  0.29760133076E+02  0.00000000000E+00 0. -1.
</event>
<event>
 5    1  0.8957809E-005  0.9118800E+02  0.7818608E-02  0.1130116E+00
         25   -1    0    0    0    0  0.00000000000E+00  0.00000000000E+00  0.99999998245E-14  0.12500000000E+03  0.12500000000E+03 0.  0.
        -11    1    3    3    0    0  0.36886596735E+02 -0.56745591329E+00 -0.12003315700E+02  0.38794620928E+02  0.51100000000E-03 0. -1.
         23    2    1    0    0    0 -0.15187766209E+02  0.22146807221E+02 -0.11949133067E+02  0.95607295233E+02  0.90977050997E+02 0.  0.
         11    1    3    3    0    0 -0.52074362943E+02  0.22714263134E+02  0.54182633003E-01  0.56812674305E+02  0.51100000000E-03 0.  1.
         22    1    1    0    0    0  0.15187766209E+02 -0.22146807221E+02  0.11949133067E+02  0.29392704767E+02  0.00000000000E+00 0.  1.
</event>
<event>
 5    1  0.8957809E-005  0.9118800E+02  0.7818608E-02  0.1130116E+00
         25   -1    0    0    0    0  0.00000000000E+00  0.00000000000E+00  0.99999998245E-14  0.12500000000E+03  0.12500000000E+03 0.  0.
        -11    1    3    3    0    0 -0.53380902221E+02  0.25319916825E+01  0.16372198819E+01  0.53465990995E+02  0.51100000000E-03 0. -1.
         23    2    1    0    0    0 -0.21582529792E+02  0.88432756304E+01  0.22962253569E+02  0.92269674535E+02  0.86269453653E+02 0.  0.
         11    1    3    3    0    0  0.31798372430E+02  0.63112839479E+01  0.21325033688E+02  0.38803683540E+02  0.51100000000E-03 0.  1.
         22    1    1    0    0    0  0.21582529792E+02 -0.88432756304E+01 -0.22962253569E+02  0.32730325465E+02  0.00000000000E+00 0. -1.
</event>
<event>
 5    1  0.8957809E-005  0.9118800E+02  0.7818608E-02  0.1130116E+00
         25   -1    0    0    0    0  0.00000000000E+00  0.00000000000E+00  0.99999998245E-14  0.12500000000E+03  0.12500000000E+03 0.  0.
        -11    1    3    3    0    0 -0.36684739696E+02 -0.88759169243E+01 -0.10850452942E+01  0.37758831436E+02  0.51100000000E-03 0.  1.
         23    2    1    0    0    0  0.20154419993E+02 -0.20939823658E+02  0.12349874510E+01  0.95910447682E+02  0.91392625088E+02 0.  0.
         11    1    3    3    0    0  0.56839159689E+02 -0.12063906734E+02  0.23200327452E+01  0.58151616246E+02  0.51100000000E-03 0. -1.
         22    1    1    0    0    0 -0.20154419993E+02  0.20939823658E+02 -0.12349874510E+01  0.29089552318E+02  0.00000000000E+00 0. -1.
</event>
<event>
 5    1  0.8957809E-005  0.9118800E+02  0.7818608E-02  0.1130116E+00
         25   -1    0    0    0    0  0.00000000000E+00  0.00000000000E+00  0.99999998245E-14  0.12500000000E+03  0.12500000000E+03 0.  0.
        -11    1    3    3    0    0 -0.45916230729E+02  0.10672665079E+02  0.31472723352E+02  0.56681022748E+02  0.51100000000E-03 0.  1.
         23    2    1    0    0    0 -0.27948347539E+02  0.39191668102E+01 -0.34867828537E+01  0.96563620953E+02  0.92281662524E+02 0.  0.
         11    1    3    3    0    0  0.17967883190E+02 -0.67534982689E+01 -0.34959506206E+02  0.39882598205E+02  0.51100000000E-03 0. -1.
         22    1    1    0    0    0  0.27948347539E+02 -0.39191668102E+01  0.34867828537E+01  0.28436379047E+02  0.00000000000E+00 0.  1.
</event>
<event>
 5    1  0.8957809E-005  0.9118800E+02  0.7818608E-02  0.1130116E+00
         25   -1    0    0    0    0  0.00000000000E+00  0.00000000000E+00  0.99999998245E-14  0.12500000000E+03  0.12500000000E+03 0.  0.
        -11    1    3    3    0    0  0.68832644344E+01 -0.33359835490E+02  0.24307856203E+02  0.41846503159E+02  0.51100000000E-03 0.  1.
         23    2    1    0    0    0  0.99131724632E+01  0.18818004763E+02  0.22347161142E+02  0.94149004835E+02  0.88950835908E+02 0.  0.
         11    1    3    3    0    0  0.30299080287E+01  0.52177840253E+02 -0.19606950613E+01  0.52302501676E+02  0.51100000000E-03 0. -1.
         22    1    1    0    0    0 -0.99131724632E+01 -0.18818004763E+02 -0.22347161142E+02  0.30850995165E+02  0.00000000000E+00 0.  1.
</event>
<event>
 5    1  0.8957809E-005  0.9118800E+02  0.7818608E-02  0.1130116E+00
         25   -1    0    0    0    0  0.00000000000E+00  0.00000000000E+00  0.99999998245E-14  0.12500000000E+03  0.12500000000E+03 0.  0.
        -11    1    3    3    0    0 -0.10496057723E+02 -0.10511648416E+02  0.37084009804E+02  0.39948538941E+02  0.51100000000E-03 0. -1.
         23    2    1    0    0    0 -0.83005238518E+01  0.30757672106E+02  0.39912143493E+01  0.92892946545E+02  0.87167864699E+02 0.  0.
         11    1    3    3    0    0  0.21955338709E+01  0.41269320522E+02 -0.33092795454E+02  0.52944407604E+02  0.51100000000E-03 0.  1.
         22    1    1    0    0    0  0.83005238518E+01 -0.30757672106E+02 -0.39912143493E+01  0.32107053455E+02  0.00000000000E+00 0. -1.
</event>
<event>
 5    1  0.8957809E-005  0.9118800E+02  0.7818608E-02  0.1130116E+00
         25   -1    0    0    0    0  0.00000000000E+00  0.00000000000E+00  0.99999998245E-14  0.12500000000E+03  0.12500000000E+03 0.  0.
        -11    1    3    3    0    0  0.83850897003E+01  0.32008605930E+02 -0.28989632657E+02  0.43991583112E+02  0.51100000000E-03 0.  1.
         23    2    1    0    0    0  0.21671997908E+02  0.10210962673E+02  0.16330201073E+02  0.96006643535E+02  0.91524100016E+02 0.  0.
         11    1    3    3    0    0  0.13286908207E+02 -0.21797643257E+02  0.45319833729E+02  0.52015060423E+02  0.51100000000E-03 0. -1.
         22    1    1    0    0    0 -0.21671997908E+02 -0.10210962673E+02 -0.16330201073E+02  0.28993356465E+02  0.00000000000E+00 0.  1.
</event>
<event>
 5    1  0.8957809E-005  0.9118800E+02  0.7818608E-02  0.1130116E+00
         25   -1    0    0    0    0  0.00000000000E+00  0.00000000000E+00  0.99999998245E-14  0.12500000000E+03  0.12500000000E+03 0.  0.
        -11    1    3    3    0    0  0.19743543710E+02 -0.14065151040E+02  0.56159936053E+02  0.61168410227E+02  0.51100000000E-03 0.  1.
         23    2    1    0    0    0  0.17055516970E+02 -0.97645690504E+01  0.22855310233E+02  0.94856963098E+02  0.89940206663E+02 0.  0.
         11    1    3    3    0    0 -0.26880267400E+01  0.43005819898E+01 -0.33304625821E+02  0.33688552871E+02  0.51100000000E-03 0. -1.
         22    1    1    0    0    0 -0.17055516970E+02  0.97645690504E+01 -0.22855310233E+02  0.30143036902E+02  0.00000000000E+00 0.  1.
</event>
<event>
 5    1  0.8957809E-005  0.9118800E+02  0.7818608E-02  0.1130116E+00
         25   -1    0    0    0    0  0.00000000000E+00  0.00000000000E+00  0.99999998245E-14  0.12500000000E+03  0.12500000000E+03 0.  0.
        -11    1    3    3    0    0  0.98254199831E+01 -0.16030922332E+02 -0.58450451312E+02  0.61400200387E+02  0.51100000000E-03 0. -1.
         23    2    1    0    0    0  0.12481551071E+02 -0.53452282202E+01 -0.25995713158E+02  0.95671895996E+02  0.91065767437E+02 0.  0.
         11    1    3    3    0    0  0.26561310879E+01  0.10685694112E+02  0.32454738154E+02  0.34271695609E+02  0.51100000000E-03 0.  1.
         22    1    1    0    0    0 -0.12481551071E+02  0.53452282202E+01  0.25995713158E+02  0.29328104004E+02  0.00000000000E+00 0. -1.
</event>
<event>
 5    1  0.8957809E-005  0.9118800E+02  0.7818608E-02  0.1130116E+00
         25   -1    0    0    0    0  0.00000000000E+00  0.00000000000E+00  0.99999998245E-14  0.12500000000E+03  0.12500000000E+03 0.  0.
        -11    1    3    3    0    0 -0.98399645801E+01 -0.33067689149E+02  0.16809466738E+02  0.38377794893E+02  0.51100000000E-03 0. -1.
         23    2    1    0    0    0  0.32268834240E+00  0.18449217364E+02  0.27420683592E+02  0.91948954059E+02  0.85803487778E+02 0.  0.
         11    1    3    3    0    0  0.10162652922E+02  0.51516906513E+02  0.10611216853E+02  0.53571159166E+02  0.51100000000E-03 0.  1.
         22    1    1    0    0    0 -0.32268834240E+00 -0.18449217364E+02 -0.27420683592E+02  0.33051045941E+02  0.00000000000E+00 0.  1.
</event>
<event>
 5    1  0.8957809E-005  0.9118800E+02  0.7818608E-02  0.1130116E+00
         25   -1    0    0    0    0  0.00000000000E+00  0.00000000000E+00  0.99999998245E-14  0.12500000000E+03  0.12500000000E+03 0.  0.
        -11    1    3    3    0    0  0.11712873801E+01 -0.33079297796E+02  0.51223279874E+01  0.33494030827E+02  0.51100000000E-03 0.  1.
         23    2    1    0    0    0 -0.17375249595E+01  0.28328502722E+02  0.93550436451E+01  0.95116226793E+02  0.90299815605E+02 0.  0.
         11    1    3    3    0    0 -0.29088123396E+01  0.61407800518E+02  0.42327156577E+01  0.61622195966E+02  0.51100000000E-03 0. -1.
         22    1    1    0    0    0  0.17375249595E+01 -0.28328502722E+02 -0.93550436451E+01  0.29883773207E+02  0.00000000000E+00 0. -1.
</event>
<event>
 5    1  0.8957809E-005  0.9118800E+02  0.7818608E-02  0.1130116E+00
         25   -1    0    0    0    0  0.00000000000E+00  0.00000000000E+00  0.99999998245E-14  0.12500000000E+03  0.12500000000E+03 0.  0.
        -11    1    3    3    0    0  0.48793531925E+02  0.29278568365E+02 -0.24064011655E+02  0.61782845357E+02  0.51100000000E-03 0.  1.
         23    2    1    0    0    0  0.24452893323E+02  0.11991763866E+02 -0.47135294403E+01  0.97360105784E+02  0.93354305986E+02 0.  0.
         11    1    3    3    0    0 -0.24340638602E+02 -0.17286804499E+02  0.19350482215E+02  0.35577260428E+02  0.51100000000E-03 0. -1.
         22    1    1    0    0    0 -0.24452893323E+02 -0.11991763866E+02  0.47135294403E+01  0.27639894216E+02  0.00000000000E+00 0.  1.
</event>
<event>
 5    1  0.8957809E-005  0.9118800E+02  0.7818608E-02  0.1130116E+00
         25   -1    0    0    0    0  0.00000000000E+00  0.00000000000E+00  0.99999998245E-14  0.12500000000E+03  0.12500000000E+03 0.  0.
        -11    1    3    3    0    0  0.36515221828E+02  0.30641860487E+02 -0.34864090011E+02  0.59057512747E+02  0.51100000000E-03 0. -1.
         23    2    1    0    0    0  0.28335697241E+02  0.82529784060E+01 -0.91935607379E+01  0.94088109897E+02  0.88865220836E+02 0.  0.
         11    1    3    3    0    0 -0.81795245872E+01 -0.22388882081E+02  0.25670529273E+02  0.35030597151E+02  0.51100000000E-03 0.  1.
         22    1    1    0    0    0 -0.28335697241E+02 -0.82529784060E+01  0.91935607379E+01  0.30911890103E+02  0.00000000000E+00 0. -1.
</event>
<event>
 5    1  0.8957809E-005  0.9118800E+02  0.7818608E-02  0.1130116E+00
         25   -1    0    0    0    0  0.00000000000E+00  0.00000000000E+00  0.99999998245E-14  0.12500000000E+03  0.12500000000E+03 0.  0.
        -11    1    3    3    0    0 -0.14593517038E+02  0.31862393528E+02  0.27876282446E+02  0.44780241002E+02  0.51100000000E-03 0.  1.
         23    2    1    0    0    0  0.15264020082E+02  0.20494292325E+02 -0.12732088742E+02  0.96449826433E+02  0.92127393365E+02 0.  0.
         11    1    3    3    0    0  0.29857537120E+02 -0.11368101203E+02 -0.40608371188E+02  0.51669585431E+02  0.51100000000E-03 0. -1.
         22    1    1    0    0    0 -0.15264020082E+02 -0.20494292325E+02  0.12732088742E+02  0.28550173567E+02  0.00000000000E+00 0. -1.
</event>
<event>
 5    1  0.8957809E-005  0.9118800E+02  0.7818608E-02  0.1130116E+00
         25   -1    0    0    0    0  0.00000000000E+00  0.00000000000E+00  0.99999998245E-14  0.12500000000E+03  0.12500000000E+03 0.  0.
        -11    1    3    3    0    0 -0.42871287985E+01 -0.39755326841E+02  0.23529852822E+02  0.46395252555E+02  0.51100000000E-03 0.  1.
         23    2    1    0    0    0  0.22293804528E+02  0.23530012599E+01  0.17510948875E+02  0.96553846205E+02  0.92268421202E+02 0.  0.
         11    1    3    3    0    0  0.26580933326E+02  0.42108328101E+02 -0.60189039471E+01  0.50158593650E+02  0.51100000000E-03 0. -1.
         22    1    1    0    0    0 -0.22293804528E+02 -0.23530012599E+01 -0.17510948875E+02  0.28446153795E+02  0.00000000000E+00 0. -1.
</event>
<event>
 5    1  0.8957809E-005  0.9118800E+02  0.7818608E-02  0.1130116E+00
         25   -1    0    0    0    0  0.00000000000E+00  0.00000000000E+00  0.99999998245E-14  0.12500000000E+03  0.12500000000E+03 0.  0.
        -11    1    3    3    0    0  0.37372330984E+01  0.97202742270E+00 -0.37082094230E+02  0.37282616074E+02  0.51100000000E-03 0.  1.
         23    2    1    0    0    0 -0.27078820746E+02 -0.11763503708E+02  0.89746248795E+01  0.94142481561E+02  0.88941668470E+02 0.  0.
         11    1    3    3    0    0 -0.30816053845E+02 -0.12735531131E+02  0.46056719110E+02  0.56859865487E+02  0.51100000000E-03 0. -1.
         22    1    1    0    0    0  0.27078820746E+02  0.11763503708E+02 -0.89746248795E+01  0.30857518439E+02  0.00000000000E+00 0. -1.
</event>
<event>
 5    1  0.8957809E-005  0.9118800E+02  0.7818608E-02  0.1130116E+00
         25   -1    0    0    0    0  0.00000000000E+00  0.00000000000E+00  0.99999998245E-14  0.12500000000E+03  0.12500000000E+03 0.  0.
        -11    1    3    3    0    0 -0.81081441920E+01 -0.40008324631E+02 -0.16725808322E+02  0.44115311473E+02  0.51100000000E-03 0. -1.
         23    2    1    0    0    0 -0.29945261688E+01 -0.99432836477E+01  0.26226093627E+02  0.96792836661E+02  0.92591625784E+02 0.  0.
         11    1    3    3    0    0  0.51136180232E+01  0.30065040984E+02  0.42951901950E+02  0.52677525188E+02  0.51100000000E-03 0.  1.
         22    1    1    0    0    0  0.29945261688E+01  0.99432836477E+01 -0.26226093627E+02  0.28207163339E+02  0.00000000000E+00 0.  1.
</event>
<event>
 5    1  0.8957809E-005  0.9118800E+02  0.7818608E-02  0.1130116E+00
         25   -1    0    0    0    0  0.00000000000E+00  0.00000000000E+00  0.99999998245E-14  0.12500000000E+03  0.12500000000E+03 0.  0.
        -11    1    3    3    0    0 -0.44984259221E+02 -0.23482775865E+02 -0.49286185559E+01  0.50983483807E+02  0.51100000000E-03 0.  1.
         23    2    1    0    0    0 -0.55444024595E+00 -0.22845642019E+02 -0.16396574946E+02  0.96873883432E+02  0.92700975496E+02 0.  0.
         11    1    3    3    0    0  0.44429818975E+02  0.63713384579E+00 -0.11467956391E+02  0.45890399625E+02  0.51100000000E-03 0. -1.
         22    1    1    0    0    0  0.55444024595E+00  0.22845642019E+02  0.16396574946E+02  0.28126116568E+02  0.00000000000E+00 0. -1.
</event>
<event>
 5    1  0.8957809E-005  0.9118800E+02  0.7818608E-02  0.1130116E+00
         25   -1    0    0    0    0  0.00000000000E+00  0.00000000000E+00  0.99999998245E-14  0.12500000000E+03  0.12500000000E+03 0.  0.
        -11    1    3    3    0    0  0.17567278812E+02 -0.53907504857E+02 -0.13151889022E+02  0.58203097425E+02  0.51100000000E-03 0.  1.
         23    2    1    0    0    0 -0.74895198142E+01 -0.26533416937E+02 -0.10806538533E+02  0.95387563483E+02  0.90674642932E+02 0.  0.
         11    1    3    3    0    0 -0.25056798627E+02  0.27374087920E+02  0.23453504892E+01  0.37184466058E+02  0.51100000000E-03 0. -1.
         22    1    1    0    0    0  0.74895198142E+01  0.26533416937E+02  0.10806538533E+02  0.29612436517E+02  0.00000000000E+00 0. -1.
</event>
<event>
 5    1  0.8957809E-005  0.9118800E+02  0.7818608E-02  0.1130116E+00
         25   -1    0    0    0    0  0.00000000000E+00  0.00000000000E+00  0.99999998245E-14  0.12500000000E+03  0.12500000000E+03 0.  0.
        -11    1    3    3    0    0 -0.17247350021E+02  0.16632844611E+01  0.35955986433E+02  0.39913287995E+02  0.51100000000E-03 0.  1.
         23    2    1    0    0    0 -0.25326103629E+02  0.10553913536E+02 -0.15998971647E+02  0.93238959247E+02  0.87662647757E+02 0.  0.
         11    1    3    3    0    0 -0.80787536077E+01  0.88906290749E+01 -0.51954958080E+02  0.53325671252E+02  0.51100000000E-03 0. -1.
         22    1    1    0    0    0  0.25326103629E+02 -0.10553913536E+02  0.15998971647E+02  0.31761040753E+02  0.00000000000E+00 0. -1.
</event>
<event>
 5    1  0.8957809E-005  0.9118800E+02  0.7818608E-02  0.1130116E+00
         25   -1    0    0    0    0  0.00000000000E+00  0.00000000000E+00  0.99999998245E-14  0.12500000000E+03  0.12500000000E+03 0.  0.
        -11    1    3    3    0    0 -0.18172802482E+02 -0.30344910724E+02 -0.14063531549E+01  0.35398335926E+02  0.51100000000E-03 0. -1.
         23    2    1    0    0    0  0.20901495017E+02  0.14888145611E+02  0.12022659601E+02  0.96661444681E+02  0.92414074525E+02 0.  0.
         11    1    3    3    0    0  0.39074297499E+02  0.45233056335E+02  0.13429012756E+02  0.61263108755E+02  0.51100000000E-03 0.  1.
         22    1    1    0    0    0 -0.20901495017E+02 -0.14888145611E+02 -0.12022659601E+02  0.28338555319E+02  0.00000000000E+00 0.  1.
</event>
<event>
 5    1  0.8957809E-005  0.9118800E+02  0.7818608E-02  0.1130116E+00
         25   -1    0    0    0    0  0.00000000000E+00  0.00000000000E+00  0.99999998245E-14  0.12500000000E+03  0.12500000000E+03 0.  0.
        -11    1    3    3    0    0 -0.21058380658E+02  0.74524008547E+01  0.44835912066E+02  0.50092441401E+02  0.51100000000E-03 0. -1.
         23    2    1    0    0    0 -0.22319957882E+01 -0.23593621909E+02  0.17791474591E+02  0.95365942429E+02  0.90644832215E+02 0.  0.
         11    1    3    3    0    0  0.18826384870E+02 -0.31046022764E+02 -0.27044437475E+02  0.45273501028E+02  0.51100000000E-03 0.  1.
         22    1    1    0    0    0  0.22319957882E+01  0.23593621909E+02 -0.17791474591E+02  0.29634057571E+02  0.00000000000E+00 0. -1.
</event>
<event>
 5    1  0.8957809E-005  0.9118800E+02  0.7818608E-02  0.1130116E+00
         25   -1    0    0    0    0  0.00000000000E+00  0.00000000000E+00  0.99999998245E-14  0.12500000000E+03  0.12500000000E+03 0.  0.
        -11    1    3    3    0    0  0.11001838187E+02  0.19146291763E+02  0.27134655328E+02  0.34984431563E+02  0.51100000000E-03 0. -1.
         23    2    1    0    0    0  0.63076031148E+01 -0.11560436856E+02 -0.25613275562E+02  0.96199488852E+02  0.91787102651E+02 0.  0.
         11    1    3    3    0    0 -0.46942350723E+01 -0.30706728618E+02 -0.52747930891E+02  0.61215057289E+02  0.51100000000E-03 0.  1.
         22    1    1    0    0    0 -0.63076031148E+01  0.11560436856E+02  0.25613275562E+02  0.28800511148E+02  0.00000000000E+00 0.  1.
</event>
<event>
 5    1  0.8957809E-005  0.9118800E+02  0.7818608E-02  0.1130116E+00
         25   -1    0    0    0    0  0.00000000000E+00  0.00000000000E+00  0.99999998245E-14  0.12500000000E+03  0.12500000000E+03 0.  0.
        -11    1    3    3    0    0 -0.31375314524E+01 -0.36045873432E+02 -0.28673701024E+01  0.36295604508E+02  0.51100000000E-03 0.  1.
         23    2    1    0    0    0  0.25193565389E+02  0.15683984676E+02 -0.71703850683E+00  0.95314696286E+02  0.90574135776E+02 0.  0.
         11    1    3    3    0    0  0.28331096842E+02  0.51729858108E+02  0.21503315955E+01  0.59019091778E+02  0.51100000000E-03 0. -1.
         22    1    1    0    0    0 -0.25193565389E+02 -0.15683984676E+02  0.71703850683E+00  0.29685303714E+02  0.00000000000E+00 0. -1.
</event>
<event>
 5    1  0.8957809E-005  0.9118800E+02  0.7818608E-02  0.1130116E+00
         25   -1    0    0    0    0  0.00000000000E+00  0.00000000000E+00  0.99999998245E-14  0.12500000000E+03  0.12500000000E+03 0.  0.
        -11    1    3    3    0    0  0.90624117071E+01  0.56769495532E+02 -0.24521764821E+02  0.62499759033E+02  0.51100000000E-03 0.  1.
         23    2    1    0    0    0  0.44556509179E+01  0.27782430276E+02 -0.12133642528E+02  0.94357847038E+02  0.89243833174E+02 0.  0.
         11    1    3    3    0    0 -0.46067607892E+01 -0.28987065257E+02  0.12388122292E+02  0.31858088005E+02  0.51100000000E-03 0. -1.
         22    1    1    0    0    0 -0.44556509179E+01 -0.27782430276E+02  0.12133642528E+02  0.30642152962E+02  0.00000000000E+00 0.  1.
</event>
<event>
 5    1  0.8957809E-005  0.9118800E+02  0.7818608E-02  0.1130116E+00
         25   -1    0    0    0    0  0.00000000000E+00  0.00000000000E+00  0.99999998245E-14  0.12500000000E+03  0.12500000000E+03 0.  0.
        -11    1    3    3    0    0  0.47317560953E+01 -0.37005906063E+02 -0.32308828854E+01  0.37446831692E+02  0.51100000000E-03 0. -1.
         23    2    1    0    0    0  0.25770370408E+02 -0.20385141541E+01 -0.29342549636E+02  0.85894338644E+02  0.76476039784E+02 0.  0.
         11    1    3    3    0    0  0.21038614313E+02  0.34967391909E+02 -0.26111666751E+02  0.48447506952E+02  0.51100000000E-03 0.  1.
         22    1    1    0    0    0 -0.25770370408E+02  0.20385141541E+01  0.29342549636E+02  0.39105661356E+02  0.00000000000E+00 0.  1.
</event>
<event>
 5    1  0.8957809E-005  0.9118800E+02  0.7818608E-02  0.1130116E+00
         25   -1    0    0    0    0  0.00000000000E+00  0.00000000000E+00  0.99999998245E-14  0.12500000000E+03  0.12500000000E+03 0.  0.
        -11    1    3    3    0    0  0.28627232941E+02  0.91623347176E+01 -0.22159322936E+02  0.37343037324E+02  0.51100000000E-03 0.  1.
         23    2    1    0    0    0  0.22838288809E+01 -0.21187173967E+02  0.20132489145E+02  0.95683974788E+02  0.91082345693E+02 0.  0.
         11    1    3    3    0    0 -0.26343404060E+02 -0.30349508685E+02  0.42291812080E+02  0.58340937464E+02  0.51100000000E-03 0. -1.
         22    1    1    0    0    0 -0.22838288809E+01  0.21187173967E+02 -0.20132489145E+02  0.29316025212E+02  0.00000000000E+00 0. -1.
</event>
<event>
 5    1  0.8957809E-005  0.9118800E+02  0.7818608E-02  0.1130116E+00
         25   -1    0    0    0    0  0.00000000000E+00  0.00000000000E+00  0.99999998245E-14  0.12500000000E+03  0.12500000000E+03 0.  0.
        -11    1    3    3    0    0 -0.15495864920E+00 -0.31582219183E+02  0.24941791241E+02  0.40243676911E+02  0.51100000000E-03 0.  1.
         23    2    1    0    0    0  0.31846159690E+02 -0.61788061602E+00 -0.33056467884E+01  0.92976774614E+02  0.87287992608E+02 0.  0.
         11    1    3    3    0    0  0.32001118339E+02  0.30964338567E+02 -0.28247438030E+02  0.52733097703E+02  0.51100000000E-03 0. -1.
         22    1    1    0    0    0 -0.31846159690E+02  0.61788061602E+00  0.33056467884E+01  0.32023225386E+02  0.00000000000E+00 0. -1.
</event>
<event>
 5    1  0.8957809E-005  0.9118800E+02  0.7818608E-02  0.1130116E+00
         25   -1    0    0    0    0  0.00000000000E+00  0.00000000000E+00  0.99999998245E-14  0.12500000000E+03  0.12500000000E+03 0.  0.
        -11    1    3    3    0    0 -0.19245753652E+02 -0.12097584188E+02 -0.33876036178E+02  0.40796279294E+02  0.51100000000E-03 0.  1.
         23    2    1    0    0    0 -0.23057960894E+02  0.36250383613E+01  0.18247383482E+02  0.95372690510E+02  0.90654137398E+02 0.  0.
         11    1    3    3    0    0 -0.38122072415E+01  0.15722622549E+02  0.52123419660E+02  0.54576411216E+02  0.51100000000E-03 0. -1.
         22    1    1    0    0    0  0.23057960894E+02 -0.36250383613E+01 -0.18247383482E+02  0.29627309490E+02  0.00000000000E+00 0. -1.
</event>
<event>
 5    1  0.8957809E-005  0.9118800E+02  0.7818608E-02  0.1130116E+00
         25   -1    0    0    0    0  0.00000000000E+00  0.00000000000E+00  0.99999998245E-14  0.12500000000E+03  0.12500000000E+03 0.  0.
        -11    1    3    3    0    0  0.15407821290E+02  0.13966887837E+02 -0.33857748235E+02  0.39734393522E+02  0.51100000000E-03 0.  1.
         23    2    1    0    0    0 -0.15023240606E+02  0.21479652562E+02  0.12710306237E+02  0.95868829115E+02  0.91335684586E+02 0.  0.
         11    1    3    3    0    0 -0.30431061895E+02  0.75127647246E+01  0.46568054472E+02  0.56134435594E+02  0.51100000000E-03 0. -1.
         22    1    1    0    0    0  0.15023240606E+02 -0.21479652562E+02 -0.12710306237E+02  0.29131170885E+02  0.00000000000E+00 0. -1.
</event>
<event>
 5    1  0.8957809E-005  0.9118800E+02  0.7818608E-02  0.1130116E+00
         25   -1    0    0    0    0  0.00000000000E+00  0.00000000000E+00  0.99999998245E-14  0.12500000000E+03  0.12500000000E+03 0.  0.
        -11    1    3    3    0    0  0.39640850233E+02 -0.13728985247E+02 -0.36871410389E+02  0.55851436396E+02  0.51100000000E-03 0.  1.
         23    2    1    0    0    0  0.16433596407E+02  0.14098822430E+02 -0.18712875251E+02  0.96381621553E+02  0.92034805309E+02 0.  0.
         11    1    3    3    0    0 -0.23207253826E+02  0.27827807677E+02  0.18158535139E+02  0.40530185158E+02  0.51100000000E-03 0. -1.
         22    1    1    0    0    0 -0.16433596407E+02 -0.14098822430E+02  0.18712875251E+02  0.28618378447E+02  0.00000000000E+00 0.  1.
</event>
<event>
 5    1  0.8957809E-005  0.9118800E+02  0.7818608E-02  0.1130116E+00
         25   -1    0    0    0    0  0.00000000000E+00  0.00000000000E+00  0.99999998245E-14  0.12500000000E+03  0.12500000000E+03 0.  0.
        -11    1    3    3    0    0 -0.11378281663E+02  0.45072677811E+02 -0.32933704149E+02  0.56970522623E+02  0.51100000000E-03 0.  1.
         23    2    1    0    0    0 -0.41968983352E+01  0.72047157512E+01 -0.27948233528E+02  0.95834512828E+02  0.91288707992E+02 0.  0.
         11    1    3    3    0    0  0.71813833275E+01 -0.37867962060E+02  0.49854706217E+01  0.38863990205E+02  0.51100000000E-03 0. -1.
         22    1    1    0    0    0  0.41968983352E+01 -0.72047157512E+01  0.27948233528E+02  0.29165487172E+02  0.00000000000E+00 0.  1.
</event>
<event>
 5    1  0.8957809E-005  0.9118800E+02  0.7818608E-02  0.1130116E+00
         25   -1    0    0    0    0  0.00000000000E+00  0.00000000000E+00  0.99999998245E-14  0.12500000000E+03  0.12500000000E+03 0.  0.
        -11    1    3    3    0    0  0.98885286669E+01  0.39823269109E+02 -0.19836457455E+02  0.45575879655E+02  0.51100000000E-03 0.  1.
         23    2    1    0    0    0  0.23269584933E+02  0.46621490597E+01  0.15062483888E+02  0.96891502394E+02  0.92724730242E+02 0.  0.
         11    1    3    3    0    0  0.13381056266E+02 -0.35161120049E+02  0.34898941343E+02  0.51315622739E+02  0.51100000000E-03 0. -1.
         22    1    1    0    0    0 -0.23269584933E+02 -0.46621490597E+01 -0.15062483888E+02  0.28108497606E+02  0.00000000000E+00 0. -1.
</event>
<event>
 5    1  0.8957809E-005  0.9118800E+02  0.7818608E-02  0.1130116E+00
         25   -1    0    0    0    0  0.00000000000E+00  0.00000000000E+00  0.99999998245E-14  0.12500000000E+03  0.12500000000E+03 0.  0.
        -11    1    3    3    0    0  0.25542980485E+02  0.45727225400E+02  0.14564111105E+02  0.54364844590E+02  0.51100000000E-03 0.  1.
         23    2    1    0    0    0 -0.67189137758E+01  0.31610178571E+02 -0.53139740346E+00  0.92679270200E+02  0.86860909217E+02 0.  0.
         11    1    3    3    0    0 -0.32261894260E+02 -0.14117046829E+02 -0.15095508508E+02  0.38314425610E+02  0.51100000000E-03 0. -1.
         22    1    1    0    0    0  0.67189137758E+01 -0.31610178571E+02  0.53139740346E+00  0.32320729800E+02  0.00000000000E+00 0.  1.
</event>
<event>
 5    1  0.8957809E-005  0.9118800E+02  0.7818608E-02  0.1130116E+00
         25   -1    0    0    0    0  0.00000000000E+00  0.00000000000E+00  0.99999998245E-14  0.12500000000E+03  0.12500000000E+03 0.  0.
        -11    1    3    3    0    0  0.29472680197E+02 -0.28887859202E+02  0.32646373411E+01  0.41398129722E+02  0.51100000000E-03 0.  1.
         23    2    1    0    0    0  0.15394996198E+02  0.18578062800E+02 -0.17610823651E+02  0.95128752370E+02  0.90317152814E+02 0.  0.
         11    1    3    3    0    0 -0.14077683999E+02  0.47465922002E+02 -0.20875460992E+02  0.53730622648E+02  0.51100000000E-03 0. -1.
         22    1    1    0    0    0 -0.15394996198E+02 -0.18578062800E+02  0.17610823651E+02  0.29871247630E+02  0.00000000000E+00 0. -1.
</event>
<event>
 5    1  0.8957809E-005  0.9118800E+02  0.7818608E-02  0.1130116E+00
         25   -1    0    0    0    0  0.00000000000E+00  0.00000000000E+00  0.99999998245E-14  0.12500000000E+03  0.12500000000E+03 0.  0.
        -11    1    3    3    0    0  0.15543622868E+02  0.57485640926E+02 -0.10890696535E+01  0.59559963042E+02  0.51100000000E-03 0.  1.
         23    2    1    0    0    0  0.13717556986E+02  0.21262870533E+02 -0.11372005932E+02  0.97258270568E+02  0.93217850447E+02 0.  0.
         11    1    3    3    0    0 -0.18260658823E+01 -0.36222770393E+02 -0.10282936278E+02  0.37698307526E+02  0.51100000000E-03 0. -1.
         22    1    1    0    0    0 -0.13717556986E+02 -0.21262870533E+02  0.11372005932E+02  0.27741729432E+02  0.00000000000E+00 0.  1.
</event>
<event>
 5    1  0.8957809E-005  0.9118800E+02  0.7818608E-02  0.1130116E+00
         25   -1    0    0    0    0  0.00000000000E+00  0.00000000000E+00  0.99999998245E-14  0.12500000000E+03  0.12500000000E+03 0.  0.
        -11    1    3    3    0    0 -0.48446954529E+02 -0.26656876483E+02 -0.93941090721E+01  0.56088731065E+02  0.51100000000E-03 0.  1.
         23    2    1    0    0    0 -0.33448796236E+02 -0.42320326645E+00  0.75128557852E+01  0.90715250144E+02  0.83986978372E+02 0.  0.
         11    1    3    3    0    0  0.14998158292E+02  0.26233673217E+02  0.16906964857E+02  0.34626519079E+02  0.51100000000E-03 0. -1.
         22    1    1    0    0    0  0.33448796236E+02  0.42320326645E+00 -0.75128557852E+01  0.34284749856E+02  0.00000000000E+00 0.  1.
</event>
<event>
 5    1  0.8957809E-005  0.9118800E+02  0.7818608E-02  0.1130116E+00
         25   -1    0    0    0    0  0.00000000000E+00  0.00000000000E+00  0.99999998245E-14  0.12500000000E+03  0.12500000000E+03 0.  0.
        -11    1    3    3    0    0  0.43499132205E+02  0.28443715575E+02  0.20773444282E+02  0.55971023270E+02  0.51100000000E-03 0.  1.
         23    2    1    0    0    0  0.14730626375E+02  0.26095276544E+02 -0.49425900916E+01  0.94629224440E+02  0.89623133788E+02 0.  0.
         11    1    3    3    0    0 -0.28768505830E+02 -0.23484390310E+01 -0.25716034373E+02  0.38658201170E+02  0.51100000000E-03 0. -1.
         22    1    1    0    0    0 -0.14730626375E+02 -0.26095276544E+02  0.49425900916E+01  0.30370775560E+02  0.00000000000E+00 0.  1.
</event>
<event>
 5    1  0.8957809E-005  0.9118800E+02  0.7818608E-02  0.1130116E+00
         25   -1    0    0    0    0  0.00000000000E+00  0.00000000000E+00  0.99999998245E-14  0.12500000000E+03  0.12500000000E+03 0.  0.
        -11    1    3    3    0    0 -0.51576338542E+01  0.60636627139E+02 -0.17035692620E+01  0.60879420876E+02  0.51100000000E-03 0.  1.
         23    2    1    0    0    0 -0.11453205366E+02  0.26356864036E+02  0.32352707004E+01  0.96080678233E+02  0.91625157890E+02 0.  0.
         11    1    3    3    0    0 -0.62955715116E+01 -0.34279763103E+02  0.49388399625E+01  0.35201257357E+02  0.51100000000E-03 0. -1.
         22    1    1    0    0    0  0.11453205366E+02 -0.26356864036E+02 -0.32352707004E+01  0.28919321767E+02  0.00000000000E+00 0.  1.
</event>
<event>
 5    1  0.8957809E-005  0.9118800E+02  0.7818608E-02  0.1130116E+00
         25   -1    0    0    0    0  0.00000000000E+00  0.00000000000E+00  0.99999998245E-14  0.12500000000E+03  0.12500000000E+03 0.  0.
        -11    1    3    3    0    0 -0.29851295427E+01 -0.42515498449E+02 -0.87437240334E+01  0.43507830525E+02  0.51100000000E-03 0.  1.
         23    2    1    0    0    0 -0.10037000637E+02 -0.59112437954E+01  0.27273863913E+02  0.95342828224E+02  0.90612951922E+02 0.  0.
         11    1    3    3    0    0 -0.70518710942E+01  0.36604254654E+02  0.36017587946E+02  0.51834997699E+02  0.51100000000E-03 0. -1.
         22    1    1    0    0    0  0.10037000637E+02  0.59112437954E+01 -0.27273863913E+02  0.29657171776E+02  0.00000000000E+00 0. -1.
</event>
<event>
 5    1  0.8957809E-005  0.9118800E+02  0.7818608E-02  0.1130116E+00
         25   -1    0    0    0    0  0.00000000000E+00  0.00000000000E+00  0.99999998245E-14  0.12500000000E+03  0.12500000000E+03 0.  0.
        -11    1    3    3    0    0 -0.13889565312E+02 -0.27241761745E+02  0.24119743639E+02  0.38946060661E+02  0.51100000000E-03 0. -1.
         23    2    1    0    0    0  0.95829070609E+01  0.23528268511E+02  0.14644484291E+02  0.95676418244E+02  0.91071974618E+02 0.  0.
         11    1    3    3    0    0  0.23472472373E+02  0.50770030256E+02 -0.94752593480E+01  0.56730357583E+02  0.51100000000E-03 0.  1.
         22    1    1    0    0    0 -0.95829070609E+01 -0.23528268511E+02 -0.14644484291E+02  0.29323581756E+02  0.00000000000E+00 0. -1.
</event>
<event>
 5    1  0.8957809E-005  0.9118800E+02  0.7818608E-02  0.1130116E+00
         25   -1    0    0    0    0  0.00000000000E+00  0.00000000000E+00  0.99999998245E-14  0.12500000000E+03  0.12500000000E+03 0.  0.
        -11    1    3    3    0    0  0.37007826124E+02 -0.38724234811E+02 -0.45088908290E+01  0.53753843145E+02  0.51100000000E-03 0.  1.
         23    2    1    0    0    0  0.24702504792E+02 -0.25223075477E+02  0.20078964315E+02  0.84384952450E+02  0.73967818087E+02 0.  0.
         11    1    3    3    0    0 -0.12305321332E+02  0.13501159334E+02  0.24587855144E+02  0.30631109305E+02  0.51100000000E-03 0. -1.
         22    1    1    0    0    0 -0.24702504792E+02  0.25223075477E+02 -0.20078964315E+02  0.40615047550E+02  0.00000000000E+00 0.  1.
</event>
<event>
 5    1  0.8957809E-005  0.9118800E+02  0.7818608E-02  0.1130116E+00
         25   -1    0    0    0    0  0.00000000000E+00  0.00000000000E+00  0.99999998245E-14  0.12500000000E+03  0.12500000000E+03 0.  0.
        -11    1    3    3    0    0 -0.45294248176E+02 -0.11858943454E+02  0.16794146449E+02  0.49741801464E+02  0.51100000000E-03 0. -1.
         23    2    1    0    0    0 -0.66224698508E+01  0.83532443768E+01  0.28207831521E+02  0.94845140397E+02  0.89923773827E+02 0.  0.
         11    1    3    3    0    0  0.38671778325E+02  0.20212187831E+02  0.11413685072E+02  0.45103338933E+02  0.51100000000E-03 0.  1.
         22    1    1    0    0    0  0.66224698508E+01 -0.83532443768E+01 -0.28207831521E+02  0.30154859603E+02  0.00000000000E+00 0. -1.
</event>
<event>
 5    1  0.8957809E-005  0.9118800E+02  0.7818608E-02  0.1130116E+00
         25   -1    0    0    0    0  0.00000000000E+00  0.00000000000E+00  0.99999998245E-14  0.12500000000E+03  0.12500000000E+03 0.  0.
        -11    1    3    3    0    0 -0.35909745797E+02  0.38918430052E+02 -0.17358015802E+02  0.55726607234E+02  0.51100000000E-03 0.  1.
         23    2    1    0    0    0 -0.23792610084E+02  0.44089880131E+01 -0.21622233341E+02  0.92549292079E+02  0.86673658165E+02 0.  0.
         11    1    3    3    0    0  0.12117135713E+02 -0.34509442039E+02 -0.42642175388E+01  0.36822684845E+02  0.51100000000E-03 0. -1.
         22    1    1    0    0    0  0.23792610084E+02 -0.44089880131E+01  0.21622233341E+02  0.32450707921E+02  0.00000000000E+00 0.  1.
</event>
<event>
 5    1  0.8957809E-005  0.9118800E+02  0.7818608E-02  0.1130116E+00
         25   -1    0    0    0    0  0.00000000000E+00  0.00000000000E+00  0.99999998245E-14  0.12500000000E+03  0.12500000000E+03 0.  0.
        -11    1    3    3    0    0 -0.15528377476E+02  0.34974450774E+02 -0.21325543023E+02  0.43807778983E+02  0.51100000000E-03 0. -1.
         23    2    1    0    0    0  0.32912154116E+01 -0.12518243639E+02 -0.26851753533E+02  0.95191357118E+02  0.90403756998E+02 0.  0.
         11    1    3    3    0    0  0.18819592888E+02 -0.47492694413E+02 -0.55262105104E+01  0.51383578134E+02  0.51100000000E-03 0.  1.
         22    1    1    0    0    0 -0.32912154116E+01  0.12518243639E+02  0.26851753533E+02  0.29808642882E+02  0.00000000000E+00 0.  1.
</event>
<event>
 5    1  0.8957809E-005  0.9118800E+02  0.7818608E-02  0.1130116E+00
         25   -1    0    0    0    0  0.00000000000E+00  0.00000000000E+00  0.99999998245E-14  0.12500000000E+03  0.12500000000E+03 0.  0.
        -11    1    3    3    0    0 -0.19477443596E+02  0.11393727441E+02  0.38868774641E+02  0.44944070536E+02  0.51100000000E-03 0. -1.
         23    2    1    0    0    0  0.12808059401E+02  0.25258150050E+02  0.91477909688E+00  0.96665262480E+02  0.92419238365E+02 0.  0.
         11    1    3    3    0    0  0.32285502997E+02  0.13864422609E+02 -0.37953995544E+02  0.51721191943E+02  0.51100000000E-03 0.  1.
         22    1    1    0    0    0 -0.12808059401E+02 -0.25258150050E+02 -0.91477909688E+00  0.28334737520E+02  0.00000000000E+00 0.  1.
</event>
<event>
 5    1  0.8957809E-005  0.9118800E+02  0.7818608E-02  0.1130116E+00
         25   -1    0    0    0    0  0.00000000000E+00  0.00000000000E+00  0.99999998245E-14  0.12500000000E+03  0.12500000000E+03 0.  0.
        -11    1    3    3    0    0 -0.14701472728E+02 -0.57326605763E+02  0.13135828892E+02  0.60621968210E+02  0.51100000000E-03 0. -1.
         23    2    1    0    0    0  0.37034323578E+01 -0.26158464642E+02  0.91669016811E+01  0.97035508764E+02  0.92918659004E+02 0.  0.
         11    1    3    3    0    0  0.18404905086E+02  0.31168141122E+02 -0.39689272107E+01  0.36413540554E+02  0.51100000000E-03 0.  1.
         22    1    1    0    0    0 -0.37034323578E+01  0.26158464642E+02 -0.91669016811E+01  0.27964491236E+02  0.00000000000E+00 0. -1.
</event>
<event>
 5    1  0.8957809E-005  0.9118800E+02  0.7818608E-02  0.1130116E+00
         25   -1    0    0    0    0  0.00000000000E+00  0.00000000000E+00  0.99999998245E-14  0.12500000000E+03  0.12500000000E+03 0.  0.
        -11    1    3    3    0    0  0.17104652033E+02 -0.52305243895E+02 -0.17805276928E+02  0.57839740204E+02  0.51100000000E-03 0. -1.
         23    2    1    0    0    0  0.10466187530E+02 -0.27895947032E+02  0.81784749584E+01  0.94103197660E+02  0.88886441120E+02 0.  0.
         11    1    3    3    0    0 -0.66384645033E+01  0.24409296863E+02  0.25983751887E+02  0.36263457456E+02  0.51100000000E-03 0.  1.
         22    1    1    0    0    0 -0.10466187530E+02  0.27895947032E+02 -0.81784749584E+01  0.30896802340E+02  0.00000000000E+00 0. -1.
</event>
<event>
 5    1  0.8957809E-005  0.9118800E+02  0.7818608E-02  0.1130116E+00
         25   -1    0    0    0    0  0.00000000000E+00  0.00000000000E+00  0.99999998245E-14  0.12500000000E+03  0.12500000000E+03 0.  0.
        -11    1    3    3    0    0 -0.77605443980E+01 -0.40557975057E+02 -0.83473480165E+01  0.42129011491E+02  0.51100000000E-03 0.  1.
         23    2    1    0    0    0  0.51177414232E+01  0.11652948081E+02 -0.23739326167E+02  0.98064185865E+02  0.94292345746E+02 0.  0.
         11    1    3    3    0    0  0.12878285821E+02  0.52210923138E+02 -0.15391978150E+02  0.55935174374E+02  0.51100000000E-03 0. -1.
         22    1    1    0    0    0 -0.51177414232E+01 -0.11652948081E+02  0.23739326167E+02  0.26935814135E+02  0.00000000000E+00 0.  1.
</event>
<event>
 5    1  0.8957809E-005  0.9118800E+02  0.7818608E-02  0.1130116E+00
         25   -1    0    0    0    0  0.00000000000E+00  0.00000000000E+00  0.99999998245E-14  0.12500000000E+03  0.12500000000E+03 0.  0.
        -11    1    3    3    0    0  0.29525940116E+02 -0.39411929784E+01 -0.44682924841E+02  0.53701749640E+02  0.51100000000E-03 0.  1.
         23    2    1    0    0    0 -0.10111595449E+02  0.27441110266E+01 -0.23791097320E+02  0.99004023012E+02  0.95530130080E+02 0.  0.
         11    1    3    3    0    0 -0.39637535565E+02  0.66853040050E+01  0.20891827521E+02  0.45302273372E+02  0.51100000000E-03 0. -1.
         22    1    1    0    0    0  0.10111595449E+02 -0.27441110266E+01  0.23791097320E+02  0.25995976988E+02  0.00000000000E+00 0.  1.
</event>
<event>
 5    1  0.8957809E-005  0.9118800E+02  0.7818608E-02  0.1130116E+00
         25   -1    0    0    0    0  0.00000000000E+00  0.00000000000E+00  0.99999998245E-14  0.12500000000E+03  0.12500000000E+03 0.  0.
        -11    1    3    3    0    0 -0.12722142382E+01 -0.29949454479E+02  0.35487530787E+02  0.46453774812E+02  0.51100000000E-03 0. -1.
         23    2    1    0    0    0  0.25096643493E+02 -0.16994244303E+02 -0.26269067010E+01  0.94577204388E+02  0.89550550512E+02 0.  0.
         11    1    3    3    0    0  0.26368857731E+02  0.12955210176E+02 -0.38114437488E+02  0.48123429575E+02  0.51100000000E-03 0.  1.
         22    1    1    0    0    0 -0.25096643493E+02  0.16994244303E+02  0.26269067010E+01  0.30422795612E+02  0.00000000000E+00 0. -1.
</event>
<event>
 5    1  0.8957809E-005  0.9118800E+02  0.7818608E-02  0.1130116E+00
         25   -1    0    0    0    0  0.00000000000E+00  0.00000000000E+00  0.99999998245E-14  0.12500000000E+03  0.12500000000E+03 0.  0.
        -11    1    3    3    0    0  0.37863705766E+02  0.14133860504E+02  0.77918362876E+01  0.41159919097E+02  0.51100000000E-03 0. -1.
         23    2    1    0    0    0  0.16116375531E+01 -0.27428971292E+02  0.82453171351E+01  0.96313224364E+02  0.91941862560E+02 0.  0.
         11    1    3    3    0    0 -0.36252068213E+02 -0.41562831796E+02  0.45348084746E+00  0.55153305266E+02  0.51100000000E-03 0.  1.
         22    1    1    0    0    0 -0.16116375531E+01  0.27428971292E+02 -0.82453171351E+01  0.28686775636E+02  0.00000000000E+00 0. -1.
</event>
<event>
 5    1  0.8957809E-005  0.9118800E+02  0.7818608E-02  0.1130116E+00
         25   -1    0    0    0    0  0.00000000000E+00  0.00000000000E+00  0.99999998245E-14  0.12500000000E+03  0.12500000000E+03 0.  0.
        -11    1    3    3    0    0 -0.41428092401E+01 -0.13557883070E+02  0.31481556927E+02  0.34526330366E+02  0.51100000000E-03 0. -1.
         23    2    1    0    0    0 -0.13925640052E+02  0.32165121839E+02  0.18121471275E+01  0.89902957518E+02  0.82769193421E+02 0.  0.
         11    1    3    3    0    0 -0.97828308117E+01  0.45723004909E+02 -0.29669409800E+02  0.55376627152E+02  0.51100000000E-03 0.  1.
         22    1    1    0    0    0  0.13925640052E+02 -0.32165121839E+02 -0.18121471275E+01  0.35097042482E+02  0.00000000000E+00 0.  1.
</event>
<event>
 5    1  0.8957809E-005  0.9118800E+02  0.7818608E-02  0.1130116E+00
         25   -1    0    0    0    0  0.00000000000E+00  0.00000000000E+00  0.99999998245E-14  0.12500000000E+03  0.12500000000E+03 0.  0.
        -11    1    3    3    0    0  0.30951729490E+02  0.26182499901E+02 -0.17189291409E+01  0.40576934053E+02  0.51100000000E-03 0. -1.
         23    2    1    0    0    0  0.21284639697E+01 -0.58053541319E+01  0.30198646496E+02  0.94174835837E+02  0.88987128054E+02 0.  0.
         11    1    3    3    0    0 -0.28823265520E+02 -0.31987854032E+02  0.31917575637E+02  0.53597901784E+02  0.51100000000E-03 0.  1.
         22    1    1    0    0    0 -0.21284639697E+01  0.58053541319E+01 -0.30198646496E+02  0.30825164163E+02  0.00000000000E+00 0.  1.
</event>
<event>
 5    1  0.8957809E-005  0.9118800E+02  0.7818608E-02  0.1130116E+00
         25   -1    0    0    0    0  0.00000000000E+00  0.00000000000E+00  0.99999998245E-14  0.12500000000E+03  0.12500000000E+03 0.  0.
        -11    1    3    3    0    0 -0.19287095325E+02 -0.17256232273E+02 -0.28847069400E+02  0.38754651483E+02  0.51100000000E-03 0.  1.
         23    2    1    0    0    0  0.23848739274E+02  0.14067648268E+02 -0.64987094947E+01  0.96558932548E+02  0.92275311633E+02 0.  0.
         11    1    3    3    0    0  0.43135834599E+02  0.31323880541E+02  0.22348359905E+02  0.57804281065E+02  0.51100000000E-03 0. -1.
         22    1    1    0    0    0 -0.23848739274E+02 -0.14067648268E+02  0.64987094947E+01  0.28441067452E+02  0.00000000000E+00 0. -1.
</event>
<event>
 5    1  0.8957809E-005  0.9118800E+02  0.7818608E-02  0.1130116E+00
         25   -1    0    0    0    0  0.00000000000E+00  0.00000000000E+00  0.99999998245E-14  0.12500000000E+03  0.12500000000E+03 0.  0.
        -11    1    3    3    0    0 -0.19094743680E+02  0.28260135210E+02  0.27167824172E+02  0.43604301953E+02  0.51100000000E-03 0.  1.
         23    2    1    0    0    0 -0.27999904713E+02 -0.93729022205E+01 -0.63701976451E+01  0.94793620243E+02  0.89852128860E+02 0.  0.
         11    1    3    3    0    0 -0.89051610337E+01 -0.37633037431E+02 -0.33538021817E+02  0.51189318290E+02  0.51100000000E-03 0. -1.
         22    1    1    0    0    0  0.27999904713E+02  0.93729022205E+01  0.63701976451E+01  0.30206379757E+02  0.00000000000E+00 0. -1.
</event>
<event>
 5    1  0.8957809E-005  0.9118800E+02  0.7818608E-02  0.1130116E+00
         25   -1    0    0    0    0  0.00000000000E+00  0.00000000000E+00  0.99999998245E-14  0.12500000000E+03  0.12500000000E+03 0.  0.
        -11    1    3    3    0    0  0.40758608686E+02 -0.44490095202E+02  0.10626921270E+02  0.61266338303E+02  0.51100000000E-03 0. -1.
         23    2    1    0    0    0  0.18621700779E+02 -0.16075392059E+02  0.12639326681E+02  0.97342477538E+02  0.93330699047E+02 0.  0.
         11    1    3    3    0    0 -0.22136907906E+02  0.28414703143E+02  0.20124054108E+01  0.36076139236E+02  0.51100000000E-03 0.  1.
         22    1    1    0    0    0 -0.18621700779E+02  0.16075392059E+02 -0.12639326681E+02  0.27657522462E+02  0.00000000000E+00 0. -1.
</event>
<event>
 5    1  0.8957809E-005  0.9118800E+02  0.7818608E-02  0.1130116E+00
         25   -1    0    0    0    0  0.00000000000E+00  0.00000000000E+00  0.99999998245E-14  0.12500000000E+03  0.12500000000E+03 0.  0.
        -11    1    3    3    0    0 -0.61880551487E+01  0.14813327146E+02 -0.46135997762E+02  0.48849329345E+02  0.51100000000E-03 0.  1.
         23    2    1    0    0    0  0.61243261141E+01 -0.21022301647E+02 -0.22990233691E+02  0.93251056993E+02  0.87679896488E+02 0.  0.
         11    1    3    3    0    0  0.12312381263E+02 -0.35835628793E+02  0.23145764071E+02  0.44401727648E+02  0.51100000000E-03 0. -1.
         22    1    1    0    0    0 -0.61243261141E+01  0.21022301647E+02  0.22990233691E+02  0.31748943007E+02  0.00000000000E+00 0.  1.
</event>
<event>
 5    1  0.8957809E-005  0.9118800E+02  0.7818608E-02  0.1130116E+00
         25   -1    0    0    0    0  0.00000000000E+00  0.00000000000E+00  0.99999998245E-14  0.12500000000E+03  0.12500000000E+03 0.  0.
        -11    1    3    3    0    0 -0.26509799042E+02  0.12054438314E+02  0.44761193773E+01  0.29463784096E+02  0.51100000000E-03 0. -1.
         23    2    1    0    0    0  0.18836797476E+02  0.33131977893E+01  0.35205518468E+02  0.84934668985E+02  0.74891035821E+02 0.  0.
         11    1    3    3    0    0  0.45346596518E+02 -0.87412405250E+01  0.30729399090E+02  0.55470884889E+02  0.51100000000E-03 0.  1.
         22    1    1    0    0    0 -0.18836797476E+02 -0.33131977893E+01 -0.35205518468E+02  0.40065331015E+02  0.00000000000E+00 0.  1.
</event>
<event>
 5    1  0.8957809E-005  0.9118800E+02  0.7818608E-02  0.1130116E+00
         25   -1    0    0    0    0  0.00000000000E+00  0.00000000000E+00  0.99999998245E-14  0.12500000000E+03  0.12500000000E+03 0.  0.
        -11    1    3    3    0    0 -0.18604070986E+02 -0.36720725826E+02 -0.46374575914E+01  0.41424982506E+02  0.51100000000E-03 0. -1.
         23    2    1    0    0    0  0.87853494363E+01  0.51784593348E+01 -0.26916632247E+02  0.96216256371E+02  0.91809934608E+02 0.  0.
         11    1    3    3    0    0  0.27389420422E+02  0.41899185161E+02 -0.22279174655E+02  0.54791273865E+02  0.51100000000E-03 0.  1.
         22    1    1    0    0    0 -0.87853494363E+01 -0.51784593348E+01  0.26916632247E+02  0.28783743629E+02  0.00000000000E+00 0.  1.
</event>
<event>
 5    1  0.8957809E-005  0.9118800E+02  0.7818608E-02  0.1130116E+00
         25   -1    0    0    0    0  0.00000000000E+00  0.00000000000E+00  0.99999998245E-14  0.12500000000E+03  0.12500000000E+03 0.  0.
        -11    1    3    3    0    0  0.13210512347E+02  0.15945612210E+02 -0.26428016854E+02  0.33574101035E+02  0.51100000000E-03 0. -1.
         23    2    1    0    0    0 -0.14022082724E+02 -0.12151344235E+02  0.22249864856E+02  0.96028799528E+02  0.91554354796E+02 0.  0.
         11    1    3    3    0    0 -0.27232595071E+02 -0.28096956445E+02  0.48677881711E+02  0.62454698493E+02  0.51100000000E-03 0.  1.
         22    1    1    0    0    0  0.14022082724E+02  0.12151344235E+02 -0.22249864856E+02  0.28971200472E+02  0.00000000000E+00 0.  1.
</event>
<event>
 5    1  0.8957809E-005  0.9118800E+02  0.7818608E-02  0.1130116E+00
         25   -1    0    0    0    0  0.00000000000E+00  0.00000000000E+00  0.99999998245E-14  0.12500000000E+03  0.12500000000E+03 0.  0.
        -11    1    3    3    0    0 -0.50162166719E+02 -0.16051413994E+02 -0.28675597802E+02  0.59968164643E+02  0.51100000000E-03 0.  1.
         23    2    1    0    0    0 -0.18032540255E+02 -0.21116631288E+01 -0.23393816774E+02  0.95387463930E+02  0.90674505692E+02 0.  0.
         11    1    3    3    0    0  0.32129626464E+02  0.13939750866E+02  0.52817810277E+01  0.35419299287E+02  0.51100000000E-03 0. -1.
         22    1    1    0    0    0  0.18032540255E+02  0.21116631288E+01  0.23393816774E+02  0.29612536070E+02  0.00000000000E+00 0.  1.
</event>
<event>
 5    1  0.8957809E-005  0.9118800E+02  0.7818608E-02  0.1130116E+00
         25   -1    0    0    0    0  0.00000000000E+00  0.00000000000E+00  0.99999998245E-14  0.12500000000E+03  0.12500000000E+03 0.  0.
        -11    1    3    3    0    0 -0.28820856430E+02 -0.40757220620E+01 -0.24677902947E+02  0.38160872236E+02  0.51100000000E-03 0. -1.
         23    2    1    0    0    0  0.48156465483E+01  0.26838952975E+02  0.10459015143E+02  0.95795362590E+02  0.91235084521E+02 0.  0.
         11    1    3    3    0    0  0.33636502979E+02  0.30914675037E+02  0.35136918090E+02  0.57634490354E+02  0.51100000000E-03 0.  1.
         22    1    1    0    0    0 -0.48156465483E+01 -0.26838952975E+02 -0.10459015143E+02  0.29204637410E+02  0.00000000000E+00 0. -1.
</event>
<event>
 5    1  0.8957809E-005  0.9118800E+02  0.7818608E-02  0.1130116E+00
         25   -1    0    0    0    0  0.00000000000E+00  0.00000000000E+00  0.99999998245E-14  0.12500000000E+03  0.12500000000E+03 0.  0.
        -11    1    3    3    0    0 -0.26045236556E+02 -0.30053375113E+02  0.39994030982E+02  0.56401083478E+02  0.51100000000E-03 0.  1.
         23    2    1    0    0    0 -0.26691122497E+02 -0.23543532758E+01  0.12503922430E+02  0.95431315964E+02  0.90734938094E+02 0.  0.
         11    1    3    3    0    0 -0.64588594092E+00  0.27699021838E+02 -0.27490108552E+02  0.39030232486E+02  0.51100000000E-03 0. -1.
         22    1    1    0    0    0  0.26691122497E+02  0.23543532758E+01 -0.12503922430E+02  0.29568684036E+02  0.00000000000E+00 0.  1.
</event>
<event>
 5    1  0.8957809E-005  0.9118800E+02  0.7818608E-02  0.1130116E+00
         25   -1    0    0    0    0  0.00000000000E+00  0.00000000000E+00  0.99999998245E-14  0.12500000000E+03  0.12500000000E+03 0.  0.
        -11    1    3    3    0    0  0.17259976636E+02 -0.47942977419E+01 -0.39178744787E+02  0.43079764712E+02  0.51100000000E-03 0.  1.
         23    2    1    0    0    0  0.26436464954E+02 -0.16135666235E+01  0.12535172458E+02  0.95697767575E+02  0.91101272735E+02 0.  0.
         11    1    3    3    0    0  0.91764883183E+01  0.31807311184E+01  0.51713917245E+02  0.52618002864E+02  0.51100000000E-03 0. -1.
         22    1    1    0    0    0 -0.26436464954E+02  0.16135666235E+01 -0.12535172458E+02  0.29302232425E+02  0.00000000000E+00 0.  1.
</event>
<event>
 5    1  0.8957809E-005  0.9118800E+02  0.7818608E-02  0.1130116E+00
         25   -1    0    0    0    0  0.00000000000E+00  0.00000000000E+00  0.99999998245E-14  0.12500000000E+03  0.12500000000E+03 0.  0.
        -11    1    3    3    0    0 -0.30172511475E+02  0.14990497767E+02 -0.54119995432E+01  0.34123089124E+02  0.51100000000E-03 0.  1.
         23    2    1    0    0    0  0.16299761602E+02 -0.24520781019E+02 -0.50708282183E+01  0.95122513009E+02  0.90308517053E+02 0.  0.
         11    1    3    3    0    0  0.46472273077E+02 -0.39511278786E+02  0.34117132492E+00  0.60999423886E+02  0.51100000000E-03 0. -1.
         22    1    1    0    0    0 -0.16299761602E+02  0.24520781019E+02  0.50708282183E+01  0.29877486991E+02  0.00000000000E+00 0. -1.
</event>
<event>
 5    1  0.8957809E-005  0.9118800E+02  0.7818608E-02  0.1130116E+00
         25   -1    0    0    0    0  0.00000000000E+00  0.00000000000E+00  0.99999998245E-14  0.12500000000E+03  0.12500000000E+03 0.  0.
        -11    1    3    3    0    0 -0.23108660905E+02 -0.38417621985E+02 -0.18209742362E+02  0.48389240591E+02  0.51100000000E-03 0. -1.
         23    2    1    0    0    0  0.16781409847E+02 -0.26546713685E+02 -0.57904132988E+00  0.93588552839E+02  0.88159731225E+02 0.  0.
         11    1    3    3    0    0  0.39890070752E+02  0.11870908301E+02  0.17630701032E+02  0.45199312248E+02  0.51100000000E-03 0.  1.
         22    1    1    0    0    0 -0.16781409847E+02  0.26546713685E+02  0.57904132988E+00  0.31411447161E+02  0.00000000000E+00 0.  1.
</event>
<event>
 5    1  0.8957809E-005  0.9118800E+02  0.7818608E-02  0.1130116E+00
         25   -1    0    0    0    0  0.00000000000E+00  0.00000000000E+00  0.99999998245E-14  0.12500000000E+03  0.12500000000E+03 0.  0.
        -11    1    3    3    0    0 -0.45906563461E+02  0.10254811465E+02 -0.31629835495E+02  0.56683509248E+02  0.51100000000E-03 0.  1.
         23    2    1    0    0    0 -0.87258003730E+01  0.96143130973E+01 -0.28110447330E+02  0.94035958636E+02  0.88791833291E+02 0.  0.
         11    1    3    3    0    0  0.37180763088E+02 -0.64049836752E+00  0.35193881649E+01  0.37352449388E+02  0.51100000000E-03 0. -1.
         22    1    1    0    0    0  0.87258003730E+01 -0.96143130973E+01  0.28110447330E+02  0.30964041364E+02  0.00000000000E+00 0.  1.
</event>
<event>
 5    1  0.8957809E-005  0.9118800E+02  0.7818608E-02  0.1130116E+00
         25   -1    0    0    0    0  0.00000000000E+00  0.00000000000E+00  0.99999998245E-14  0.12500000000E+03  0.12500000000E+03 0.  0.
        -11    1    3    3    0    0  0.60263358923E+02 -0.39216776250E+01  0.14992430969E+02  0.62223990315E+02  0.51100000000E-03 0. -1.
         23    2    1    0    0    0  0.28258152968E+02 -0.57883098312E+01  0.57705078419E+01  0.95583567507E+02  0.90944443903E+02 0.  0.
         11    1    3    3    0    0 -0.32005205955E+02 -0.18666322062E+01 -0.92219231274E+01  0.33359577193E+02  0.51100000000E-03 0.  1.
         22    1    1    0    0    0 -0.28258152968E+02  0.57883098312E+01 -0.57705078419E+01  0.29416432493E+02  0.00000000000E+00 0. -1.
</event>
<event>
 5    1  0.8957809E-005  0.9118800E+02  0.7818608E-02  0.1130116E+00
         25   -1    0    0    0    0  0.00000000000E+00  0.00000000000E+00  0.99999998245E-14  0.12500000000E+03  0.12500000000E+03 0.  0.
        -11    1    3    3    0    0 -0.32997437618E+02 -0.16244044216E+02 -0.12853131603E+02  0.38960272767E+02  0.51100000000E-03 0. -1.
         23    2    1    0    0    0  0.87504367399E+01  0.20883718556E+02 -0.19362476814E+02  0.95207293640E+02  0.90425789519E+02 0.  0.
         11    1    3    3    0    0  0.41747874358E+02  0.37127762771E+02 -0.65093452116E+01  0.56247020873E+02  0.51100000000E-03 0.  1.
         22    1    1    0    0    0 -0.87504367399E+01 -0.20883718556E+02  0.19362476814E+02  0.29792706360E+02  0.00000000000E+00 0.  1.
</event>
<event>
 5    1  0.8957809E-005  0.9118800E+02  0.7818608E-02  0.1130116E+00
         25   -1    0    0    0    0  0.00000000000E+00  0.00000000000E+00  0.99999998245E-14  0.12500000000E+03  0.12500000000E+03 0.  0.
        -11    1    3    3    0    0  0.10588630787E+02  0.30713482208E+02 -0.31669347348E+02  0.45369424208E+02  0.51100000000E-03 0.  1.
         23    2    1    0    0    0 -0.20933831748E+02 -0.37870146619E+01 -0.24340117246E+02  0.92673414977E+02  0.86852482660E+02 0.  0.
         11    1    3    3    0    0 -0.31522462535E+02 -0.34500496870E+02  0.73292301016E+01  0.47303990769E+02  0.51100000000E-03 0. -1.
         22    1    1    0    0    0  0.20933831748E+02  0.37870146619E+01  0.24340117246E+02  0.32326585023E+02  0.00000000000E+00 0. -1.
</event>
<event>
 5    1  0.8957809E-005  0.9118800E+02  0.7818608E-02  0.1130116E+00
         25   -1    0    0    0    0  0.00000000000E+00  0.00000000000E+00  0.99999998245E-14  0.12500000000E+03  0.12500000000E+03 0.  0.
        -11    1    3    3    0    0 -0.34991751098E+02  0.13548363473E+01 -0.43983780233E+02  0.56221269554E+02  0.51100000000E-03 0. -1.
         23    2    1    0    0    0 -0.22587077269E+02  0.15238564544E+02 -0.82213053845E+01  0.96539856446E+02  0.92249466727E+02 0.  0.
         11    1    3    3    0    0  0.12404673829E+02  0.13883728196E+02  0.35762474848E+02  0.40318586892E+02  0.51100000000E-03 0.  1.
         22    1    1    0    0    0  0.22587077269E+02 -0.15238564544E+02  0.82213053845E+01  0.28460143554E+02  0.00000000000E+00 0. -1.
</event>
<event>
 5    1  0.8957809E-005  0.9118800E+02  0.7818608E-02  0.1130116E+00
         25   -1    0    0    0    0  0.00000000000E+00  0.00000000000E+00  0.99999998245E-14  0.12500000000E+03  0.12500000000E+03 0.  0.
        -11    1    3    3    0    0 -0.14627237070E+02  0.46191846700E+02 -0.45451468119E+01  0.48665194191E+02  0.51100000000E-03 0.  1.
         23    2    1    0    0    0 -0.28092550058E+02  0.11784086171E+00 -0.36152017974E+01  0.96675541678E+02  0.92433140266E+02 0.  0.
         11    1    3    3    0    0 -0.13465312988E+02 -0.46074005838E+02  0.92994501452E+00  0.48010347487E+02  0.51100000000E-03 0. -1.
         22    1    1    0    0    0  0.28092550058E+02 -0.11784086171E+00  0.36152017974E+01  0.28324458322E+02  0.00000000000E+00 0.  1.
</event>
<event>
 5    1  0.8957809E-005  0.9118800E+02  0.7818608E-02  0.1130116E+00
         25   -1    0    0    0    0  0.00000000000E+00  0.00000000000E+00  0.99999998245E-14  0.12500000000E+03  0.12500000000E+03 0.  0.
        -11    1    3    3    0    0 -0.12071063929E+02 -0.20540668228E+02 -0.43485265529E+02  0.49584251068E+02  0.51100000000E-03 0. -1.
         23    2    1    0    0    0 -0.21924109046E+00 -0.29466737466E+02  0.14713373076E-02  0.95532446900E+02  0.90874153228E+02 0.  0.
         11    1    3    3    0    0  0.11851822839E+02 -0.89260692385E+01  0.43486736866E+02  0.45948195831E+02  0.51100000000E-03 0.  1.
         22    1    1    0    0    0  0.21924109046E+00  0.29466737466E+02 -0.14713373076E-02  0.29467553100E+02  0.00000000000E+00 0. -1.
</event>
<event>
 5    1  0.8957809E-005  0.9118800E+02  0.7818608E-02  0.1130116E+00
         25   -1    0    0    0    0  0.00000000000E+00  0.00000000000E+00  0.99999998245E-14  0.12500000000E+03  0.12500000000E+03 0.  0.
        -11    1    3    3    0    0  0.46703149665E+01 -0.12017641594E+02 -0.57449700082E+02  0.58878719341E+02  0.51100000000E-03 0.  1.
         23    2    1    0    0    0  0.10358702362E+02 -0.18231406410E+02 -0.25167802239E+02  0.92241716103E+02  0.86228933808E+02 0.  0.
         11    1    3    3    0    0  0.56883873955E+01 -0.62137648162E+01  0.32281897843E+02  0.33362996762E+02  0.51100000000E-03 0. -1.
         22    1    1    0    0    0 -0.10358702362E+02  0.18231406410E+02  0.25167802239E+02  0.32758283897E+02  0.00000000000E+00 0.  1.
</event>
<event>
 5    1  0.8957809E-005  0.9118800E+02  0.7818608E-02  0.1130116E+00
         25   -1    0    0    0    0  0.00000000000E+00  0.00000000000E+00  0.99999998245E-14  0.12500000000E+03  0.12500000000E+03 0.  0.
        -11    1    3    3    0    0 -0.36827275285E+02 -0.28553139027E+02  0.30526033971E+01  0.46699553970E+02  0.51100000000E-03 0. -1.
         23    2    1    0    0    0 -0.75238807954E+01  0.64927961547E+01  0.25523656256E+02  0.97609815393E+02  0.93688066734E+02 0.  0.
         11    1    3    3    0    0  0.29303394490E+02  0.35045935181E+02  0.22471052859E+02  0.50910261423E+02  0.51100000000E-03 0.  1.
         22    1    1    0    0    0  0.75238807954E+01 -0.64927961547E+01 -0.25523656256E+02  0.27390184607E+02  0.00000000000E+00 0.  1.
</event>
<event>
 5    1  0.8957809E-005  0.9118800E+02  0.7818608E-02  0.1130116E+00
         25   -1    0    0    0    0  0.00000000000E+00  0.00000000000E+00  0.99999998245E-14  0.12500000000E+03  0.12500000000E+03 0.  0.
        -11    1    3    3    0    0  0.87304425976E+00  0.29530248416E+02  0.25449706982E+02  0.38993401538E+02  0.51100000000E-03 0. -1.
         23    2    1    0    0    0 -0.26542535870E+02 -0.37987050934E+01 -0.11517729977E+02  0.95817908324E+02  0.91265968909E+02 0.  0.
         11    1    3    3    0    0 -0.27415580129E+02 -0.33328953510E+02 -0.36967436958E+02  0.56824506786E+02  0.51100000000E-03 0.  1.
         22    1    1    0    0    0  0.26542535870E+02  0.37987050934E+01  0.11517729977E+02  0.29182091676E+02  0.00000000000E+00 0.  1.
</event>
<event>
 5    1  0.8957809E-005  0.9118800E+02  0.7818608E-02  0.1130116E+00
         25   -1    0    0    0    0  0.00000000000E+00  0.00000000000E+00  0.99999998245E-14  0.12500000000E+03  0.12500000000E+03 0.  0.
        -11    1    3    3    0    0  0.25272284371E+02 -0.53039908609E+02 -0.12588974788E+02  0.60086625376E+02  0.51100000000E-03 0.  1.
         23    2    1    0    0    0  0.66631820969E+01 -0.23754981863E+02 -0.16964159181E+02  0.95058726552E+02  0.90220184205E+02 0.  0.
         11    1    3    3    0    0 -0.18609102274E+02  0.29284926746E+02 -0.43751843932E+01  0.34972101177E+02  0.51100000000E-03 0. -1.
         22    1    1    0    0    0 -0.66631820969E+01  0.23754981863E+02  0.16964159181E+02  0.29941273448E+02  0.00000000000E+00 0.  1.
</event>
<event>
 5    1  0.8957809E-005  0.9118800E+02  0.7818608E-02  0.1130116E+00
         25   -1    0    0    0    0  0.00000000000E+00  0.00000000000E+00  0.99999998245E-14  0.12500000000E+03  0.12500000000E+03 0.  0.
        -11    1    3    3    0    0 -0.45169107093E+02 -0.29900068691E+02 -0.28808495228E+02  0.61353009224E+02  0.51100000000E-03 0.  1.
         23    2    1    0    0    0 -0.18475153033E+02 -0.13627302309E+02 -0.30889979366E+01  0.10183587783E+03  0.99166372610E+02 0.  0.
         11    1    3    3    0    0  0.26693954061E+02  0.16272766382E+02  0.25719497291E+02  0.40482868602E+02  0.51100000000E-03 0. -1.
         22    1    1    0    0    0  0.18475153033E+02  0.13627302309E+02  0.30889979366E+01  0.23164122173E+02  0.00000000000E+00 0.  1.
</event>
<event>
 5    1  0.8957809E-005  0.9118800E+02  0.7818608E-02  0.1130116E+00
         25   -1    0    0    0    0  0.00000000000E+00  0.00000000000E+00  0.99999998245E-14  0.12500000000E+03  0.12500000000E+03 0.  0.
        -11    1    3    3    0    0  0.12941928481E+02 -0.31280164107E+02 -0.21379239202E+02  0.40037657880E+02  0.51100000000E-03 0.  1.
         23    2    1    0    0    0 -0.28425440829E+02 -0.15879283727E+01  0.27728136035E+01  0.96395530103E+02  0.92053693710E+02 0.  0.
         11    1    3    3    0    0 -0.41367369310E+02  0.29692235734E+02  0.24152052806E+02  0.56357872223E+02  0.51100000000E-03 0. -1.
         22    1    1    0    0    0  0.28425440829E+02  0.15879283727E+01 -0.27728136035E+01  0.28604469897E+02  0.00000000000E+00 0. -1.
</event>
<event>
 5    1  0.8957809E-005  0.9118800E+02  0.7818608E-02  0.1130116E+00
         25   -1    0    0    0    0  0.00000000000E+00  0.00000000000E+00  0.99999998245E-14  0.12500000000E+03  0.12500000000E+03 0.  0.
        -11    1    3    3    0    0  0.16737564475E+02 -0.21332170741E+02  0.20518249353E+02  0.34003031186E+02  0.51100000000E-03 0. -1.
         23    2    1    0    0    0 -0.13178181783E+02  0.26809429592E+02 -0.21547341053E+01  0.95049159123E+02  0.90206927565E+02 0.  0.
         11    1    3    3    0    0 -0.29915746258E+02  0.48141600334E+02 -0.22672983458E+02  0.61046127936E+02  0.51100000000E-03 0.  1.
         22    1    1    0    0    0  0.13178181783E+02 -0.26809429592E+02  0.21547341053E+01  0.29950840877E+02  0.00000000000E+00 0.  1.
</event>
<event>
 5    1  0.8957809E-005  0.9118800E+02  0.7818608E-02  0.1130116E+00
         25   -1    0    0    0    0  0.00000000000E+00  0.00000000000E+00  0.99999998245E-14  0.12500000000E+03  0.12500000000E+03 0.  0.
        -11    1    3    3    0    0 -0.17476736059E+02 -0.19427253024E+02  0.53994323254E+02  0.59985343270E+02  0.51100000000E-03 0.  1.
         23    2    1    0    0    0 -0.17240248271E+02 -0.17159356411E+02  0.21570818639E+02  0.92488926661E+02  0.86586555916E+02 0.  0.
         11    1    3    3    0    0  0.23648778833E+00  0.22678966137E+01 -0.32423504614E+02  0.32503583391E+02  0.51100000000E-03 0. -1.
         22    1    1    0    0    0  0.17240248271E+02  0.17159356411E+02 -0.21570818639E+02  0.32511073339E+02  0.00000000000E+00 0.  1.
</event>
<event>
 5    1  0.8957809E-005  0.9118800E+02  0.7818608E-02  0.1130116E+00
         25   -1    0    0    0    0  0.00000000000E+00  0.00000000000E+00  0.99999998245E-14  0.12500000000E+03  0.12500000000E+03 0.  0.
        -11    1    3    3    0    0  0.49877932746E+02  0.95532339386E+01  0.31278360450E+02  0.59644012998E+02  0.51100000000E-03 0. -1.
         23    2    1    0    0    0  0.27007145138E+02 -0.51546919466E+01  0.58145370087E+01  0.96897231841E+02  0.92732453651E+02 0.  0.
         11    1    3    3    0    0 -0.22870787608E+02 -0.14707925885E+02 -0.25463823441E+02  0.37253218843E+02  0.51100000000E-03 0.  1.
         22    1    1    0    0    0 -0.27007145138E+02  0.51546919466E+01 -0.58145370087E+01  0.28102768159E+02  0.00000000000E+00 0. -1.
</event>
<event>
 5    1  0.8957809E-005  0.9118800E+02  0.7818608E-02  0.1130116E+00
         25   -1    0    0    0    0  0.00000000000E+00  0.00000000000E+00  0.99999998245E-14  0.12500000000E+03  0.12500000000E+03 0.  0.
        -11    1    3    3    0    0 -0.55275691398E+02 -0.11497941815E+02  0.23744667082E+01  0.56508785316E+02  0.51100000000E-03 0. -1.
         23    2    1    0    0    0 -0.18093433122E+02 -0.18939564649E+02  0.12815798045E+02  0.95839682602E+02  0.91295786597E+02 0.  0.
         11    1    3    3    0    0  0.37182258276E+02 -0.74416228340E+01  0.10441331337E+02  0.39330897285E+02  0.51100000000E-03 0.  1.
         22    1    1    0    0    0  0.18093433122E+02  0.18939564649E+02 -0.12815798045E+02  0.29160317398E+02  0.00000000000E+00 0. -1.
</event>
<event>
 5    1  0.8957809E-005  0.9118800E+02  0.7818608E-02  0.1130116E+00
         25   -1    0    0    0    0  0.00000000000E+00  0.00000000000E+00  0.99999998245E-14  0.12500000000E+03  0.12500000000E+03 0.  0.
        -11    1    3    3    0    0  0.43236673858E+02  0.99562813489E+01  0.22340981478E+01  0.44424415577E+02  0.51100000000E-03 0. -1.
         23    2    1    0    0    0  0.24548056120E+02 -0.50363024733E+01 -0.30838478004E+02  0.85263579332E+02  0.75438019811E+02 0.  0.
         11    1    3    3    0    0 -0.18688617738E+02 -0.14992583822E+02 -0.33072576152E+02  0.40839163755E+02  0.51100000000E-03 0.  1.
         22    1    1    0    0    0 -0.24548056120E+02  0.50363024733E+01  0.30838478004E+02  0.39736420668E+02  0.00000000000E+00 0. -1.
</event>
<event>
 5    1  0.8957809E-005  0.9118800E+02  0.7818608E-02  0.1130116E+00
         25   -1    0    0    0    0  0.00000000000E+00  0.00000000000E+00  0.99999998245E-14  0.12500000000E+03  0.12500000000E+03 0.  0.
        -11    1    3    3    0    0 -0.15626866028E+02  0.48069092468E+02 -0.10143681418E+02  0.51553184824E+02  0.51100000000E-03 0.  1.
         23    2    1    0    0    0 -0.12393455275E+02  0.17163040894E+02  0.20739293651E+02  0.95364109470E+02  0.90642304514E+02 0.  0.
         11    1    3    3    0    0  0.32334107525E+01 -0.30906051574E+02  0.30882975068E+02  0.43810924646E+02  0.51100000000E-03 0. -1.
         22    1    1    0    0    0  0.12393455275E+02 -0.17163040894E+02 -0.20739293651E+02  0.29635890530E+02  0.00000000000E+00 0. -1.
</event>
<event>
 5    1  0.8957809E-005  0.9118800E+02  0.7818608E-02  0.1130116E+00
         25   -1    0    0    0    0  0.00000000000E+00  0.00000000000E+00  0.99999998245E-14  0.12500000000E+03  0.12500000000E+03 0.  0.
        -11    1    3    3    0    0  0.18352462091E+02 -0.44900191326E+02 -0.27474040982E+02  0.55746416693E+02  0.51100000000E-03 0. -1.
         23    2    1    0    0    0 -0.93687308208E+00 -0.29362398256E+02  0.35097519038E+01  0.95413744391E+02  0.90710727578E+02 0.  0.
         11    1    3    3    0    0 -0.19289335173E+02  0.15537793070E+02  0.30983792886E+02  0.39667327699E+02  0.51100000000E-03 0.  1.
         22    1    1    0    0    0  0.93687308208E+00  0.29362398256E+02 -0.35097519038E+01  0.29586255609E+02  0.00000000000E+00 0. -1.
</event>
<event>
 5    1  0.8957809E-005  0.9118800E+02  0.7818608E-02  0.1130116E+00
         25   -1    0    0    0    0  0.00000000000E+00  0.00000000000E+00  0.99999998245E-14  0.12500000000E+03  0.12500000000E+03 0.  0.
        -11    1    3    3    0    0 -0.30693406759E+02 -0.57414601212E+01 -0.37896520083E+02  0.49103928737E+02  0.51100000000E-03 0.  1.
         23    2    1    0    0    0 -0.26688524823E+02  0.11238295002E+02  0.51828155690E+01  0.95581668827E+02  0.90941834195E+02 0.  0.
         11    1    3    3    0    0  0.40048819356E+01  0.16979755123E+02  0.43079335652E+02  0.46477740090E+02  0.51100000000E-03 0. -1.
         22    1    1    0    0    0  0.26688524823E+02 -0.11238295002E+02 -0.51828155690E+01  0.29418331173E+02  0.00000000000E+00 0. -1.
</event>
<event>
 5    1  0.8957809E-005  0.9118800E+02  0.7818608E-02  0.1130116E+00
         25   -1    0    0    0    0  0.00000000000E+00  0.00000000000E+00  0.99999998245E-14  0.12500000000E+03  0.12500000000E+03 0.  0.
        -11    1    3    3    0    0  0.36376204788E+02 -0.16377193117E+01 -0.90466562566E+01  0.37520026506E+02  0.51100000000E-03 0. -1.
         23    2    1    0    0    0 -0.18333201116E+02  0.17823728196E+02 -0.14088378639E+02  0.95806268436E+02  0.91250025254E+02 0.  0.
         11    1    3    3    0    0 -0.54709405904E+02  0.19461447508E+02 -0.50417223827E+01  0.58286241930E+02  0.51100000000E-03 0.  1.
         22    1    1    0    0    0  0.18333201116E+02 -0.17823728196E+02  0.14088378639E+02  0.29193731564E+02  0.00000000000E+00 0.  1.
</event>
<event>
 5    1  0.8957809E-005  0.9118800E+02  0.7818608E-02  0.1130116E+00
         25   -1    0    0    0    0  0.00000000000E+00  0.00000000000E+00  0.99999998245E-14  0.12500000000E+03  0.12500000000E+03 0.  0.
        -11    1    3    3    0    0 -0.15844358856E+01  0.39885623082E+02 -0.52003422778E+01  0.40254402564E+02  0.51100000000E-03 0. -1.
         23    2    1    0    0    0 -0.20894031410E+02 -0.89414892353E+01 -0.19913100016E+02  0.94783409680E+02  0.89837923061E+02 0.  0.
         11    1    3    3    0    0 -0.19309595525E+02 -0.48827112317E+02 -0.14712757738E+02  0.54529007116E+02  0.51100000000E-03 0.  1.
         22    1    1    0    0    0  0.20894031410E+02  0.89414892353E+01  0.19913100016E+02  0.30216590320E+02  0.00000000000E+00 0.  1.
</event>
<event>
 5    1  0.8957809E-005  0.9118800E+02  0.7818608E-02  0.1130116E+00
         25   -1    0    0    0    0  0.00000000000E+00  0.00000000000E+00  0.99999998245E-14  0.12500000000E+03  0.12500000000E+03 0.  0.
        -11    1    3    3    0    0  0.34654419541E+02  0.15537004189E+01 -0.30361617228E-01  0.34689244743E+02  0.51100000000E-03 0.  1.
         23    2    1    0    0    0 -0.23411366940E+02 -0.17465855773E+02 -0.17199686467E+00  0.95790792499E+02  0.91228822884E+02 0.  0.
         11    1    3    3    0    0 -0.58065786481E+02 -0.19019556192E+02 -0.14163524744E+00  0.61101547757E+02  0.51100000000E-03 0. -1.
         22    1    1    0    0    0  0.23411366940E+02  0.17465855773E+02  0.17199686467E+00  0.29209207501E+02  0.00000000000E+00 0. -1.
</event>
<event>
 5    1  0.8957809E-005  0.9118800E+02  0.7818608E-02  0.1130116E+00
         25   -1    0    0    0    0  0.00000000000E+00  0.00000000000E+00  0.99999998245E-14  0.12500000000E+03  0.12500000000E+03 0.  0.
        -11    1    3    3    0    0 -0.15586180093E+02 -0.99676718798E+01 -0.56933320294E+02  0.59863899410E+02  0.51100000000E-03 0.  1.
         23    2    1    0    0    0 -0.81759523471E+01  0.82354221599E+01 -0.26213418786E+02  0.96332741683E+02  0.91968393597E+02 0.  0.
         11    1    3    3    0    0  0.74102277461E+01  0.18203094040E+02  0.30719901508E+02  0.36468842274E+02  0.51100000000E-03 0. -1.
         22    1    1    0    0    0  0.81759523471E+01 -0.82354221599E+01  0.26213418786E+02  0.28667258317E+02  0.00000000000E+00 0. -1.
</event>
<event>
 5    1  0.8957809E-005  0.9118800E+02  0.7818608E-02  0.1130116E+00
         25   -1    0    0    0    0  0.00000000000E+00  0.00000000000E+00  0.99999998245E-14  0.12500000000E+03  0.12500000000E+03 0.  0.
        -11    1    3    3    0    0 -0.36786154779E+02 -0.17180618180E+02  0.22646838857E+02  0.46489505643E+02  0.51100000000E-03 0.  1.
         23    2    1    0    0    0  0.66767001401E+01  0.78629749747E+01  0.26265432775E+02  0.96781607787E+02  0.92576465404E+02 0.  0.
         11    1    3    3    0    0  0.43462854919E+02  0.25043593154E+02  0.36185939182E+01  0.50292102144E+02  0.51100000000E-03 0. -1.
         22    1    1    0    0    0 -0.66767001401E+01 -0.78629749747E+01 -0.26265432775E+02  0.28218392213E+02  0.00000000000E+00 0.  1.
</event>
<event>
 5    1  0.8957809E-005  0.9118800E+02  0.7818608E-02  0.1130116E+00
         25   -1    0    0    0    0  0.00000000000E+00  0.00000000000E+00  0.99999998245E-14  0.12500000000E+03  0.12500000000E+03 0.  0.
        -11    1    3    3    0    0  0.15248258411E+02 -0.25695399860E+01  0.51071184836E+02  0.53360826841E+02  0.51100000000E-03 0. -1.
         23    2    1    0    0    0  0.28762401757E+02 -0.23778584201E+01  0.13794183364E+02  0.93012354569E+02  0.87338929707E+02 0.  0.
         11    1    3    3    0    0  0.13514143346E+02  0.19168156589E+00 -0.37277001472E+02  0.39651527729E+02  0.51100000000E-03 0.  1.
         22    1    1    0    0    0 -0.28762401757E+02  0.23778584201E+01 -0.13794183364E+02  0.31987645431E+02  0.00000000000E+00 0. -1.
</event>
<event>
 5    1  0.8957809E-005  0.9118800E+02  0.7818608E-02  0.1130116E+00
         25   -1    0    0    0    0  0.00000000000E+00  0.00000000000E+00  0.99999998245E-14  0.12500000000E+03  0.12500000000E+03 0.  0.
        -11    1    3    3    0    0  0.15213369650E+02  0.50303423871E+02 -0.23863070697E+02  0.57717650789E+02  0.51100000000E-03 0. -1.
         23    2    1    0    0    0 -0.71508631474E+01  0.24129392149E+02 -0.20925797224E+02  0.92270022934E+02  0.86269958465E+02 0.  0.
         11    1    3    3    0    0 -0.22364232797E+02 -0.26174031721E+02  0.29372734728E+01  0.34552372146E+02  0.51100000000E-03 0.  1.
         22    1    1    0    0    0  0.71508631474E+01 -0.24129392149E+02  0.20925797224E+02  0.32729977066E+02  0.00000000000E+00 0. -1.
</event>
<event>
 5    1  0.8957809E-005  0.9118800E+02  0.7818608E-02  0.1130116E+00
         25   -1    0    0    0    0  0.00000000000E+00  0.00000000000E+00  0.99999998245E-14  0.12500000000E+03  0.12500000000E+03 0.  0.
        -11    1    3    3    0    0  0.22302027788E+01 -0.29028873769E+02  0.30250045124E+02  0.41984694199E+02  0.51100000000E-03 0.  1.
         23    2    1    0    0    0  0.28163360186E+02  0.73453077996E+01  0.73054947382E-01  0.95894437977E+02  0.91370725586E+02 0.  0.
         11    1    3    3    0    0  0.25933157408E+02  0.36374181568E+02 -0.30176990176E+02  0.53909743778E+02  0.51100000000E-03 0. -1.
         22    1    1    0    0    0 -0.28163360186E+02 -0.73453077996E+01 -0.73054947382E-01  0.29105562023E+02  0.00000000000E+00 0.  1.
</event>
<event>
 5    1  0.8957809E-005  0.9118800E+02  0.7818608E-02  0.1130116E+00
         25   -1    0    0    0    0  0.00000000000E+00  0.00000000000E+00  0.99999998245E-14  0.12500000000E+03  0.12500000000E+03 0.  0.
        -11    1    3    3    0    0 -0.26603185145E+02  0.31686566017E+02 -0.19729748143E+02  0.45837003478E+02  0.51100000000E-03 0. -1.
         23    2    1    0    0    0 -0.12142198699E+02  0.15352619786E+02  0.23594174502E+02  0.94343499972E+02  0.89223735591E+02 0.  0.
         11    1    3    3    0    0  0.14460986445E+02 -0.16333946231E+02  0.43323922645E+02  0.48506496494E+02  0.51100000000E-03 0.  1.
         22    1    1    0    0    0  0.12142198699E+02 -0.15352619786E+02 -0.23594174502E+02  0.30656500028E+02  0.00000000000E+00 0.  1.
</event>
<event>
 5    1  0.8957809E-005  0.9118800E+02  0.7818608E-02  0.1130116E+00
         25   -1    0    0    0    0  0.00000000000E+00  0.00000000000E+00  0.99999998245E-14  0.12500000000E+03  0.12500000000E+03 0.  0.
        -11    1    3    3    0    0  0.30674896838E+02 -0.39702118304E+02 -0.31607932682E+02  0.59298135743E+02  0.51100000000E-03 0.  1.
         23    2    1    0    0    0  0.29385006039E+01 -0.26721566031E+02 -0.12916705714E+02  0.95175208912E+02  0.90381426345E+02 0.  0.
         11    1    3    3    0    0 -0.27736396234E+02  0.12980552274E+02  0.18691226969E+02  0.35877073170E+02  0.51100000000E-03 0. -1.
         22    1    1    0    0    0 -0.29385006039E+01  0.26721566031E+02  0.12916705714E+02  0.29824791088E+02  0.00000000000E+00 0.  1.
</event>
<event>
 5    1  0.8957809E-005  0.9118800E+02  0.7818608E-02  0.1130116E+00
         25   -1    0    0    0    0  0.00000000000E+00  0.00000000000E+00  0.99999998245E-14  0.12500000000E+03  0.12500000000E+03 0.  0.
        -11    1    3    3    0    0 -0.19557174975E+02  0.25097775909E+02  0.11276022146E+02  0.33756927056E+02  0.51100000000E-03 0. -1.
         23    2    1    0    0    0  0.28805095556E+02 -0.76602288185E+01 -0.58436993921E+01  0.94626303186E+02  0.89619059337E+02 0.  0.
         11    1    3    3    0    0  0.48362270531E+02 -0.32758004727E+02 -0.17119721539E+02  0.60869376130E+02  0.51100000000E-03 0.  1.
         22    1    1    0    0    0 -0.28805095556E+02  0.76602288185E+01  0.58436993921E+01  0.30373696814E+02  0.00000000000E+00 0.  1.
</event>
<event>
 5    1  0.8957809E-005  0.9118800E+02  0.7818608E-02  0.1130116E+00
         25   -1    0    0    0    0  0.00000000000E+00  0.00000000000E+00  0.99999998245E-14  0.12500000000E+03  0.12500000000E+03 0.  0.
        -11    1    3    3    0    0 -0.25717386178E+02 -0.34934674936E+02  0.20239599678E+02  0.47869163980E+02  0.51100000000E-03 0. -1.
         23    2    1    0    0    0 -0.11603666212E+02 -0.19033483515E+02 -0.21068335669E+02  0.94327645474E+02  0.89201521111E+02 0.  0.
         11    1    3    3    0    0  0.14113719966E+02  0.15901191421E+02 -0.41307935347E+02  0.46458481494E+02  0.51100000000E-03 0.  1.
         22    1    1    0    0    0  0.11603666212E+02  0.19033483515E+02  0.21068335669E+02  0.30672354526E+02  0.00000000000E+00 0. -1.
</event>
<event>
 5    1  0.8957809E-005  0.9118800E+02  0.7818608E-02  0.1130116E+00
         25   -1    0    0    0    0  0.00000000000E+00  0.00000000000E+00  0.99999998245E-14  0.12500000000E+03  0.12500000000E+03 0.  0.
        -11    1    3    3    0    0 -0.94456912287E+01  0.47305367124E+02  0.36598522608E+02  0.60551388909E+02  0.51100000000E-03 0.  1.
         23    2    1    0    0    0 -0.13130783911E+02  0.14031369814E+02  0.16993872647E+02  0.99346763702E+02  0.95977554280E+02 0.  0.
         11    1    3    3    0    0 -0.36850926828E+01 -0.33273997310E+02 -0.19604649960E+02  0.38795374793E+02  0.51100000000E-03 0. -1.
         22    1    1    0    0    0  0.13130783911E+02 -0.14031369814E+02 -0.16993872647E+02  0.25653236298E+02  0.00000000000E+00 0.  1.
</event>
<event>
 5    1  0.8957809E-005  0.9118800E+02  0.7818608E-02  0.1130116E+00
         25   -1    0    0    0    0  0.00000000000E+00  0.00000000000E+00  0.99999998245E-14  0.12500000000E+03  0.12500000000E+03 0.  0.
        -11    1    3    3    0    0  0.26345797787E+02 -0.13267584744E+01 -0.22529986584E+02  0.34690944709E+02  0.51100000000E-03 0. -1.
         23    2    1    0    0    0 -0.11487160871E+02 -0.94965493058E+01  0.24943433537E+02  0.95942914974E+02  0.91437020640E+02 0.  0.
         11    1    3    3    0    0 -0.37832958658E+02 -0.81697908314E+01  0.47473420121E+02  0.61251970265E+02  0.51100000000E-03 0.  1.
         22    1    1    0    0    0  0.11487160871E+02  0.94965493058E+01 -0.24943433537E+02  0.29057085026E+02  0.00000000000E+00 0.  1.
</event>
<event>
 5    1  0.8957809E-005  0.9118800E+02  0.7818608E-02  0.1130116E+00
         25   -1    0    0    0    0  0.00000000000E+00  0.00000000000E+00  0.99999998245E-14  0.12500000000E+03  0.12500000000E+03 0.  0.
        -11    1    3    3    0    0  0.32743893116E+02 -0.26378195272E+02 -0.18661823261E+02  0.46002558297E+02  0.51100000000E-03 0. -1.
         23    2    1    0    0    0 -0.86669281747E+01  0.74675453604E+00 -0.27382840231E+02  0.96268602098E+02  0.91881176116E+02 0.  0.
         11    1    3    3    0    0 -0.41410821291E+02  0.27124949808E+02 -0.87210169697E+01  0.50266043800E+02  0.51100000000E-03 0.  1.
         22    1    1    0    0    0  0.86669281747E+01 -0.74675453604E+00  0.27382840231E+02  0.28731397902E+02  0.00000000000E+00 0. -1.
</event>
<event>
 5    1  0.8957809E-005  0.9118800E+02  0.7818608E-02  0.1130116E+00
         25   -1    0    0    0    0  0.00000000000E+00  0.00000000000E+00  0.99999998245E-14  0.12500000000E+03  0.12500000000E+03 0.  0.
        -11    1    3    3    0    0 -0.22853216705E+02  0.31237515736E+02 -0.93950389344E-02  0.38704676612E+02  0.51100000000E-03 0.  1.
         23    2    1    0    0    0 -0.10017508064E+02 -0.21313208176E+02 -0.17612659481E+02  0.95592363499E+02  0.90956532886E+02 0.  0.
         11    1    3    3    0    0  0.12835708641E+02 -0.52550723912E+02 -0.17603264442E+02  0.56887686887E+02  0.51100000000E-03 0. -1.
         22    1    1    0    0    0  0.10017508064E+02  0.21313208176E+02  0.17612659481E+02  0.29407636501E+02  0.00000000000E+00 0. -1.
</event>
<event>
 5    1  0.8957809E-005  0.9118800E+02  0.7818608E-02  0.1130116E+00
         25   -1    0    0    0    0  0.00000000000E+00  0.00000000000E+00  0.99999998245E-14  0.12500000000E+03  0.12500000000E+03 0.  0.
        -11    1    3    3    0    0 -0.35679167438E+02  0.31320309565E+02  0.19135714470E+02  0.51187306521E+02  0.51100000000E-03 0.  1.
         23    2    1    0    0    0  0.69599405167E+01  0.13476362520E+02  0.22867065769E+02  0.97559959628E+02  0.93621524806E+02 0.  0.
         11    1    3    3    0    0  0.42639107955E+02 -0.17843947046E+02  0.37313512985E+01  0.46372653107E+02  0.51100000000E-03 0. -1.
         22    1    1    0    0    0 -0.69599405167E+01 -0.13476362520E+02 -0.22867065769E+02  0.27440040372E+02  0.00000000000E+00 0.  1.
</event>
<event>
 5    1  0.8957809E-005  0.9118800E+02  0.7818608E-02  0.1130116E+00
         25   -1    0    0    0    0  0.00000000000E+00  0.00000000000E+00  0.99999998245E-14  0.12500000000E+03  0.12500000000E+03 0.  0.
        -11    1    3    3    0    0  0.16979420431E+02  0.48736367024E+02 -0.16619811412E+02  0.54219482850E+02  0.51100000000E-03 0.  1.
         23    2    1    0    0    0 -0.10007749293E+02  0.80789831107E+01 -0.17808192770E+02  0.10303282577E+03  0.10066382887E+03 0.  0.
         11    1    3    3    0    0 -0.26987169724E+02 -0.40657383913E+02 -0.11883813577E+01  0.48813342919E+02  0.51100000000E-03 0. -1.
         22    1    1    0    0    0  0.10007749293E+02 -0.80789831107E+01  0.17808192770E+02  0.21967174232E+02  0.00000000000E+00 0.  1.
</event>
<event>
 5    1  0.8957809E-005  0.9118800E+02  0.7818608E-02  0.1130116E+00
         25   -1    0    0    0    0  0.00000000000E+00  0.00000000000E+00  0.99999998245E-14  0.12500000000E+03  0.12500000000E+03 0.  0.
        -11    1    3    3    0    0  0.43182882070E+02 -0.14774186686E+02  0.25845815300E+01  0.45713433016E+02  0.51100000000E-03 0. -1.
         23    2    1    0    0    0  0.89184214022E+01  0.19646588104E+02  0.18245182579E+02  0.96743790916E+02  0.92525389646E+02 0.  0.
         11    1    3    3    0    0 -0.34264460668E+02  0.34420774789E+02  0.15660601049E+02  0.51030357901E+02  0.51100000000E-03 0.  1.
         22    1    1    0    0    0 -0.89184214022E+01 -0.19646588104E+02 -0.18245182579E+02  0.28256209084E+02  0.00000000000E+00 0. -1.
</event>
<event>
 5    1  0.8957809E-005  0.9118800E+02  0.7818608E-02  0.1130116E+00
         25   -1    0    0    0    0  0.00000000000E+00  0.00000000000E+00  0.99999998245E-14  0.12500000000E+03  0.12500000000E+03 0.  0.
        -11    1    3    3    0    0 -0.20072092999E+02  0.49443151085E+02 -0.28956968884E+02  0.60712602924E+02  0.51100000000E-03 0. -1.
         23    2    1    0    0    0 -0.40975483519E+01  0.27712181144E+02 -0.55110744336E+01  0.96449573949E+02  0.92127050790E+02 0.  0.
         11    1    3    3    0    0  0.15974544647E+02 -0.21730969940E+02  0.23445894450E+02  0.35736971025E+02  0.51100000000E-03 0.  1.
         22    1    1    0    0    0  0.40975483519E+01 -0.27712181144E+02  0.55110744336E+01  0.28550426051E+02  0.00000000000E+00 0. -1.
</event>
<event>
 5    1  0.8957809E-005  0.9118800E+02  0.7818608E-02  0.1130116E+00
         25   -1    0    0    0    0  0.00000000000E+00  0.00000000000E+00  0.99999998245E-14  0.12500000000E+03  0.12500000000E+03 0.  0.
        -11    1    3    3    0    0 -0.52773701432E+02  0.18708270207E+02  0.83013095714E+01  0.56603663113E+02  0.51100000000E-03 0.  1.
         23    2    1    0    0    0 -0.28081651600E+02 -0.64900322265E+01  0.14992065549E+02  0.92512129890E+02  0.86620046597E+02 0.  0.
         11    1    3    3    0    0  0.24692049832E+02 -0.25198302433E+02  0.66907559776E+01  0.35908466777E+02  0.51100000000E-03 0. -1.
         22    1    1    0    0    0  0.28081651600E+02  0.64900322265E+01 -0.14992065549E+02  0.32487870110E+02  0.00000000000E+00 0.  1.
</event>
<event>
 5    1  0.8957809E-005  0.9118800E+02  0.7818608E-02  0.1130116E+00
         25   -1    0    0    0    0  0.00000000000E+00  0.00000000000E+00  0.99999998245E-14  0.12500000000E+03  0.12500000000E+03 0.  0.
        -11    1    3    3    0    0  0.46861284241E+01  0.34133323465E+02  0.45785994395E+01  0.34756397159E+02  0.51100000000E-03 0.  1.
         23    2    1    0    0    0  0.23604578784E+01 -0.25729641004E+02  0.14332419554E+02  0.95453351495E+02  0.90765290028E+02 0.  0.
         11    1    3    3    0    0 -0.23256705457E+01 -0.59862964470E+02  0.97538201146E+01  0.60696954336E+02  0.51100000000E-03 0. -1.
         22    1    1    0    0    0 -0.23604578784E+01  0.25729641004E+02 -0.14332419554E+02  0.29546648505E+02  0.00000000000E+00 0. -1.
</event>
<event>
 5    1  0.8957809E-005  0.9118800E+02  0.7818608E-02  0.1130116E+00
         25   -1    0    0    0    0  0.00000000000E+00  0.00000000000E+00  0.99999998245E-14  0.12500000000E+03  0.12500000000E+03 0.  0.
        -11    1    3    3    0    0 -0.12967576892E+02  0.27055487350E+01  0.55721355783E+02  0.57274318285E+02  0.51100000000E-03 0. -1.
         23    2    1    0    0    0  0.10435294715E+02 -0.58218267216E+01  0.28083437826E+02  0.94480030762E+02  0.89414806886E+02 0.  0.
         11    1    3    3    0    0  0.23402871607E+02 -0.85273754567E+01 -0.27637917957E+02  0.37205712477E+02  0.51100000000E-03 0.  1.
         22    1    1    0    0    0 -0.10435294715E+02  0.58218267216E+01 -0.28083437826E+02  0.30519969238E+02  0.00000000000E+00 0. -1.
</event>
<event>
 5    1  0.8957809E-005  0.9118800E+02  0.7818608E-02  0.1130116E+00
         25   -1    0    0    0    0  0.00000000000E+00  0.00000000000E+00  0.99999998245E-14  0.12500000000E+03  0.12500000000E+03 0.  0.
        -11    1    3    3    0    0 -0.12787928335E+02  0.54614428378E+02  0.14675671954E+02  0.57979670970E+02  0.51100000000E-03 0.  1.
         23    2    1    0    0    0  0.23862840638E+01  0.28603509944E+02 -0.74480199222E+01  0.95346532522E+02  0.90618061833E+02 0.  0.
         11    1    3    3    0    0  0.15174212399E+02 -0.26010918434E+02 -0.22123691877E+02  0.37366861552E+02  0.51100000000E-03 0. -1.
         22    1    1    0    0    0 -0.23862840638E+01 -0.28603509944E+02  0.74480199222E+01  0.29653467478E+02  0.00000000000E+00 0.  1.
</event>
<event>
 5    1  0.8957809E-005  0.9118800E+02  0.7818608E-02  0.1130116E+00
         25   -1    0    0    0    0  0.00000000000E+00  0.00000000000E+00  0.99999998245E-14  0.12500000000E+03  0.12500000000E+03 0.  0.
        -11    1    3    3    0    0 -0.66604106595E+01  0.51103681269E+02  0.20183329866E+02  0.55347214150E+02  0.51100000000E-03 0. -1.
         23    2    1    0    0    0  0.15219920967E+02  0.25157490785E+02 -0.13906068671E+01  0.95563982533E+02  0.90917521047E+02 0.  0.
         11    1    3    3    0    0  0.21880331627E+02 -0.25946190485E+02 -0.21573936733E+02  0.40216768383E+02  0.51100000000E-03 0.  1.
         22    1    1    0    0    0 -0.15219920967E+02 -0.25157490785E+02  0.13906068671E+01  0.29436017467E+02  0.00000000000E+00 0.  1.
</event>
<event>
 5    1  0.8957809E-005  0.9118800E+02  0.7818608E-02  0.1130116E+00
         25   -1    0    0    0    0  0.00000000000E+00  0.00000000000E+00  0.99999998245E-14  0.12500000000E+03  0.12500000000E+03 0.  0.
        -11    1    3    3    0    0  0.27857426100E+02  0.21415553379E+01 -0.23274531472E+02  0.36363804308E+02  0.51100000000E-03 0.  1.
         23    2    1    0    0    0  0.11045217028E+02 -0.83073077106E+01  0.29334092850E+02  0.92573202688E+02  0.86708134981E+02 0.  0.
         11    1    3    3    0    0 -0.16812209072E+02 -0.10448863048E+02  0.52608624322E+02  0.56209398380E+02  0.51100000000E-03 0. -1.
         22    1    1    0    0    0 -0.11045217028E+02  0.83073077106E+01 -0.29334092850E+02  0.32426797312E+02  0.00000000000E+00 0. -1.
</event>
<event>
 5    1  0.8957809E-005  0.9118800E+02  0.7818608E-02  0.1130116E+00
         25   -1    0    0    0    0  0.00000000000E+00  0.00000000000E+00  0.99999998245E-14  0.12500000000E+03  0.12500000000E+03 0.  0.
        -11    1    3    3    0    0  0.47161452665E+02  0.21693118281E+02 -0.24447297450E+01  0.51968939782E+02  0.51100000000E-03 0.  1.
         23    2    1    0    0    0  0.35973124299E+01  0.27255460773E+02  0.64106469417E+01  0.96770632439E+02  0.92561644917E+02 0.  0.
         11    1    3    3    0    0 -0.43564140236E+02  0.55623424922E+01  0.88553766866E+01  0.44801692658E+02  0.51100000000E-03 0. -1.
         22    1    1    0    0    0 -0.35973124299E+01 -0.27255460773E+02 -0.64106469417E+01  0.28229367561E+02  0.00000000000E+00 0. -1.
</event>
<event>
 5    1  0.8957809E-005  0.9118800E+02  0.7818608E-02  0.1130116E+00
         25   -1    0    0    0    0  0.00000000000E+00  0.00000000000E+00  0.99999998245E-14  0.12500000000E+03  0.12500000000E+03 0.  0.
        -11    1    3    3    0    0  0.34902376060E+02 -0.36158195175E+02 -0.34207342608E+02  0.60792542483E+02  0.51100000000E-03 0. -1.
         23    2    1    0    0    0  0.24405141591E+02 -0.10428638829E+02 -0.17263364633E+02  0.93339437745E+02  0.87805805253E+02 0.  0.
         11    1    3    3    0    0 -0.10497234470E+02  0.25729556346E+02  0.16943977976E+02  0.32546895262E+02  0.51100000000E-03 0.  1.
         22    1    1    0    0    0 -0.24405141591E+02  0.10428638829E+02  0.17263364633E+02  0.31660562255E+02  0.00000000000E+00 0. -1.
</event>
<event>
 5    1  0.8957809E-005  0.9118800E+02  0.7818608E-02  0.1130116E+00
         25   -1    0    0    0    0  0.00000000000E+00  0.00000000000E+00  0.99999998245E-14  0.12500000000E+03  0.12500000000E+03 0.  0.
        -11    1    3    3    0    0  0.33229848990E+02  0.14718001523E+02 -0.12293153305E+02  0.38366183693E+02  0.51100000000E-03 0.  1.
         23    2    1    0    0    0 -0.19576669505E+02  0.24221104429E+02  0.16824446375E+01  0.93811243875E+02  0.88474917173E+02 0.  0.
         11    1    3    3    0    0 -0.52806518495E+02  0.95031029053E+01  0.13975597943E+02  0.55445060182E+02  0.51100000000E-03 0. -1.
         22    1    1    0    0    0  0.19576669505E+02 -0.24221104429E+02 -0.16824446375E+01  0.31188756125E+02  0.00000000000E+00 0. -1.
</event>
<event>
 5    1  0.8957809E-005  0.9118800E+02  0.7818608E-02  0.1130116E+00
         25   -1    0    0    0    0  0.00000000000E+00  0.00000000000E+00  0.99999998245E-14  0.12500000000E+03  0.12500000000E+03 0.  0.
        -11    1    3    3    0    0 -0.17343906998E+02 -0.48481190418E+02 -0.10124453299E+02  0.52476103983E+02  0.51100000000E-03 0.  1.
         23    2    1    0    0    0  0.16865502819E+02 -0.23571379327E+02  0.11978127758E+00  0.96016048298E+02  0.91536943768E+02 0.  0.
         11    1    3    3    0    0  0.34209409817E+02  0.24909811091E+02  0.10244234577E+02  0.43539944315E+02  0.51100000000E-03 0. -1.
         22    1    1    0    0    0 -0.16865502819E+02  0.23571379327E+02 -0.11978127758E+00  0.28983951702E+02  0.00000000000E+00 0. -1.
</event>
<event>
 5    1  0.8957809E-005  0.9118800E+02  0.7818608E-02  0.1130116E+00
         25   -1    0    0    0    0  0.00000000000E+00  0.00000000000E+00  0.99999998245E-14  0.12500000000E+03  0.12500000000E+03 0.  0.
        -11    1    3    3    0    0  0.13664145784E+02 -0.15987319369E+02  0.36190285330E+02  0.41857377045E+02  0.51100000000E-03 0.  1.
         23    2    1    0    0    0 -0.27959607936E+02 -0.19204876469E+01  0.32170825771E+01  0.96790470244E+02  0.92588431033E+02 0.  0.
         11    1    3    3    0    0 -0.41623753720E+02  0.14066831722E+02 -0.32973202752E+02  0.54933093199E+02  0.51100000000E-03 0. -1.
         22    1    1    0    0    0  0.27959607936E+02  0.19204876469E+01 -0.32170825771E+01  0.28209529756E+02  0.00000000000E+00 0. -1.
</event>
<event>
 5    1  0.8957809E-005  0.9118800E+02  0.7818608E-02  0.1130116E+00
         25   -1    0    0    0    0  0.00000000000E+00  0.00000000000E+00  0.99999998245E-14  0.12500000000E+03  0.12500000000E+03 0.  0.
        -11    1    3    3    0    0  0.32551958160E+02  0.42563026892E+02  0.21565645479E+02  0.57760871734E+02  0.51100000000E-03 0. -1.
         23    2    1    0    0    0  0.26078918292E+02  0.63148844805E+01  0.80276373403E+01  0.96992309867E+02  0.92860526958E+02 0.  0.
         11    1    3    3    0    0 -0.64730398676E+01 -0.36248142412E+02 -0.13538008138E+02  0.39231438134E+02  0.51100000000E-03 0.  1.
         22    1    1    0    0    0 -0.26078918292E+02 -0.63148844805E+01 -0.80276373403E+01  0.28007690133E+02  0.00000000000E+00 0. -1.
</event>
<event>
 5    1  0.8957809E-005  0.9118800E+02  0.7818608E-02  0.1130116E+00
         25   -1    0    0    0    0  0.00000000000E+00  0.00000000000E+00  0.99999998245E-14  0.12500000000E+03  0.12500000000E+03 0.  0.
        -11    1    3    3    0    0 -0.35913434370E+02 -0.88218822755E+01 -0.71766533519E+01  0.37671006474E+02  0.51100000000E-03 0. -1.
         23    2    1    0    0    0  0.41098573596E+01  0.30526201185E+02 -0.48514079426E+00  0.94194558144E+02  0.89014827619E+02 0.  0.
         11    1    3    3    0    0  0.40023291730E+02  0.39348083461E+02  0.66915125576E+01  0.56523551671E+02  0.51100000000E-03 0.  1.
         22    1    1    0    0    0 -0.41098573596E+01 -0.30526201185E+02  0.48514079426E+00  0.30805441856E+02  0.00000000000E+00 0.  1.
</event>
<event>
 5    1  0.8957809E-005  0.9118800E+02  0.7818608E-02  0.1130116E+00
         25   -1    0    0    0    0  0.00000000000E+00  0.00000000000E+00  0.99999998245E-14  0.12500000000E+03  0.12500000000E+03 0.  0.
        -11    1    3    3    0    0 -0.19714527191E+02 -0.22127783567E+02  0.46006840529E+02  0.54725960600E+02  0.51100000000E-03 0.  1.
         23    2    1    0    0    0  0.74958593863E+01  0.25212997640E+01  0.28541053528E+02  0.95383508025E+02  0.90669052086E+02 0.  0.
         11    1    3    3    0    0  0.27210386578E+02  0.24649083331E+02 -0.17465787001E+02  0.40657547424E+02  0.51100000000E-03 0. -1.
         22    1    1    0    0    0 -0.74958593863E+01 -0.25212997640E+01 -0.28541053528E+02  0.29616491975E+02  0.00000000000E+00 0.  1.
</event>
<event>
 5    1  0.8957809E-005  0.9118800E+02  0.7818608E-02  0.1130116E+00
         25   -1    0    0    0    0  0.00000000000E+00  0.00000000000E+00  0.99999998245E-14  0.12500000000E+03  0.12500000000E+03 0.  0.
        -11    1    3    3    0    0  0.16470202731E+02  0.42267072033E+02  0.80252261884E+01  0.46067094676E+02  0.51100000000E-03 0. -1.
         23    2    1    0    0    0 -0.22349618219E+02  0.18369660432E+02 -0.89596066009E+01  0.94714287042E+02  0.89741694660E+02 0.  0.
         11    1    3    3    0    0 -0.38819820951E+02 -0.23897411601E+02 -0.16984832789E+02  0.48647192365E+02  0.51100000000E-03 0.  1.
         22    1    1    0    0    0  0.22349618219E+02 -0.18369660432E+02  0.89596066009E+01  0.30285712958E+02  0.00000000000E+00 0.  1.
</event>
<event>
 5    1  0.8957809E-005  0.9118800E+02  0.7818608E-02  0.1130116E+00
         25   -1    0    0    0    0  0.00000000000E+00  0.00000000000E+00  0.99999998245E-14  0.12500000000E+03  0.12500000000E+03 0.  0.
        -11    1    3    3    0    0  0.32045607922E+02  0.11475037814E+02  0.59927774016E+01  0.34561696445E+02  0.51100000000E-03 0.  1.
         23    2    1    0    0    0 -0.20315116354E+02  0.28003742427E+02  0.79412380326E+01  0.89503848041E+02  0.82164238025E+02 0.  0.
         11    1    3    3    0    0 -0.52360724276E+02  0.16528704613E+02  0.19484606311E+01  0.54942151596E+02  0.51100000000E-03 0. -1.
         22    1    1    0    0    0  0.20315116354E+02 -0.28003742427E+02 -0.79412380326E+01  0.35496151959E+02  0.00000000000E+00 0. -1.
</event>
<event>
 5    1  0.8957809E-005  0.9118800E+02  0.7818608E-02  0.1130116E+00
         25   -1    0    0    0    0  0.00000000000E+00  0.00000000000E+00  0.99999998245E-14  0.12500000000E+03  0.12500000000E+03 0.  0.
        -11    1    3    3    0    0  0.22022446402E+01 -0.36115693893E+02  0.33933211702E+01  0.36341544487E+02  0.51100000000E-03 0. -1.
         23    2    1    0    0    0  0.20751404161E+02  0.17992860012E+02 -0.11143888609E+02  0.95359655208E+02  0.90636161668E+02 0.  0.
         11    1    3    3    0    0  0.18549159521E+02  0.54108553905E+02 -0.14537209779E+02  0.59018110721E+02  0.51100000000E-03 0.  1.
         22    1    1    0    0    0 -0.20751404161E+02 -0.17992860012E+02  0.11143888609E+02  0.29640344792E+02  0.00000000000E+00 0.  1.
</event>
<event>
 5    1  0.8957809E-005  0.9118800E+02  0.7818608E-02  0.1130116E+00
         25   -1    0    0    0    0  0.00000000000E+00  0.00000000000E+00  0.99999998245E-14  0.12500000000E+03  0.12500000000E+03 0.  0.
        -11    1    3    3    0    0  0.33342184353E+02  0.21445844050E+02 -0.44045903514E+02  0.59259320795E+02  0.51100000000E-03 0.  1.
         23    2    1    0    0    0  0.21254302799E+02  0.17979106565E+02 -0.10224177624E+02  0.95343171639E+02  0.90613425660E+02 0.  0.
         11    1    3    3    0    0 -0.12087881555E+02 -0.34667374847E+01  0.33821725890E+02  0.36083850844E+02  0.51100000000E-03 0. -1.
         22    1    1    0    0    0 -0.21254302799E+02 -0.17979106565E+02  0.10224177624E+02  0.29656828361E+02  0.00000000000E+00 0.  1.
</event>
<event>
 4    1  0.8957809E-005  0.9118800E+02  0.7818608E-02  0.1130116E+00
         25   -1    0    0    0    0  0.00000000000E+00  0.00000000000E+00  0.99999998245E-14  0.12500000000E+03  0.12500000000E+03 0.  0.
        -11    1    1    0    0    0  0.15467617442E+02  0.24205337930E+01 -0.97543035472E+01  0.18445937524E+02  0.51100000000E-03 0. -1.
         11    1    1    0    0    0 -0.76568830281E+01 -0.53278761215E+02 -0.16477807961E+01  0.53851364292E+02  0.51100000000E-03 0.  1.
         22    1    1    0    0    0 -0.78107344141E+01  0.50858227422E+02  0.11402084343E+02  0.52702698184E+02  0.00000000000E+00 0.  1.
</event>
<event>
 5    1  0.8957809E-005  0.9118800E+02  0.7818608E-02  0.1130116E+00
         25   -1    0    0    0    0  0.00000000000E+00  0.00000000000E+00  0.99999998245E-14  0.12500000000E+03  0.12500000000E+03 0.  0.
        -11    1    3    3    0    0 -0.15004692604E+02 -0.41898030907E+02 -0.26797972303E+02  0.51949178182E+02  0.51100000000E-03 0. -1.
         23    2    1    0    0    0  0.10759445389E+02 -0.25912203883E+02  0.56724148503E+01  0.96375111085E+02  0.92025962485E+02 0.  0.
         11    1    3    3    0    0  0.25764137993E+02  0.15985827025E+02  0.32470387153E+02  0.44425932903E+02  0.51100000000E-03 0.  1.
         22    1    1    0    0    0 -0.10759445389E+02  0.25912203883E+02 -0.56724148503E+01  0.28624888915E+02  0.00000000000E+00 0. -1.
</event>
<event>
 5    1  0.8957809E-005  0.9118800E+02  0.7818608E-02  0.1130116E+00
         25   -1    0    0    0    0  0.00000000000E+00  0.00000000000E+00  0.99999998245E-14  0.12500000000E+03  0.12500000000E+03 0.  0.
        -11    1    3    3    0    0  0.22965351910E+02  0.18270594063E+02 -0.30809859715E+02  0.42549611652E+02  0.51100000000E-03 0.  1.
         23    2    1    0    0    0  0.43699958039E+01  0.23629632060E+02  0.17947562413E+02  0.95007144664E+02  0.90148689209E+02 0.  0.
         11    1    3    3    0    0 -0.18595356106E+02  0.53590379967E+01  0.48757422128E+02  0.52457533013E+02  0.51100000000E-03 0. -1.
         22    1    1    0    0    0 -0.43699958039E+01 -0.23629632060E+02 -0.17947562413E+02  0.29992855336E+02  0.00000000000E+00 0. -1.
</event>
<event>
 5    1  0.8957809E-005  0.9118800E+02  0.7818608E-02  0.1130116E+00
         25   -1    0    0    0    0  0.00000000000E+00  0.00000000000E+00  0.99999998245E-14  0.12500000000E+03  0.12500000000E+03 0.  0.
        -11    1    3    3    0    0 -0.24070551875E+02  0.46215786216E+02 -0.27373822626E+02  0.58860993268E+02  0.51100000000E-03 0.  1.
         23    2    1    0    0    0  0.25891952189E+01  0.27489966811E+02 -0.11761644582E+02  0.94987694350E+02  0.90121715405E+02 0.  0.
         11    1    3    3    0    0  0.26659747094E+02 -0.18725819405E+02  0.15612178044E+02  0.36126701082E+02  0.51100000000E-03 0. -1.
         22    1    1    0    0    0 -0.25891952189E+01 -0.27489966811E+02  0.11761644582E+02  0.30012305650E+02  0.00000000000E+00 0.  1.
</event>
<event>
 5    1  0.8957809E-005  0.9118800E+02  0.7818608E-02  0.1130116E+00
         25   -1    0    0    0    0  0.00000000000E+00  0.00000000000E+00  0.99999998245E-14  0.12500000000E+03  0.12500000000E+03 0.  0.
        -11    1    3    3    0    0 -0.28587313741E+02  0.46161634211E+00 -0.51673485482E+02  0.59055877766E+02  0.51100000000E-03 0.  1.
         23    2    1    0    0    0 -0.10118103700E+01 -0.14547395524E+01 -0.31920630781E+02  0.93030222134E+02  0.87364498129E+02 0.  0.
         11    1    3    3    0    0  0.27575503371E+02 -0.19163558945E+01  0.19752854701E+02  0.33974344368E+02  0.51100000000E-03 0. -1.
         22    1    1    0    0    0  0.10118103700E+01  0.14547395524E+01  0.31920630781E+02  0.31969777866E+02  0.00000000000E+00 0.  1.
</event>
<event>
 5    1  0.8957809E-005  0.9118800E+02  0.7818608E-02  0.1130116E+00
         25   -1    0    0    0    0  0.00000000000E+00  0.00000000000E+00  0.99999998245E-14  0.12500000000E+03  0.12500000000E+03 0.  0.
        -11    1    3    3    0    0 -0.12177281320E+02 -0.43850566618E+02 -0.80949155551E+01  0.46224301306E+02  0.51100000000E-03 0.  1.
         23    2    1    0    0    0 -0.29961868539E+01  0.24324294742E+01 -0.27490482400E+02  0.97239948282E+02  0.93193278033E+02 0.  0.
         11    1    3    3    0    0  0.91810944663E+01  0.46282996093E+02 -0.19395566845E+02  0.51015646976E+02  0.51100000000E-03 0. -1.
         22    1    1    0    0    0  0.29961868539E+01 -0.24324294742E+01  0.27490482400E+02  0.27760051718E+02  0.00000000000E+00 0.  1.
</event>
<event>
 5    1  0.8957809E-005  0.9118800E+02  0.7818608E-02  0.1130116E+00
         25   -1    0    0    0    0  0.00000000000E+00  0.00000000000E+00  0.99999998245E-14  0.12500000000E+03  0.12500000000E+03 0.  0.
        -11    1    3    3    0    0 -0.18039741239E+01  0.23858967911E+02  0.57553602051E+02  0.62329140711E+02  0.51100000000E-03 0.  1.
         23    2    1    0    0    0  0.20728112394E+01  0.96974456060E+01  0.27233912193E+02  0.96016850222E+02  0.91538038845E+02 0.  0.
         11    1    3    3    0    0  0.38767853632E+01 -0.14161522305E+02 -0.30319689858E+02  0.33687709512E+02  0.51100000000E-03 0. -1.
         22    1    1    0    0    0 -0.20728112394E+01 -0.96974456060E+01 -0.27233912193E+02  0.28983149778E+02  0.00000000000E+00 0.  1.
</event>
<event>
 5    1  0.8957809E-005  0.9118800E+02  0.7818608E-02  0.1130116E+00
         25   -1    0    0    0    0  0.00000000000E+00  0.00000000000E+00  0.99999998245E-14  0.12500000000E+03  0.12500000000E+03 0.  0.
        -11    1    3    3    0    0 -0.10120932437E+02 -0.32748707898E+02  0.46955526378E+02  0.58135467660E+02  0.51100000000E-03 0.  1.
         23    2    1    0    0    0 -0.11312423196E+02  0.28221456057E+01  0.15275464841E+02  0.10578346414E+03  0.10402339177E+03 0.  0.
         11    1    3    3    0    0 -0.11914907592E+01  0.35570853504E+02 -0.31680061536E+02  0.47647996479E+02  0.51100000000E-03 0. -1.
         22    1    1    0    0    0  0.11312423196E+02 -0.28221456057E+01 -0.15275464841E+02  0.19216535861E+02  0.00000000000E+00 0. -1.
</event>
<event>
 5    1  0.8957809E-005  0.9118800E+02  0.7818608E-02  0.1130116E+00
         25   -1    0    0    0    0  0.00000000000E+00  0.00000000000E+00  0.99999998245E-14  0.12500000000E+03  0.12500000000E+03 0.  0.
        -11    1    3    3    0    0  0.36143895014E+02  0.46472033812E+02 -0.62130194431E+01  0.59199938211E+02  0.51100000000E-03 0.  1.
         23    2    1    0    0    0  0.62611440486E+01  0.30588391424E+02  0.82775216483E+00  0.93766415698E+02  0.88411559903E+02 0.  0.
         11    1    3    3    0    0 -0.29882750965E+02 -0.15883642388E+02  0.70407716080E+01  0.34566477487E+02  0.51100000000E-03 0. -1.
         22    1    1    0    0    0 -0.62611440486E+01 -0.30588391424E+02 -0.82775216483E+00  0.31233584302E+02  0.00000000000E+00 0.  1.
</event>
<event>
 5    1  0.8957809E-005  0.9118800E+02  0.7818608E-02  0.1130116E+00
         25   -1    0    0    0    0  0.00000000000E+00  0.00000000000E+00  0.99999998245E-14  0.12500000000E+03  0.12500000000E+03 0.  0.
        -11    1    3    3    0    0  0.36820791899E+02 -0.31328234971E+02  0.49934456521E+01  0.48602093805E+02  0.51100000000E-03 0. -1.
         23    2    1    0    0    0 -0.92559219593E+01 -0.27065313327E+02 -0.50510402001E+01  0.95953205273E+02  0.91451087026E+02 0.  0.
         11    1    3    3    0    0 -0.46076713859E+02  0.42629216441E+01 -0.10044485852E+02  0.47351111468E+02  0.51100000000E-03 0.  1.
         22    1    1    0    0    0  0.92559219593E+01  0.27065313327E+02  0.50510402001E+01  0.29046794727E+02  0.00000000000E+00 0.  1.
</event>
<event>
 5    1  0.8957809E-005  0.9118800E+02  0.7818608E-02  0.1130116E+00
         25   -1    0    0    0    0  0.00000000000E+00  0.00000000000E+00  0.99999998245E-14  0.12500000000E+03  0.12500000000E+03 0.  0.
        -11    1    3    3    0    0 -0.31893858873E+02  0.21417076065E+02 -0.26949004610E+02  0.46927158776E+02  0.51100000000E-03 0. -1.
         23    2    1    0    0    0  0.93376621249E+01  0.27349946929E+02 -0.84307691045E+00  0.96087678930E+02  0.91634708122E+02 0.  0.
         11    1    3    3    0    0  0.41231520998E+02  0.59328708640E+01  0.26105927700E+02  0.49160520154E+02  0.51100000000E-03 0.  1.
         22    1    1    0    0    0 -0.93376621249E+01 -0.27349946929E+02  0.84307691045E+00  0.28912321070E+02  0.00000000000E+00 0. -1.
</event>
<event>
 5    1  0.8957809E-005  0.9118800E+02  0.7818608E-02  0.1130116E+00
         25   -1    0    0    0    0  0.00000000000E+00  0.00000000000E+00  0.99999998245E-14  0.12500000000E+03  0.12500000000E+03 0.  0.
        -11    1    3    3    0    0 -0.43072087959E+02 -0.20777529196E+02  0.35813480617E+02  0.59745425555E+02  0.51100000000E-03 0.  1.
         23    2    1    0    0    0 -0.10722184208E+02 -0.18639913373E+02  0.19187198713E+02  0.96180558659E+02  0.91761319001E+02 0.  0.
         11    1    3    3    0    0  0.32349903751E+02  0.21376158232E+01 -0.16626281904E+02  0.36435133104E+02  0.51100000000E-03 0. -1.
         22    1    1    0    0    0  0.10722184208E+02  0.18639913373E+02 -0.19187198713E+02  0.28819441341E+02  0.00000000000E+00 0.  1.
</event>
<event>
 5    1  0.8957809E-005  0.9118800E+02  0.7818608E-02  0.1130116E+00
         25   -1    0    0    0    0  0.00000000000E+00  0.00000000000E+00  0.99999998245E-14  0.12500000000E+03  0.12500000000E+03 0.  0.
        -11    1    3    3    0    0  0.19305213472E+02 -0.26148107527E+02 -0.28762659037E+02  0.43401674502E+02  0.51100000000E-03 0. -1.
         23    2    1    0    0    0  0.19454851642E+02 -0.15285591904E+02  0.19891528266E+02  0.93253921990E+02  0.87683980849E+02 0.  0.
         11    1    3    3    0    0  0.14963817008E+00  0.10862515624E+02  0.48654187303E+02  0.49852247488E+02  0.51100000000E-03 0.  1.
         22    1    1    0    0    0 -0.19454851642E+02  0.15285591904E+02 -0.19891528266E+02  0.31746078010E+02  0.00000000000E+00 0. -1.
</event>
<event>
 5    1  0.8957809E-005  0.9118800E+02  0.7818608E-02  0.1130116E+00
         25   -1    0    0    0    0  0.00000000000E+00  0.00000000000E+00  0.99999998245E-14  0.12500000000E+03  0.12500000000E+03 0.  0.
        -11    1    3    3    0    0  0.25926542676E+02  0.11611662675E+02 -0.16954635256E+02  0.33082865386E+02  0.51100000000E-03 0.  1.
         23    2    1    0    0    0 -0.19765284282E+02 -0.55833731322E+01  0.21527644583E+02  0.95246344770E+02  0.90479755705E+02 0.  0.
         11    1    3    3    0    0 -0.45691826958E+02 -0.17195035807E+02  0.38482279839E+02  0.62163479384E+02  0.51100000000E-03 0. -1.
         22    1    1    0    0    0  0.19765284282E+02  0.55833731322E+01 -0.21527644583E+02  0.29753655230E+02  0.00000000000E+00 0. -1.
</event>
<event>
 5    1  0.8957809E-005  0.9118800E+02  0.7818608E-02  0.1130116E+00
         25   -1    0    0    0    0  0.00000000000E+00  0.00000000000E+00  0.99999998245E-14  0.12500000000E+03  0.12500000000E+03 0.  0.
        -11    1    3    3    0    0  0.33899074840E+02  0.27542389459E+01  0.51943446622E+02  0.62087476631E+02  0.51100000000E-03 0. -1.
         23    2    1    0    0    0  0.19832697752E+02  0.44398895446E+01  0.23033179631E+02  0.94282319697E+02  0.89137982500E+02 0.  0.
         11    1    3    3    0    0 -0.14066377087E+02  0.16856505987E+01 -0.28910266991E+02  0.32194843066E+02  0.51100000000E-03 0.  1.
         22    1    1    0    0    0 -0.19832697752E+02 -0.44398895446E+01 -0.23033179631E+02  0.30717680303E+02  0.00000000000E+00 0. -1.
</event>
<event>
 5    1  0.8957809E-005  0.9118800E+02  0.7818608E-02  0.1130116E+00
         25   -1    0    0    0    0  0.00000000000E+00  0.00000000000E+00  0.99999998245E-14  0.12500000000E+03  0.12500000000E+03 0.  0.
        -11    1    3    3    0    0  0.27705491617E+02 -0.25624634482E+02 -0.38586119928E+02  0.53973186023E+02  0.51100000000E-03 0.  1.
         23    2    1    0    0    0  0.15642133818E+02 -0.24898332137E+02  0.12171412388E+01  0.95570682537E+02  0.90926732231E+02 0.  0.
         11    1    3    3    0    0 -0.12063357799E+02  0.72630234547E+00  0.39803261166E+02  0.41597496514E+02  0.51100000000E-03 0. -1.
         22    1    1    0    0    0 -0.15642133818E+02  0.24898332137E+02 -0.12171412388E+01  0.29429317463E+02  0.00000000000E+00 0. -1.
</event>
<event>
 5    1  0.8957809E-005  0.9118800E+02  0.7818608E-02  0.1130116E+00
         25   -1    0    0    0    0  0.00000000000E+00  0.00000000000E+00  0.99999998245E-14  0.12500000000E+03  0.12500000000E+03 0.  0.
        -11    1    3    3    0    0 -0.14213009504E+02  0.16089578302E+02 -0.27037357680E+02  0.34523946467E+02  0.51100000000E-03 0. -1.
         23    2    1    0    0    0  0.36870308001E+01 -0.18508812899E+02  0.21259214893E+02  0.96572468118E+02  0.92293645662E+02 0.  0.
         11    1    3    3    0    0  0.17900040305E+02 -0.34598391201E+02  0.48296572572E+02  0.62048521651E+02  0.51100000000E-03 0.  1.
         22    1    1    0    0    0 -0.36870308001E+01  0.18508812899E+02 -0.21259214893E+02  0.28427531882E+02  0.00000000000E+00 0.  1.
</event>
<event>
 5    1  0.8957809E-005  0.9118800E+02  0.7818608E-02  0.1130116E+00
         25   -1    0    0    0    0  0.00000000000E+00  0.00000000000E+00  0.99999998245E-14  0.12500000000E+03  0.12500000000E+03 0.  0.
        -11    1    3    3    0    0 -0.45243454467E+02 -0.21270770362E+01 -0.13395519768E+02  0.47232770181E+02  0.51100000000E-03 0.  1.
         23    2    1    0    0    0 -0.10740336718E+02  0.26412081323E+02  0.57209220706E+01  0.95919390963E+02  0.91404856220E+02 0.  0.
         11    1    3    3    0    0  0.34503117749E+02  0.28539158360E+02  0.19116441839E+02  0.48686620782E+02  0.51100000000E-03 0. -1.
         22    1    1    0    0    0  0.10740336718E+02 -0.26412081323E+02 -0.57209220706E+01  0.29080609037E+02  0.00000000000E+00 0. -1.
</event>
<event>
 5    1  0.8957809E-005  0.9118800E+02  0.7818608E-02  0.1130116E+00
         25   -1    0    0    0    0  0.00000000000E+00  0.00000000000E+00  0.99999998245E-14  0.12500000000E+03  0.12500000000E+03 0.  0.
        -11    1    3    3    0    0 -0.34075283793E+02  0.29595593390E+01  0.48100637279E+02  0.59021650807E+02  0.51100000000E-03 0. -1.
         23    2    1    0    0    0 -0.10819578272E+02  0.14432261773E+02  0.27368506011E+02  0.92222132846E+02  0.86200540668E+02 0.  0.
         11    1    3    3    0    0  0.23255705522E+02  0.11472702434E+02 -0.20732131268E+02  0.33200482039E+02  0.51100000000E-03 0.  1.
         22    1    1    0    0    0  0.10819578272E+02 -0.14432261773E+02 -0.27368506011E+02  0.32777867154E+02  0.00000000000E+00 0. -1.
</event>
<event>
 5    1  0.8957809E-005  0.9118800E+02  0.7818608E-02  0.1130116E+00
         25   -1    0    0    0    0  0.00000000000E+00  0.00000000000E+00  0.99999998245E-14  0.12500000000E+03  0.12500000000E+03 0.  0.
        -11    1    3    3    0    0 -0.20270566567E+02 -0.78771305517E+01 -0.48172477619E+02  0.52853880225E+02  0.51100000000E-03 0. -1.
         23    2    1    0    0    0  0.15279169877E+01  0.18487948473E+02 -0.23638215230E+02  0.94951639174E+02  0.90071692520E+02 0.  0.
         11    1    3    3    0    0  0.21798483555E+02  0.26365079025E+02  0.24534262389E+02  0.42097758949E+02  0.51100000000E-03 0.  1.
         22    1    1    0    0    0 -0.15279169877E+01 -0.18487948473E+02  0.23638215230E+02  0.30048360826E+02  0.00000000000E+00 0.  1.
</event>
<event>
 5    1  0.8957809E-005  0.9118800E+02  0.7818608E-02  0.1130116E+00
         25   -1    0    0    0    0  0.00000000000E+00  0.00000000000E+00  0.99999998245E-14  0.12500000000E+03  0.12500000000E+03 0.  0.
        -11    1    3    3    0    0 -0.35336773899E+02  0.56935076369E+01 -0.34461426032E+02  0.49685948750E+02  0.51100000000E-03 0. -1.
         23    2    1    0    0    0 -0.67571919906E+01 -0.24481371020E+02 -0.12456879843E+02  0.96712705572E+02  0.92483384416E+02 0.  0.
         11    1    3    3    0    0  0.28579581909E+02 -0.30174878657E+02  0.22004546188E+02  0.47026756822E+02  0.51100000000E-03 0.  1.
         22    1    1    0    0    0  0.67571919906E+01  0.24481371020E+02  0.12456879843E+02  0.28287294428E+02  0.00000000000E+00 0. -1.
</event>
<event>
 5    1  0.8957809E-005  0.9118800E+02  0.7818608E-02  0.1130116E+00
         25   -1    0    0    0    0  0.00000000000E+00  0.00000000000E+00  0.99999998245E-14  0.12500000000E+03  0.12500000000E+03 0.  0.
        -11    1    3    3    0    0 -0.47027635489E+02 -0.31353106787E+02  0.25749593881E+02  0.62110042587E+02  0.51100000000E-03 0.  1.
         23    2    1    0    0    0 -0.22879859461E+02 -0.19638190767E+02  0.99807109544E+01  0.93239000383E+02  0.87662706413E+02 0.  0.
         11    1    3    3    0    0  0.24147776028E+02  0.11714916020E+02 -0.15768882926E+02  0.31128957796E+02  0.51100000000E-03 0. -1.
         22    1    1    0    0    0  0.22879859461E+02  0.19638190767E+02 -0.99807109544E+01  0.31760999617E+02  0.00000000000E+00 0.  1.
</event>
<event>
 5    1  0.8957809E-005  0.9118800E+02  0.7818608E-02  0.1130116E+00
         25   -1    0    0    0    0  0.00000000000E+00  0.00000000000E+00  0.99999998245E-14  0.12500000000E+03  0.12500000000E+03 0.  0.
        -11    1    3    3    0    0 -0.29941869250E+02  0.30072081159E+02  0.30227997081E+02  0.52101606570E+02  0.51100000000E-03 0.  1.
         23    2    1    0    0    0 -0.18881461220E+02 -0.58180614549E+01  0.29290187170E+02  0.89669071887E+02  0.82415216870E+02 0.  0.
         11    1    3    3    0    0  0.11060408031E+02 -0.35890142614E+02 -0.93780991137E+00  0.37567465317E+02  0.51100000000E-03 0. -1.
         22    1    1    0    0    0  0.18881461220E+02  0.58180614549E+01 -0.29290187170E+02  0.35330928113E+02  0.00000000000E+00 0.  1.
</event>
<event>
 5    1  0.8957809E-005  0.9118800E+02  0.7818608E-02  0.1130116E+00
         25   -1    0    0    0    0  0.00000000000E+00  0.00000000000E+00  0.99999998245E-14  0.12500000000E+03  0.12500000000E+03 0.  0.
        -11    1    3    3    0    0 -0.17733839036E+02  0.72893673459E+00  0.50080950465E+02  0.53133059346E+02  0.51100000000E-03 0.  1.
         23    2    1    0    0    0  0.16298158864E+02  0.12856799313E+01  0.23755972786E+02  0.96162018132E+02  0.91736059066E+02 0.  0.
         11    1    3    3    0    0  0.34031997900E+02  0.55674319670E+00 -0.26324977680E+02  0.43028958785E+02  0.51100000000E-03 0. -1.
         22    1    1    0    0    0 -0.16298158864E+02 -0.12856799313E+01 -0.23755972786E+02  0.28837981868E+02  0.00000000000E+00 0.  1.
</event>
<event>
 5    1  0.8957809E-005  0.9118800E+02  0.7818608E-02  0.1130116E+00
         25   -1    0    0    0    0  0.00000000000E+00  0.00000000000E+00  0.99999998245E-14  0.12500000000E+03  0.12500000000E+03 0.  0.
        -11    1    3    3    0    0 -0.45647667212E+02  0.26080555574E+02 -0.19327358000E+02  0.56012959825E+02  0.51100000000E-03 0. -1.
         23    2    1    0    0    0 -0.18653472618E+02  0.22099214135E+02  0.83704839703E+01  0.94893650039E+02  0.89991180177E+02 0.  0.
         11    1    3    3    0    0  0.26994194594E+02 -0.39813414388E+01  0.27697841970E+02  0.38880690213E+02  0.51100000000E-03 0.  1.
         22    1    1    0    0    0  0.18653472618E+02 -0.22099214135E+02 -0.83704839703E+01  0.30106349961E+02  0.00000000000E+00 0. -1.
</event>
<event>
 5    1  0.8957809E-005  0.9118800E+02  0.7818608E-02  0.1130116E+00
         25   -1    0    0    0    0  0.00000000000E+00  0.00000000000E+00  0.99999998245E-14  0.12500000000E+03  0.12500000000E+03 0.  0.
        -11    1    3    3    0    0  0.25507465405E+02 -0.77578136202E+01  0.27891215351E+02  0.38584120537E+02  0.51100000000E-03 0.  1.
         23    2    1    0    0    0  0.48739296962E+01  0.11389225017E+02 -0.24210801595E+02  0.97803813668E+02  0.93946545529E+02 0.  0.
         11    1    3    3    0    0 -0.20633535709E+02  0.19147038637E+02 -0.52102016946E+02  0.59219693131E+02  0.51100000000E-03 0. -1.
         22    1    1    0    0    0 -0.48739296962E+01 -0.11389225017E+02  0.24210801595E+02  0.27196186332E+02  0.00000000000E+00 0. -1.
</event>
<event>
 5    1  0.8957809E-005  0.9118800E+02  0.7818608E-02  0.1130116E+00
         25   -1    0    0    0    0  0.00000000000E+00  0.00000000000E+00  0.99999998245E-14  0.12500000000E+03  0.12500000000E+03 0.  0.
        -11    1    3    3    0    0  0.12602578659E+02  0.12186730997E+02 -0.18004370168E+02  0.25129638809E+02  0.51100000000E-03 0.  1.
         23    2    1    0    0    0 -0.28893005161E+02 -0.98078486857E+01  0.22452768921E+02  0.87116936827E+02  0.78448927379E+02 0.  0.
         11    1    3    3    0    0 -0.41495583821E+02 -0.21994579683E+02  0.40457139089E+02  0.61987298018E+02  0.51100000000E-03 0. -1.
         22    1    1    0    0    0  0.28893005161E+02  0.98078486857E+01 -0.22452768921E+02  0.37883063173E+02  0.00000000000E+00 0. -1.
</event>
<event>
 5    1  0.8957809E-005  0.9118800E+02  0.7818608E-02  0.1130116E+00
         25   -1    0    0    0    0  0.00000000000E+00  0.00000000000E+00  0.99999998245E-14  0.12500000000E+03  0.12500000000E+03 0.  0.
        -11    1    3    3    0    0  0.12721724741E+02 -0.48655346551E+02  0.31384138084E+02  0.59280259378E+02  0.51100000000E-03 0. -1.
         23    2    1    0    0    0  0.72227448363E+01 -0.10868897088E+02  0.23274805986E+02  0.98316342818E+02  0.94626030798E+02 0.  0.
         11    1    3    3    0    0 -0.54989799043E+01  0.37786449463E+02 -0.81093320973E+01  0.39036083440E+02  0.51100000000E-03 0.  1.
         22    1    1    0    0    0 -0.72227448363E+01  0.10868897088E+02 -0.23274805986E+02  0.26683657182E+02  0.00000000000E+00 0. -1.
</event>
<event>
 5    1  0.8957809E-005  0.9118800E+02  0.7818608E-02  0.1130116E+00
         25   -1    0    0    0    0  0.00000000000E+00  0.00000000000E+00  0.99999998245E-14  0.12500000000E+03  0.12500000000E+03 0.  0.
        -11    1    3    3    0    0 -0.24627310717E+02  0.17053178937E+02  0.17029769161E+02  0.34457631708E+02  0.51100000000E-03 0.  1.
         23    2    1    0    0    0  0.10606965856E+02 -0.62295021642E+01 -0.26915875997E+02  0.95406439847E+02  0.90700661308E+02 0.  0.
         11    1    3    3    0    0  0.35234276573E+02 -0.23282681101E+02 -0.43945645157E+02  0.60948808138E+02  0.51100000000E-03 0. -1.
         22    1    1    0    0    0 -0.10606965856E+02  0.62295021642E+01  0.26915875997E+02  0.29593560153E+02  0.00000000000E+00 0. -1.
</event>
<event>
 5    1  0.8957809E-005  0.9118800E+02  0.7818608E-02  0.1130116E+00
         25   -1    0    0    0    0  0.00000000000E+00  0.00000000000E+00  0.99999998245E-14  0.12500000000E+03  0.12500000000E+03 0.  0.
        -11    1    3    3    0    0  0.94136416591E+01  0.49840055763E+02  0.22869905916E+02  0.55638838994E+02  0.51100000000E-03 0. -1.
         23    2    1    0    0    0  0.42135776794E+01  0.42389045584E+02 -0.22410755122E+01  0.82343138397E+02  0.70432837506E+02 0.  0.
         11    1    3    3    0    0 -0.52000639797E+01 -0.74510101784E+01 -0.25110981428E+02  0.26704299403E+02  0.51100000000E-03 0.  1.
         22    1    1    0    0    0 -0.42135776794E+01 -0.42389045584E+02  0.22410755122E+01  0.42656861603E+02  0.00000000000E+00 0. -1.
</event>
<event>
 5    1  0.8957809E-005  0.9118800E+02  0.7818608E-02  0.1130116E+00
         25   -1    0    0    0    0  0.00000000000E+00  0.00000000000E+00  0.99999998245E-14  0.12500000000E+03  0.12500000000E+03 0.  0.
        -11    1    3    3    0    0  0.29111800584E+02 -0.16065567569E+02 -0.82782435778E+01  0.34265561597E+02  0.51100000000E-03 0.  1.
         23    2    1    0    0    0 -0.21211975905E+02 -0.13598313986E+02  0.20701889326E+02  0.92389721150E+02  0.86443220020E+02 0.  0.
         11    1    3    3    0    0 -0.50323776489E+02  0.24672535827E+01  0.28980132903E+02  0.58124159553E+02  0.51100000000E-03 0. -1.
         22    1    1    0    0    0  0.21211975905E+02  0.13598313986E+02 -0.20701889326E+02  0.32610278850E+02  0.00000000000E+00 0. -1.
</event>
<event>
 5    1  0.8957809E-005  0.9118800E+02  0.7818608E-02  0.1130116E+00
         25   -1    0    0    0    0  0.00000000000E+00  0.00000000000E+00  0.99999998245E-14  0.12500000000E+03  0.12500000000E+03 0.  0.
        -11    1    3    3    0    0  0.21379993129E+02  0.27085702171E+02  0.38127097183E+02  0.51423874885E+02  0.51100000000E-03 0.  1.
         23    2    1    0    0    0  0.34537428848E+01  0.26525375446E+02 -0.46874161342E+01  0.97843126976E+02  0.93998839056E+02 0.  0.
         11    1    3    3    0    0 -0.17926250244E+02 -0.56032672540E+00 -0.42814513317E+02  0.46419252091E+02  0.51100000000E-03 0. -1.
         22    1    1    0    0    0 -0.34537428848E+01 -0.26525375446E+02  0.46874161342E+01  0.27156873024E+02  0.00000000000E+00 0.  1.
</event>
<event>
 5    1  0.8957809E-005  0.9118800E+02  0.7818608E-02  0.1130116E+00
         25   -1    0    0    0    0  0.00000000000E+00  0.00000000000E+00  0.99999998245E-14  0.12500000000E+03  0.12500000000E+03 0.  0.
        -11    1    3    3    0    0  0.36035007231E+02 -0.32008585980E+02  0.35124982107E+02  0.59639212695E+02  0.51100000000E-03 0.  1.
         23    2    1    0    0    0  0.55593206563E+01 -0.21372727377E+02  0.19667873878E+02  0.95427634782E+02  0.90729866613E+02 0.  0.
         11    1    3    3    0    0 -0.30475686575E+02  0.10635858603E+02 -0.15457108229E+02  0.35788422087E+02  0.51100000000E-03 0. -1.
         22    1    1    0    0    0 -0.55593206563E+01  0.21372727377E+02 -0.19667873878E+02  0.29572365218E+02  0.00000000000E+00 0.  1.
</event>
<event>
 5    1  0.8957809E-005  0.9118800E+02  0.7818608E-02  0.1130116E+00
         25   -1    0    0    0    0  0.00000000000E+00  0.00000000000E+00  0.99999998245E-14  0.12500000000E+03  0.12500000000E+03 0.  0.
        -11    1    3    3    0    0  0.29771309791E+02  0.41336118525E+02  0.92950660490E+01  0.51782273361E+02  0.51100000000E-03 0. -1.
         23    2    1    0    0    0  0.49012395780E+01  0.76306498009E+01  0.26443709452E+02  0.97044343410E+02  0.92930543163E+02 0.  0.
         11    1    3    3    0    0 -0.24870070213E+02 -0.33705468724E+02  0.17148643403E+02  0.45262070049E+02  0.51100000000E-03 0.  1.
         22    1    1    0    0    0 -0.49012395780E+01 -0.76306498009E+01 -0.26443709452E+02  0.27955656590E+02  0.00000000000E+00 0. -1.
</event>
<event>
 5    1  0.8957809E-005  0.9118800E+02  0.7818608E-02  0.1130116E+00
         25   -1    0    0    0    0  0.00000000000E+00  0.00000000000E+00  0.99999998245E-14  0.12500000000E+03  0.12500000000E+03 0.  0.
        -11    1    3    3    0    0  0.14191142985E+02  0.45136240718E+02  0.69335272806E+01  0.47819897179E+02  0.51100000000E-03 0.  1.
         23    2    1    0    0    0  0.27238050577E+02  0.93821743392E+00 -0.85518692677E+01  0.96435579488E+02  0.92108060842E+02 0.  0.
         11    1    3    3    0    0  0.13046907592E+02 -0.44198023284E+02 -0.15485396548E+02  0.48615682310E+02  0.51100000000E-03 0. -1.
         22    1    1    0    0    0 -0.27238050577E+02 -0.93821743392E+00  0.85518692677E+01  0.28564420512E+02  0.00000000000E+00 0. -1.
</event>
<event>
 5    1  0.8957809E-005  0.9118800E+02  0.7818608E-02  0.1130116E+00
         25   -1    0    0    0    0  0.00000000000E+00  0.00000000000E+00  0.99999998245E-14  0.12500000000E+03  0.12500000000E+03 0.  0.
        -11    1    3    3    0    0  0.24559102411E+02  0.55218850422E+01  0.53257147805E+02  0.58906404730E+02  0.51100000000E-03 0.  1.
         23    2    1    0    0    0  0.22532710930E+02  0.73571748826E+01  0.15687132427E+02  0.96575763724E+02  0.92298109032E+02 0.  0.
         11    1    3    3    0    0 -0.20263914805E+01  0.18352898404E+01 -0.37570015378E+02  0.37669358994E+02  0.51100000000E-03 0. -1.
         22    1    1    0    0    0 -0.22532710930E+02 -0.73571748826E+01 -0.15687132427E+02  0.28424236276E+02  0.00000000000E+00 0.  1.
</event>
<event>
 5    1  0.8957809E-005  0.9118800E+02  0.7818608E-02  0.1130116E+00
         25   -1    0    0    0    0  0.00000000000E+00  0.00000000000E+00  0.99999998245E-14  0.12500000000E+03  0.12500000000E+03 0.  0.
        -11    1    3    3    0    0 -0.37257704273E+02  0.38318040574E+02  0.26600793423E+02  0.59699338121E+02  0.51100000000E-03 0.  1.
         23    2    1    0    0    0 -0.18684620896E+02  0.18604905145E+02 -0.13210845396E+01  0.98599189069E+02  0.94998932979E+02 0.  0.
         11    1    3    3    0    0  0.18573083377E+02 -0.19713135429E+02 -0.27921877962E+02  0.38899850948E+02  0.51100000000E-03 0. -1.
         22    1    1    0    0    0  0.18684620896E+02 -0.18604905145E+02  0.13210845396E+01  0.26400810931E+02  0.00000000000E+00 0.  1.
</event>
<event>
 5    1  0.8957809E-005  0.9118800E+02  0.7818608E-02  0.1130116E+00
         25   -1    0    0    0    0  0.00000000000E+00  0.00000000000E+00  0.99999998245E-14  0.12500000000E+03  0.12500000000E+03 0.  0.
        -11    1    3    3    0    0  0.17630381663E+01 -0.21711953201E+02  0.53697080643E+02  0.57947335446E+02  0.51100000000E-03 0.  1.
         23    2    1    0    0    0  0.27679425281E+01  0.50052855997E+01  0.32316936976E+02  0.92180816505E+02  0.86140606720E+02 0.  0.
         11    1    3    3    0    0  0.10049043618E+01  0.26717238801E+02 -0.21380143667E+02  0.34233481059E+02  0.51100000000E-03 0. -1.
         22    1    1    0    0    0 -0.27679425281E+01 -0.50052855997E+01 -0.32316936976E+02  0.32819183495E+02  0.00000000000E+00 0.  1.
</event>
<event>
 5    1  0.8957809E-005  0.9118800E+02  0.7818608E-02  0.1130116E+00
         25   -1    0    0    0    0  0.00000000000E+00  0.00000000000E+00  0.99999998245E-14  0.12500000000E+03  0.12500000000E+03 0.  0.
        -11    1    3    3    0    0  0.37568345585E+01 -0.18727603216E+02 -0.41097364036E+02  0.45319204087E+02  0.51100000000E-03 0. -1.
         23    2    1    0    0    0 -0.20814851347E+02 -0.19858664544E+02  0.32672741091E+01  0.96046594774E+02  0.91578647585E+02 0.  0.
         11    1    3    3    0    0 -0.24571685906E+02 -0.11310613278E+01  0.44364638145E+02  0.50727390687E+02  0.51100000000E-03 0.  1.
         22    1    1    0    0    0  0.20814851347E+02  0.19858664544E+02 -0.32672741091E+01  0.28953405226E+02  0.00000000000E+00 0. -1.
</event>
<event>
 5    1  0.8957809E-005  0.9118800E+02  0.7818608E-02  0.1130116E+00
         25   -1    0    0    0    0  0.00000000000E+00  0.00000000000E+00  0.99999998245E-14  0.12500000000E+03  0.12500000000E+03 0.  0.
        -11    1    3    3    0    0  0.73194547448E+01 -0.19682434367E+02 -0.47482139238E+02  0.51918457096E+02  0.51100000000E-03 0.  1.
         23    2    1    0    0    0  0.19583888786E+02 -0.20700735927E+02 -0.51005760570E+01  0.96050646916E+02  0.91584178377E+02 0.  0.
         11    1    3    3    0    0  0.12264434041E+02 -0.10183015595E+01  0.42381563181E+02  0.44132189820E+02  0.51100000000E-03 0. -1.
         22    1    1    0    0    0 -0.19583888786E+02  0.20700735927E+02  0.51005760570E+01  0.28949353084E+02  0.00000000000E+00 0.  1.
</event>
<event>
 5    1  0.8957809E-005  0.9118800E+02  0.7818608E-02  0.1130116E+00
         25   -1    0    0    0    0  0.00000000000E+00  0.00000000000E+00  0.99999998245E-14  0.12500000000E+03  0.12500000000E+03 0.  0.
        -11    1    3    3    0    0  0.16682570522E+02  0.71293084421E+01  0.45489618314E+02  0.48973876431E+02  0.51100000000E-03 0.  1.
         23    2    1    0    0    0  0.23560566632E+02  0.17940616678E+02  0.89505717393E+00  0.95372864564E+02  0.90654377396E+02 0.  0.
         11    1    3    3    0    0  0.68779961096E+01  0.10811308236E+02 -0.44594561140E+02  0.46398988133E+02  0.51100000000E-03 0. -1.
         22    1    1    0    0    0 -0.23560566632E+02 -0.17940616678E+02 -0.89505717393E+00  0.29627135436E+02  0.00000000000E+00 0. -1.
</event>
<event>
 5    1  0.8957809E-005  0.9118800E+02  0.7818608E-02  0.1130116E+00
         25   -1    0    0    0    0  0.00000000000E+00  0.00000000000E+00  0.99999998245E-14  0.12500000000E+03  0.12500000000E+03 0.  0.
        -11    1    3    3    0    0 -0.29920103167E+02  0.22137382172E+01 -0.13654504112E+02  0.32962989750E+02  0.51100000000E-03 0.  1.
         23    2    1    0    0    0  0.84812952079E+01  0.33008490358E+02  0.12494386869E+02  0.88701205153E+02  0.80933931625E+02 0.  0.
         11    1    3    3    0    0  0.38401398375E+02  0.30794752141E+02  0.26148890981E+02  0.55738215403E+02  0.51100000000E-03 0. -1.
         22    1    1    0    0    0 -0.84812952079E+01 -0.33008490358E+02 -0.12494386869E+02  0.36298794847E+02  0.00000000000E+00 0. -1.
</event>
<event>
 5    1  0.8957809E-005  0.9118800E+02  0.7818608E-02  0.1130116E+00
         25   -1    0    0    0    0  0.00000000000E+00  0.00000000000E+00  0.99999998245E-14  0.12500000000E+03  0.12500000000E+03 0.  0.
        -11    1    3    3    0    0  0.30112309994E+02 -0.46177512969E+02  0.24354727213E+02  0.60268288967E+02  0.51100000000E-03 0.  1.
         23    2    1    0    0    0  0.32228081127E+01 -0.24138472420E+02  0.15457001640E+02  0.96156088292E+02  0.91727978682E+02 0.  0.
         11    1    3    3    0    0 -0.26889501881E+02  0.22039040549E+02 -0.88977255733E+01  0.35887799325E+02  0.51100000000E-03 0. -1.
         22    1    1    0    0    0 -0.32228081127E+01  0.24138472420E+02 -0.15457001640E+02  0.28843911708E+02  0.00000000000E+00 0.  1.
</event>
<event>
 5    1  0.8957809E-005  0.9118800E+02  0.7818608E-02  0.1130116E+00
         25   -1    0    0    0    0  0.00000000000E+00  0.00000000000E+00  0.99999998245E-14  0.12500000000E+03  0.12500000000E+03 0.  0.
        -11    1    3    3    0    0 -0.18899007957E+02  0.56102631523E+02  0.10833656888E+01  0.59210230933E+02  0.51100000000E-03 0.  1.
         23    2    1    0    0    0  0.53241601746E+01  0.28696967111E+02  0.12406258936E+01  0.95786959152E+02  0.91223570354E+02 0.  0.
         11    1    3    3    0    0  0.24223168132E+02 -0.27405664412E+02  0.15726020486E+00  0.36576728220E+02  0.51100000000E-03 0. -1.
         22    1    1    0    0    0 -0.53241601746E+01 -0.28696967111E+02 -0.12406258936E+01  0.29213040848E+02  0.00000000000E+00 0.  1.
</event>
<event>
 5    1  0.8957809E-005  0.9118800E+02  0.7818608E-02  0.1130116E+00
         25   -1    0    0    0    0  0.00000000000E+00  0.00000000000E+00  0.99999998245E-14  0.12500000000E+03  0.12500000000E+03 0.  0.
        -11    1    3    3    0    0 -0.37597917815E+02 -0.64954373604E+01 -0.10615419986E+02  0.39604056260E+02  0.51100000000E-03 0.  1.
         23    2    1    0    0    0  0.11153457305E+02  0.98668667632E+01  0.20464789084E+02  0.99690668483E+02  0.96424411436E+02 0.  0.
         11    1    3    3    0    0  0.48751375120E+02  0.16362304124E+02  0.31080209069E+02  0.60086612223E+02  0.51100000000E-03 0. -1.
         22    1    1    0    0    0 -0.11153457305E+02 -0.98668667632E+01 -0.20464789084E+02  0.25309331517E+02  0.00000000000E+00 0. -1.
</event>
<event>
 5    1  0.8957809E-005  0.9118800E+02  0.7818608E-02  0.1130116E+00
         25   -1    0    0    0    0  0.00000000000E+00  0.00000000000E+00  0.99999998245E-14  0.12500000000E+03  0.12500000000E+03 0.  0.
        -11    1    3    3    0    0  0.23124949635E+02  0.29833926314E+02 -0.15577480029E+01  0.37779002555E+02  0.51100000000E-03 0.  1.
         23    2    1    0    0    0  0.40510840942E+01 -0.21519926271E+02 -0.19759094639E+02  0.95505249111E+02  0.90836734188E+02 0.  0.
         11    1    3    3    0    0 -0.19073865541E+02 -0.51353852584E+02 -0.18201346636E+02  0.57726246557E+02  0.51100000000E-03 0. -1.
         22    1    1    0    0    0 -0.40510840942E+01  0.21519926271E+02  0.19759094639E+02  0.29494750889E+02  0.00000000000E+00 0. -1.
</event>
<event>
 5    1  0.8957809E-005  0.9118800E+02  0.7818608E-02  0.1130116E+00
         25   -1    0    0    0    0  0.00000000000E+00  0.00000000000E+00  0.99999998245E-14  0.12500000000E+03  0.12500000000E+03 0.  0.
        -11    1    3    3    0    0  0.72820600959E+01  0.31989981749E+02  0.23007935980E+02  0.40071841109E+02  0.51100000000E-03 0.  1.
         23    2    1    0    0    0 -0.26106349072E+02 -0.10081988476E+02  0.63940301079E+01  0.96293353130E+02  0.91914842558E+02 0.  0.
         11    1    3    3    0    0 -0.33388409168E+02 -0.42071970225E+02 -0.16613905872E+02  0.56221512021E+02  0.51100000000E-03 0. -1.
         22    1    1    0    0    0  0.26106349072E+02  0.10081988476E+02 -0.63940301079E+01  0.28706646870E+02  0.00000000000E+00 0. -1.
</event>
<event>
 5    1  0.8957809E-005  0.9118800E+02  0.7818608E-02  0.1130116E+00
         25   -1    0    0    0    0  0.00000000000E+00  0.00000000000E+00  0.99999998245E-14  0.12500000000E+03  0.12500000000E+03 0.  0.
        -11    1    3    3    0    0  0.25611836789E+02  0.11560432925E+02 -0.30630071739E+02  0.41566947063E+02  0.51100000000E-03 0. -1.
         23    2    1    0    0    0 -0.78961261800E+01  0.24069884787E+02  0.11794633138E+02  0.97056815980E+02  0.92947318385E+02 0.  0.
         11    1    3    3    0    0 -0.33507962969E+02  0.12509451862E+02  0.42424704877E+02  0.55489868917E+02  0.51100000000E-03 0.  1.
         22    1    1    0    0    0  0.78961261800E+01 -0.24069884787E+02 -0.11794633138E+02  0.27943184020E+02  0.00000000000E+00 0.  1.
</event>
<event>
 5    1  0.8957809E-005  0.9118800E+02  0.7818608E-02  0.1130116E+00
         25   -1    0    0    0    0  0.00000000000E+00  0.00000000000E+00  0.99999998245E-14  0.12500000000E+03  0.12500000000E+03 0.  0.
        -11    1    3    3    0    0  0.12513118486E+02 -0.36615226425E+02  0.31067928599E+02  0.49623272041E+02  0.51100000000E-03 0.  1.
         23    2    1    0    0    0 -0.17521686291E+02 -0.27417250039E+01  0.23556784211E+02  0.95513585690E+02  0.90848205390E+02 0.  0.
         11    1    3    3    0    0 -0.30034804777E+02  0.33873501421E+02 -0.75111443878E+01  0.45890313649E+02  0.51100000000E-03 0. -1.
         22    1    1    0    0    0  0.17521686291E+02  0.27417250039E+01 -0.23556784211E+02  0.29486414310E+02  0.00000000000E+00 0.  1.
</event>
<event>
 5    1  0.8957809E-005  0.9118800E+02  0.7818608E-02  0.1130116E+00
         25   -1    0    0    0    0  0.00000000000E+00  0.00000000000E+00  0.99999998245E-14  0.12500000000E+03  0.12500000000E+03 0.  0.
        -11    1    3    3    0    0  0.23427154585E+02 -0.17491493149E-01  0.47744449848E+02  0.53182368972E+02  0.51100000000E-03 0.  1.
         23    2    1    0    0    0 -0.11497701582E+02 -0.86774912740E+01  0.26143552231E+02  0.95150689795E+02  0.90347509366E+02 0.  0.
         11    1    3    3    0    0 -0.34924856167E+02 -0.86599997809E+01 -0.21600897617E+02  0.41968320822E+02  0.51100000000E-03 0. -1.
         22    1    1    0    0    0  0.11497701582E+02  0.86774912740E+01 -0.26143552231E+02  0.29849310205E+02  0.00000000000E+00 0.  1.
</event>
<event>
 5    1  0.8957809E-005  0.9118800E+02  0.7818608E-02  0.1130116E+00
         25   -1    0    0    0    0  0.00000000000E+00  0.00000000000E+00  0.99999998245E-14  0.12500000000E+03  0.12500000000E+03 0.  0.
        -11    1    3    3    0    0  0.92174484306E+01 -0.39970881664E+02  0.85213735618E+00  0.41028756682E+02  0.51100000000E-03 0. -1.
         23    2    1    0    0    0 -0.26672034934E+02 -0.26540374668E+01 -0.13821509059E+02  0.94842488911E+02  0.89920088010E+02 0.  0.
         11    1    3    3    0    0 -0.35889483365E+02  0.37316844197E+02 -0.14673646415E+02  0.53813732229E+02  0.51100000000E-03 0.  1.
         22    1    1    0    0    0  0.26672034934E+02  0.26540374668E+01  0.13821509059E+02  0.30157511089E+02  0.00000000000E+00 0.  1.
</event>
<event>
 5    1  0.8957809E-005  0.9118800E+02  0.7818608E-02  0.1130116E+00
         25   -1    0    0    0    0  0.00000000000E+00  0.00000000000E+00  0.99999998245E-14  0.12500000000E+03  0.12500000000E+03 0.  0.
        -11    1    3    3    0    0  0.88098237715E+01  0.33896074856E+02 -0.24879529361E+02  0.42959840166E+02  0.51100000000E-03 0.  1.
         23    2    1    0    0    0 -0.17438604961E+02  0.15756624428E+02  0.17277638418E+02  0.95829930654E+02  0.91282433488E+02 0.  0.
         11    1    3    3    0    0 -0.26248428733E+02 -0.18139450428E+02  0.42157167779E+02  0.52870090488E+02  0.51100000000E-03 0. -1.
         22    1    1    0    0    0  0.17438604961E+02 -0.15756624428E+02 -0.17277638418E+02  0.29170069346E+02  0.00000000000E+00 0. -1.
</event>
<event>
 5    1  0.8957809E-005  0.9118800E+02  0.7818608E-02  0.1130116E+00
         25   -1    0    0    0    0  0.00000000000E+00  0.00000000000E+00  0.99999998245E-14  0.12500000000E+03  0.12500000000E+03 0.  0.
        -11    1    3    3    0    0  0.27615749491E+02  0.45888434040E+02 -0.31471496689E+02  0.62119506619E+02  0.51100000000E-03 0. -1.
         23    2    1    0    0    0  0.95579141482E+01  0.20895543728E+02 -0.18196928854E+02  0.95689495223E+02  0.91089921537E+02 0.  0.
         11    1    3    3    0    0 -0.18057835342E+02 -0.24992890312E+02  0.13274567834E+02  0.33569988603E+02  0.51100000000E-03 0.  1.
         22    1    1    0    0    0 -0.95579141482E+01 -0.20895543728E+02  0.18196928854E+02  0.29310504777E+02  0.00000000000E+00 0. -1.
</event>
<event>
 5    1  0.8957809E-005  0.9118800E+02  0.7818608E-02  0.1130116E+00
         25   -1    0    0    0    0  0.00000000000E+00  0.00000000000E+00  0.99999998245E-14  0.12500000000E+03  0.12500000000E+03 0.  0.
        -11    1    3    3    0    0 -0.31841911581E+02 -0.11822687680E+02  0.16911415570E+02  0.37943105486E+02  0.51100000000E-03 0.  1.
         23    2    1    0    0    0  0.19712603224E+02 -0.10265791021E+02 -0.14621203404E+02  0.98396376560E+02  0.94731695541E+02 0.  0.
         11    1    3    3    0    0  0.51554514805E+02  0.15568966587E+01 -0.31532618973E+02  0.60453271074E+02  0.51100000000E-03 0. -1.
         22    1    1    0    0    0 -0.19712603224E+02  0.10265791021E+02  0.14621203404E+02  0.26603623440E+02  0.00000000000E+00 0. -1.
</event>
<event>
 5    1  0.8957809E-005  0.9118800E+02  0.7818608E-02  0.1130116E+00
         25   -1    0    0    0    0  0.00000000000E+00  0.00000000000E+00  0.99999998245E-14  0.12500000000E+03  0.12500000000E+03 0.  0.
        -11    1    3    3    0    0 -0.52351785590E+02  0.60838154850E+01  0.31133001988E+02  0.61212630056E+02  0.51100000000E-03 0. -1.
         23    2    1    0    0    0 -0.26579100542E+02 -0.52893284314E+01  0.11440060223E+02  0.95584008452E+02  0.90945049964E+02 0.  0.
         11    1    3    3    0    0  0.25772685049E+02 -0.11373143916E+02 -0.19692941766E+02  0.34371378396E+02  0.51100000000E-03 0.  1.
         22    1    1    0    0    0  0.26579100542E+02  0.52893284314E+01 -0.11440060223E+02  0.29415991548E+02  0.00000000000E+00 0. -1.
</event>
<event>
 5    1  0.8957809E-005  0.9118800E+02  0.7818608E-02  0.1130116E+00
         25   -1    0    0    0    0  0.00000000000E+00  0.00000000000E+00  0.99999998245E-14  0.12500000000E+03  0.12500000000E+03 0.  0.
        -11    1    3    3    0    0  0.14154749219E+02  0.35548163011E+02  0.21843824323E+02  0.44058841113E+02  0.51100000000E-03 0. -1.
         23    2    1    0    0    0  0.58817004388E+01  0.22114083115E+01 -0.23347415597E+02  0.10082177546E+03  0.97879741854E+02 0.  0.
         11    1    3    3    0    0 -0.82730487798E+01 -0.33336754700E+02 -0.45191239921E+02  0.56762934348E+02  0.51100000000E-03 0.  1.
         22    1    1    0    0    0 -0.58817004388E+01 -0.22114083115E+01  0.23347415597E+02  0.24178224539E+02  0.00000000000E+00 0.  1.
</event>
<event>
 5    1  0.8957809E-005  0.9118800E+02  0.7818608E-02  0.1130116E+00
         25   -1    0    0    0    0  0.00000000000E+00  0.00000000000E+00  0.99999998245E-14  0.12500000000E+03  0.12500000000E+03 0.  0.
        -11    1    3    3    0    0  0.36202945214E+02 -0.27899612026E+02 -0.20315463537E+02  0.50017593428E+02  0.51100000000E-03 0.  1.
         23    2    1    0    0    0 -0.11115542054E+02 -0.20943987823E+02 -0.20986335017E+01  0.10119642540E+03  0.98357035083E+02 0.  0.
         11    1    3    3    0    0 -0.47318487268E+02  0.69556242026E+01  0.18216830036E+02  0.51178831974E+02  0.51100000000E-03 0. -1.
         22    1    1    0    0    0  0.11115542054E+02  0.20943987823E+02  0.20986335017E+01  0.23803574599E+02  0.00000000000E+00 0. -1.
</event>
<event>
 5    1  0.8957809E-005  0.9118800E+02  0.7818608E-02  0.1130116E+00
         25   -1    0    0    0    0  0.00000000000E+00  0.00000000000E+00  0.99999998245E-14  0.12500000000E+03  0.12500000000E+03 0.  0.
        -11    1    3    3    0    0 -0.15822584959E+02  0.37545696398E+02  0.54267610824E+00  0.40747122725E+02  0.51100000000E-03 0. -1.
         23    2    1    0    0    0 -0.14640024597E+02 -0.18554363066E+02 -0.12366702511E+02  0.98325479574E+02  0.94638099587E+02 0.  0.
         11    1    3    3    0    0  0.11825603617E+01 -0.56100059463E+02 -0.12909378619E+02  0.57578356849E+02  0.51100000000E-03 0.  1.
         22    1    1    0    0    0  0.14640024597E+02  0.18554363066E+02  0.12366702511E+02  0.26674520426E+02  0.00000000000E+00 0.  1.
</event>
<event>
 5    1  0.8957809E-005  0.9118800E+02  0.7818608E-02  0.1130116E+00
         25   -1    0    0    0    0  0.00000000000E+00  0.00000000000E+00  0.99999998245E-14  0.12500000000E+03  0.12500000000E+03 0.  0.
        -11    1    3    3    0    0 -0.37166920792E+01  0.40782078526E+01 -0.51225035420E+02  0.51521353178E+02  0.51100000000E-03 0.  1.
         23    2    1    0    0    0  0.23051410446E+02  0.66164961645E+01 -0.14717712556E+02  0.96861830053E+02  0.92684721035E+02 0.  0.
         11    1    3    3    0    0  0.26768102525E+02  0.25382883119E+01  0.36507322863E+02  0.45340476875E+02  0.51100000000E-03 0. -1.
         22    1    1    0    0    0 -0.23051410446E+02 -0.66164961645E+01  0.14717712556E+02  0.28138169947E+02  0.00000000000E+00 0.  1.
</event>
<event>
 5    1  0.8957809E-005  0.9118800E+02  0.7818608E-02  0.1130116E+00
         25   -1    0    0    0    0  0.00000000000E+00  0.00000000000E+00  0.99999998245E-14  0.12500000000E+03  0.12500000000E+03 0.  0.
        -11    1    3    3    0    0 -0.87422673228E+00 -0.61100741525E+02 -0.31454477669E+01  0.61187896918E+02  0.51100000000E-03 0. -1.
         23    2    1    0    0    0  0.44352368943E+01 -0.27957082493E+02  0.61821950077E+01  0.96026057863E+02  0.91550611498E+02 0.  0.
         11    1    3    3    0    0  0.53094636266E+01  0.33143659032E+02  0.93276427746E+01  0.34838160945E+02  0.51100000000E-03 0.  1.
         22    1    1    0    0    0 -0.44352368943E+01  0.27957082493E+02 -0.61821950077E+01  0.28973942137E+02  0.00000000000E+00 0. -1.
</event>
<event>
 5    1  0.8957809E-005  0.9118800E+02  0.7818608E-02  0.1130116E+00
         25   -1    0    0    0    0  0.00000000000E+00  0.00000000000E+00  0.99999998245E-14  0.12500000000E+03  0.12500000000E+03 0.  0.
        -11    1    3    3    0    0 -0.45304475122E+02 -0.60642530983E+01 -0.88098604235E+00  0.45717029304E+02  0.51100000000E-03 0. -1.
         23    2    1    0    0    0  0.42115078887E+00 -0.27688071387E+02 -0.63418219334E+01  0.96591808038E+02  0.92319835407E+02 0.  0.
         11    1    3    3    0    0  0.45725625911E+02 -0.21623818288E+02 -0.54608358911E+01  0.50874778734E+02  0.51100000000E-03 0.  1.
         22    1    1    0    0    0 -0.42115078887E+00  0.27688071387E+02  0.63418219334E+01  0.28408191962E+02  0.00000000000E+00 0. -1.
</event>
<event>
 5    1  0.8957809E-005  0.9118800E+02  0.7818608E-02  0.1130116E+00
         25   -1    0    0    0    0  0.00000000000E+00  0.00000000000E+00  0.99999998245E-14  0.12500000000E+03  0.12500000000E+03 0.  0.
        -11    1    3    3    0    0 -0.13384655225E+02  0.22414569311E+02  0.25502188806E+02  0.36495527768E+02  0.51100000000E-03 0.  1.
         23    2    1    0    0    0  0.43916230739E+01 -0.29485764438E+02  0.71553775992E+01  0.94342275258E+02  0.89222019785E+02 0.  0.
         11    1    3    3    0    0  0.17776278299E+02 -0.51900333750E+02 -0.18346811207E+02  0.57846747490E+02  0.51100000000E-03 0. -1.
         22    1    1    0    0    0 -0.43916230739E+01  0.29485764438E+02 -0.71553775992E+01  0.30657724742E+02  0.00000000000E+00 0. -1.
</event>
<event>
 5    1  0.8957809E-005  0.9118800E+02  0.7818608E-02  0.1130116E+00
         25   -1    0    0    0    0  0.00000000000E+00  0.00000000000E+00  0.99999998245E-14  0.12500000000E+03  0.12500000000E+03 0.  0.
        -11    1    3    3    0    0 -0.44657313374E+02  0.10255504684E+02  0.36949559099E+02  0.58861880126E+02  0.51100000000E-03 0.  1.
         23    2    1    0    0    0 -0.24133201775E+02  0.15825017734E+02  0.75088421223E+01  0.95180118642E+02  0.90388216381E+02 0.  0.
         11    1    3    3    0    0  0.20524111599E+02  0.55695130500E+01 -0.29440716977E+02  0.36318238516E+02  0.51100000000E-03 0. -1.
         22    1    1    0    0    0  0.24133201775E+02 -0.15825017734E+02 -0.75088421223E+01  0.29819881358E+02  0.00000000000E+00 0.  1.
</event>
<event>
 5    1  0.8957809E-005  0.9118800E+02  0.7818608E-02  0.1130116E+00
         25   -1    0    0    0    0  0.00000000000E+00  0.00000000000E+00  0.99999998245E-14  0.12500000000E+03  0.12500000000E+03 0.  0.
        -11    1    3    3    0    0  0.27706140227E+02  0.16197414937E+02 -0.26544772097E+02  0.41648666040E+02  0.51100000000E-03 0.  1.
         23    2    1    0    0    0 -0.21546122134E+02 -0.33480657486E+01 -0.20657912870E+02  0.94963450807E+02  0.90088083017E+02 0.  0.
         11    1    3    3    0    0 -0.49252262362E+02 -0.19545480686E+02  0.58868592266E+01  0.53314784767E+02  0.51100000000E-03 0. -1.
         22    1    1    0    0    0  0.21546122134E+02  0.33480657486E+01  0.20657912870E+02  0.30036549193E+02  0.00000000000E+00 0. -1.
</event>
<event>
 5    1  0.8957809E-005  0.9118800E+02  0.7818608E-02  0.1130116E+00
         25   -1    0    0    0    0  0.00000000000E+00  0.00000000000E+00  0.99999998245E-14  0.12500000000E+03  0.12500000000E+03 0.  0.
        -11    1    3    3    0    0 -0.14931499481E+02  0.11322145529E+02 -0.56297294520E+02  0.59334020820E+02  0.51100000000E-03 0. -1.
         23    2    1    0    0    0 -0.16278238654E+02  0.19343699162E+02 -0.37992641814E+02  0.79364481126E+02  0.64931658545E+02 0.  0.
         11    1    3    3    0    0 -0.13467391733E+01  0.80215536328E+01  0.18304652706E+02  0.20030460305E+02  0.51100000000E-03 0.  1.
         22    1    1    0    0    0  0.16278238654E+02 -0.19343699162E+02  0.37992641814E+02  0.45635518874E+02  0.00000000000E+00 0. -1.
</event>
<event>
 5    1  0.8957809E-005  0.9118800E+02  0.7818608E-02  0.1130116E+00
         25   -1    0    0    0    0  0.00000000000E+00  0.00000000000E+00  0.99999998245E-14  0.12500000000E+03  0.12500000000E+03 0.  0.
        -11    1    3    3    0    0 -0.14017338517E+02  0.34142803046E+02 -0.41062230059E+02  0.55211624832E+02  0.51100000000E-03 0.  1.
         23    2    1    0    0    0  0.66140037071E+01  0.23017319745E+01 -0.29212422135E+02  0.94959883121E+02  0.90083132607E+02 0.  0.
         11    1    3    3    0    0  0.20631342224E+02 -0.31841071071E+02  0.11849807924E+02  0.39748258289E+02  0.51100000000E-03 0. -1.
         22    1    1    0    0    0 -0.66140037071E+01 -0.23017319745E+01  0.29212422135E+02  0.30040116879E+02  0.00000000000E+00 0.  1.
</event>
<event>
 5    1  0.8957809E-005  0.9118800E+02  0.7818608E-02  0.1130116E+00
         25   -1    0    0    0    0  0.00000000000E+00  0.00000000000E+00  0.99999998245E-14  0.12500000000E+03  0.12500000000E+03 0.  0.
        -11    1    3    3    0    0 -0.15663787441E+02  0.32801838002E+02  0.44186677019E+01  0.36617474488E+02  0.51100000000E-03 0.  1.
         23    2    1    0    0    0 -0.12673011348E+02 -0.26085749433E+02  0.49273947761E+01  0.95583155176E+02  0.90943877167E+02 0.  0.
         11    1    3    3    0    0  0.29907760933E+01 -0.58887587435E+02  0.50872707424E+00  0.58965680689E+02  0.51100000000E-03 0. -1.
         22    1    1    0    0    0  0.12673011348E+02  0.26085749433E+02 -0.49273947761E+01  0.29416844824E+02  0.00000000000E+00 0. -1.
</event>
<event>
 5    1  0.8957809E-005  0.9118800E+02  0.7818608E-02  0.1130116E+00
         25   -1    0    0    0    0  0.00000000000E+00  0.00000000000E+00  0.99999998245E-14  0.12500000000E+03  0.12500000000E+03 0.  0.
        -11    1    3    3    0    0 -0.44742839346E+02  0.44677126310E+01 -0.32598390360E+02  0.55538609842E+02  0.51100000000E-03 0.  1.
         23    2    1    0    0    0 -0.71415913628E+01  0.17538233056E+02 -0.20381311986E+02  0.97179327395E+02  0.93111931828E+02 0.  0.
         11    1    3    3    0    0  0.37601247983E+02  0.13070520425E+02  0.12217078374E+02  0.41640717553E+02  0.51100000000E-03 0. -1.
         22    1    1    0    0    0  0.71415913628E+01 -0.17538233056E+02  0.20381311986E+02  0.27820672605E+02  0.00000000000E+00 0.  1.
</event>
<event>
 5    1  0.8957809E-005  0.9118800E+02  0.7818608E-02  0.1130116E+00
         25   -1    0    0    0    0  0.00000000000E+00  0.00000000000E+00  0.99999998245E-14  0.12500000000E+03  0.12500000000E+03 0.  0.
        -11    1    3    3    0    0 -0.50371960858E+02  0.16305960363E+02  0.11094592699E+02  0.54095367376E+02  0.51100000000E-03 0.  1.
         23    2    1    0    0    0 -0.10588784778E+02  0.17602582088E+02  0.21527501127E+02  0.95244217973E+02  0.90476817436E+02 0.  0.
         11    1    3    3    0    0  0.39783176081E+02  0.12966217246E+01  0.10432908428E+02  0.41148850598E+02  0.51100000000E-03 0. -1.
         22    1    1    0    0    0  0.10588784778E+02 -0.17602582088E+02 -0.21527501127E+02  0.29755782027E+02  0.00000000000E+00 0.  1.
</event>
<event>
 5    1  0.8957809E-005  0.9118800E+02  0.7818608E-02  0.1130116E+00
         25   -1    0    0    0    0  0.00000000000E+00  0.00000000000E+00  0.99999998245E-14  0.12500000000E+03  0.12500000000E+03 0.  0.
        -11    1    3    3    0    0  0.11080877250E+01 -0.55636359974E+02  0.28160417062E+02  0.62366990459E+02  0.51100000000E-03 0.  1.
         23    2    1    0    0    0  0.14558610866E+01 -0.25330354533E+02  0.15877696418E+02  0.95069286079E+02  0.90234813237E+02 0.  0.
         11    1    3    3    0    0  0.34777336158E+00  0.30306005442E+02 -0.12282720644E+02  0.32702295620E+02  0.51100000000E-03 0. -1.
         22    1    1    0    0    0 -0.14558610866E+01  0.25330354533E+02 -0.15877696418E+02  0.29930713921E+02  0.00000000000E+00 0.  1.
</event>
<event>
 5    1  0.8957809E-005  0.9118800E+02  0.7818608E-02  0.1130116E+00
         25   -1    0    0    0    0  0.00000000000E+00  0.00000000000E+00  0.99999998245E-14  0.12500000000E+03  0.12500000000E+03 0.  0.
        -11    1    3    3    0    0  0.32574020377E+02 -0.24110605549E+02  0.47001438340E+02  0.62060642196E+02  0.51100000000E-03 0.  1.
         23    2    1    0    0    0  0.10761461187E+02 -0.10271486989E+02  0.24591671749E+02  0.96258691553E+02  0.91867692299E+02 0.  0.
         11    1    3    3    0    0 -0.21812559190E+02  0.13839118560E+02 -0.22409766591E+02  0.34198049357E+02  0.51100000000E-03 0. -1.
         22    1    1    0    0    0 -0.10761461187E+02  0.10271486989E+02 -0.24591671749E+02  0.28741308447E+02  0.00000000000E+00 0.  1.
</event>
<event>
 5    1  0.8957809E-005  0.9118800E+02  0.7818608E-02  0.1130116E+00
         25   -1    0    0    0    0  0.00000000000E+00  0.00000000000E+00  0.99999998245E-14  0.12500000000E+03  0.12500000000E+03 0.  0.
        -11    1    3    3    0    0 -0.49379889301E+02  0.30876417153E+02 -0.19033616785E+02  0.61269936933E+02  0.51100000000E-03 0. -1.
         23    2    1    0    0    0 -0.16594556592E+02  0.19886293786E+02 -0.11508577050E+02  0.96657605345E+02  0.92408881263E+02 0.  0.
         11    1    3    3    0    0  0.32785332708E+02 -0.10990123366E+02  0.75250397352E+01  0.35387668413E+02  0.51100000000E-03 0.  1.
         22    1    1    0    0    0  0.16594556592E+02 -0.19886293786E+02  0.11508577050E+02  0.28342394655E+02  0.00000000000E+00 0. -1.
</event>
<event>
 5    1  0.8957809E-005  0.9118800E+02  0.7818608E-02  0.1130116E+00
         25   -1    0    0    0    0  0.00000000000E+00  0.00000000000E+00  0.99999998245E-14  0.12500000000E+03  0.12500000000E+03 0.  0.
        -11    1    3    3    0    0  0.13355046111E+02  0.21001151233E+02 -0.42466026494E+02  0.49221631588E+02  0.51100000000E-03 0. -1.
         23    2    1    0    0    0  0.22662532871E+02 -0.13095210935E+02 -0.10767513219E+02  0.96697804211E+02  0.92463241630E+02 0.  0.
         11    1    3    3    0    0  0.93074867602E+01 -0.34096362168E+02  0.31698513274E+02  0.47476172623E+02  0.51100000000E-03 0.  1.
         22    1    1    0    0    0 -0.22662532871E+02  0.13095210935E+02  0.10767513219E+02  0.28302195789E+02  0.00000000000E+00 0.  1.
</event>
<event>
 5    1  0.8957809E-005  0.9118800E+02  0.7818608E-02  0.1130116E+00
         25   -1    0    0    0    0  0.00000000000E+00  0.00000000000E+00  0.99999998245E-14  0.12500000000E+03  0.12500000000E+03 0.  0.
        -11    1    3    3    0    0 -0.32381206766E+02 -0.39605070785E+02 -0.17716926320E+02  0.54138652200E+02  0.51100000000E-03 0. -1.
         23    2    1    0    0    0 -0.99309517950E+01 -0.23547405839E+02  0.13736928513E+02  0.95986083851E+02  0.91496016104E+02 0.  0.
         11    1    3    3    0    0  0.22450254971E+02  0.16057664946E+02  0.31453854832E+02  0.41847431652E+02  0.51100000000E-03 0.  1.
         22    1    1    0    0    0  0.99309517950E+01  0.23547405839E+02 -0.13736928513E+02  0.29013916149E+02  0.00000000000E+00 0. -1.
</event>
<event>
 5    1  0.8957809E-005  0.9118800E+02  0.7818608E-02  0.1130116E+00
         25   -1    0    0    0    0  0.00000000000E+00  0.00000000000E+00  0.99999998245E-14  0.12500000000E+03  0.12500000000E+03 0.  0.
        -11    1    3    3    0    0 -0.44628768911E+02 -0.15102886272E+02  0.74208249994E+01  0.47695836634E+02  0.51100000000E-03 0. -1.
         23    2    1    0    0    0  0.98990692437E+01 -0.14426555345E+02  0.13957926758E+02  0.10261829340E+03  0.10014775759E+03 0.  0.
         11    1    3    3    0    0  0.54527838155E+02  0.67633092661E+00  0.65371017589E+01  0.54922456765E+02  0.51100000000E-03 0.  1.
         22    1    1    0    0    0 -0.98990692437E+01  0.14426555345E+02 -0.13957926758E+02  0.22381706602E+02  0.00000000000E+00 0.  1.
</event>
<event>
 5    1  0.8957809E-005  0.9118800E+02  0.7818608E-02  0.1130116E+00
         25   -1    0    0    0    0  0.00000000000E+00  0.00000000000E+00  0.99999998245E-14  0.12500000000E+03  0.12500000000E+03 0.  0.
        -11    1    3    3    0    0  0.15099202603E+02 -0.27635252660E+02 -0.26067160770E+02  0.40880190553E+02  0.51100000000E-03 0.  1.
         23    2    1    0    0    0  0.73633114543E+01  0.22880276045E+01 -0.46457239378E+02  0.77907234987E+02  0.62062941816E+02 0.  0.
         11    1    3    3    0    0 -0.77358911483E+01  0.29923280264E+02 -0.20390078608E+02  0.37027044434E+02  0.51100000000E-03 0. -1.
         22    1    1    0    0    0 -0.73633114543E+01 -0.22880276045E+01  0.46457239378E+02  0.47092765013E+02  0.00000000000E+00 0.  1.
</event>
<event>
 5    1  0.8957809E-005  0.9118800E+02  0.7818608E-02  0.1130116E+00
         25   -1    0    0    0    0  0.00000000000E+00  0.00000000000E+00  0.99999998245E-14  0.12500000000E+03  0.12500000000E+03 0.  0.
        -11    1    3    3    0    0 -0.38805772017E+02  0.42208600298E+02  0.24451403015E+02  0.62332375140E+02  0.51100000000E-03 0. -1.
         23    2    1    0    0    0 -0.18688026580E+02  0.19443270986E+02  0.14955678245E+02  0.94162434664E+02  0.88969706451E+02 0.  0.
         11    1    3    3    0    0  0.20117745437E+02 -0.22765329312E+02 -0.94957247705E+01  0.31830059524E+02  0.51100000000E-03 0.  1.
         22    1    1    0    0    0  0.18688026580E+02 -0.19443270986E+02 -0.14955678245E+02  0.30837565336E+02  0.00000000000E+00 0. -1.
</event>
<event>
 5    1  0.8957809E-005  0.9118800E+02  0.7818608E-02  0.1130116E+00
         25   -1    0    0    0    0  0.00000000000E+00  0.00000000000E+00  0.99999998245E-14  0.12500000000E+03  0.12500000000E+03 0.  0.
        -11    1    3    3    0    0  0.26010722051E+02 -0.31450623511E+02  0.25228198816E+01  0.40890879193E+02  0.51100000000E-03 0.  1.
         23    2    1    0    0    0  0.13085835760E+02  0.22849218538E+02  0.92049536468E+01  0.97106325861E+02  0.93013877810E+02 0.  0.
         11    1    3    3    0    0 -0.12924886290E+02  0.54299842048E+02  0.66821337652E+01  0.56215446667E+02  0.51100000000E-03 0. -1.
         22    1    1    0    0    0 -0.13085835760E+02 -0.22849218538E+02 -0.92049536468E+01  0.27893674139E+02  0.00000000000E+00 0. -1.
</event>
<event>
 5    1  0.8957809E-005  0.9118800E+02  0.7818608E-02  0.1130116E+00
         25   -1    0    0    0    0  0.00000000000E+00  0.00000000000E+00  0.99999998245E-14  0.12500000000E+03  0.12500000000E+03 0.  0.
        -11    1    3    3    0    0  0.46970203184E+01  0.20201711568E+02  0.48190490118E+02  0.52464221029E+02  0.51100000000E-03 0. -1.
         23    2    1    0    0    0  0.36833292997E+00 -0.13420010384E+02  0.32535181180E+02  0.89803830290E+02  0.82619353498E+02 0.  0.
         11    1    3    3    0    0 -0.43286873884E+01 -0.33621721952E+02 -0.15655308938E+02  0.37339609261E+02  0.51100000000E-03 0.  1.
         22    1    1    0    0    0 -0.36833292997E+00  0.13420010384E+02 -0.32535181180E+02  0.35196169710E+02  0.00000000000E+00 0. -1.
</event>
<event>
 5    1  0.8957809E-005  0.9118800E+02  0.7818608E-02  0.1130116E+00
         25   -1    0    0    0    0  0.00000000000E+00  0.00000000000E+00  0.99999998245E-14  0.12500000000E+03  0.12500000000E+03 0.  0.
        -11    1    3    3    0    0 -0.35284025609E+01 -0.43757002368E+02  0.24716423788E+02  0.50378829740E+02  0.51100000000E-03 0.  1.
         23    2    1    0    0    0 -0.20018762670E+02 -0.14824304983E+02 -0.96985283409E+01  0.98268514275E+02  0.94562828684E+02 0.  0.
         11    1    3    3    0    0 -0.16490360110E+02  0.28932697385E+02 -0.34414952129E+02  0.47889684535E+02  0.51100000000E-03 0. -1.
         22    1    1    0    0    0  0.20018762670E+02  0.14824304983E+02  0.96985283409E+01  0.26731485725E+02  0.00000000000E+00 0.  1.
</event>
<event>
 5    1  0.8957809E-005  0.9118800E+02  0.7818608E-02  0.1130116E+00
         25   -1    0    0    0    0  0.00000000000E+00  0.00000000000E+00  0.99999998245E-14  0.12500000000E+03  0.12500000000E+03 0.  0.
        -11    1    3    3    0    0  0.20035953958E+02  0.31508308556E+02 -0.22749793075E+02  0.43723746915E+02  0.51100000000E-03 0.  1.
         23    2    1    0    0    0  0.25132658872E+02 -0.40401422167E+01  0.14696162636E+02  0.95606965327E+02  0.90976597714E+02 0.  0.
         11    1    3    3    0    0  0.50967049138E+01 -0.35548450773E+02  0.37445955711E+02  0.51883218411E+02  0.51100000000E-03 0. -1.
         22    1    1    0    0    0 -0.25132658872E+02  0.40401422167E+01 -0.14696162636E+02  0.29393034673E+02  0.00000000000E+00 0. -1.
</event>
<event>
 5    1  0.8957809E-005  0.9118800E+02  0.7818608E-02  0.1130116E+00
         25   -1    0    0    0    0  0.00000000000E+00  0.00000000000E+00  0.99999998245E-14  0.12500000000E+03  0.12500000000E+03 0.  0.
        -11    1    3    3    0    0 -0.88035422520E+01  0.41599925577E+02 -0.21451075292E+02  0.47625673703E+02  0.51100000000E-03 0.  1.
         23    2    1    0    0    0  0.15025401354E+02  0.17309522012E+00 -0.25302640832E+02  0.95571845439E+02  0.90928330898E+02 0.  0.
         11    1    3    3    0    0  0.23828943606E+02 -0.41426830357E+02 -0.38515655392E+01  0.47946171736E+02  0.51100000000E-03 0. -1.
         22    1    1    0    0    0 -0.15025401354E+02 -0.17309522012E+00  0.25302640832E+02  0.29428154561E+02  0.00000000000E+00 0. -1.
</event>
<event>
 5    1  0.8957809E-005  0.9118800E+02  0.7818608E-02  0.1130116E+00
         25   -1    0    0    0    0  0.00000000000E+00  0.00000000000E+00  0.99999998245E-14  0.12500000000E+03  0.12500000000E+03 0.  0.
        -11    1    3    3    0    0  0.47502528823E+02 -0.26964230009E+02 -0.21524973709E+01  0.54664368557E+02  0.51100000000E-03 0. -1.
         23    2    1    0    0    0  0.14839663877E+02 -0.19341916015E+02  0.18802436327E+02  0.94212714460E+02  0.89040320164E+02 0.  0.
         11    1    3    3    0    0 -0.32662864946E+02  0.76223139942E+01  0.20954933698E+02  0.39548345903E+02  0.51100000000E-03 0.  1.
         22    1    1    0    0    0 -0.14839663877E+02  0.19341916015E+02 -0.18802436327E+02  0.30787285540E+02  0.00000000000E+00 0. -1.
</event>
<event>
 5    1  0.8957809E-005  0.9118800E+02  0.7818608E-02  0.1130116E+00
         25   -1    0    0    0    0  0.00000000000E+00  0.00000000000E+00  0.99999998245E-14  0.12500000000E+03  0.12500000000E+03 0.  0.
        -11    1    3    3    0    0  0.17443279044E+02  0.21057586675E+02  0.37635043978E+02  0.46519742862E+02  0.51100000000E-03 0.  1.
         23    2    1    0    0    0 -0.59504040532E+01 -0.18633182792E+02  0.22884000967E+02  0.94895510142E+02  0.89993763870E+02 0.  0.
         11    1    3    3    0    0 -0.23393683098E+02 -0.39690769467E+02 -0.14751043011E+02  0.48375767280E+02  0.51100000000E-03 0. -1.
         22    1    1    0    0    0  0.59504040532E+01  0.18633182792E+02 -0.22884000967E+02  0.30104489858E+02  0.00000000000E+00 0.  1.
</event>
<event>
 5    1  0.8957809E-005  0.9118800E+02  0.7818608E-02  0.1130116E+00
         25   -1    0    0    0    0  0.00000000000E+00  0.00000000000E+00  0.99999998245E-14  0.12500000000E+03  0.12500000000E+03 0.  0.
        -11    1    3    3    0    0  0.32176638011E+02  0.32517503357E+02 -0.29348714578E+02  0.54351367102E+02  0.51100000000E-03 0.  1.
         23    2    1    0    0    0  0.25043699866E+02 -0.53701185947E+01 -0.13633724010E+02  0.95984426473E+02  0.91493751799E+02 0.  0.
         11    1    3    3    0    0 -0.71329381448E+01 -0.37887621952E+02  0.15714990567E+02  0.41633059370E+02  0.51100000000E-03 0. -1.
         22    1    1    0    0    0 -0.25043699866E+02  0.53701185947E+01  0.13633724010E+02  0.29015573527E+02  0.00000000000E+00 0. -1.
</event>
<event>
 5    1  0.8957809E-005  0.9118800E+02  0.7818608E-02  0.1130116E+00
         25   -1    0    0    0    0  0.00000000000E+00  0.00000000000E+00  0.99999998245E-14  0.12500000000E+03  0.12500000000E+03 0.  0.
        -11    1    3    3    0    0 -0.79235557468E+01  0.53812357488E+01 -0.31680066163E+02  0.33096329497E+02  0.51100000000E-03 0.  1.
         23    2    1    0    0    0 -0.19037549311E+01  0.92330983384E+01  0.29159615355E+02  0.94354322402E+02  0.89238896231E+02 0.  0.
         11    1    3    3    0    0  0.60198008157E+01  0.38518625896E+01  0.60839681518E+02  0.61257992905E+02  0.51100000000E-03 0. -1.
         22    1    1    0    0    0  0.19037549311E+01 -0.92330983384E+01 -0.29159615355E+02  0.30645677598E+02  0.00000000000E+00 0. -1.
</event>
<event>
 5    1  0.8957809E-005  0.9118800E+02  0.7818608E-02  0.1130116E+00
         25   -1    0    0    0    0  0.00000000000E+00  0.00000000000E+00  0.99999998245E-14  0.12500000000E+03  0.12500000000E+03 0.  0.
        -11    1    3    3    0    0 -0.42435128528E+02 -0.15746333134E+02 -0.42542047853E+02  0.62116929867E+02  0.51100000000E-03 0.  1.
         23    2    1    0    0    0 -0.28306031620E+02 -0.12484417702E+02 -0.34351799472E+02  0.78770807508E+02  0.63778537746E+02 0.  0.
         11    1    3    3    0    0  0.14129096907E+02  0.32619154318E+01  0.81902483804E+01  0.16653877641E+02  0.51100000000E-03 0. -1.
         22    1    1    0    0    0  0.28306031620E+02  0.12484417702E+02  0.34351799472E+02  0.46229192492E+02  0.00000000000E+00 0.  1.
</event>
<event>
 5    1  0.8957809E-005  0.9118800E+02  0.7818608E-02  0.1130116E+00
         25   -1    0    0    0    0  0.00000000000E+00  0.00000000000E+00  0.99999998245E-14  0.12500000000E+03  0.12500000000E+03 0.  0.
        -11    1    3    3    0    0  0.69905228802E+01  0.12169035307E+02  0.51515828941E+02  0.53393196779E+02  0.51100000000E-03 0.  1.
         23    2    1    0    0    0 -0.13087828527E+01 -0.18043173181E+02  0.22814912360E+02  0.95883179484E+02  0.91355322072E+02 0.  0.
         11    1    3    3    0    0 -0.82993057329E+01 -0.30212208488E+02 -0.28700916582E+02  0.42489982705E+02  0.51100000000E-03 0. -1.
         22    1    1    0    0    0  0.13087828527E+01  0.18043173181E+02 -0.22814912360E+02  0.29116820516E+02  0.00000000000E+00 0.  1.
</event>
<event>
 5    1  0.8957809E-005  0.9118800E+02  0.7818608E-02  0.1130116E+00
         25   -1    0    0    0    0  0.00000000000E+00  0.00000000000E+00  0.99999998245E-14  0.12500000000E+03  0.12500000000E+03 0.  0.
        -11    1    3    3    0    0  0.51008950613E+02 -0.17457558525E+02  0.86882248275E+01  0.54609199254E+02  0.51100000000E-03 0. -1.
         23    2    1    0    0    0  0.18966128178E+02 -0.28156684864E+01  0.25050956944E+02  0.93453329005E+02  0.87967790987E+02 0.  0.
         11    1    3    3    0    0 -0.32042822435E+02  0.14641890039E+02  0.16362732116E+02  0.38844129750E+02  0.51100000000E-03 0.  1.
         22    1    1    0    0    0 -0.18966128178E+02  0.28156684864E+01 -0.25050956944E+02  0.31546670995E+02  0.00000000000E+00 0. -1.
</event>
<event>
 5    1  0.8957809E-005  0.9118800E+02  0.7818608E-02  0.1130116E+00
         25   -1    0    0    0    0  0.00000000000E+00  0.00000000000E+00  0.99999998245E-14  0.12500000000E+03  0.12500000000E+03 0.  0.
        -11    1    3    3    0    0 -0.19188525638E+02 -0.22698871765E+02  0.68501595541E+01  0.30501852103E+02  0.51100000000E-03 0.  1.
         23    2    1    0    0    0  0.15276989800E+02  0.17221676374E+02 -0.24115315286E+02  0.91660519113E+02  0.85382256812E+02 0.  0.
         11    1    3    3    0    0  0.34465515438E+02  0.39920548139E+02 -0.30965474840E+02  0.61158667010E+02  0.51100000000E-03 0. -1.
         22    1    1    0    0    0 -0.15276989800E+02 -0.17221676374E+02  0.24115315286E+02  0.33339480887E+02  0.00000000000E+00 0. -1.
</event>
<event>
 5    1  0.8957809E-005  0.9118800E+02  0.7818608E-02  0.1130116E+00
         25   -1    0    0    0    0  0.00000000000E+00  0.00000000000E+00  0.99999998245E-14  0.12500000000E+03  0.12500000000E+03 0.  0.
        -11    1    3    3    0    0 -0.42714957864E+02 -0.23955338836E+01 -0.15919145520E+02  0.45647841157E+02  0.51100000000E-03 0.  1.
         23    2    1    0    0    0 -0.13471549643E+02  0.11624269140E+02  0.22751302595E+02  0.96116993705E+02  0.91674688035E+02 0.  0.
         11    1    3    3    0    0  0.29243408221E+02  0.14019803023E+02  0.38670448116E+02  0.50469152548E+02  0.51100000000E-03 0. -1.
         22    1    1    0    0    0  0.13471549643E+02 -0.11624269140E+02 -0.22751302595E+02  0.28883006295E+02  0.00000000000E+00 0. -1.
</event>
<event>
 5    1  0.8957809E-005  0.9118800E+02  0.7818608E-02  0.1130116E+00
         25   -1    0    0    0    0  0.00000000000E+00  0.00000000000E+00  0.99999998245E-14  0.12500000000E+03  0.12500000000E+03 0.  0.
        -11    1    3    3    0    0  0.25323680814E+02 -0.22225348774E+02 -0.28617664264E+02  0.44206624462E+02  0.51100000000E-03 0. -1.
         23    2    1    0    0    0  0.80859007136E+00 -0.23836692339E+02  0.16788562765E+02  0.95833279936E+02  0.91287019800E+02 0.  0.
         11    1    3    3    0    0 -0.24515090743E+02 -0.16113435657E+01  0.45406227029E+02  0.51626655474E+02  0.51100000000E-03 0.  1.
         22    1    1    0    0    0 -0.80859007136E+00  0.23836692339E+02 -0.16788562765E+02  0.29166720064E+02  0.00000000000E+00 0.  1.
</event>
<event>
 5    1  0.8957809E-005  0.9118800E+02  0.7818608E-02  0.1130116E+00
         25   -1    0    0    0    0  0.00000000000E+00  0.00000000000E+00  0.99999998245E-14  0.12500000000E+03  0.12500000000E+03 0.  0.
        -11    1    3    3    0    0  0.29908977324E+02 -0.24438537464E+02  0.43510838432E+02  0.58180598994E+02  0.51100000000E-03 0. -1.
         23    2    1    0    0    0  0.24904866145E+02 -0.13743055232E+02  0.82252715658E+01  0.95389545475E+02  0.90677375176E+02 0.  0.
         11    1    3    3    0    0 -0.50041111785E+01  0.10695482233E+02 -0.35285566867E+02  0.37208946481E+02  0.51100000000E-03 0.  1.
         22    1    1    0    0    0 -0.24904866145E+02  0.13743055232E+02 -0.82252715658E+01  0.29610454525E+02  0.00000000000E+00 0. -1.
</event>
<event>
 5    1  0.8957809E-005  0.9118800E+02  0.7818608E-02  0.1130116E+00
         25   -1    0    0    0    0  0.00000000000E+00  0.00000000000E+00  0.99999998245E-14  0.12500000000E+03  0.12500000000E+03 0.  0.
        -11    1    3    3    0    0 -0.33059281385E+02  0.40011661916E+02 -0.31961304624E+02  0.60953869184E+02  0.51100000000E-03 0. -1.
         23    2    1    0    0    0 -0.14426941989E+02  0.24068164813E+02 -0.67205536808E+01  0.96145553992E+02  0.91713622206E+02 0.  0.
         11    1    3    3    0    0  0.18632339396E+02 -0.15943497103E+02  0.25240750943E+02  0.35191684809E+02  0.51100000000E-03 0.  1.
         22    1    1    0    0    0  0.14426941989E+02 -0.24068164813E+02  0.67205536808E+01  0.28854446008E+02  0.00000000000E+00 0. -1.
</event>
<event>
 5    1  0.8957809E-005  0.9118800E+02  0.7818608E-02  0.1130116E+00
         25   -1    0    0    0    0  0.00000000000E+00  0.00000000000E+00  0.99999998245E-14  0.12500000000E+03  0.12500000000E+03 0.  0.
        -11    1    3    3    0    0  0.42891217155E+02 -0.15038947231E+02 -0.29679126544E+02  0.54283303101E+02  0.51100000000E-03 0.  1.
         23    2    1    0    0    0  0.28165913348E+02  0.96223549047E+01 -0.49427742064E+00  0.95231682970E+02  0.90459497801E+02 0.  0.
         11    1    3    3    0    0 -0.14725303807E+02  0.24661302135E+02  0.29184849124E+02  0.40948379868E+02  0.51100000000E-03 0. -1.
         22    1    1    0    0    0 -0.28165913348E+02 -0.96223549047E+01  0.49427742064E+00  0.29768317030E+02  0.00000000000E+00 0.  1.
</event>
<event>
 5    1  0.8957809E-005  0.9118800E+02  0.7818608E-02  0.1130116E+00
         25   -1    0    0    0    0  0.00000000000E+00  0.00000000000E+00  0.99999998245E-14  0.12500000000E+03  0.12500000000E+03 0.  0.
        -11    1    3    3    0    0  0.23758718140E+02 -0.27040188440E+02  0.10535048138E+02  0.37505142555E+02  0.51100000000E-03 0.  1.
         23    2    1    0    0    0  0.11966481735E+02  0.26979625089E+02 -0.52859835286E+01  0.95016029667E+02  0.90161008295E+02 0.  0.
         11    1    3    3    0    0 -0.11792236406E+02  0.54019813529E+02 -0.15821031667E+02  0.57510887112E+02  0.51100000000E-03 0. -1.
         22    1    1    0    0    0 -0.11966481735E+02 -0.26979625089E+02  0.52859835286E+01  0.29983970333E+02  0.00000000000E+00 0. -1.
</event>
<event>
 5    1  0.8957809E-005  0.9118800E+02  0.7818608E-02  0.1130116E+00
         25   -1    0    0    0    0  0.00000000000E+00  0.00000000000E+00  0.99999998245E-14  0.12500000000E+03  0.12500000000E+03 0.  0.
        -11    1    3    3    0    0 -0.31983080376E+02  0.14823805931E+02  0.58002803401E+01  0.35725423789E+02  0.51100000000E-03 0. -1.
         23    2    1    0    0    0  0.15371022615E+02 -0.81089112510E+01 -0.23363046896E+02  0.95882054706E+02  0.91353783044E+02 0.  0.
         11    1    3    3    0    0  0.47354102991E+02 -0.22932717182E+02 -0.29163327236E+02  0.60156630916E+02  0.51100000000E-03 0.  1.
         22    1    1    0    0    0 -0.15371022615E+02  0.81089112510E+01  0.23363046896E+02  0.29117945294E+02  0.00000000000E+00 0.  1.
</event>
<event>
 5    1  0.8957809E-005  0.9118800E+02  0.7818608E-02  0.1130116E+00
         25   -1    0    0    0    0  0.00000000000E+00  0.00000000000E+00  0.99999998245E-14  0.12500000000E+03  0.12500000000E+03 0.  0.
        -11    1    3    3    0    0 -0.42479308258E+02 -0.33834803778E+02  0.41910889784E+01  0.54468805787E+02  0.51100000000E-03 0. -1.
         23    2    1    0    0    0 -0.33207071109E+01 -0.21997450734E+02  0.16627555169E+02  0.97226081921E+02  0.93174677248E+02 0.  0.
         11    1    3    3    0    0  0.39158601147E+02  0.11837353043E+02  0.12436466191E+02  0.42757276135E+02  0.51100000000E-03 0.  1.
         22    1    1    0    0    0  0.33207071109E+01  0.21997450734E+02 -0.16627555169E+02  0.27773918079E+02  0.00000000000E+00 0. -1.
</event>
<event>
 5    1  0.8957809E-005  0.9118800E+02  0.7818608E-02  0.1130116E+00
         25   -1    0    0    0    0  0.00000000000E+00  0.00000000000E+00  0.99999998245E-14  0.12500000000E+03  0.12500000000E+03 0.  0.
        -11    1    3    3    0    0 -0.31453931084E+02  0.37076299473E+01 -0.40094025647E+02  0.51094297072E+02  0.51100000000E-03 0. -1.
         23    2    1    0    0    0 -0.77938014220E+01  0.26019858857E+02 -0.82434063491E+01  0.96614613904E+02  0.92350709126E+02 0.  0.
         11    1    3    3    0    0  0.23660129662E+02  0.22312228910E+02  0.31850619298E+02  0.45520316832E+02  0.51100000000E-03 0.  1.
         22    1    1    0    0    0  0.77938014220E+01 -0.26019858857E+02  0.82434063491E+01  0.28385386096E+02  0.00000000000E+00 0. -1.
</event>
<event>
 5    1  0.8957809E-005  0.9118800E+02  0.7818608E-02  0.1130116E+00
         25   -1    0    0    0    0  0.00000000000E+00  0.00000000000E+00  0.99999998245E-14  0.12500000000E+03  0.12500000000E+03 0.  0.
        -11    1    3    3    0    0  0.19747724216E+02 -0.39641571704E+02 -0.48098442968E+01  0.44548416597E+02  0.51100000000E-03 0.  1.
         23    2    1    0    0    0  0.17810211124E+02  0.74527516043E+01 -0.22911165109E+02  0.95038881639E+02  0.90192684902E+02 0.  0.
         11    1    3    3    0    0 -0.19375130922E+01  0.47094323308E+02 -0.18101320813E+02  0.50490465043E+02  0.51100000000E-03 0. -1.
         22    1    1    0    0    0 -0.17810211124E+02 -0.74527516043E+01  0.22911165109E+02  0.29961118361E+02  0.00000000000E+00 0. -1.
</event>
<event>
 5    1  0.8957809E-005  0.9118800E+02  0.7818608E-02  0.1130116E+00
         25   -1    0    0    0    0  0.00000000000E+00  0.00000000000E+00  0.99999998245E-14  0.12500000000E+03  0.12500000000E+03 0.  0.
        -11    1    3    3    0    0 -0.35527946369E+02  0.38208241000E+02 -0.13341388257E+02  0.53852551419E+02  0.51100000000E-03 0.  1.
         23    2    1    0    0    0  0.47423087279E+01  0.27915605767E+02 -0.58256055592E+01  0.96091381605E+02  0.91639758845E+02 0.  0.
         11    1    3    3    0    0  0.40270255097E+02 -0.10292635233E+02  0.75157826974E+01  0.42238830185E+02  0.51100000000E-03 0. -1.
         22    1    1    0    0    0 -0.47423087279E+01 -0.27915605767E+02  0.58256055592E+01  0.28908618395E+02  0.00000000000E+00 0.  1.
</event>
<event>
 5    1  0.8957809E-005  0.9118800E+02  0.7818608E-02  0.1130116E+00
         25   -1    0    0    0    0  0.00000000000E+00  0.00000000000E+00  0.99999998245E-14  0.12500000000E+03  0.12500000000E+03 0.  0.
        -11    1    3    3    0    0  0.25467701209E+02 -0.27382659753E+02  0.32174342612E+01  0.37533528258E+02  0.51100000000E-03 0.  1.
         23    2    1    0    0    0 -0.22585718581E+02  0.89879171383E+01 -0.90982964267E+01  0.99044724309E+02  0.95583372389E+02 0.  0.
         11    1    3    3    0    0 -0.48053419790E+02  0.36370576892E+02 -0.12315730688E+02  0.61511196051E+02  0.51100000000E-03 0. -1.
         22    1    1    0    0    0  0.22585718581E+02 -0.89879171383E+01  0.90982964267E+01  0.25955275691E+02  0.00000000000E+00 0. -1.
</event>
<event>
 5    1  0.8957809E-005  0.9118800E+02  0.7818608E-02  0.1130116E+00
         25   -1    0    0    0    0  0.00000000000E+00  0.00000000000E+00  0.99999998245E-14  0.12500000000E+03  0.12500000000E+03 0.  0.
        -11    1    3    3    0    0  0.26086687218E+02  0.63726987617E+01  0.19293912674E+02  0.33066321326E+02  0.51100000000E-03 0.  1.
         23    2    1    0    0    0 -0.22425081075E+02 -0.69290821952E+01 -0.17779968145E+02  0.95554733682E+02  0.90904804167E+02 0.  0.
         11    1    3    3    0    0 -0.48511768293E+02 -0.13301780957E+02 -0.37073880818E+02  0.62488412356E+02  0.51100000000E-03 0. -1.
         22    1    1    0    0    0  0.22425081075E+02  0.69290821952E+01  0.17779968145E+02  0.29445266318E+02  0.00000000000E+00 0. -1.
</event>
<event>
 5    1  0.8957809E-005  0.9118800E+02  0.7818608E-02  0.1130116E+00
         25   -1    0    0    0    0  0.00000000000E+00  0.00000000000E+00  0.99999998245E-14  0.12500000000E+03  0.12500000000E+03 0.  0.
        -11    1    3    3    0    0  0.24556609665E+02 -0.28176164909E+01 -0.35271407978E+02  0.43070155119E+02  0.51100000000E-03 0. -1.
         23    2    1    0    0    0  0.19971585839E+02 -0.79448246602E+01  0.18110584578E+02  0.96893457104E+02  0.92727365303E+02 0.  0.
         11    1    3    3    0    0 -0.45850238254E+01 -0.51272081693E+01  0.53381992556E+02  0.53823301985E+02  0.51100000000E-03 0.  1.
         22    1    1    0    0    0 -0.19971585839E+02  0.79448246602E+01 -0.18110584578E+02  0.28106542896E+02  0.00000000000E+00 0. -1.
</event>
<event>
 5    1  0.8957809E-005  0.9118800E+02  0.7818608E-02  0.1130116E+00
         25   -1    0    0    0    0  0.00000000000E+00  0.00000000000E+00  0.99999998245E-14  0.12500000000E+03  0.12500000000E+03 0.  0.
        -11    1    3    3    0    0  0.48333212043E+02  0.24463647895E+02 -0.25341135254E+02  0.59805874218E+02  0.51100000000E-03 0. -1.
         23    2    1    0    0    0  0.17115642198E+02  0.21337926532E+02 -0.50111135826E+01  0.97190584762E+02  0.93127043282E+02 0.  0.
         11    1    3    3    0    0 -0.31217569845E+02 -0.31257213627E+01  0.20330021671E+02  0.37384710544E+02  0.51100000000E-03 0.  1.
         22    1    1    0    0    0 -0.17115642198E+02 -0.21337926532E+02  0.50111135826E+01  0.27809415238E+02  0.00000000000E+00 0. -1.
</event>
<event>
 5    1  0.8957809E-005  0.9118800E+02  0.7818608E-02  0.1130116E+00
         25   -1    0    0    0    0  0.00000000000E+00  0.00000000000E+00  0.99999998245E-14  0.12500000000E+03  0.12500000000E+03 0.  0.
        -11    1    3    3    0    0 -0.53190495753E+01  0.10765339709E+02  0.31475056428E+02  0.33687742650E+02  0.51100000000E-03 0.  1.
         23    2    1    0    0    0  0.67626538452E+00  0.53098649685E+01 -0.29408397902E+02  0.95108431489E+02  0.90289024097E+02 0.  0.
         11    1    3    3    0    0  0.59953149598E+01 -0.54554747407E+01 -0.60883454330E+02  0.61420688840E+02  0.51100000000E-03 0. -1.
         22    1    1    0    0    0 -0.67626538452E+00 -0.53098649685E+01  0.29408397902E+02  0.29891568511E+02  0.00000000000E+00 0. -1.
</event>
<event>
 5    1  0.8957809E-005  0.9118800E+02  0.7818608E-02  0.1130116E+00
         25   -1    0    0    0    0  0.00000000000E+00  0.00000000000E+00  0.99999998245E-14  0.12500000000E+03  0.12500000000E+03 0.  0.
        -11    1    3    3    0    0  0.14061240279E+02  0.42572226011E+02  0.12454204833E+01  0.44851577209E+02  0.51100000000E-03 0.  1.
         23    2    1    0    0    0 -0.22242403924E+02  0.11946294346E+02  0.16618631180E+02  0.94773895666E+02  0.89824684339E+02 0.  0.
         11    1    3    3    0    0 -0.36303644203E+02 -0.30625931665E+02  0.15373210696E+02  0.49922318457E+02  0.51100000000E-03 0. -1.
         22    1    1    0    0    0  0.22242403924E+02 -0.11946294346E+02 -0.16618631180E+02  0.30226104334E+02  0.00000000000E+00 0. -1.
</event>
<event>
 5    1  0.8957809E-005  0.9118800E+02  0.7818608E-02  0.1130116E+00
         25   -1    0    0    0    0  0.00000000000E+00  0.00000000000E+00  0.99999998245E-14  0.12500000000E+03  0.12500000000E+03 0.  0.
        -11    1    3    3    0    0  0.82902810452E+01  0.52794860149E+01  0.30176556618E+02  0.31736828795E+02  0.51100000000E-03 0. -1.
         23    2    1    0    0    0  0.21532606933E+01 -0.75349789828E+01 -0.30219137760E+02  0.93781276021E+02  0.88432567560E+02 0.  0.
         11    1    3    3    0    0 -0.61370203518E+01 -0.12814464998E+02 -0.60395694378E+02  0.62044447226E+02  0.51100000000E-03 0.  1.
         22    1    1    0    0    0 -0.21532606933E+01  0.75349789828E+01  0.30219137760E+02  0.31218723979E+02  0.00000000000E+00 0.  1.
</event>
<event>
 5    1  0.8957809E-005  0.9118800E+02  0.7818608E-02  0.1130116E+00
         25   -1    0    0    0    0  0.00000000000E+00  0.00000000000E+00  0.99999998245E-14  0.12500000000E+03  0.12500000000E+03 0.  0.
        -11    1    3    3    0    0  0.40610157136E+02  0.26313246035E+02 -0.23995093723E+02  0.54012371754E+02  0.51100000000E-03 0.  1.
         23    2    1    0    0    0  0.32798386625E+01  0.22926729233E+02 -0.24209210381E+02  0.91496595363E+02  0.85141933504E+02 0.  0.
         11    1    3    3    0    0 -0.37330318473E+02 -0.33865168013E+01 -0.21411665778E+00  0.37484223609E+02  0.51100000000E-03 0. -1.
         22    1    1    0    0    0 -0.32798386625E+01 -0.22926729233E+02  0.24209210381E+02  0.33503404637E+02  0.00000000000E+00 0.  1.
</event>
<event>
 5    1  0.8957809E-005  0.9118800E+02  0.7818608E-02  0.1130116E+00
         25   -1    0    0    0    0  0.00000000000E+00  0.00000000000E+00  0.99999998245E-14  0.12500000000E+03  0.12500000000E+03 0.  0.
        -11    1    3    3    0    0 -0.73109636006E+01 -0.41989240218E+02 -0.17212089846E+02  0.45965231642E+02  0.51100000000E-03 0. -1.
         23    2    1    0    0    0 -0.72997531994E+01  0.88809241112E+01 -0.25052261275E+02  0.97436019793E+02  0.93455898413E+02 0.  0.
         11    1    3    3    0    0  0.11210401238E-01  0.50870164329E+02 -0.78401714298E+01  0.51470788151E+02  0.51100000000E-03 0.  1.
         22    1    1    0    0    0  0.72997531994E+01 -0.88809241112E+01  0.25052261275E+02  0.27563980207E+02  0.00000000000E+00 0.  1.
</event>
<event>
 5    1  0.8957809E-005  0.9118800E+02  0.7818608E-02  0.1130116E+00
         25   -1    0    0    0    0  0.00000000000E+00  0.00000000000E+00  0.99999998245E-14  0.12500000000E+03  0.12500000000E+03 0.  0.
        -11    1    3    3    0    0  0.29300676737E+02 -0.24075664843E+02  0.42321884676E+02  0.56827011339E+02  0.51100000000E-03 0.  1.
         23    2    1    0    0    0  0.16590598958E+02 -0.19425903114E+02  0.19816972422E+01  0.99376947693E+02  0.96016857495E+02 0.  0.
         11    1    3    3    0    0 -0.12710077778E+02  0.46497617295E+01 -0.40340187434E+02  0.42549936354E+02  0.51100000000E-03 0. -1.
         22    1    1    0    0    0 -0.16590598958E+02  0.19425903114E+02 -0.19816972422E+01  0.25623052307E+02  0.00000000000E+00 0.  1.
</event>
<event>
 5    1  0.8957809E-005  0.9118800E+02  0.7818608E-02  0.1130116E+00
         25   -1    0    0    0    0  0.00000000000E+00  0.00000000000E+00  0.99999998245E-14  0.12500000000E+03  0.12500000000E+03 0.  0.
        -11    1    3    3    0    0  0.38897602305E+02  0.21848932754E+01 -0.12265219485E+02  0.40844006083E+02  0.51100000000E-03 0. -1.
         23    2    1    0    0    0 -0.14641755780E+02  0.15826720390E+02 -0.18689762807E+02  0.96466277417E+02  0.92149711634E+02 0.  0.
         11    1    3    3    0    0 -0.53539358085E+02  0.13641827115E+02 -0.64245433225E+01  0.55622271334E+02  0.51100000000E-03 0.  1.
         22    1    1    0    0    0  0.14641755780E+02 -0.15826720390E+02  0.18689762807E+02  0.28533722583E+02  0.00000000000E+00 0.  1.
</event>
<event>
 5    1  0.8957809E-005  0.9118800E+02  0.7818608E-02  0.1130116E+00
         25   -1    0    0    0    0  0.00000000000E+00  0.00000000000E+00  0.99999998245E-14  0.12500000000E+03  0.12500000000E+03 0.  0.
        -11    1    3    3    0    0 -0.27106159581E+02 -0.50344259622E+02 -0.82259974703E+01  0.57766386409E+02  0.51100000000E-03 0. -1.
         23    2    1    0    0    0  0.53862798711E+00 -0.28888024076E+02  0.59112045907E+01  0.95508469100E+02  0.90841165091E+02 0.  0.
         11    1    3    3    0    0  0.27644787568E+02  0.21456235546E+02  0.14137202061E+02  0.37742082691E+02  0.51100000000E-03 0.  1.
         22    1    1    0    0    0 -0.53862798711E+00  0.28888024076E+02 -0.59112045907E+01  0.29491530900E+02  0.00000000000E+00 0. -1.
</event>
<event>
 5    1  0.8957809E-005  0.9118800E+02  0.7818608E-02  0.1130116E+00
         25   -1    0    0    0    0  0.00000000000E+00  0.00000000000E+00  0.99999998245E-14  0.12500000000E+03  0.12500000000E+03 0.  0.
        -11    1    3    3    0    0 -0.97653272719E+01  0.49920827544E+02 -0.46643835411E+01  0.51080398525E+02  0.51100000000E-03 0. -1.
         23    2    1    0    0    0 -0.22105514114E+02  0.25235361025E+01 -0.10488103753E+02  0.10040279876E+03  0.97343205665E+02 0.  0.
         11    1    3    3    0    0 -0.12340186842E+02 -0.47397291441E+02 -0.58237202117E+01  0.49322400232E+02  0.51100000000E-03 0.  1.
         22    1    1    0    0    0  0.22105514114E+02 -0.25235361025E+01  0.10488103753E+02  0.24597201244E+02  0.00000000000E+00 0. -1.
</event>
<event>
 5    1  0.8957809E-005  0.9118800E+02  0.7818608E-02  0.1130116E+00
         25   -1    0    0    0    0  0.00000000000E+00  0.00000000000E+00  0.99999998245E-14  0.12500000000E+03  0.12500000000E+03 0.  0.
        -11    1    3    3    0    0 -0.34739214918E+02  0.15875086574E+02  0.12811284460E+02  0.40285983128E+02  0.51100000000E-03 0. -1.
         23    2    1    0    0    0  0.19623961330E+02  0.19551248066E+02  0.12083358346E+02  0.94778174970E+02  0.89830639219E+02 0.  0.
         11    1    3    3    0    0  0.54363176248E+02  0.36761614918E+01 -0.72792611392E+00  0.54492191842E+02  0.51100000000E-03 0.  1.
         22    1    1    0    0    0 -0.19623961330E+02 -0.19551248066E+02 -0.12083358346E+02  0.30221825030E+02  0.00000000000E+00 0.  1.
</event>
<event>
 5    1  0.8957809E-005  0.9118800E+02  0.7818608E-02  0.1130116E+00
         25   -1    0    0    0    0  0.00000000000E+00  0.00000000000E+00  0.99999998245E-14  0.12500000000E+03  0.12500000000E+03 0.  0.
        -11    1    3    3    0    0  0.22760715434E+02  0.53222781765E+02  0.21706841668E+02  0.61821530565E+02  0.51100000000E-03 0. -1.
         23    2    1    0    0    0  0.11330019574E+02  0.24143976555E+02  0.31936450497E+01  0.98139242078E+02  0.94391792649E+02 0.  0.
         11    1    3    3    0    0 -0.11430695860E+02 -0.29078805210E+02 -0.18513196618E+02  0.36317711513E+02  0.51100000000E-03 0.  1.
         22    1    1    0    0    0 -0.11330019574E+02 -0.24143976555E+02 -0.31936450497E+01  0.26860757922E+02  0.00000000000E+00 0. -1.
</event>
<event>
 5    1  0.8957809E-005  0.9118800E+02  0.7818608E-02  0.1130116E+00
         25   -1    0    0    0    0  0.00000000000E+00  0.00000000000E+00  0.99999998245E-14  0.12500000000E+03  0.12500000000E+03 0.  0.
        -11    1    3    3    0    0 -0.42305419269E+02 -0.42539425435E+02 -0.17450414604E+02  0.62480942583E+02  0.51100000000E-03 0.  1.
         23    2    1    0    0    0 -0.18019963121E+02 -0.19634816611E+02 -0.75532379000E+01  0.97299882726E+02  0.93273633367E+02 0.  0.
         11    1    3    3    0    0  0.24285456148E+02  0.22904608825E+02  0.98971767036E+01  0.34818940143E+02  0.51100000000E-03 0. -1.
         22    1    1    0    0    0  0.18019963121E+02  0.19634816611E+02  0.75532379000E+01  0.27700117274E+02  0.00000000000E+00 0.  1.
</event>
<event>
 5    1  0.8957809E-005  0.9118800E+02  0.7818608E-02  0.1130116E+00
         25   -1    0    0    0    0  0.00000000000E+00  0.00000000000E+00  0.99999998245E-14  0.12500000000E+03  0.12500000000E+03 0.  0.
        -11    1    3    3    0    0 -0.57140439645E+01 -0.28159804959E+02  0.24725420524E+02  0.37907404740E+02  0.51100000000E-03 0.  1.
         23    2    1    0    0    0 -0.11674573984E+02  0.26204619436E+02  0.61994568863E+01  0.95650195518E+02  0.91035975743E+02 0.  0.
         11    1    3    3    0    0 -0.59605300191E+01  0.54364424395E+02 -0.18525963638E+02  0.57742790778E+02  0.51100000000E-03 0. -1.
         22    1    1    0    0    0  0.11674573984E+02 -0.26204619436E+02 -0.61994568863E+01  0.29349804482E+02  0.00000000000E+00 0. -1.
</event>
<event>
 5    1  0.8957809E-005  0.9118800E+02  0.7818608E-02  0.1130116E+00
         25   -1    0    0    0    0  0.00000000000E+00  0.00000000000E+00  0.99999998245E-14  0.12500000000E+03  0.12500000000E+03 0.  0.
        -11    1    3    3    0    0 -0.25583400548E+02 -0.23345303368E+02 -0.33137795634E+02  0.47933569371E+02  0.51100000000E-03 0.  1.
         23    2    1    0    0    0 -0.94293651673E+01  0.20568088799E+02 -0.13286915285E+02  0.98760691280E+02  0.95211201127E+02 0.  0.
         11    1    3    3    0    0  0.16154035380E+02  0.43913392167E+02  0.19850880349E+02  0.50827121909E+02  0.51100000000E-03 0. -1.
         22    1    1    0    0    0  0.94293651673E+01 -0.20568088799E+02  0.13286915285E+02  0.26239308720E+02  0.00000000000E+00 0. -1.
</event>
<event>
 5    1  0.8957809E-005  0.9118800E+02  0.7818608E-02  0.1130116E+00
         25   -1    0    0    0    0  0.00000000000E+00  0.00000000000E+00  0.99999998245E-14  0.12500000000E+03  0.12500000000E+03 0.  0.
        -11    1    3    3    0    0  0.13028389475E+01 -0.21422167648E+02  0.48837039110E+02  0.53344756494E+02  0.51100000000E-03 0.  1.
         23    2    1    0    0    0 -0.50185673521E+01 -0.32649227287E+02  0.16663463772E+02  0.88002309727E+02  0.79847213049E+02 0.  0.
         11    1    3    3    0    0 -0.63214062995E+01 -0.11227059639E+02 -0.32173575339E+02  0.34657553233E+02  0.51100000000E-03 0. -1.
         22    1    1    0    0    0  0.50185673521E+01  0.32649227287E+02 -0.16663463772E+02  0.36997690273E+02  0.00000000000E+00 0. -1.
</event>
<event>
 5    1  0.8957809E-005  0.9118800E+02  0.7818608E-02  0.1130116E+00
         25   -1    0    0    0    0  0.00000000000E+00  0.00000000000E+00  0.99999998245E-14  0.12500000000E+03  0.12500000000E+03 0.  0.
        -11    1    3    3    0    0  0.64560671152E+01  0.39956463747E+02 -0.75850001293E+01  0.41179266931E+02  0.51100000000E-03 0. -1.
         23    2    1    0    0    0 -0.60418710235E+01 -0.90057966557E+01 -0.27457371003E+02  0.95478553537E+02  0.90799991102E+02 0.  0.
         11    1    3    3    0    0 -0.12497938139E+02 -0.48962260403E+02 -0.19872370874E+02  0.54299286606E+02  0.51100000000E-03 0.  1.
         22    1    1    0    0    0  0.60418710235E+01  0.90057966557E+01  0.27457371003E+02  0.29521446463E+02  0.00000000000E+00 0.  1.
</event>
<event>
 5    1  0.8957809E-005  0.9118800E+02  0.7818608E-02  0.1130116E+00
         25   -1    0    0    0    0  0.00000000000E+00  0.00000000000E+00  0.99999998245E-14  0.12500000000E+03  0.12500000000E+03 0.  0.
        -11    1    3    3    0    0 -0.32153677283E+02  0.90087353224E+01  0.24822641015E+02  0.41607448638E+02  0.51100000000E-03 0.  1.
         23    2    1    0    0    0 -0.73750551611E+01  0.20282547174E+02 -0.20987657699E+02  0.94895931601E+02  0.89994349268E+02 0.  0.
         11    1    3    3    0    0  0.24778622122E+02  0.11273811851E+02 -0.45810298714E+02  0.53288482963E+02  0.51100000000E-03 0. -1.
         22    1    1    0    0    0  0.73750551611E+01 -0.20282547174E+02  0.20987657699E+02  0.30104068399E+02  0.00000000000E+00 0.  1.
</event>
<event>
 5    1  0.8957809E-005  0.9118800E+02  0.7818608E-02  0.1130116E+00
         25   -1    0    0    0    0  0.00000000000E+00  0.00000000000E+00  0.99999998245E-14  0.12500000000E+03  0.12500000000E+03 0.  0.
        -11    1    3    3    0    0 -0.18961893936E+02 -0.24738975399E+01 -0.30454725431E+02  0.35960588038E+02  0.51100000000E-03 0.  1.
         23    2    1    0    0    0 -0.10799987613E+02 -0.34765785396E+01  0.27894482444E+02  0.94886407030E+02  0.89981118894E+02 0.  0.
         11    1    3    3    0    0  0.81619063231E+01 -0.10026809997E+01  0.58349207875E+02  0.58925818992E+02  0.51100000000E-03 0. -1.
         22    1    1    0    0    0  0.10799987613E+02  0.34765785396E+01 -0.27894482444E+02  0.30113592970E+02  0.00000000000E+00 0. -1.
</event>
<event>
 5    1  0.8957809E-005  0.9118800E+02  0.7818608E-02  0.1130116E+00
         25   -1    0    0    0    0  0.00000000000E+00  0.00000000000E+00  0.99999998245E-14  0.12500000000E+03  0.12500000000E+03 0.  0.
        -11    1    3    3    0    0 -0.48082587491E+02 -0.34600614344E+02 -0.14240246960E+02  0.60925547733E+02  0.51100000000E-03 0. -1.
         23    2    1    0    0    0 -0.23017358446E+02 -0.53021275174E+01 -0.84428684940E+01  0.99916272716E+02  0.96716431794E+02 0.  0.
         11    1    3    3    0    0  0.25065229045E+02  0.29298486826E+02  0.57973784662E+01  0.38990724983E+02  0.51100000000E-03 0.  1.
         22    1    1    0    0    0  0.23017358446E+02  0.53021275174E+01  0.84428684940E+01  0.25083727284E+02  0.00000000000E+00 0. -1.
</event>
<event>
 5    1  0.8957809E-005  0.9118800E+02  0.7818608E-02  0.1130116E+00
         25   -1    0    0    0    0  0.00000000000E+00  0.00000000000E+00  0.99999998245E-14  0.12500000000E+03  0.12500000000E+03 0.  0.
        -11    1    3    3    0    0 -0.32519990046E+01  0.33518264380E+02  0.14840982812E+01  0.33708338621E+02  0.51100000000E-03 0.  1.
         23    2    1    0    0    0 -0.29651410827E+01 -0.24384276037E+02 -0.17718375697E+02  0.94712612908E+02  0.89739362752E+02 0.  0.
         11    1    3    3    0    0  0.28685792194E+00 -0.57902540417E+02 -0.19202473978E+02  0.61004274288E+02  0.51100000000E-03 0. -1.
         22    1    1    0    0    0  0.29651410827E+01  0.24384276037E+02  0.17718375697E+02  0.30287387092E+02  0.00000000000E+00 0. -1.
</event>
<event>
 5    1  0.8957809E-005  0.9118800E+02  0.7818608E-02  0.1130116E+00
         25   -1    0    0    0    0  0.00000000000E+00  0.00000000000E+00  0.99999998245E-14  0.12500000000E+03  0.12500000000E+03 0.  0.
        -11    1    3    3    0    0 -0.57026835642E+02 -0.16811468033E+02  0.48395422131E+01  0.59649866806E+02  0.51100000000E-03 0.  1.
         23    2    1    0    0    0 -0.26100456766E+02  0.88800156369E+00  0.12421926378E+02  0.96080687334E+02  0.91625170305E+02 0.  0.
         11    1    3    3    0    0  0.30926378877E+02  0.17699469597E+02  0.75823841654E+01  0.36430820528E+02  0.51100000000E-03 0. -1.
         22    1    1    0    0    0  0.26100456766E+02 -0.88800156369E+00 -0.12421926378E+02  0.28919312666E+02  0.00000000000E+00 0.  1.
</event>
<event>
 5    1  0.8957809E-005  0.9118800E+02  0.7818608E-02  0.1130116E+00
         25   -1    0    0    0    0  0.00000000000E+00  0.00000000000E+00  0.99999998245E-14  0.12500000000E+03  0.12500000000E+03 0.  0.
        -11    1    3    3    0    0 -0.34523330069E+02 -0.89162758359E+01  0.19254072277E+02  0.40522581277E+02  0.51100000000E-03 0.  1.
         23    2    1    0    0    0  0.70207599215E+01 -0.18057433516E+02 -0.19096796698E+02  0.97796146980E+02  0.93936344111E+02 0.  0.
         11    1    3    3    0    0  0.41544089991E+02 -0.91411576796E+01 -0.38350868975E+02  0.57273565702E+02  0.51100000000E-03 0. -1.
         22    1    1    0    0    0 -0.70207599215E+01  0.18057433516E+02  0.19096796698E+02  0.27203853020E+02  0.00000000000E+00 0. -1.
</event>
<event>
 5    1  0.8957809E-005  0.9118800E+02  0.7818608E-02  0.1130116E+00
         25   -1    0    0    0    0  0.00000000000E+00  0.00000000000E+00  0.99999998245E-14  0.12500000000E+03  0.12500000000E+03 0.  0.
        -11    1    3    3    0    0  0.26961636431E+02 -0.46069443698E+02 -0.19116909418E+02  0.56699027396E+02  0.51100000000E-03 0.  1.
         23    2    1    0    0    0  0.11837776526E+02 -0.27305847514E+02  0.91678072243E+01  0.93858533258E+02  0.88541703816E+02 0.  0.
         11    1    3    3    0    0 -0.15123859905E+02  0.18763596184E+02  0.28284716642E+02  0.37159505863E+02  0.51100000000E-03 0. -1.
         22    1    1    0    0    0 -0.11837776526E+02  0.27305847514E+02 -0.91678072243E+01  0.31141466742E+02  0.00000000000E+00 0.  1.
</event>
<event>
 5    1  0.8957809E-005  0.9118800E+02  0.7818608E-02  0.1130116E+00
         25   -1    0    0    0    0  0.00000000000E+00  0.00000000000E+00  0.99999998245E-14  0.12500000000E+03  0.12500000000E+03 0.  0.
        -11    1    3    3    0    0  0.33223878181E+02 -0.45383236924E+01 -0.29759039965E+02  0.44833279193E+02  0.51100000000E-03 0.  1.
         23    2    1    0    0    0 -0.90367284673E+01  0.20094749971E+02 -0.21068262561E+02  0.94515034441E+02  0.89463727903E+02 0.  0.
         11    1    3    3    0    0 -0.42260606648E+02  0.24633073663E+02  0.86907774037E+01  0.49681755248E+02  0.51100000000E-03 0. -1.
         22    1    1    0    0    0  0.90367284673E+01 -0.20094749971E+02  0.21068262561E+02  0.30484965559E+02  0.00000000000E+00 0. -1.
</event>
<event>
 5    1  0.8957809E-005  0.9118800E+02  0.7818608E-02  0.1130116E+00
         25   -1    0    0    0    0  0.00000000000E+00  0.00000000000E+00  0.99999998245E-14  0.12500000000E+03  0.12500000000E+03 0.  0.
        -11    1    3    3    0    0 -0.11648661861E+01  0.26718834750E+02 -0.37351138975E+02  0.45938661568E+02  0.51100000000E-03 0.  1.
         23    2    1    0    0    0 -0.10468731507E+02 -0.18933671196E+02 -0.19632470476E+02  0.95785069891E+02  0.91220981538E+02 0.  0.
         11    1    3    3    0    0 -0.93038653207E+01 -0.45652505946E+02  0.17718668500E+02  0.49846408323E+02  0.51100000000E-03 0. -1.
         22    1    1    0    0    0  0.10468731507E+02  0.18933671196E+02  0.19632470476E+02  0.29214930109E+02  0.00000000000E+00 0. -1.
</event>
<event>
 5    1  0.8957809E-005  0.9118800E+02  0.7818608E-02  0.1130116E+00
         25   -1    0    0    0    0  0.00000000000E+00  0.00000000000E+00  0.99999998245E-14  0.12500000000E+03  0.12500000000E+03 0.  0.
        -11    1    3    3    0    0 -0.31334447760E+02 -0.17115699477E+02 -0.49943683005E+02  0.61393535957E+02  0.51100000000E-03 0. -1.
         23    2    1    0    0    0 -0.93903058165E+01 -0.14510665896E+02 -0.22457509169E+02  0.96661387011E+02  0.92413996520E+02 0.  0.
         11    1    3    3    0    0  0.21944141943E+02  0.26050335809E+01  0.27486173836E+02  0.35267851054E+02  0.51100000000E-03 0.  1.
         22    1    1    0    0    0  0.93903058165E+01  0.14510665896E+02  0.22457509169E+02  0.28338612989E+02  0.00000000000E+00 0. -1.
</event>
<event>
 5    1  0.8957809E-005  0.9118800E+02  0.7818608E-02  0.1130116E+00
         25   -1    0    0    0    0  0.00000000000E+00  0.00000000000E+00  0.99999998245E-14  0.12500000000E+03  0.12500000000E+03 0.  0.
        -11    1    3    3    0    0 -0.24268288144E+02 -0.21999319382E+02 -0.48803142814E+02  0.58776412033E+02  0.51100000000E-03 0.  1.
         23    2    1    0    0    0 -0.15426356669E+02  0.30142725096E+01 -0.29458490205E+02  0.91610466251E+02  0.85308947729E+02 0.  0.
         11    1    3    3    0    0  0.88419314749E+01  0.25013591891E+02  0.19344652609E+02  0.32834054217E+02  0.51100000000E-03 0. -1.
         22    1    1    0    0    0  0.15426356669E+02 -0.30142725096E+01  0.29458490205E+02  0.33389533749E+02  0.00000000000E+00 0.  1.
</event>
<event>
 5    1  0.8957809E-005  0.9118800E+02  0.7818608E-02  0.1130116E+00
         25   -1    0    0    0    0  0.00000000000E+00  0.00000000000E+00  0.99999998245E-14  0.12500000000E+03  0.12500000000E+03 0.  0.
        -11    1    3    3    0    0 -0.51698309333E+02  0.99628565056E+01  0.15049336215E+02  0.54758161204E+02  0.51100000000E-03 0. -1.
         23    2    1    0    0    0 -0.29174691215E+02 -0.13095938075E+02 -0.48729928784E+01  0.92651703892E+02  0.86821229967E+02 0.  0.
         11    1    3    3    0    0  0.22523618119E+02 -0.23058794581E+02 -0.19922329094E+02  0.37893542688E+02  0.51100000000E-03 0.  1.
         22    1    1    0    0    0  0.29174691215E+02  0.13095938075E+02  0.48729928784E+01  0.32348296108E+02  0.00000000000E+00 0. -1.
</event>
<event>
 5    1  0.8957809E-005  0.9118800E+02  0.7818608E-02  0.1130116E+00
         25   -1    0    0    0    0  0.00000000000E+00  0.00000000000E+00  0.99999998245E-14  0.12500000000E+03  0.12500000000E+03 0.  0.
        -11    1    3    3    0    0  0.14229622015E+02 -0.29865512044E+02  0.48556503006E+02  0.58755126898E+02  0.51100000000E-03 0.  1.
         23    2    1    0    0    0  0.18426636982E+02 -0.40949705560E+01  0.22291500432E+02  0.95790057757E+02  0.91227816149E+02 0.  0.
         11    1    3    3    0    0  0.41970149671E+01  0.25770541489E+02 -0.26265002574E+02  0.37034930859E+02  0.51100000000E-03 0. -1.
         22    1    1    0    0    0 -0.18426636982E+02  0.40949705560E+01 -0.22291500432E+02  0.29209942243E+02  0.00000000000E+00 0.  1.
</event>
<event>
 5    1  0.8957809E-005  0.9118800E+02  0.7818608E-02  0.1130116E+00
         25   -1    0    0    0    0  0.00000000000E+00  0.00000000000E+00  0.99999998245E-14  0.12500000000E+03  0.12500000000E+03 0.  0.
        -11    1    3    3    0    0  0.41211217022E+02  0.67000864414E+01 -0.34110330633E+00  0.41753705446E+02  0.51100000000E-03 0.  1.
         23    2    1    0    0    0 -0.87940329559E+01  0.25396318097E+02 -0.10587082892E+02  0.96114115685E+02  0.91670763721E+02 0.  0.
         11    1    3    3    0    0 -0.50005249978E+02  0.18696231655E+02 -0.10245979586E+02  0.54360410239E+02  0.51100000000E-03 0. -1.
         22    1    1    0    0    0  0.87940329559E+01 -0.25396318097E+02  0.10587082892E+02  0.28885884315E+02  0.00000000000E+00 0. -1.
</event>
<event>
 5    1  0.8957809E-005  0.9118800E+02  0.7818608E-02  0.1130116E+00
         25   -1    0    0    0    0  0.00000000000E+00  0.00000000000E+00  0.99999998245E-14  0.12500000000E+03  0.12500000000E+03 0.  0.
        -11    1    3    3    0    0 -0.89016513503E+01 -0.36605606090E+02 -0.10795186661E+01  0.37687864821E+02  0.51100000000E-03 0.  1.
         23    2    1    0    0    0  0.19932724209E+02  0.14822282910E+02 -0.11610538546E+02  0.97580697121E+02  0.93649208647E+02 0.  0.
         11    1    3    3    0    0  0.28834375559E+02  0.51427889000E+02 -0.10531019880E+02  0.59892832299E+02  0.51100000000E-03 0. -1.
         22    1    1    0    0    0 -0.19932724209E+02 -0.14822282910E+02  0.11610538546E+02  0.27419302879E+02  0.00000000000E+00 0. -1.
</event>
<event>
 5    1  0.8957809E-005  0.9118800E+02  0.7818608E-02  0.1130116E+00
         25   -1    0    0    0    0  0.00000000000E+00  0.00000000000E+00  0.99999998245E-14  0.12500000000E+03  0.12500000000E+03 0.  0.
        -11    1    3    3    0    0 -0.38799083423E+02  0.17439747083E+02 -0.75333629457E+01  0.43200291785E+02  0.51100000000E-03 0.  1.
         23    2    1    0    0    0  0.97941497741E+01  0.14801263086E+02  0.19305914881E+02  0.98775562768E+02  0.95230723467E+02 0.  0.
         11    1    3    3    0    0  0.48593233197E+02 -0.26384839970E+01  0.26839277827E+02  0.55575270983E+02  0.51100000000E-03 0. -1.
         22    1    1    0    0    0 -0.97941497741E+01 -0.14801263086E+02 -0.19305914881E+02  0.26224437232E+02  0.00000000000E+00 0.  1.
</event>
<event>
 5    1  0.8957809E-005  0.9118800E+02  0.7818608E-02  0.1130116E+00
         25   -1    0    0    0    0  0.00000000000E+00  0.00000000000E+00  0.99999998245E-14  0.12500000000E+03  0.12500000000E+03 0.  0.
        -11    1    3    3    0    0  0.27301829217E+02  0.17259636224E+02  0.20063127776E+02  0.38023861161E+02  0.51100000000E-03 0.  1.
         23    2    1    0    0    0 -0.24753792357E+02 -0.42449751908E+01  0.17470431574E+02  0.94406111234E+02  0.89311409174E+02 0.  0.
         11    1    3    3    0    0 -0.52055621574E+02 -0.21504611415E+02 -0.25926962021E+01  0.56382250074E+02  0.51100000000E-03 0. -1.
         22    1    1    0    0    0  0.24753792357E+02  0.42449751908E+01 -0.17470431574E+02  0.30593888766E+02  0.00000000000E+00 0.  1.
</event>
<event>
 5    1  0.8957809E-005  0.9118800E+02  0.7818608E-02  0.1130116E+00
         25   -1    0    0    0    0  0.00000000000E+00  0.00000000000E+00  0.99999998245E-14  0.12500000000E+03  0.12500000000E+03 0.  0.
        -11    1    3    3    0    0  0.81082176408E+01 -0.45923623699E+02 -0.41520561393E+02  0.62439406032E+02  0.51100000000E-03 0.  1.
         23    2    1    0    0    0  0.23474054519E+01 -0.21246657234E+02 -0.20822113425E+02  0.95158901437E+02  0.90358869842E+02 0.  0.
         11    1    3    3    0    0 -0.57608121890E+01  0.24676966466E+02  0.20698447968E+02  0.32719495405E+02  0.51100000000E-03 0. -1.
         22    1    1    0    0    0 -0.23474054519E+01  0.21246657234E+02  0.20822113425E+02  0.29841098563E+02  0.00000000000E+00 0.  1.
</event>
<event>
 5    1  0.8957809E-005  0.9118800E+02  0.7818608E-02  0.1130116E+00
         25   -1    0    0    0    0  0.00000000000E+00  0.00000000000E+00  0.99999998245E-14  0.12500000000E+03  0.12500000000E+03 0.  0.
        -11    1    3    3    0    0 -0.12400956157E+01 -0.22789958483E+02  0.24095283486E+02  0.33188894698E+02  0.51100000000E-03 0.  1.
         23    2    1    0    0    0 -0.51969696777E+01  0.11752194449E+02 -0.27061705596E+02  0.95042388647E+02  0.90197545209E+02 0.  0.
         11    1    3    3    0    0 -0.39568740620E+01  0.34542152932E+02 -0.51156989081E+02  0.61853493949E+02  0.51100000000E-03 0. -1.
         22    1    1    0    0    0  0.51969696777E+01 -0.11752194449E+02  0.27061705596E+02  0.29957611353E+02  0.00000000000E+00 0. -1.
</event>
<event>
 5    1  0.8957809E-005  0.9118800E+02  0.7818608E-02  0.1130116E+00
         25   -1    0    0    0    0  0.00000000000E+00  0.00000000000E+00  0.99999998245E-14  0.12500000000E+03  0.12500000000E+03 0.  0.
        -11    1    3    3    0    0 -0.18019294671E+02 -0.38443762867E+02 -0.48056079485E+01  0.42728348340E+02  0.51100000000E-03 0.  1.
         23    2    1    0    0    0 -0.12224526427E+02  0.10508036791E+02 -0.24385290297E+02  0.95768163478E+02  0.91197811758E+02 0.  0.
         11    1    3    3    0    0  0.57947682442E+01  0.48951799658E+02 -0.19579682349E+02  0.53039815138E+02  0.51100000000E-03 0. -1.
         22    1    1    0    0    0  0.12224526427E+02 -0.10508036791E+02  0.24385290297E+02  0.29231836522E+02  0.00000000000E+00 0.  1.
</event>
<event>
 5    1  0.8957809E-005  0.9118800E+02  0.7818608E-02  0.1130116E+00
         25   -1    0    0    0    0  0.00000000000E+00  0.00000000000E+00  0.99999998245E-14  0.12500000000E+03  0.12500000000E+03 0.  0.
        -11    1    3    3    0    0  0.19163108187E+02  0.26637330025E+02  0.10909214496E+02  0.34580095827E+02  0.51100000000E-03 0.  1.
         23    2    1    0    0    0  0.55867829136E+01 -0.29289311127E+02 -0.60443246562E+01  0.94576164769E+02  0.89549099338E+02 0.  0.
         11    1    3    3    0    0 -0.13576325273E+02 -0.55926641152E+02 -0.16953539152E+02  0.59996068942E+02  0.51100000000E-03 0. -1.
         22    1    1    0    0    0 -0.55867829136E+01  0.29289311127E+02  0.60443246562E+01  0.30423835231E+02  0.00000000000E+00 0. -1.
</event>
<event>
 5    1  0.8957809E-005  0.9118800E+02  0.7818608E-02  0.1130116E+00
         25   -1    0    0    0    0  0.00000000000E+00  0.00000000000E+00  0.99999998245E-14  0.12500000000E+03  0.12500000000E+03 0.  0.
        -11    1    3    3    0    0  0.39000296219E+02 -0.37889336380E+02  0.78257644777E+01  0.54935120883E+02  0.51100000000E-03 0. -1.
         23    2    1    0    0    0  0.27614269158E+00 -0.28946511728E+02 -0.23392203505E+01  0.95957810897E+02  0.91457382011E+02 0.  0.
         11    1    3    3    0    0 -0.38724153528E+02  0.89428246520E+01 -0.10164984828E+02  0.41022690014E+02  0.51100000000E-03 0.  1.
         22    1    1    0    0    0 -0.27614269158E+00  0.28946511728E+02  0.23392203505E+01  0.29042189103E+02  0.00000000000E+00 0. -1.
</event>
<event>
 5    1  0.8957809E-005  0.9118800E+02  0.7818608E-02  0.1130116E+00
         25   -1    0    0    0    0  0.00000000000E+00  0.00000000000E+00  0.99999998245E-14  0.12500000000E+03  0.12500000000E+03 0.  0.
        -11    1    3    3    0    0 -0.15670382186E+02 -0.57052825528E+02  0.51612902707E+01  0.59390442801E+02  0.51100000000E-03 0.  1.
         23    2    1    0    0    0  0.24477092060E+01 -0.31010723069E+02 -0.65553536132E+01  0.93209610154E+02  0.87620788278E+02 0.  0.
         11    1    3    3    0    0  0.18118091392E+02  0.26042102460E+02 -0.11716643884E+02  0.33819167352E+02  0.51100000000E-03 0. -1.
         22    1    1    0    0    0 -0.24477092060E+01  0.31010723069E+02  0.65553536132E+01  0.31790389846E+02  0.00000000000E+00 0.  1.
</event>
<event>
 5    1  0.8957809E-005  0.9118800E+02  0.7818608E-02  0.1130116E+00
         25   -1    0    0    0    0  0.00000000000E+00  0.00000000000E+00  0.99999998245E-14  0.12500000000E+03  0.12500000000E+03 0.  0.
        -11    1    3    3    0    0  0.50186968069E+01  0.92250423391E+01  0.36120782489E+02  0.37616481118E+02  0.51100000000E-03 0. -1.
         23    2    1    0    0    0 -0.23745652688E+02  0.22967631144E+01 -0.15098461569E+02  0.96767134681E+02  0.92556921245E+02 0.  0.
         11    1    3    3    0    0 -0.28764349495E+02 -0.69282792247E+01 -0.51219244058E+02  0.59150653563E+02  0.51100000000E-03 0.  1.
         22    1    1    0    0    0  0.23745652688E+02 -0.22967631144E+01  0.15098461569E+02  0.28232865319E+02  0.00000000000E+00 0.  1.
</event>
<event>
 5    1  0.8957809E-005  0.9118800E+02  0.7818608E-02  0.1130116E+00
         25   -1    0    0    0    0  0.00000000000E+00  0.00000000000E+00  0.99999998245E-14  0.12500000000E+03  0.12500000000E+03 0.  0.
        -11    1    3    3    0    0  0.10137495385E+02  0.15751690522E+02 -0.36716112780E+02  0.41218412207E+02  0.51100000000E-03 0. -1.
         23    2    1    0    0    0  0.31502037844E+02  0.43316676627E+01  0.81205592394E+01  0.92181023547E+02  0.86140907162E+02 0.  0.
         11    1    3    3    0    0  0.21364542459E+02 -0.11420022859E+02  0.44836672019E+02  0.50962611340E+02  0.51100000000E-03 0.  1.
         22    1    1    0    0    0 -0.31502037844E+02 -0.43316676627E+01 -0.81205592394E+01  0.32818976453E+02  0.00000000000E+00 0. -1.
</event>
<event>
 5    1  0.8957809E-005  0.9118800E+02  0.7818608E-02  0.1130116E+00
         25   -1    0    0    0    0  0.00000000000E+00  0.00000000000E+00  0.99999998245E-14  0.12500000000E+03  0.12500000000E+03 0.  0.
        -11    1    3    3    0    0  0.23333822821E+02  0.19689776853E+02 -0.22605206550E+02  0.37988813662E+02  0.51100000000E-03 0.  1.
         23    2    1    0    0    0 -0.28452467025E+02  0.73811954637E+01 -0.56528302019E+00  0.95600264097E+02  0.90967389895E+02 0.  0.
         11    1    3    3    0    0 -0.51786289846E+02 -0.12308581390E+02  0.22039923529E+02  0.57611450436E+02  0.51100000000E-03 0. -1.
         22    1    1    0    0    0  0.28452467025E+02 -0.73811954637E+01  0.56528302019E+00  0.29399735903E+02  0.00000000000E+00 0. -1.
</event>
<event>
 5    1  0.8957809E-005  0.9118800E+02  0.7818608E-02  0.1130116E+00
         25   -1    0    0    0    0  0.00000000000E+00  0.00000000000E+00  0.99999998245E-14  0.12500000000E+03  0.12500000000E+03 0.  0.
        -11    1    3    3    0    0 -0.47822692378E+02 -0.32576980931E+02  0.67524268057E+01  0.58256886811E+02  0.51100000000E-03 0.  1.
         23    2    1    0    0    0 -0.32142563072E+02 -0.28040788620E+02 -0.95095296222E+01  0.81298039622E+02  0.68552971528E+02 0.  0.
         11    1    3    3    0    0  0.15680129306E+02  0.45361923110E+01 -0.16261956428E+02  0.23041152811E+02  0.51100000000E-03 0. -1.
         22    1    1    0    0    0  0.32142563072E+02  0.28040788620E+02  0.95095296222E+01  0.43701960378E+02  0.00000000000E+00 0.  1.
</event>
<event>
 5    1  0.8957809E-005  0.9118800E+02  0.7818608E-02  0.1130116E+00
         25   -1    0    0    0    0  0.00000000000E+00  0.00000000000E+00  0.99999998245E-14  0.12500000000E+03  0.12500000000E+03 0.  0.
        -11    1    3    3    0    0  0.34159212631E+02 -0.11692852857E+01  0.16689821702E+02  0.38036419184E+02  0.51100000000E-03 0. -1.
         23    2    1    0    0    0 -0.15372158914E+02  0.24968924684E+02  0.48314157885E+01  0.95283118466E+02  0.90530545213E+02 0.  0.
         11    1    3    3    0    0 -0.49531371545E+02  0.26138209970E+02 -0.11858405913E+02  0.57246699282E+02  0.51100000000E-03 0.  1.
         22    1    1    0    0    0  0.15372158914E+02 -0.24968924684E+02 -0.48314157885E+01  0.29716881534E+02  0.00000000000E+00 0.  1.
</event>
<event>
 5    1  0.8957809E-005  0.9118800E+02  0.7818608E-02  0.1130116E+00
         25   -1    0    0    0    0  0.00000000000E+00  0.00000000000E+00  0.99999998245E-14  0.12500000000E+03  0.12500000000E+03 0.  0.
        -11    1    3    3    0    0 -0.39168609277E+02  0.37878421597E+02  0.81238173241E+01  0.55090391028E+02  0.51100000000E-03 0.  1.
         23    2    1    0    0    0 -0.22274021255E+01  0.27707988162E+02 -0.70846211281E+01  0.96314014140E+02  0.91942936297E+02 0.  0.
         11    1    3    3    0    0  0.36941207152E+02 -0.10170433434E+02 -0.15208438452E+02  0.41223623112E+02  0.51100000000E-03 0. -1.
         22    1    1    0    0    0  0.22274021255E+01 -0.27707988162E+02  0.70846211281E+01  0.28685985860E+02  0.00000000000E+00 0.  1.
</event>
<event>
 5    1  0.8957809E-005  0.9118800E+02  0.7818608E-02  0.1130116E+00
         25   -1    0    0    0    0  0.00000000000E+00  0.00000000000E+00  0.99999998245E-14  0.12500000000E+03  0.12500000000E+03 0.  0.
        -11    1    3    3    0    0  0.25007141819E+01  0.44571197982E+02  0.20428910432E+02  0.49093641571E+02  0.51100000000E-03 0.  1.
         23    2    1    0    0    0  0.11954738737E+02  0.19446478151E+02 -0.17971863146E+02  0.95947131714E+02  0.91442784999E+02 0.  0.
         11    1    3    3    0    0  0.94540245550E+01 -0.25124719832E+02 -0.38400773578E+02  0.46853490143E+02  0.51100000000E-03 0. -1.
         22    1    1    0    0    0 -0.11954738737E+02 -0.19446478151E+02  0.17971863146E+02  0.29052868286E+02  0.00000000000E+00 0. -1.
</event>
<event>
 5    1  0.8957809E-005  0.9118800E+02  0.7818608E-02  0.1130116E+00
         25   -1    0    0    0    0  0.00000000000E+00  0.00000000000E+00  0.99999998245E-14  0.12500000000E+03  0.12500000000E+03 0.  0.
        -11    1    3    3    0    0  0.12972924735E+02  0.32035308085E+02  0.13380949617E+02  0.37062211931E+02  0.51100000000E-03 0.  1.
         23    2    1    0    0    0  0.12168487877E+02 -0.15538123336E+02  0.31377161849E+02  0.87932066962E+02  0.79737172889E+02 0.  0.
         11    1    3    3    0    0 -0.80443685807E+00 -0.47573431421E+02  0.17996212232E+02  0.50869855031E+02  0.51100000000E-03 0. -1.
         22    1    1    0    0    0 -0.12168487877E+02  0.15538123336E+02 -0.31377161849E+02  0.37067933038E+02  0.00000000000E+00 0. -1.
</event>
<event>
 5    1  0.8957809E-005  0.9118800E+02  0.7818608E-02  0.1130116E+00
         25   -1    0    0    0    0  0.00000000000E+00  0.00000000000E+00  0.99999998245E-14  0.12500000000E+03  0.12500000000E+03 0.  0.
        -11    1    3    3    0    0 -0.56532448940E+02  0.10007419808E+02 -0.10166282633E+02  0.58304541308E+02  0.51100000000E-03 0.  1.
         23    2    1    0    0    0 -0.28442389967E+02 -0.11331865190E+02 -0.38428318200E+01  0.94143103330E+02  0.88942542310E+02 0.  0.
         11    1    3    3    0    0  0.28090058973E+02 -0.21339284998E+02  0.63234508135E+01  0.35838562022E+02  0.51100000000E-03 0. -1.
         22    1    1    0    0    0  0.28442389967E+02  0.11331865190E+02  0.38428318200E+01  0.30856896670E+02  0.00000000000E+00 0.  1.
</event>
<event>
 5    1  0.8957809E-005  0.9118800E+02  0.7818608E-02  0.1130116E+00
         25   -1    0    0    0    0  0.00000000000E+00  0.00000000000E+00  0.99999998245E-14  0.12500000000E+03  0.12500000000E+03 0.  0.
        -11    1    3    3    0    0 -0.91145924878E+01 -0.53944674617E+02  0.66120729504E+01  0.55107379041E+02  0.51100000000E-03 0.  1.
         23    2    1    0    0    0  0.63480178272E+01 -0.19327867759E+02  0.21095842624E+02  0.95693031913E+02  0.91094774703E+02 0.  0.
         11    1    3    3    0    0  0.15462610315E+02  0.34616806858E+02  0.14483769674E+02  0.40585652872E+02  0.51100000000E-03 0. -1.
         22    1    1    0    0    0 -0.63480178272E+01  0.19327867759E+02 -0.21095842624E+02  0.29306968087E+02  0.00000000000E+00 0.  1.
</event>
<event>
 5    1  0.8957809E-005  0.9118800E+02  0.7818608E-02  0.1130116E+00
         25   -1    0    0    0    0  0.00000000000E+00  0.00000000000E+00  0.99999998245E-14  0.12500000000E+03  0.12500000000E+03 0.  0.
        -11    1    3    3    0    0 -0.31752492916E+02 -0.47192112445E+02 -0.12109912807E+02  0.58154675408E+02  0.51100000000E-03 0.  1.
         23    2    1    0    0    0 -0.27631184284E+02 -0.14212662014E+02  0.10720487369E+01  0.93909303723E+02  0.88613350748E+02 0.  0.
         11    1    3    3    0    0  0.41213086318E+01  0.32979450431E+02  0.13181961543E+02  0.35754628315E+02  0.51100000000E-03 0. -1.
         22    1    1    0    0    0  0.27631184284E+02  0.14212662014E+02 -0.10720487369E+01  0.31090696277E+02  0.00000000000E+00 0.  1.
</event>
<event>
 5    1  0.8957809E-005  0.9118800E+02  0.7818608E-02  0.1130116E+00
         25   -1    0    0    0    0  0.00000000000E+00  0.00000000000E+00  0.99999998245E-14  0.12500000000E+03  0.12500000000E+03 0.  0.
        -11    1    3    3    0    0 -0.21895376275E+02 -0.62268946768E+01  0.24969146362E+02  0.33788163458E+02  0.51100000000E-03 0. -1.
         23    2    1    0    0    0  0.19716433695E+02  0.99868018339E+00 -0.20975484762E+02  0.96195380913E+02  0.91781508095E+02 0.  0.
         11    1    3    3    0    0  0.41611809970E+02  0.72255748602E+01 -0.45944631124E+02  0.62407217455E+02  0.51100000000E-03 0.  1.
         22    1    1    0    0    0 -0.19716433695E+02 -0.99868018339E+00  0.20975484762E+02  0.28804619087E+02  0.00000000000E+00 0.  1.
</event>
<event>
 5    1  0.8957809E-005  0.9118800E+02  0.7818608E-02  0.1130116E+00
         25   -1    0    0    0    0  0.00000000000E+00  0.00000000000E+00  0.99999998245E-14  0.12500000000E+03  0.12500000000E+03 0.  0.
        -11    1    3    3    0    0  0.29393862288E+02  0.38942075134E+02  0.93502703590E+01  0.49678082813E+02  0.51100000000E-03 0.  1.
         23    2    1    0    0    0 -0.10454124509E+02  0.20271320954E+02  0.19674930935E+02  0.94878278937E+02  0.89969826800E+02 0.  0.
         11    1    3    3    0    0 -0.39847986797E+02 -0.18670754180E+02  0.10324660576E+02  0.45200196125E+02  0.51100000000E-03 0. -1.
         22    1    1    0    0    0  0.10454124509E+02 -0.20271320954E+02 -0.19674930935E+02  0.30121721063E+02  0.00000000000E+00 0. -1.
</event>
<event>
 5    1  0.8957809E-005  0.9118800E+02  0.7818608E-02  0.1130116E+00
         25   -1    0    0    0    0  0.00000000000E+00  0.00000000000E+00  0.99999998245E-14  0.12500000000E+03  0.12500000000E+03 0.  0.
        -11    1    3    3    0    0  0.18681612308E+02  0.52424212779E+02 -0.73908851520E+01  0.56142015528E+02  0.51100000000E-03 0. -1.
         23    2    1    0    0    0  0.22305256078E+02  0.97252367144E+01  0.36515361294E+01  0.10039434224E+03  0.97332345904E+02 0.  0.
         11    1    3    3    0    0  0.36236437703E+01 -0.42698976065E+02  0.11042421281E+02  0.44252326709E+02  0.51100000000E-03 0.  1.
         22    1    1    0    0    0 -0.22305256078E+02 -0.97252367144E+01 -0.36515361294E+01  0.24605657763E+02  0.00000000000E+00 0. -1.
</event>
<event>
 5    1  0.8957809E-005  0.9118800E+02  0.7818608E-02  0.1130116E+00
         25   -1    0    0    0    0  0.00000000000E+00  0.00000000000E+00  0.99999998245E-14  0.12500000000E+03  0.12500000000E+03 0.  0.
        -11    1    3    3    0    0 -0.37743563103E+02 -0.18182581873E+02 -0.38441486197E+02  0.56858866508E+02  0.51100000000E-03 0. -1.
         23    2    1    0    0    0 -0.28137450643E+02 -0.13143477365E+02 -0.31442271737E+01  0.93785367366E+02  0.88438350514E+02 0.  0.
         11    1    3    3    0    0  0.96061124600E+01  0.50391045080E+01  0.35297259023E+02  0.36926500858E+02  0.51100000000E-03 0.  1.
         22    1    1    0    0    0  0.28137450643E+02  0.13143477365E+02  0.31442271737E+01  0.31214632634E+02  0.00000000000E+00 0. -1.
</event>
<event>
 5    1  0.8957809E-005  0.9118800E+02  0.7818608E-02  0.1130116E+00
         25   -1    0    0    0    0  0.00000000000E+00  0.00000000000E+00  0.99999998245E-14  0.12500000000E+03  0.12500000000E+03 0.  0.
        -11    1    3    3    0    0  0.18695053289E+02 -0.31806293912E+02  0.22325628926E+02  0.43122836839E+02  0.51100000000E-03 0.  1.
         23    2    1    0    0    0 -0.65736699118E+01 -0.16591183626E+02 -0.22190268449E+02  0.96523895561E+02  0.92227836851E+02 0.  0.
         11    1    3    3    0    0 -0.25268723201E+02  0.15215110286E+02 -0.44515897375E+02  0.53401058721E+02  0.51100000000E-03 0. -1.
         22    1    1    0    0    0  0.65736699118E+01  0.16591183626E+02  0.22190268449E+02  0.28476104439E+02  0.00000000000E+00 0. -1.
</event>
<event>
 5    1  0.8957809E-005  0.9118800E+02  0.7818608E-02  0.1130116E+00
         25   -1    0    0    0    0  0.00000000000E+00  0.00000000000E+00  0.99999998245E-14  0.12500000000E+03  0.12500000000E+03 0.  0.
        -11    1    3    3    0    0  0.34477828699E+02 -0.92903104797E+01  0.25671995510E+02  0.43978197944E+02  0.51100000000E-03 0.  1.
         23    2    1    0    0    0  0.19259739199E+02 -0.25158549037E+01 -0.22691923230E+02  0.95130442591E+02  0.90319492070E+02 0.  0.
         11    1    3    3    0    0 -0.15218089500E+02  0.67744555760E+01 -0.48363918740E+02  0.51152244648E+02  0.51100000000E-03 0. -1.
         22    1    1    0    0    0 -0.19259739199E+02  0.25158549037E+01  0.22691923230E+02  0.29869557409E+02  0.00000000000E+00 0. -1.
</event>
<event>
 5    1  0.8957809E-005  0.9118800E+02  0.7818608E-02  0.1130116E+00
         25   -1    0    0    0    0  0.00000000000E+00  0.00000000000E+00  0.99999998245E-14  0.12500000000E+03  0.12500000000E+03 0.  0.
        -11    1    3    3    0    0  0.10913608234E+02  0.26379047921E+02 -0.33923209026E+02  0.44336724335E+02  0.51100000000E-03 0.  1.
         23    2    1    0    0    0  0.50140221264E+01  0.23295755443E+02  0.17022333436E+02  0.95715320129E+02  0.91125353400E+02 0.  0.
         11    1    3    3    0    0 -0.58995861074E+01 -0.30832924780E+01  0.50945542462E+02  0.51378595794E+02  0.51100000000E-03 0. -1.
         22    1    1    0    0    0 -0.50140221264E+01 -0.23295755443E+02 -0.17022333436E+02  0.29284679871E+02  0.00000000000E+00 0. -1.
</event>
<event>
 5    1  0.8957809E-005  0.9118800E+02  0.7818608E-02  0.1130116E+00
         25   -1    0    0    0    0  0.00000000000E+00  0.00000000000E+00  0.99999998245E-14  0.12500000000E+03  0.12500000000E+03 0.  0.
        -11    1    3    3    0    0  0.31903567052E+02 -0.37536806348E+02  0.33209455840E+02  0.59411424650E+02  0.51100000000E-03 0.  1.
         23    2    1    0    0    0  0.60165869226E+01 -0.27128161761E+02  0.10838319498E+02  0.95173742302E+02  0.90379397959E+02 0.  0.
         11    1    3    3    0    0 -0.25886980130E+02  0.10408644587E+02 -0.22371136342E+02  0.35762317652E+02  0.51100000000E-03 0. -1.
         22    1    1    0    0    0 -0.60165869226E+01  0.27128161761E+02 -0.10838319498E+02  0.29826257698E+02  0.00000000000E+00 0.  1.
</event>
<event>
 5    1  0.8957809E-005  0.9118800E+02  0.7818608E-02  0.1130116E+00
         25   -1    0    0    0    0  0.00000000000E+00  0.00000000000E+00  0.99999998245E-14  0.12500000000E+03  0.12500000000E+03 0.  0.
        -11    1    3    3    0    0 -0.28786180232E+02 -0.21896263201E+02  0.36378284968E+02  0.51297856992E+02  0.51100000000E-03 0.  1.
         23    2    1    0    0    0  0.93917019968E+01 -0.22723759704E+02  0.71292372575E+01  0.99399231548E+02  0.96045863456E+02 0.  0.
         11    1    3    3    0    0  0.38177882228E+02 -0.82749650310E+00 -0.29249047711E+02  0.48101374556E+02  0.51100000000E-03 0. -1.
         22    1    1    0    0    0 -0.93917019968E+01  0.22723759704E+02 -0.71292372575E+01  0.25600768452E+02  0.00000000000E+00 0. -1.
</event>
<event>
 5    1  0.8957809E-005  0.9118800E+02  0.7818608E-02  0.1130116E+00
         25   -1    0    0    0    0  0.00000000000E+00  0.00000000000E+00  0.99999998245E-14  0.12500000000E+03  0.12500000000E+03 0.  0.
        -11    1    3    3    0    0 -0.36333851662E+02  0.12125453812E+02 -0.13460994979E+02  0.40600169862E+02  0.51100000000E-03 0. -1.
         23    2    1    0    0    0  0.15999415882E+02 -0.61363973233E+01 -0.22455376259E+02  0.96753219589E+02  0.92538126722E+02 0.  0.
         11    1    3    3    0    0  0.52333267544E+02 -0.18261851135E+02 -0.89943812798E+01  0.56153049726E+02  0.51100000000E-03 0.  1.
         22    1    1    0    0    0 -0.15999415882E+02  0.61363973233E+01  0.22455376259E+02  0.28246780411E+02  0.00000000000E+00 0.  1.
</event>
<event>
 5    1  0.8957809E-005  0.9118800E+02  0.7818608E-02  0.1130116E+00
         25   -1    0    0    0    0  0.00000000000E+00  0.00000000000E+00  0.99999998245E-14  0.12500000000E+03  0.12500000000E+03 0.  0.
        -11    1    3    3    0    0  0.17836855500E+01 -0.33917322220E+02  0.50958221739E+02  0.61239747254E+02  0.51100000000E-03 0.  1.
         23    2    1    0    0    0 -0.56620475812E+01 -0.21321140183E+02  0.21182269123E+02  0.94416698564E+02  0.89326225942E+02 0.  0.
         11    1    3    3    0    0 -0.74457331312E+01  0.12596182038E+02 -0.29775952616E+02  0.33176951310E+02  0.51100000000E-03 0. -1.
         22    1    1    0    0    0  0.56620475812E+01  0.21321140183E+02 -0.21182269123E+02  0.30583301436E+02  0.00000000000E+00 0.  1.
</event>
<event>
 5    1  0.8957809E-005  0.9118800E+02  0.7818608E-02  0.1130116E+00
         25   -1    0    0    0    0  0.00000000000E+00  0.00000000000E+00  0.99999998245E-14  0.12500000000E+03  0.12500000000E+03 0.  0.
        -11    1    3    3    0    0  0.54206524249E+01  0.37498660444E+02  0.55343921810E+01  0.38290501497E+02  0.51100000000E-03 0. -1.
         23    2    1    0    0    0  0.78618103123E+01 -0.22349788913E+02  0.11829707321E+02  0.98518627279E+02  0.94892870227E+02 0.  0.
         11    1    3    3    0    0  0.24411578874E+01 -0.59848449357E+02  0.62953151403E+01  0.60228125783E+02  0.51100000000E-03 0.  1.
         22    1    1    0    0    0 -0.78618103123E+01  0.22349788913E+02 -0.11829707321E+02  0.26481372721E+02  0.00000000000E+00 0.  1.
</event>
<event>
 5    1  0.8957809E-005  0.9118800E+02  0.7818608E-02  0.1130116E+00
         25   -1    0    0    0    0  0.00000000000E+00  0.00000000000E+00  0.99999998245E-14  0.12500000000E+03  0.12500000000E+03 0.  0.
        -11    1    3    3    0    0  0.20462309598E+02  0.21887825997E+02 -0.15070425832E+02  0.33539540485E+02  0.51100000000E-03 0.  1.
         23    2    1    0    0    0 -0.43588401356E+01 -0.21480583664E+02  0.20589300032E+02  0.94927849467E+02  0.90038671507E+02 0.  0.
         11    1    3    3    0    0 -0.24821149734E+02 -0.43368409661E+02  0.35659725864E+02  0.61388308981E+02  0.51100000000E-03 0. -1.
         22    1    1    0    0    0  0.43588401356E+01  0.21480583664E+02 -0.20589300032E+02  0.30072150533E+02  0.00000000000E+00 0. -1.
</event>
<event>
 5    1  0.8957809E-005  0.9118800E+02  0.7818608E-02  0.1130116E+00
         25   -1    0    0    0    0  0.00000000000E+00  0.00000000000E+00  0.99999998245E-14  0.12500000000E+03  0.12500000000E+03 0.  0.
        -11    1    3    3    0    0 -0.19192345145E+02 -0.35617770444E+02  0.25180872716E+02  0.47655514209E+02  0.51100000000E-03 0.  1.
         23    2    1    0    0    0 -0.52042073675E+01  0.10305094959E+02  0.26936678653E+02  0.95693628452E+02  0.91095593269E+02 0.  0.
         11    1    3    3    0    0  0.13988137777E+02  0.45922865403E+02  0.17558059367E+01  0.48038114243E+02  0.51100000000E-03 0. -1.
         22    1    1    0    0    0  0.52042073675E+01 -0.10305094959E+02 -0.26936678653E+02  0.29306371548E+02  0.00000000000E+00 0. -1.
</event>
<event>
 5    1  0.8957809E-005  0.9118800E+02  0.7818608E-02  0.1130116E+00
         25   -1    0    0    0    0  0.00000000000E+00  0.00000000000E+00  0.99999998245E-14  0.12500000000E+03  0.12500000000E+03 0.  0.
        -11    1    3    3    0    0 -0.32586531516E+02 -0.14180868136E+02  0.98389522848E+01  0.36875249690E+02  0.51100000000E-03 0.  1.
         23    2    1    0    0    0  0.22923263950E+02 -0.17474223924E+02 -0.76680590713E+01  0.95173440329E+02  0.90378980313E+02 0.  0.
         11    1    3    3    0    0  0.55509795466E+02 -0.32933557877E+01 -0.17507011356E+02  0.58298190640E+02  0.51100000000E-03 0. -1.
         22    1    1    0    0    0 -0.22923263950E+02  0.17474223924E+02  0.76680590713E+01  0.29826559671E+02  0.00000000000E+00 0. -1.
</event>
<event>
 5    1  0.8957809E-005  0.9118800E+02  0.7818608E-02  0.1130116E+00
         25   -1    0    0    0    0  0.00000000000E+00  0.00000000000E+00  0.99999998245E-14  0.12500000000E+03  0.12500000000E+03 0.  0.
        -11    1    3    3    0    0 -0.20737787868E+02  0.48652164122E+02  0.12192255717E+02  0.54274671985E+02  0.51100000000E-03 0. -1.
         23    2    1    0    0    0  0.12119189745E+02  0.27241377927E+02  0.56612354033E+00  0.95179068973E+02  0.90386764758E+02 0.  0.
         11    1    3    3    0    0  0.32856977613E+02 -0.21410786195E+02 -0.11626132176E+02  0.40904396988E+02  0.51100000000E-03 0.  1.
         22    1    1    0    0    0 -0.12119189745E+02 -0.27241377927E+02 -0.56612354033E+00  0.29820931027E+02  0.00000000000E+00 0. -1.
</event>
<event>
 5    1  0.8957809E-005  0.9118800E+02  0.7818608E-02  0.1130116E+00
         25   -1    0    0    0    0  0.00000000000E+00  0.00000000000E+00  0.99999998245E-14  0.12500000000E+03  0.12500000000E+03 0.  0.
        -11    1    3    3    0    0  0.38289601530E+02  0.50299633419E+01  0.85660352667E+01  0.39557187426E+02  0.51100000000E-03 0. -1.
         23    2    1    0    0    0 -0.81861361183E+01  0.12040578825E+02 -0.24133585809E+02  0.96814572436E+02  0.92620964738E+02 0.  0.
         11    1    3    3    0    0 -0.46475737649E+02  0.70106154832E+01 -0.32699621076E+02  0.57257385010E+02  0.51100000000E-03 0.  1.
         22    1    1    0    0    0  0.81861361183E+01 -0.12040578825E+02  0.24133585809E+02  0.28185427564E+02  0.00000000000E+00 0.  1.
</event>
<event>
 5    1  0.8957809E-005  0.9118800E+02  0.7818608E-02  0.1130116E+00
         25   -1    0    0    0    0  0.00000000000E+00  0.00000000000E+00  0.99999998245E-14  0.12500000000E+03  0.12500000000E+03 0.  0.
        -11    1    3    3    0    0  0.56894875971E+01  0.33926577645E+02 -0.30304528589E+02  0.45844818606E+02  0.51100000000E-03 0. -1.
         23    2    1    0    0    0 -0.28820822017E+02  0.90656473964E+01 -0.16578085941E+02  0.90537575855E+02  0.83722123503E+02 0.  0.
         11    1    3    3    0    0 -0.34510309614E+02 -0.24860930248E+02  0.13726442648E+02  0.44692757249E+02  0.51100000000E-03 0.  1.
         22    1    1    0    0    0  0.28820822017E+02 -0.90656473964E+01  0.16578085941E+02  0.34462424145E+02  0.00000000000E+00 0.  1.
</event>
<event>
 5    1  0.8957809E-005  0.9118800E+02  0.7818608E-02  0.1130116E+00
         25   -1    0    0    0    0  0.00000000000E+00  0.00000000000E+00  0.99999998245E-14  0.12500000000E+03  0.12500000000E+03 0.  0.
        -11    1    3    3    0    0  0.10046490602E+02  0.46630030596E+02  0.35543025219E+02  0.59486119127E+02  0.51100000000E-03 0.  1.
         23    2    1    0    0    0  0.87835455597E+00  0.28758773402E+02  0.53733582246E+01  0.95730365002E+02  0.91145988670E+02 0.  0.
         11    1    3    3    0    0 -0.91681360461E+01 -0.17871257194E+02 -0.30169666995E+02  0.36244245876E+02  0.51100000000E-03 0. -1.
         22    1    1    0    0    0 -0.87835455597E+00 -0.28758773402E+02 -0.53733582246E+01  0.29269634998E+02  0.00000000000E+00 0.  1.
</event>
<event>
 5    1  0.8957809E-005  0.9118800E+02  0.7818608E-02  0.1130116E+00
         25   -1    0    0    0    0  0.00000000000E+00  0.00000000000E+00  0.99999998245E-14  0.12500000000E+03  0.12500000000E+03 0.  0.
        -11    1    3    3    0    0  0.10507991169E+02  0.50821855413E+02 -0.56411832409E+01  0.52202507743E+02  0.51100000000E-03 0.  1.
         23    2    1    0    0    0 -0.15170966389E+02  0.19769951135E+02  0.13329271030E+02  0.96739096702E+02  0.92519047636E+02 0.  0.
         11    1    3    3    0    0 -0.25678957558E+02 -0.31051904278E+02  0.18970454270E+02  0.44536588959E+02  0.51100000000E-03 0. -1.
         22    1    1    0    0    0  0.15170966389E+02 -0.19769951135E+02 -0.13329271030E+02  0.28260903298E+02  0.00000000000E+00 0.  1.
</event>
<event>
 5    1  0.8957809E-005  0.9118800E+02  0.7818608E-02  0.1130116E+00
         25   -1    0    0    0    0  0.00000000000E+00  0.00000000000E+00  0.99999998245E-14  0.12500000000E+03  0.12500000000E+03 0.  0.
        -11    1    3    3    0    0  0.18538535031E+02 -0.28918873324E+02  0.60011806944E+01  0.34871086668E+02  0.51100000000E-03 0.  1.
         23    2    1    0    0    0 -0.28478739646E+02  0.76096077688E+01 -0.40240834397E+01  0.95248731291E+02  0.90483052683E+02 0.  0.
         11    1    3    3    0    0 -0.47017274677E+02  0.36528481093E+02 -0.10025264134E+02  0.60377644623E+02  0.51100000000E-03 0. -1.
         22    1    1    0    0    0  0.28478739646E+02 -0.76096077688E+01  0.40240834397E+01  0.29751268709E+02  0.00000000000E+00 0. -1.
</event>
<event>
 5    1  0.8957809E-005  0.9118800E+02  0.7818608E-02  0.1130116E+00
         25   -1    0    0    0    0  0.00000000000E+00  0.00000000000E+00  0.99999998245E-14  0.12500000000E+03  0.12500000000E+03 0.  0.
        -11    1    3    3    0    0 -0.17755876758E+02  0.51831344250E+02 -0.73753262439E+01  0.55282500338E+02  0.51100000000E-03 0. -1.
         23    2    1    0    0    0 -0.11601935139E+02  0.15174801606E+02 -0.22564621949E+02  0.95435804316E+02  0.90741121213E+02 0.  0.
         11    1    3    3    0    0  0.61539416187E+01 -0.36656542644E+02 -0.15189295705E+02  0.40153303978E+02  0.51100000000E-03 0.  1.
         22    1    1    0    0    0  0.11601935139E+02 -0.15174801606E+02  0.22564621949E+02  0.29564195684E+02  0.00000000000E+00 0. -1.
</event>
<event>
 5    1  0.8957809E-005  0.9118800E+02  0.7818608E-02  0.1130116E+00
         25   -1    0    0    0    0  0.00000000000E+00  0.00000000000E+00  0.99999998245E-14  0.12500000000E+03  0.12500000000E+03 0.  0.
        -11    1    3    3    0    0 -0.33845107031E+02  0.28870466563E+01 -0.14312480953E+02  0.36860187460E+02  0.51100000000E-03 0.  1.
         23    2    1    0    0    0  0.12793777080E+02  0.16963471698E+02  0.19499775114E+02  0.96161114212E+02  0.91734827372E+02 0.  0.
         11    1    3    3    0    0  0.46638884110E+02  0.14076425042E+02  0.33812256067E+02  0.59300926752E+02  0.51100000000E-03 0. -1.
         22    1    1    0    0    0 -0.12793777080E+02 -0.16963471698E+02 -0.19499775114E+02  0.28838885788E+02  0.00000000000E+00 0. -1.
</event>
<event>
 5    1  0.8957809E-005  0.9118800E+02  0.7818608E-02  0.1130116E+00
         25   -1    0    0    0    0  0.00000000000E+00  0.00000000000E+00  0.99999998245E-14  0.12500000000E+03  0.12500000000E+03 0.  0.
        -11    1    3    3    0    0  0.35222463991E+02 -0.19612452925E+02  0.31054063933E+01  0.40434067671E+02  0.51100000000E-03 0.  1.
         23    2    1    0    0    0 -0.19106343216E+02 -0.18308416592E+02 -0.10622004515E+02  0.96485487044E+02  0.92175765585E+02 0.  0.
         11    1    3    3    0    0 -0.54328807207E+02  0.13040363332E+01 -0.13727410908E+02  0.56051419373E+02  0.51100000000E-03 0. -1.
         22    1    1    0    0    0  0.19106343216E+02  0.18308416592E+02  0.10622004515E+02  0.28514512956E+02  0.00000000000E+00 0. -1.
</event>
<event>
 5    1  0.8957809E-005  0.9118800E+02  0.7818608E-02  0.1130116E+00
         25   -1    0    0    0    0  0.00000000000E+00  0.00000000000E+00  0.99999998245E-14  0.12500000000E+03  0.12500000000E+03 0.  0.
        -11    1    3    3    0    0  0.20594478187E+02  0.39310635780E+02  0.50154927695E+01  0.44661099238E+02  0.51100000000E-03 0.  1.
         23    2    1    0    0    0  0.24651560535E+02 -0.10786367572E+02 -0.86306305803E+01  0.96741674741E+02  0.92522530690E+02 0.  0.
         11    1    3    3    0    0  0.40570823480E+01 -0.50097003352E+02 -0.13646123350E+02  0.52080575503E+02  0.51100000000E-03 0. -1.
         22    1    1    0    0    0 -0.24651560535E+02  0.10786367572E+02  0.86306305803E+01  0.28258325259E+02  0.00000000000E+00 0.  1.
</event>
<event>
 5    1  0.8957809E-005  0.9118800E+02  0.7818608E-02  0.1130116E+00
         25   -1    0    0    0    0  0.00000000000E+00  0.00000000000E+00  0.99999998245E-14  0.12500000000E+03  0.12500000000E+03 0.  0.
        -11    1    3    3    0    0 -0.45037587953E+01 -0.49678419450E+02  0.26153086133E+02  0.56322403330E+02  0.51100000000E-03 0.  1.
         23    2    1    0    0    0 -0.81165447883E+01 -0.26890407009E+02 -0.63696936860E+01  0.96198172175E+02  0.91785309521E+02 0.  0.
         11    1    3    3    0    0 -0.36127859930E+01  0.22788012441E+02 -0.32522779819E+02  0.39875768846E+02  0.51100000000E-03 0. -1.
         22    1    1    0    0    0  0.81165447883E+01  0.26890407009E+02  0.63696936860E+01  0.28801827825E+02  0.00000000000E+00 0.  1.
</event>
<event>
 5    1  0.8957809E-005  0.9118800E+02  0.7818608E-02  0.1130116E+00
         25   -1    0    0    0    0  0.00000000000E+00  0.00000000000E+00  0.99999998245E-14  0.12500000000E+03  0.12500000000E+03 0.  0.
        -11    1    3    3    0    0  0.18307737499E+02 -0.43269185300E+02  0.12820783890E+02  0.48700802341E+02  0.51100000000E-03 0. -1.
         23    2    1    0    0    0  0.22963292562E+02 -0.81142095462E+01 -0.17216664121E+02  0.95174394804E+02  0.90380300403E+02 0.  0.
         11    1    3    3    0    0  0.46555550633E+01  0.35154975754E+02 -0.30037448011E+02  0.46473592463E+02  0.51100000000E-03 0.  1.
         22    1    1    0    0    0 -0.22963292562E+02  0.81142095462E+01  0.17216664121E+02  0.29825605196E+02  0.00000000000E+00 0. -1.
</event>
<event>
 5    1  0.8957809E-005  0.9118800E+02  0.7818608E-02  0.1130116E+00
         25   -1    0    0    0    0  0.00000000000E+00  0.00000000000E+00  0.99999998245E-14  0.12500000000E+03  0.12500000000E+03 0.  0.
        -11    1    3    3    0    0 -0.37751414578E+02  0.41653885953E+02  0.18286503966E+02  0.59115241226E+02  0.51100000000E-03 0.  1.
         23    2    1    0    0    0 -0.14239594219E+02  0.12698085201E+02  0.21139944476E+02  0.96523612172E+02  0.92227452762E+02 0.  0.
         11    1    3    3    0    0  0.23511820359E+02 -0.28955800752E+02  0.28534405105E+01  0.37408370946E+02  0.51100000000E-03 0. -1.
         22    1    1    0    0    0  0.14239594219E+02 -0.12698085201E+02 -0.21139944476E+02  0.28476387828E+02  0.00000000000E+00 0.  1.
</event>
<event>
 5    1  0.8957809E-005  0.9118800E+02  0.7818608E-02  0.1130116E+00
         25   -1    0    0    0    0  0.00000000000E+00  0.00000000000E+00  0.99999998245E-14  0.12500000000E+03  0.12500000000E+03 0.  0.
        -11    1    3    3    0    0 -0.13778638496E+02  0.12758993808E+01  0.41047795676E+02  0.43317436768E+02  0.51100000000E-03 0. -1.
         23    2    1    0    0    0  0.20817600113E+02 -0.20185181456E+02  0.10716053991E+02  0.94086445724E+02  0.88862879938E+02 0.  0.
         11    1    3    3    0    0  0.34596238609E+02 -0.21461080836E+02 -0.30331741684E+02  0.50769008956E+02  0.51100000000E-03 0.  1.
         22    1    1    0    0    0 -0.20817600113E+02  0.20185181456E+02 -0.10716053991E+02  0.30913554276E+02  0.00000000000E+00 0. -1.
</event>
<event>
 5    1  0.8957809E-005  0.9118800E+02  0.7818608E-02  0.1130116E+00
         25   -1    0    0    0    0  0.00000000000E+00  0.00000000000E+00  0.99999998245E-14  0.12500000000E+03  0.12500000000E+03 0.  0.
        -11    1    3    3    0    0  0.45983758671E+02 -0.12313594082E+02  0.39020533867E+02  0.61552682510E+02  0.51100000000E-03 0. -1.
         23    2    1    0    0    0  0.26141277906E+02 -0.41326535836E+01  0.12328492068E+02  0.95803477041E+02  0.91246201347E+02 0.  0.
         11    1    3    3    0    0 -0.19842480765E+02  0.81809404983E+01 -0.26692041799E+02  0.34250794531E+02  0.51100000000E-03 0.  1.
         22    1    1    0    0    0 -0.26141277906E+02  0.41326535836E+01 -0.12328492068E+02  0.29196522959E+02  0.00000000000E+00 0. -1.
</event>
<event>
 5    1  0.8957809E-005  0.9118800E+02  0.7818608E-02  0.1130116E+00
         25   -1    0    0    0    0  0.00000000000E+00  0.00000000000E+00  0.99999998245E-14  0.12500000000E+03  0.12500000000E+03 0.  0.
        -11    1    3    3    0    0 -0.48601207608E+02 -0.48108344961E+01  0.31545341293E+02  0.58140606009E+02  0.51100000000E-03 0. -1.
         23    2    1    0    0    0 -0.12655079449E+02  0.21125746105E+01  0.27099928725E+02  0.95016335376E+02  0.90161432132E+02 0.  0.
         11    1    3    3    0    0  0.35946128158E+02  0.69234091065E+01 -0.44454125680E+01  0.36875729368E+02  0.51100000000E-03 0.  1.
         22    1    1    0    0    0  0.12655079449E+02 -0.21125746105E+01 -0.27099928725E+02  0.29983664624E+02  0.00000000000E+00 0. -1.
</event>
<event>
 5    1  0.8957809E-005  0.9118800E+02  0.7818608E-02  0.1130116E+00
         25   -1    0    0    0    0  0.00000000000E+00  0.00000000000E+00  0.99999998245E-14  0.12500000000E+03  0.12500000000E+03 0.  0.
        -11    1    3    3    0    0  0.52683784501E+01  0.46181860695E+02 -0.19962615048E+02  0.50586817142E+02  0.51100000000E-03 0.  1.
         23    2    1    0    0    0 -0.15521776805E+02  0.20529473777E+02  0.12054525651E+02  0.96579999342E+02  0.92303845183E+02 0.  0.
         11    1    3    3    0    0 -0.20790155255E+02 -0.25652386918E+02  0.32017140699E+02  0.45993182200E+02  0.51100000000E-03 0. -1.
         22    1    1    0    0    0  0.15521776805E+02 -0.20529473777E+02 -0.12054525651E+02  0.28420000658E+02  0.00000000000E+00 0.  1.
</event>
<event>
 5    1  0.8957809E-005  0.9118800E+02  0.7818608E-02  0.1130116E+00
         25   -1    0    0    0    0  0.00000000000E+00  0.00000000000E+00  0.99999998245E-14  0.12500000000E+03  0.12500000000E+03 0.  0.
        -11    1    3    3    0    0 -0.30597053616E+02  0.22070799407E+01  0.15017075364E+02  0.34154991504E+02  0.51100000000E-03 0.  1.
         23    2    1    0    0    0  0.16992040018E+02  0.15685424333E+02 -0.19730682845E+02  0.94601615076E+02  0.89584617926E+02 0.  0.
         11    1    3    3    0    0  0.47589093634E+02  0.13478344392E+02 -0.34747758209E+02  0.60446623572E+02  0.51100000000E-03 0. -1.
         22    1    1    0    0    0 -0.16992040018E+02 -0.15685424333E+02  0.19730682845E+02  0.30398384924E+02  0.00000000000E+00 0. -1.
</event>
<event>
 5    1  0.8957809E-005  0.9118800E+02  0.7818608E-02  0.1130116E+00
         25   -1    0    0    0    0  0.00000000000E+00  0.00000000000E+00  0.99999998245E-14  0.12500000000E+03  0.12500000000E+03 0.  0.
        -11    1    3    3    0    0  0.35375333951E+01 -0.31568784205E+02 -0.33592710650E+02  0.46233888954E+02  0.51100000000E-03 0.  1.
         23    2    1    0    0    0 -0.49578389215E+00 -0.24326054323E+02  0.15585004729E+02  0.96105448732E+02  0.91658944915E+02 0.  0.
         11    1    3    3    0    0 -0.40333172872E+01  0.72427298820E+01  0.49177715380E+02  0.49871559778E+02  0.51100000000E-03 0. -1.
         22    1    1    0    0    0  0.49578389215E+00  0.24326054323E+02 -0.15585004729E+02  0.28894551268E+02  0.00000000000E+00 0.  1.
</event>
<event>
 5    1  0.8957809E-005  0.9118800E+02  0.7818608E-02  0.1130116E+00
         25   -1    0    0    0    0  0.00000000000E+00  0.00000000000E+00  0.99999998245E-14  0.12500000000E+03  0.12500000000E+03 0.  0.
        -11    1    3    3    0    0  0.13056459584E+02  0.22202638383E+01  0.33275558073E+02  0.35814291473E+02  0.51100000000E-03 0.  1.
         23    2    1    0    0    0 -0.21782373271E+02 -0.13591058707E+02 -0.13296840306E+02  0.96086428373E+02  0.91633002205E+02 0.  0.
         11    1    3    3    0    0 -0.34838832855E+02 -0.15811322545E+02 -0.46572398380E+02  0.60272136900E+02  0.51100000000E-03 0. -1.
         22    1    1    0    0    0  0.21782373271E+02  0.13591058707E+02  0.13296840306E+02  0.28913571627E+02  0.00000000000E+00 0. -1.
</event>
<event>
 5    1  0.8957809E-005  0.9118800E+02  0.7818608E-02  0.1130116E+00
         25   -1    0    0    0    0  0.00000000000E+00  0.00000000000E+00  0.99999998245E-14  0.12500000000E+03  0.12500000000E+03 0.  0.
        -11    1    3    3    0    0  0.21256300675E+02 -0.13621954290E+02 -0.45176191049E+02  0.51752064645E+02  0.51100000000E-03 0.  1.
         23    2    1    0    0    0 -0.13010813878E+02  0.26337935387E+01 -0.29233007067E+02  0.92894130625E+02  0.87169562670E+02 0.  0.
         11    1    3    3    0    0 -0.34267114553E+02  0.16255747829E+02  0.15943183982E+02  0.41142065979E+02  0.51100000000E-03 0. -1.
         22    1    1    0    0    0  0.13010813878E+02 -0.26337935387E+01  0.29233007067E+02  0.32105869375E+02  0.00000000000E+00 0.  1.
</event>
<event>
 5    1  0.8957809E-005  0.9118800E+02  0.7818608E-02  0.1130116E+00
         25   -1    0    0    0    0  0.00000000000E+00  0.00000000000E+00  0.99999998245E-14  0.12500000000E+03  0.12500000000E+03 0.  0.
        -11    1    3    3    0    0  0.15461591783E+02 -0.15054841351E+02  0.57185122706E+02  0.61121578249E+02  0.51100000000E-03 0. -1.
         23    2    1    0    0    0  0.47802030784E+01  0.22106380866E+01  0.26946881622E+02  0.97543276027E+02  0.93599246827E+02 0.  0.
         11    1    3    3    0    0 -0.10681388705E+02  0.17265479438E+02 -0.30238241084E+02  0.36421697777E+02  0.51100000000E-03 0.  1.
         22    1    1    0    0    0 -0.47802030784E+01 -0.22106380866E+01 -0.26946881622E+02  0.27456723973E+02  0.00000000000E+00 0. -1.
</event>
<event>
 5    1  0.8957809E-005  0.9118800E+02  0.7818608E-02  0.1130116E+00
         25   -1    0    0    0    0  0.00000000000E+00  0.00000000000E+00  0.99999998245E-14  0.12500000000E+03  0.12500000000E+03 0.  0.
        -11    1    3    3    0    0 -0.17507715721E+02  0.22760101603E+02 -0.34851495518E+02  0.45157159730E+02  0.51100000000E-03 0.  1.
         23    2    1    0    0    0 -0.30279055748E+02 -0.87743880191E+01 -0.54927365350E+00  0.93470445552E+02  0.87992109806E+02 0.  0.
         11    1    3    3    0    0 -0.12771340027E+02 -0.31534489622E+02  0.34302221865E+02  0.48313285822E+02  0.51100000000E-03 0. -1.
         22    1    1    0    0    0  0.30279055748E+02  0.87743880191E+01  0.54927365350E+00  0.31529554448E+02  0.00000000000E+00 0. -1.
</event>
<event>
 5    1  0.8957809E-005  0.9118800E+02  0.7818608E-02  0.1130116E+00
         25   -1    0    0    0    0  0.00000000000E+00  0.00000000000E+00  0.99999998245E-14  0.12500000000E+03  0.12500000000E+03 0.  0.
        -11    1    3    3    0    0  0.69938028037E+01 -0.50145553003E+02  0.35407492934E+02  0.61783333673E+02  0.51100000000E-03 0.  1.
         23    2    1    0    0    0  0.35218753748E+01 -0.27689680784E+02  0.11371427671E+02  0.94859804324E+02  0.89944155347E+02 0.  0.
         11    1    3    3    0    0 -0.34719274290E+01  0.22455872219E+02 -0.24036065262E+02  0.33076470651E+02  0.51100000000E-03 0. -1.
         22    1    1    0    0    0 -0.35218753748E+01  0.27689680784E+02 -0.11371427671E+02  0.30140195676E+02  0.00000000000E+00 0.  1.
</event>
<event>
 5    1  0.8957809E-005  0.9118800E+02  0.7818608E-02  0.1130116E+00
         25   -1    0    0    0    0  0.00000000000E+00  0.00000000000E+00  0.99999998245E-14  0.12500000000E+03  0.12500000000E+03 0.  0.
        -11    1    3    3    0    0  0.47271985970E+02 -0.11602071876E+02  0.26748566555E+02  0.55540386588E+02  0.51100000000E-03 0.  1.
         23    2    1    0    0    0  0.37097451545E+02 -0.23175346405E+02  0.68228456288E+01  0.80729594371E+02  0.67508507559E+02 0.  0.
         11    1    3    3    0    0 -0.10174534425E+02 -0.11573274528E+02 -0.19925720926E+02  0.25189207783E+02  0.51100000000E-03 0. -1.
         22    1    1    0    0    0 -0.37097451545E+02  0.23175346405E+02 -0.68228456288E+01  0.44270405629E+02  0.00000000000E+00 0.  1.
</event>
<event>
 5    1  0.8957809E-005  0.9118800E+02  0.7818608E-02  0.1130116E+00
         25   -1    0    0    0    0  0.00000000000E+00  0.00000000000E+00  0.99999998245E-14  0.12500000000E+03  0.12500000000E+03 0.  0.
        -11    1    3    3    0    0  0.38958411495E+02  0.44480829401E+01 -0.98351665203E+01  0.40426152040E+02  0.51100000000E-03 0.  1.
         23    2    1    0    0    0 -0.14408289008E+02  0.32581582076E+00 -0.25074363991E+02  0.96078923298E+02  0.91622763680E+02 0.  0.
         11    1    3    3    0    0 -0.53366700503E+02 -0.41222671193E+01 -0.15239197470E+02  0.55652771257E+02  0.51100000000E-03 0. -1.
         22    1    1    0    0    0  0.14408289008E+02 -0.32581582076E+00  0.25074363991E+02  0.28921076702E+02  0.00000000000E+00 0.  1.
</event>
<event>
 5    1  0.8957809E-005  0.9118800E+02  0.7818608E-02  0.1130116E+00
         25   -1    0    0    0    0  0.00000000000E+00  0.00000000000E+00  0.99999998245E-14  0.12500000000E+03  0.12500000000E+03 0.  0.
        -11    1    3    3    0    0 -0.24430436164E+02 -0.31989197427E+02 -0.43021220226E+02  0.58915026548E+02  0.51100000000E-03 0.  1.
         23    2    1    0    0    0 -0.18145022696E+02 -0.14648791897E+02 -0.50348155098E+01  0.10114254163E+03  0.98288531414E+02 0.  0.
         11    1    3    3    0    0  0.62854134682E+01  0.17340405530E+02  0.37986404716E+02  0.42227515081E+02  0.51100000000E-03 0. -1.
         22    1    1    0    0    0  0.18145022696E+02  0.14648791897E+02  0.50348155098E+01  0.23857458370E+02  0.00000000000E+00 0.  1.
</event>
<event>
 5    1  0.8957809E-005  0.9118800E+02  0.7818608E-02  0.1130116E+00
         25   -1    0    0    0    0  0.00000000000E+00  0.00000000000E+00  0.99999998245E-14  0.12500000000E+03  0.12500000000E+03 0.  0.
        -11    1    3    3    0    0 -0.43922312913E+02 -0.68639513278E+01  0.39770905955E+02  0.59649043247E+02  0.51100000000E-03 0.  1.
         23    2    1    0    0    0 -0.28386129122E+02 -0.37121316320E+01  0.78091966003E+01  0.95326176530E+02  0.90589978102E+02 0.  0.
         11    1    3    3    0    0  0.15536183791E+02  0.31518196958E+01 -0.31961709355E+02  0.35677133284E+02  0.51100000000E-03 0. -1.
         22    1    1    0    0    0  0.28386129122E+02  0.37121316320E+01 -0.78091966003E+01  0.29673823470E+02  0.00000000000E+00 0.  1.
</event>
<event>
 5    1  0.8957809E-005  0.9118800E+02  0.7818608E-02  0.1130116E+00
         25   -1    0    0    0    0  0.00000000000E+00  0.00000000000E+00  0.99999998245E-14  0.12500000000E+03  0.12500000000E+03 0.  0.
        -11    1    3    3    0    0 -0.16372626802E+02  0.27101826346E+01  0.53889568744E+02  0.56386998661E+02  0.51100000000E-03 0.  1.
         23    2    1    0    0    0  0.44320315815E+01  0.16771539146E+02  0.22801014545E+02  0.96350153691E+02  0.91992056302E+02 0.  0.
         11    1    3    3    0    0  0.20804658384E+02  0.14061356512E+02 -0.31088554200E+02  0.39963155029E+02  0.51100000000E-03 0. -1.
         22    1    1    0    0    0 -0.44320315815E+01 -0.16771539146E+02 -0.22801014545E+02  0.28649846309E+02  0.00000000000E+00 0.  1.
</event>
<event>
 5    1  0.8957809E-005  0.9118800E+02  0.7818608E-02  0.1130116E+00
         25   -1    0    0    0    0  0.00000000000E+00  0.00000000000E+00  0.99999998245E-14  0.12500000000E+03  0.12500000000E+03 0.  0.
        -11    1    3    3    0    0 -0.26605367981E+02 -0.12177774355E+02  0.18249339504E+02  0.34484520966E+02  0.51100000000E-03 0.  1.
         23    2    1    0    0    0  0.30389394512E+02 -0.57640159824E+01  0.10364655183E+02  0.92378454113E+02  0.86426925944E+02 0.  0.
         11    1    3    3    0    0  0.56994762493E+02  0.64137583731E+01 -0.78846843218E+01  0.57893933146E+02  0.51100000000E-03 0. -1.
         22    1    1    0    0    0 -0.30389394512E+02  0.57640159824E+01 -0.10364655183E+02  0.32621545887E+02  0.00000000000E+00 0. -1.
</event>
<event>
 5    1  0.8957809E-005  0.9118800E+02  0.7818608E-02  0.1130116E+00
         25   -1    0    0    0    0  0.00000000000E+00  0.00000000000E+00  0.99999998245E-14  0.12500000000E+03  0.12500000000E+03 0.  0.
        -11    1    3    3    0    0  0.26215427950E+02 -0.76772622540E+01  0.19754121246E+02  0.33710744945E+02  0.51100000000E-03 0. -1.
         23    2    1    0    0    0 -0.21715554755E+02  0.79314426979E+01 -0.17175717327E+02  0.96199333908E+02  0.91786891641E+02 0.  0.
         11    1    3    3    0    0 -0.47930982705E+02  0.15608704952E+02 -0.36929838573E+02  0.62488588963E+02  0.51100000000E-03 0.  1.
         22    1    1    0    0    0  0.21715554755E+02 -0.79314426979E+01  0.17175717327E+02  0.28800666092E+02  0.00000000000E+00 0.  1.
</event>
<event>
 5    1  0.8957809E-005  0.9118800E+02  0.7818608E-02  0.1130116E+00
         25   -1    0    0    0    0  0.00000000000E+00  0.00000000000E+00  0.99999998245E-14  0.12500000000E+03  0.12500000000E+03 0.  0.
        -11    1    3    3    0    0  0.23996364595E+02 -0.13685034958E+01 -0.25835421247E+02  0.35286928272E+02  0.51100000000E-03 0.  1.
         23    2    1    0    0    0 -0.22119561428E+02 -0.15838821484E+02  0.10587211226E+02  0.95806981909E+02  0.91251002609E+02 0.  0.
         11    1    3    3    0    0 -0.46115926023E+02 -0.14470317988E+02  0.36422632473E+02  0.60520053636E+02  0.51100000000E-03 0. -1.
         22    1    1    0    0    0  0.22119561428E+02  0.15838821484E+02 -0.10587211226E+02  0.29193018091E+02  0.00000000000E+00 0. -1.
</event>
<event>
 5    1  0.8957809E-005  0.9118800E+02  0.7818608E-02  0.1130116E+00
         25   -1    0    0    0    0  0.00000000000E+00  0.00000000000E+00  0.99999998245E-14  0.12500000000E+03  0.12500000000E+03 0.  0.
        -11    1    3    3    0    0  0.12837811338E+02 -0.29283934065E+02  0.33335380119E+02  0.46190970570E+02  0.51100000000E-03 0.  1.
         23    2    1    0    0    0  0.27905877040E+02 -0.43895106778E+01 -0.69706372034E+01  0.95903684763E+02  0.91383374805E+02 0.  0.
         11    1    3    3    0    0  0.15068065702E+02  0.24894423387E+02 -0.40306017323E+02  0.49712714193E+02  0.51100000000E-03 0. -1.
         22    1    1    0    0    0 -0.27905877040E+02  0.43895106778E+01  0.69706372034E+01  0.29096315237E+02  0.00000000000E+00 0. -1.
</event>
<event>
 5    1  0.8957809E-005  0.9118800E+02  0.7818608E-02  0.1130116E+00
         25   -1    0    0    0    0  0.00000000000E+00  0.00000000000E+00  0.99999998245E-14  0.12500000000E+03  0.12500000000E+03 0.  0.
        -11    1    3    3    0    0 -0.18968259841E+02 -0.41595834654E+01 -0.55067157841E+02  0.58390828809E+02  0.51100000000E-03 0. -1.
         23    2    1    0    0    0 -0.10195038593E+02 -0.16975094429E+02 -0.19463074540E+02  0.97234843538E+02  0.93186430796E+02 0.  0.
         11    1    3    3    0    0  0.87732212481E+01 -0.12815510964E+02  0.35604083301E+02  0.38844014730E+02  0.51100000000E-03 0.  1.
         22    1    1    0    0    0  0.10195038593E+02  0.16975094429E+02  0.19463074540E+02  0.27765156462E+02  0.00000000000E+00 0. -1.
</event>
<event>
 5    1  0.8957809E-005  0.9118800E+02  0.7818608E-02  0.1130116E+00
         25   -1    0    0    0    0  0.00000000000E+00  0.00000000000E+00  0.99999998245E-14  0.12500000000E+03  0.12500000000E+03 0.  0.
        -11    1    3    3    0    0  0.36210447121E+02  0.53122160152E+00 -0.15562654253E+02  0.39416682823E+02  0.51100000000E-03 0.  1.
         23    2    1    0    0    0 -0.15958553014E+02 -0.93114397720E+01 -0.25582182729E+02  0.93443282837E+02  0.87953514479E+02 0.  0.
         11    1    3    3    0    0 -0.52169000135E+02 -0.98426613735E+01 -0.10019528476E+02  0.54026600014E+02  0.51100000000E-03 0. -1.
         22    1    1    0    0    0  0.15958553014E+02  0.93114397720E+01  0.25582182729E+02  0.31556717163E+02  0.00000000000E+00 0. -1.
</event>
<event>
 5    1  0.8957809E-005  0.9118800E+02  0.7818608E-02  0.1130116E+00
         25   -1    0    0    0    0  0.00000000000E+00  0.00000000000E+00  0.99999998245E-14  0.12500000000E+03  0.12500000000E+03 0.  0.
        -11    1    3    3    0    0 -0.56374610988E+02 -0.15561800420E+02 -0.19376161279E+02  0.61609268966E+02  0.51100000000E-03 0. -1.
         23    2    1    0    0    0 -0.22182629749E+02 -0.98439329567E+01 -0.14794011050E+02  0.96577564468E+02  0.92300547760E+02 0.  0.
         11    1    3    3    0    0  0.34191981238E+02  0.57178674634E+01  0.45821502284E+01  0.34968295502E+02  0.51100000000E-03 0.  1.
         22    1    1    0    0    0  0.22182629749E+02  0.98439329567E+01  0.14794011050E+02  0.28422435532E+02  0.00000000000E+00 0. -1.
</event>
<event>
 5    1  0.8957809E-005  0.9118800E+02  0.7818608E-02  0.1130116E+00
         25   -1    0    0    0    0  0.00000000000E+00  0.00000000000E+00  0.99999998245E-14  0.12500000000E+03  0.12500000000E+03 0.  0.
        -11    1    3    3    0    0  0.47814452548E+02  0.95615211605E+01 -0.12631452952E+02  0.50370608129E+02  0.51100000000E-03 0. -1.
         23    2    1    0    0    0  0.12725649563E+02  0.16843690789E+02  0.17801558488E+02  0.97385736279E+02  0.93388618524E+02 0.  0.
         11    1    3    3    0    0 -0.35088802985E+02  0.72821696289E+01  0.30433011440E+02  0.47015128150E+02  0.51100000000E-03 0.  1.
         22    1    1    0    0    0 -0.12725649563E+02 -0.16843690789E+02 -0.17801558488E+02  0.27614263721E+02  0.00000000000E+00 0. -1.
</event>
<event>
 5    1  0.8957809E-005  0.9118800E+02  0.7818608E-02  0.1130116E+00
         25   -1    0    0    0    0  0.00000000000E+00  0.00000000000E+00  0.99999998245E-14  0.12500000000E+03  0.12500000000E+03 0.  0.
        -11    1    3    3    0    0  0.31135609586E+02 -0.52100781938E+02 -0.14785517113E+02  0.62470226343E+02  0.51100000000E-03 0.  1.
         23    2    1    0    0    0  0.13698519302E+02 -0.25273359071E+02 -0.63456623509E+01  0.95560918145E+02  0.90913307806E+02 0.  0.
         11    1    3    3    0    0 -0.17437090284E+02  0.26827422867E+02  0.84398547622E+01  0.33090691802E+02  0.51100000000E-03 0. -1.
         22    1    1    0    0    0 -0.13698519302E+02  0.25273359071E+02  0.63456623509E+01  0.29439081855E+02  0.00000000000E+00 0.  1.
</event>
<event>
 5    1  0.8957809E-005  0.9118800E+02  0.7818608E-02  0.1130116E+00
         25   -1    0    0    0    0  0.00000000000E+00  0.00000000000E+00  0.99999998245E-14  0.12500000000E+03  0.12500000000E+03 0.  0.
        -11    1    3    3    0    0  0.41676758915E+02  0.36059587414E+02  0.42010506180E+01  0.55271103705E+02  0.51100000000E-03 0. -1.
         23    2    1    0    0    0  0.27789701687E+02 -0.11485250981E+00  0.11887069233E+02  0.94774462355E+02  0.89825472940E+02 0.  0.
         11    1    3    3    0    0 -0.13887057228E+02 -0.36174439924E+02  0.76860186148E+01  0.39503358651E+02  0.51100000000E-03 0.  1.
         22    1    1    0    0    0 -0.27789701687E+02  0.11485250981E+00 -0.11887069233E+02  0.30225537645E+02  0.00000000000E+00 0. -1.
</event>
<event>
 5    1  0.8957809E-005  0.9118800E+02  0.7818608E-02  0.1130116E+00
         25   -1    0    0    0    0  0.00000000000E+00  0.00000000000E+00  0.99999998245E-14  0.12500000000E+03  0.12500000000E+03 0.  0.
        -11    1    3    3    0    0 -0.53142019174E-01  0.36075968156E+02 -0.28586785320E+01  0.36189091529E+02  0.51100000000E-03 0.  1.
         23    2    1    0    0    0 -0.20230822465E+01 -0.24882452642E+02 -0.10998363099E+02  0.97720093437E+02  0.93835085971E+02 0.  0.
         11    1    3    3    0    0 -0.19699402273E+01 -0.60958420798E+02 -0.81396845666E+01  0.61531001908E+02  0.51100000000E-03 0. -1.
         22    1    1    0    0    0  0.20230822465E+01  0.24882452642E+02  0.10998363099E+02  0.27279906563E+02  0.00000000000E+00 0. -1.
</event>
<event>
 5    1  0.8957809E-005  0.9118800E+02  0.7818608E-02  0.1130116E+00
         25   -1    0    0    0    0  0.00000000000E+00  0.00000000000E+00  0.99999998245E-14  0.12500000000E+03  0.12500000000E+03 0.  0.
        -11    1    3    3    0    0 -0.22938224907E+02  0.10105438507E+02 -0.53408773724E+02  0.58998128447E+02  0.51100000000E-03 0.  1.
         23    2    1    0    0    0 -0.24914988576E+02  0.62791870343E+01 -0.20656887710E+02  0.92031957058E+02  0.85924322892E+02 0.  0.
         11    1    3    3    0    0 -0.19767636696E+01 -0.38262514724E+01  0.32751886014E+02  0.33033828611E+02  0.51100000000E-03 0. -1.
         22    1    1    0    0    0  0.24914988576E+02 -0.62791870343E+01  0.20656887710E+02  0.32968042942E+02  0.00000000000E+00 0.  1.
</event>
<event>
 5    1  0.8957809E-005  0.9118800E+02  0.7818608E-02  0.1130116E+00
         25   -1    0    0    0    0  0.00000000000E+00  0.00000000000E+00  0.99999998245E-14  0.12500000000E+03  0.12500000000E+03 0.  0.
        -11    1    3    3    0    0 -0.33115565580E+02  0.10338528557E+02  0.14239192055E+02  0.37500405958E+02  0.51100000000E-03 0. -1.
         23    2    1    0    0    0  0.18818311134E+02 -0.12664021344E+02  0.20218429639E+02  0.94614293367E+02  0.89602306565E+02 0.  0.
         11    1    3    3    0    0  0.51933876715E+02 -0.23002549901E+02  0.59792375838E+01  0.57113887408E+02  0.51100000000E-03 0.  1.
         22    1    1    0    0    0 -0.18818311134E+02  0.12664021344E+02 -0.20218429639E+02  0.30385706633E+02  0.00000000000E+00 0.  1.
</event>
<event>
 5    1  0.8957809E-005  0.9118800E+02  0.7818608E-02  0.1130116E+00
         25   -1    0    0    0    0  0.00000000000E+00  0.00000000000E+00  0.99999998245E-14  0.12500000000E+03  0.12500000000E+03 0.  0.
        -11    1    3    3    0    0  0.57195216339E+02  0.19460608741E+01  0.79139472811E+01  0.57772921743E+02  0.51100000000E-03 0.  1.
         23    2    1    0    0    0  0.26183994066E+02 -0.12182311802E+02 -0.74819345664E+01  0.95167306341E+02  0.90370496210E+02 0.  0.
         11    1    3    3    0    0 -0.31011222272E+02 -0.14128372676E+02 -0.15395881847E+02  0.37394384598E+02  0.51100000000E-03 0. -1.
         22    1    1    0    0    0 -0.26183994066E+02  0.12182311802E+02  0.74819345664E+01  0.29832693659E+02  0.00000000000E+00 0.  1.
</event>
<event>
 5    1  0.8957809E-005  0.9118800E+02  0.7818608E-02  0.1130116E+00
         25   -1    0    0    0    0  0.00000000000E+00  0.00000000000E+00  0.99999998245E-14  0.12500000000E+03  0.12500000000E+03 0.  0.
        -11    1    3    3    0    0 -0.29749697686E+02  0.41929185127E+02 -0.22318606849E+02  0.56046599270E+02  0.51100000000E-03 0.  1.
         23    2    1    0    0    0 -0.10539137669E+02  0.83791444899E+01 -0.26841375408E+02  0.94970965400E+02  0.90098509145E+02 0.  0.
         11    1    3    3    0    0  0.19210560017E+02 -0.33550040637E+02 -0.45227685589E+01  0.38924366130E+02  0.51100000000E-03 0. -1.
         22    1    1    0    0    0  0.10539137669E+02 -0.83791444899E+01  0.26841375408E+02  0.30029034600E+02  0.00000000000E+00 0.  1.
</event>
<event>
 5    1  0.8957809E-005  0.9118800E+02  0.7818608E-02  0.1130116E+00
         25   -1    0    0    0    0  0.00000000000E+00  0.00000000000E+00  0.99999998245E-14  0.12500000000E+03  0.12500000000E+03 0.  0.
        -11    1    3    3    0    0  0.15717258231E+02  0.31968945196E+02  0.36442988550E+02  0.50962114143E+02  0.51100000000E-03 0.  1.
         23    2    1    0    0    0 -0.39662656845E+01  0.29218872437E+02 -0.32318071449E+01  0.95336582338E+02  0.90604335352E+02 0.  0.
         11    1    3    3    0    0 -0.19683523915E+02 -0.27500727589E+01 -0.39674795695E+02  0.44374468195E+02  0.51100000000E-03 0. -1.
         22    1    1    0    0    0  0.39662656845E+01 -0.29218872437E+02  0.32318071449E+01  0.29663417662E+02  0.00000000000E+00 0.  1.
</event>
<event>
 5    1  0.8957809E-005  0.9118800E+02  0.7818608E-02  0.1130116E+00
         25   -1    0    0    0    0  0.00000000000E+00  0.00000000000E+00  0.99999998245E-14  0.12500000000E+03  0.12500000000E+03 0.  0.
        -11    1    3    3    0    0 -0.40016668015E+02 -0.34939840584E+01  0.97648412951E+01  0.41338768358E+02  0.51100000000E-03 0. -1.
         23    2    1    0    0    0  0.40138688709E+00  0.25393642648E+02 -0.13546522136E+02  0.96216211848E+02  0.91809873990E+02 0.  0.
         11    1    3    3    0    0  0.40418054902E+02  0.28887626707E+02 -0.23311363431E+02  0.54877443490E+02  0.51100000000E-03 0.  1.
         22    1    1    0    0    0 -0.40138688709E+00 -0.25393642648E+02  0.13546522136E+02  0.28783788152E+02  0.00000000000E+00 0.  1.
</event>
<event>
 5    1  0.8957809E-005  0.9118800E+02  0.7818608E-02  0.1130116E+00
         25   -1    0    0    0    0  0.00000000000E+00  0.00000000000E+00  0.99999998245E-14  0.12500000000E+03  0.12500000000E+03 0.  0.
        -11    1    3    3    0    0  0.16981770863E+02 -0.28007852361E+02 -0.11538342870E+02  0.34726843968E+02  0.51100000000E-03 0.  1.
         23    2    1    0    0    0 -0.24718462586E+02  0.11758242884E+01 -0.27438628676E+02  0.88050530463E+02  0.79922666471E+02 0.  0.
         11    1    3    3    0    0 -0.41700233450E+02  0.29183676649E+02 -0.15900285806E+02  0.53323686496E+02  0.51100000000E-03 0. -1.
         22    1    1    0    0    0  0.24718462586E+02 -0.11758242884E+01  0.27438628676E+02  0.36949469537E+02  0.00000000000E+00 0. -1.
</event>
<event>
 5    1  0.8957809E-005  0.9118800E+02  0.7818608E-02  0.1130116E+00
         25   -1    0    0    0    0  0.00000000000E+00  0.00000000000E+00  0.99999998245E-14  0.12500000000E+03  0.12500000000E+03 0.  0.
        -11    1    3    3    0    0  0.77539380549E+01  0.36706103116E+02 -0.27816461836E+02  0.46703502124E+02  0.51100000000E-03 0.  1.
         23    2    1    0    0    0 -0.63470008749E+00  0.22565962557E+02  0.18475618304E+02  0.95828541654E+02  0.91280531405E+02 0.  0.
         11    1    3    3    0    0 -0.83886381424E+01 -0.14140140560E+02  0.46292080140E+02  0.49125039530E+02  0.51100000000E-03 0. -1.
         22    1    1    0    0    0  0.63470008749E+00 -0.22565962557E+02 -0.18475618304E+02  0.29171458346E+02  0.00000000000E+00 0. -1.
</event>
<event>
 5    1  0.8957809E-005  0.9118800E+02  0.7818608E-02  0.1130116E+00
         25   -1    0    0    0    0  0.00000000000E+00  0.00000000000E+00  0.99999998245E-14  0.12500000000E+03  0.12500000000E+03 0.  0.
        -11    1    3    3    0    0 -0.81366513304E+01 -0.44068609343E+02  0.80139232442E+01  0.45524393355E+02  0.51100000000E-03 0. -1.
         23    2    1    0    0    0 -0.22898767264E+02 -0.40190788449E+01 -0.18076742229E+02  0.95550464408E+02  0.90898933448E+02 0.  0.
         11    1    3    3    0    0 -0.14762115934E+02  0.40049530498E+02 -0.26090665473E+02  0.50026071053E+02  0.51100000000E-03 0.  1.
         22    1    1    0    0    0  0.22898767264E+02  0.40190788449E+01  0.18076742229E+02  0.29449535592E+02  0.00000000000E+00 0.  1.
</event>
<event>
 5    1  0.8957809E-005  0.9118800E+02  0.7818608E-02  0.1130116E+00
         25   -1    0    0    0    0  0.00000000000E+00  0.00000000000E+00  0.99999998245E-14  0.12500000000E+03  0.12500000000E+03 0.  0.
        -11    1    3    3    0    0  0.16812710787E+02  0.27307053055E+02  0.39743145433E+02  0.51067210613E+02  0.51100000000E-03 0. -1.
         23    2    1    0    0    0 -0.58922815689E+01  0.31433855216E+02  0.52164039421E+01  0.92596032559E+02  0.86741040688E+02 0.  0.
         11    1    3    3    0    0 -0.22704992356E+02  0.41268021615E+01 -0.34526741491E+02  0.41528821946E+02  0.51100000000E-03 0.  1.
         22    1    1    0    0    0  0.58922815689E+01 -0.31433855216E+02 -0.52164039421E+01  0.32403967441E+02  0.00000000000E+00 0. -1.
</event>
<event>
 5    1  0.8957809E-005  0.9118800E+02  0.7818608E-02  0.1130116E+00
         25   -1    0    0    0    0  0.00000000000E+00  0.00000000000E+00  0.99999998245E-14  0.12500000000E+03  0.12500000000E+03 0.  0.
        -11    1    3    3    0    0  0.44914016029E+02  0.86864254238E+01  0.18344250411E+02  0.49287263526E+02  0.51100000000E-03 0.  1.
         23    2    1    0    0    0  0.16314004061E+02 -0.24387083624E+02  0.35565627297E+01  0.95444531561E+02  0.90753142592E+02 0.  0.
         11    1    3    3    0    0 -0.28600011968E+02 -0.33073509048E+02 -0.14787687681E+02  0.46157268036E+02  0.51100000000E-03 0. -1.
         22    1    1    0    0    0 -0.16314004061E+02  0.24387083624E+02 -0.35565627297E+01  0.29555468439E+02  0.00000000000E+00 0.  1.
</event>
<event>
 5    1  0.8957809E-005  0.9118800E+02  0.7818608E-02  0.1130116E+00
         25   -1    0    0    0    0  0.00000000000E+00  0.00000000000E+00  0.99999998245E-14  0.12500000000E+03  0.12500000000E+03 0.  0.
        -11    1    3    3    0    0  0.36722810656E+02 -0.26755026212E+02 -0.28230826313E+02  0.53491829326E+02  0.51100000000E-03 0. -1.
         23    2    1    0    0    0  0.24266901905E+01 -0.28971407570E+02 -0.37519611839E+01  0.95686035843E+02  0.91085174209E+02 0.  0.
         11    1    3    3    0    0 -0.34296120465E+02 -0.22163813585E+01  0.24478865129E+02  0.42194206517E+02  0.51100000000E-03 0.  1.
         22    1    1    0    0    0 -0.24266901905E+01  0.28971407570E+02  0.37519611839E+01  0.29313964157E+02  0.00000000000E+00 0. -1.
</event>
<event>
 5    1  0.8957809E-005  0.9118800E+02  0.7818608E-02  0.1130116E+00
         25   -1    0    0    0    0  0.00000000000E+00  0.00000000000E+00  0.99999998245E-14  0.12500000000E+03  0.12500000000E+03 0.  0.
        -11    1    3    3    0    0  0.23353617304E+02 -0.23957447848E+02  0.15183784334E+01  0.33491136468E+02  0.51100000000E-03 0.  1.
         23    2    1    0    0    0 -0.21769497340E+02  0.14411118102E+02 -0.14880385825E+02  0.94949755047E+02  0.90069077723E+02 0.  0.
         11    1    3    3    0    0 -0.45123114644E+02  0.38368565950E+02 -0.16398764258E+02  0.61458618580E+02  0.51100000000E-03 0. -1.
         22    1    1    0    0    0  0.21769497340E+02 -0.14411118102E+02  0.14880385825E+02  0.30050244953E+02  0.00000000000E+00 0. -1.
</event>
<event>
 5    1  0.8957809E-005  0.9118800E+02  0.7818608E-02  0.1130116E+00
         25   -1    0    0    0    0  0.00000000000E+00  0.00000000000E+00  0.99999998245E-14  0.12500000000E+03  0.12500000000E+03 0.  0.
        -11    1    3    3    0    0 -0.30151896035E+01  0.24039483085E+02 -0.45152396965E+02  0.51241848789E+02  0.51100000000E-03 0.  1.
         23    2    1    0    0    0 -0.25991164524E+02  0.22333302794E+01 -0.15362410304E+02  0.94725719698E+02  0.89757617640E+02 0.  0.
         11    1    3    3    0    0 -0.22975974921E+02 -0.21806152806E+02  0.29789986660E+02  0.43483870909E+02  0.51100000000E-03 0. -1.
         22    1    1    0    0    0  0.25991164524E+02 -0.22333302794E+01  0.15362410304E+02  0.30274280302E+02  0.00000000000E+00 0.  1.
</event>
<event>
 5    1  0.8957809E-005  0.9118800E+02  0.7818608E-02  0.1130116E+00
         25   -1    0    0    0    0  0.00000000000E+00  0.00000000000E+00  0.99999998245E-14  0.12500000000E+03  0.12500000000E+03 0.  0.
        -11    1    3    3    0    0  0.34339508497E+02  0.46048051244E+02  0.16924729269E+02  0.59883815245E+02  0.51100000000E-03 0.  1.
         23    2    1    0    0    0  0.24933329771E+02  0.12234531513E+02  0.79765577284E+01  0.96103976605E+02  0.91656937279E+02 0.  0.
         11    1    3    3    0    0 -0.94061787260E+01 -0.33813519731E+02 -0.89481715402E+01  0.36220161361E+02  0.51100000000E-03 0. -1.
         22    1    1    0    0    0 -0.24933329771E+02 -0.12234531513E+02 -0.79765577284E+01  0.28896023395E+02  0.00000000000E+00 0.  1.
</event>
<event>
 5    1  0.8957809E-005  0.9118800E+02  0.7818608E-02  0.1130116E+00
         25   -1    0    0    0    0  0.00000000000E+00  0.00000000000E+00  0.99999998245E-14  0.12500000000E+03  0.12500000000E+03 0.  0.
        -11    1    3    3    0    0 -0.18734463291E+01  0.61423271745E+02 -0.84684391899E+01  0.62032592849E+02  0.51100000000E-03 0. -1.
         23    2    1    0    0    0  0.26847722100E+01  0.28654711757E+02  0.14455809708E+00  0.96219426608E+02  0.91814250811E+02 0.  0.
         11    1    3    3    0    0  0.45582185392E+01 -0.32768559988E+02  0.86129972870E+01  0.34186833759E+02  0.51100000000E-03 0.  1.
         22    1    1    0    0    0 -0.26847722100E+01 -0.28654711757E+02 -0.14455809708E+00  0.28780573392E+02  0.00000000000E+00 0. -1.
</event>
<event>
 5    1  0.8957809E-005  0.9118800E+02  0.7818608E-02  0.1130116E+00
         25   -1    0    0    0    0  0.00000000000E+00  0.00000000000E+00  0.99999998245E-14  0.12500000000E+03  0.12500000000E+03 0.  0.
        -11    1    3    3    0    0 -0.31287016072E+02  0.31577979181E+02  0.42936699968E+02  0.61802963912E+02  0.51100000000E-03 0.  1.
         23    2    1    0    0    0 -0.80542587234E+01  0.16225063098E+02  0.21100712333E+02  0.97190580425E+02  0.93127037461E+02 0.  0.
         11    1    3    3    0    0  0.23232757349E+02 -0.15352916082E+02 -0.21835987635E+02  0.35387616514E+02  0.51100000000E-03 0. -1.
         22    1    1    0    0    0  0.80542587234E+01 -0.16225063098E+02 -0.21100712333E+02  0.27809419575E+02  0.00000000000E+00 0.  1.
</event>
<event>
 5    1  0.8957809E-005  0.9118800E+02  0.7818608E-02  0.1130116E+00
         25   -1    0    0    0    0  0.00000000000E+00  0.00000000000E+00  0.99999998245E-14  0.12500000000E+03  0.12500000000E+03 0.  0.
        -11    1    3    3    0    0  0.30053742288E+02 -0.33226989559E+02  0.32158061678E+02  0.55148900187E+02  0.51100000000E-03 0. -1.
         23    2    1    0    0    0  0.18893385228E+02  0.54963712398E+01  0.19269875045E+02  0.97459154218E+02  0.93486836263E+02 0.  0.
         11    1    3    3    0    0 -0.11160357061E+02  0.38723360798E+02 -0.12888186633E+02  0.42310254031E+02  0.51100000000E-03 0.  1.
         22    1    1    0    0    0 -0.18893385228E+02 -0.54963712398E+01 -0.19269875045E+02  0.27540845782E+02  0.00000000000E+00 0. -1.
</event>
<event>
 5    1  0.8957809E-005  0.9118800E+02  0.7818608E-02  0.1130116E+00
         25   -1    0    0    0    0  0.00000000000E+00  0.00000000000E+00  0.99999998245E-14  0.12500000000E+03  0.12500000000E+03 0.  0.
        -11    1    3    3    0    0  0.36464392097E+02  0.85780068212E+01 -0.44832549297E+01  0.37727094601E+02  0.51100000000E-03 0.  1.
         23    2    1    0    0    0 -0.93754941397E+01 -0.26148486981E+02 -0.99464682632E+01  0.95494483690E+02  0.90821918734E+02 0.  0.
         11    1    3    3    0    0 -0.45839886237E+02 -0.34726493803E+02 -0.54632133334E+01  0.57767389089E+02  0.51100000000E-03 0. -1.
         22    1    1    0    0    0  0.93754941397E+01  0.26148486981E+02  0.99464682632E+01  0.29505516310E+02  0.00000000000E+00 0. -1.
</event>
<event>
 5    1  0.8957809E-005  0.9118800E+02  0.7818608E-02  0.1130116E+00
         25   -1    0    0    0    0  0.00000000000E+00  0.00000000000E+00  0.99999998245E-14  0.12500000000E+03  0.12500000000E+03 0.  0.
        -11    1    3    3    0    0  0.35401830653E+02 -0.13354873573E+01 -0.45147352623E+02  0.57387773865E+02  0.51100000000E-03 0. -1.
         23    2    1    0    0    0  0.20020509461E+02 -0.16542708346E+02 -0.13473977192E+02  0.95742008616E+02  0.91161955628E+02 0.  0.
         11    1    3    3    0    0 -0.15381321192E+02 -0.15207220989E+02  0.31673375431E+02  0.38354234750E+02  0.51100000000E-03 0.  1.
         22    1    1    0    0    0 -0.20020509461E+02  0.16542708346E+02  0.13473977192E+02  0.29257991384E+02  0.00000000000E+00 0. -1.
</event>
<event>
 5    1  0.8957809E-005  0.9118800E+02  0.7818608E-02  0.1130116E+00
         25   -1    0    0    0    0  0.00000000000E+00  0.00000000000E+00  0.99999998245E-14  0.12500000000E+03  0.12500000000E+03 0.  0.
        -11    1    3    3    0    0  0.78903272636E+01 -0.25766006606E+02 -0.20150369637E+02  0.33647908665E+02  0.51100000000E-03 0. -1.
         23    2    1    0    0    0  0.57675396782E+01  0.23826561664E+02  0.16586204488E+02  0.95401491018E+02  0.90693840774E+02 0.  0.
         11    1    3    3    0    0 -0.21227875855E+01  0.49592568270E+02  0.36736574125E+02  0.61753582353E+02  0.51100000000E-03 0.  1.
         22    1    1    0    0    0 -0.57675396782E+01 -0.23826561664E+02 -0.16586204488E+02  0.29598508982E+02  0.00000000000E+00 0.  1.
</event>
<event>
 5    1  0.8957809E-005  0.9118800E+02  0.7818608E-02  0.1130116E+00
         25   -1    0    0    0    0  0.00000000000E+00  0.00000000000E+00  0.99999998245E-14  0.12500000000E+03  0.12500000000E+03 0.  0.
        -11    1    3    3    0    0  0.68317518346E+01  0.28681705355E+02  0.25619374268E+02  0.39059766940E+02  0.51100000000E-03 0.  1.
         23    2    1    0    0    0  0.24929964107E+02 -0.15766077238E+02 -0.36589466685E+01  0.95276941736E+02  0.90522016294E+02 0.  0.
         11    1    3    3    0    0  0.18098212273E+02 -0.44447782593E+02 -0.29278320937E+02  0.56217174796E+02  0.51100000000E-03 0. -1.
         22    1    1    0    0    0 -0.24929964107E+02  0.15766077238E+02  0.36589466685E+01  0.29723058264E+02  0.00000000000E+00 0. -1.
</event>
<event>
 5    1  0.8957809E-005  0.9118800E+02  0.7818608E-02  0.1130116E+00
         25   -1    0    0    0    0  0.00000000000E+00  0.00000000000E+00  0.99999998245E-14  0.12500000000E+03  0.12500000000E+03 0.  0.
        -11    1    3    3    0    0 -0.49107109577E+01  0.17026088324E+02  0.57894584574E+02  0.60545732211E+02  0.51100000000E-03 0. -1.
         23    2    1    0    0    0  0.78713297634E+01  0.12414917728E+02  0.28341748328E+02  0.93072853045E+02  0.87425472611E+02 0.  0.
         11    1    3    3    0    0  0.12782040721E+02 -0.46111705965E+01 -0.29552836246E+02  0.32527120834E+02  0.51100000000E-03 0.  1.
         22    1    1    0    0    0 -0.78713297634E+01 -0.12414917728E+02 -0.28341748328E+02  0.31927146955E+02  0.00000000000E+00 0. -1.
</event>
<event>
 5    1  0.8957809E-005  0.9118800E+02  0.7818608E-02  0.1130116E+00
         25   -1    0    0    0    0  0.00000000000E+00  0.00000000000E+00  0.99999998245E-14  0.12500000000E+03  0.12500000000E+03 0.  0.
        -11    1    3    3    0    0 -0.21043621668E+02 -0.35592281164E+02 -0.43385870135E+01  0.41574846108E+02  0.51100000000E-03 0. -1.
         23    2    1    0    0    0 -0.16073530376E+02  0.17050770378E+02 -0.17125836643E+02  0.95976192015E+02  0.91482501079E+02 0.  0.
         11    1    3    3    0    0  0.49700912924E+01  0.52643051542E+02 -0.12787249630E+02  0.54401345907E+02  0.51100000000E-03 0.  1.
         22    1    1    0    0    0  0.16073530376E+02 -0.17050770378E+02  0.17125836643E+02  0.29023807985E+02  0.00000000000E+00 0. -1.
</event>
<event>
 5    1  0.8957809E-005  0.9118800E+02  0.7818608E-02  0.1130116E+00
         25   -1    0    0    0    0  0.00000000000E+00  0.00000000000E+00  0.99999998245E-14  0.12500000000E+03  0.12500000000E+03 0.  0.
        -11    1    3    3    0    0 -0.17934693929E+02 -0.43980083764E+02 -0.35941371589E+02  0.59562431165E+02  0.51100000000E-03 0.  1.
         23    2    1    0    0    0  0.33070827564E+01 -0.26494782986E+02 -0.13423750388E+02  0.95115097519E+02  0.90298252363E+02 0.  0.
         11    1    3    3    0    0  0.21241776686E+02  0.17485300779E+02  0.22517621201E+02  0.35552666354E+02  0.51100000000E-03 0. -1.
         22    1    1    0    0    0 -0.33070827564E+01  0.26494782986E+02  0.13423750388E+02  0.29884902481E+02  0.00000000000E+00 0.  1.
</event>
<event>
 4    1  0.8957809E-005  0.9118800E+02  0.7818608E-02  0.1130116E+00
         25   -1    0    0    0    0  0.00000000000E+00  0.00000000000E+00  0.99999998245E-14  0.12500000000E+03  0.12500000000E+03 0.  0.
        -11    1    1    0    0    0 -0.82930961705E+01 -0.15096140364E+02  0.31392143457E+01  0.17507814397E+02  0.51100000000E-03 0.  1.
         11    1    1    0    0    0  0.28835634051E+02 -0.15872551397E+02  0.39180398924E+02  0.51171626309E+02  0.51100000000E-03 0. -1.
         22    1    1    0    0    0 -0.20542537880E+02  0.30968691761E+02 -0.42319613270E+02  0.56320559295E+02  0.00000000000E+00 0. -1.
</event>
<event>
 5    1  0.8957809E-005  0.9118800E+02  0.7818608E-02  0.1130116E+00
         25   -1    0    0    0    0  0.00000000000E+00  0.00000000000E+00  0.99999998245E-14  0.12500000000E+03  0.12500000000E+03 0.  0.
        -11    1    3    3    0    0  0.45015326850E+02 -0.20281258707E+02  0.81981969861E+01  0.50049171224E+02  0.51100000000E-03 0.  1.
         23    2    1    0    0    0  0.12543393618E+02 -0.23791635228E+01  0.29530799493E+02  0.92827569859E+02  0.87074063100E+02 0.  0.
         11    1    3    3    0    0 -0.32471933232E+02  0.17902095184E+02  0.21332602507E+02  0.42778398635E+02  0.51100000000E-03 0. -1.
         22    1    1    0    0    0 -0.12543393618E+02  0.23791635228E+01 -0.29530799493E+02  0.32172430141E+02  0.00000000000E+00 0.  1.
</event>
<event>
 5    1  0.8957809E-005  0.9118800E+02  0.7818608E-02  0.1130116E+00
         25   -1    0    0    0    0  0.00000000000E+00  0.00000000000E+00  0.99999998245E-14  0.12500000000E+03  0.12500000000E+03 0.  0.
        -11    1    3    3    0    0  0.74777210021E+01 -0.40348011935E+02  0.25955046020E+02  0.48554534213E+02  0.51100000000E-03 0. -1.
         23    2    1    0    0    0 -0.15147796403E+02 -0.14167213503E+02 -0.12893038181E+02  0.10057877751E+03  0.97568921168E+02 0.  0.
         11    1    3    3    0    0 -0.22625517405E+02  0.26180798432E+02 -0.38848084201E+02  0.52024243298E+02  0.51100000000E-03 0.  1.
         22    1    1    0    0    0  0.15147796403E+02  0.14167213503E+02  0.12893038181E+02  0.24421222489E+02  0.00000000000E+00 0.  1.
</event>
<event>
 5    1  0.8957809E-005  0.9118800E+02  0.7818608E-02  0.1130116E+00
         25   -1    0    0    0    0  0.00000000000E+00  0.00000000000E+00  0.99999998245E-14  0.12500000000E+03  0.12500000000E+03 0.  0.
        -11    1    3    3    0    0  0.24064595320E+02 -0.52442331099E+02 -0.63149798764E+01  0.58044653587E+02  0.51100000000E-03 0. -1.
         23    2    1    0    0    0  0.16610156016E+02 -0.16618688117E+02 -0.16808376313E+02  0.96110562625E+02  0.91665918727E+02 0.  0.
         11    1    3    3    0    0 -0.74544393047E+01  0.35823642981E+02 -0.10493396436E+02  0.38065909037E+02  0.51100000000E-03 0.  1.
         22    1    1    0    0    0 -0.16610156016E+02  0.16618688117E+02  0.16808376313E+02  0.28889437375E+02  0.00000000000E+00 0. -1.
</event>
<event>
 5    1  0.8957809E-005  0.9118800E+02  0.7818608E-02  0.1130116E+00
         25   -1    0    0    0    0  0.00000000000E+00  0.00000000000E+00  0.99999998245E-14  0.12500000000E+03  0.12500000000E+03 0.  0.
        -11    1    3    3    0    0 -0.36360859108E+02 -0.22806680723E+02  0.25479866052E+02  0.49914730641E+02  0.51100000000E-03 0.  1.
         23    2    1    0    0    0 -0.28467746814E+02 -0.38199041780E+01 -0.12944588670E+02  0.93494974172E+02  0.88026947823E+02 0.  0.
         11    1    3    3    0    0  0.78931122945E+01  0.18986776545E+02 -0.38424454722E+02  0.43580243531E+02  0.51100000000E-03 0. -1.
         22    1    1    0    0    0  0.28467746814E+02  0.38199041780E+01  0.12944588670E+02  0.31505025828E+02  0.00000000000E+00 0. -1.
</event>
<event>
 5    1  0.8957809E-005  0.9118800E+02  0.7818608E-02  0.1130116E+00
         25   -1    0    0    0    0  0.00000000000E+00  0.00000000000E+00  0.99999998245E-14  0.12500000000E+03  0.12500000000E+03 0.  0.
        -11    1    3    3    0    0  0.27630613786E+01 -0.42413740860E+02  0.17595193853E+02  0.46001638763E+02  0.51100000000E-03 0. -1.
         23    2    1    0    0    0  0.11456928757E+02 -0.12356828557E+02 -0.22518213068E+02  0.96874880475E+02  0.92702319920E+02 0.  0.
         11    1    3    3    0    0  0.86938673785E+01  0.30056912302E+02 -0.40113406921E+02  0.50873241711E+02  0.51100000000E-03 0.  1.
         22    1    1    0    0    0 -0.11456928757E+02  0.12356828557E+02  0.22518213068E+02  0.28125119525E+02  0.00000000000E+00 0.  1.
</event>
<event>
 5    1  0.8957809E-005  0.9118800E+02  0.7818608E-02  0.1130116E+00
         25   -1    0    0    0    0  0.00000000000E+00  0.00000000000E+00  0.99999998245E-14  0.12500000000E+03  0.12500000000E+03 0.  0.
        -11    1    3    3    0    0  0.44732574379E+02 -0.18089782200E+02  0.22294494863E+02  0.53153437632E+02  0.51100000000E-03 0.  1.
         23    2    1    0    0    0  0.23044217057E+02 -0.70148059767E+01 -0.14208088603E+02  0.97033712717E+02  0.92916242817E+02 0.  0.
         11    1    3    3    0    0 -0.21688357322E+02  0.11074976223E+02 -0.36502583465E+02  0.43880275086E+02  0.51100000000E-03 0. -1.
         22    1    1    0    0    0 -0.23044217057E+02  0.70148059767E+01  0.14208088603E+02  0.27966287283E+02  0.00000000000E+00 0.  1.
</event>
<event>
 5    1  0.8957809E-005  0.9118800E+02  0.7818608E-02  0.1130116E+00
         25   -1    0    0    0    0  0.00000000000E+00  0.00000000000E+00  0.99999998245E-14  0.12500000000E+03  0.12500000000E+03 0.  0.
        -11    1    3    3    0    0  0.11576052825E+01  0.23847879486E+02 -0.30703890574E+02  0.38894605057E+02  0.51100000000E-03 0. -1.
         23    2    1    0    0    0  0.15829578662E+02 -0.24458771603E+02 -0.53891357789E+01  0.95371468929E+02  0.90652452986E+02 0.  0.
         11    1    3    3    0    0  0.14671973380E+02 -0.48306651089E+02  0.25314754795E+02  0.56476863872E+02  0.51100000000E-03 0.  1.
         22    1    1    0    0    0 -0.15829578662E+02  0.24458771603E+02  0.53891357789E+01  0.29628531071E+02  0.00000000000E+00 0.  1.
</event>
<event>
 5    1  0.8957809E-005  0.9118800E+02  0.7818608E-02  0.1130116E+00
         25   -1    0    0    0    0  0.00000000000E+00  0.00000000000E+00  0.99999998245E-14  0.12500000000E+03  0.12500000000E+03 0.  0.
        -11    1    3    3    0    0  0.43142077621E+02  0.19139480343E+02  0.61558420980E+01  0.47596774696E+02  0.51100000000E-03 0. -1.
         23    2    1    0    0    0  0.97002251406E-01  0.26873123138E+02  0.17690508609E+02  0.92826590926E+02  0.87072657772E+02 0.  0.
         11    1    3    3    0    0 -0.43045075369E+02  0.77336427948E+01  0.11534666511E+02  0.45229816230E+02  0.51100000000E-03 0.  1.
         22    1    1    0    0    0 -0.97002251406E-01 -0.26873123138E+02 -0.17690508609E+02  0.32173409074E+02  0.00000000000E+00 0.  1.
</event>
<event>
 5    1  0.8957809E-005  0.9118800E+02  0.7818608E-02  0.1130116E+00
         25   -1    0    0    0    0  0.00000000000E+00  0.00000000000E+00  0.99999998245E-14  0.12500000000E+03  0.12500000000E+03 0.  0.
        -11    1    3    3    0    0  0.57157319673E+01  0.43197439204E+01  0.34180384800E+02  0.34923179764E+02  0.51100000000E-03 0. -1.
         23    2    1    0    0    0 -0.11560581594E+02 -0.19443308795E+02 -0.18854542474E+02  0.95552027649E+02  0.90901083119E+02 0.  0.
         11    1    3    3    0    0 -0.17276313561E+02 -0.23763052716E+02 -0.53034927274E+02  0.60628847885E+02  0.51100000000E-03 0.  1.
         22    1    1    0    0    0  0.11560581594E+02  0.19443308795E+02  0.18854542474E+02  0.29447972351E+02  0.00000000000E+00 0.  1.
</event>
<event>
 5    1  0.8957809E-005  0.9118800E+02  0.7818608E-02  0.1130116E+00
         25   -1    0    0    0    0  0.00000000000E+00  0.00000000000E+00  0.99999998245E-14  0.12500000000E+03  0.12500000000E+03 0.  0.
        -11    1    3    3    0    0  0.22261393361E+02 -0.14758911486E+02 -0.22857074852E+02  0.35154529917E+02  0.51100000000E-03 0.  1.
         23    2    1    0    0    0  0.18984456186E+01  0.20326228459E+02  0.21559946131E+02  0.95308402934E+02  0.90565449999E+02 0.  0.
         11    1    3    3    0    0 -0.20362947743E+02  0.35085139945E+02  0.44417020983E+02  0.60153873017E+02  0.51100000000E-03 0. -1.
         22    1    1    0    0    0 -0.18984456186E+01 -0.20326228459E+02 -0.21559946131E+02  0.29691597066E+02  0.00000000000E+00 0. -1.
</event>
<event>
 5    1  0.8957809E-005  0.9118800E+02  0.7818608E-02  0.1130116E+00
         25   -1    0    0    0    0  0.00000000000E+00  0.00000000000E+00  0.99999998245E-14  0.12500000000E+03  0.12500000000E+03 0.  0.
        -11    1    3    3    0    0  0.30547549310E+02  0.35152309664E+01 -0.19347149809E+02  0.36329352094E+02  0.51100000000E-03 0.  1.
         23    2    1    0    0    0  0.17640952287E+01 -0.40197718767E+01  0.30394296186E+02  0.94290329886E+02  0.89149214643E+02 0.  0.
         11    1    3    3    0    0 -0.28783454081E+02 -0.75350028431E+01  0.49741445994E+02  0.57960977792E+02  0.51100000000E-03 0. -1.
         22    1    1    0    0    0 -0.17640952287E+01  0.40197718767E+01 -0.30394296186E+02  0.30709670114E+02  0.00000000000E+00 0. -1.
</event>
<event>
 5    1  0.8957809E-005  0.9118800E+02  0.7818608E-02  0.1130116E+00
         25   -1    0    0    0    0  0.00000000000E+00  0.00000000000E+00  0.99999998245E-14  0.12500000000E+03  0.12500000000E+03 0.  0.
        -11    1    3    3    0    0 -0.25352062337E+02  0.11751077990E+02 -0.38843479409E+02  0.47850086641E+02  0.51100000000E-03 0.  1.
         23    2    1    0    0    0 -0.73605348212E+01 -0.22565800044E+02 -0.28414060265E+02  0.87976336956E+02  0.79806542582E+02 0.  0.
         11    1    3    3    0    0  0.17991527516E+02 -0.34316878034E+02  0.10429419145E+02  0.40126250315E+02  0.51100000000E-03 0. -1.
         22    1    1    0    0    0  0.73605348212E+01  0.22565800044E+02  0.28414060265E+02  0.37023663044E+02  0.00000000000E+00 0. -1.
</event>
<event>
 5    1  0.8957809E-005  0.9118800E+02  0.7818608E-02  0.1130116E+00
         25   -1    0    0    0    0  0.00000000000E+00  0.00000000000E+00  0.99999998245E-14  0.12500000000E+03  0.12500000000E+03 0.  0.
        -11    1    3    3    0    0  0.20236845435E+02  0.11222049515E+02  0.18567239497E+02  0.29668277525E+02  0.51100000000E-03 0.  1.
         23    2    1    0    0    0 -0.22370877348E+02 -0.24560911993E+02  0.21570675744E+02  0.85389539218E+02  0.75646446080E+02 0.  0.
         11    1    3    3    0    0 -0.42607722784E+02 -0.35782961508E+02  0.30034362467E+01  0.55721261693E+02  0.51100000000E-03 0. -1.
         22    1    1    0    0    0  0.22370877348E+02  0.24560911993E+02 -0.21570675744E+02  0.39610460782E+02  0.00000000000E+00 0. -1.
</event>
<event>
 5    1  0.8957809E-005  0.9118800E+02  0.7818608E-02  0.1130116E+00
         25   -1    0    0    0    0  0.00000000000E+00  0.00000000000E+00  0.99999998245E-14  0.12500000000E+03  0.12500000000E+03 0.  0.
        -11    1    3    3    0    0 -0.28527151729E+02  0.21870838150E+02  0.22389186287E+02  0.42348643544E+02  0.51100000000E-03 0. -1.
         23    2    1    0    0    0  0.17770135446E+02 -0.22279625970E+01  0.24579001188E+02  0.94588343838E+02  0.89566098271E+02 0.  0.
         11    1    3    3    0    0  0.46297287175E+02 -0.24098800747E+02  0.21898149009E+01  0.52239700294E+02  0.51100000000E-03 0.  1.
         22    1    1    0    0    0 -0.17770135446E+02  0.22279625970E+01 -0.24579001188E+02  0.30411656162E+02  0.00000000000E+00 0. -1.
</event>
<event>
 5    1  0.8957809E-005  0.9118800E+02  0.7818608E-02  0.1130116E+00
         25   -1    0    0    0    0  0.00000000000E+00  0.00000000000E+00  0.99999998245E-14  0.12500000000E+03  0.12500000000E+03 0.  0.
        -11    1    3    3    0    0  0.13367892290E+02 -0.54021554560E+02 -0.21044876891E+02  0.59497191068E+02  0.51100000000E-03 0. -1.
         23    2    1    0    0    0  0.86681675716E+01 -0.16375034658E+02 -0.20400928172E+02  0.97441394096E+02  0.93463086424E+02 0.  0.
         11    1    3    3    0    0 -0.46997247188E+01  0.37646519902E+02  0.64394871828E+00  0.37944203028E+02  0.51100000000E-03 0.  1.
         22    1    1    0    0    0 -0.86681675716E+01  0.16375034658E+02  0.20400928172E+02  0.27558605904E+02  0.00000000000E+00 0. -1.
</event>
<event>
 5    1  0.8957809E-005  0.9118800E+02  0.7818608E-02  0.1130116E+00
         25   -1    0    0    0    0  0.00000000000E+00  0.00000000000E+00  0.99999998245E-14  0.12500000000E+03  0.12500000000E+03 0.  0.
        -11    1    3    3    0    0 -0.30407827948E+02 -0.22722080247E+02 -0.47618997958E+02  0.60897437533E+02  0.51100000000E-03 0.  1.
         23    2    1    0    0    0 -0.22484407898E+02 -0.45818871904E+01 -0.22692993107E+02  0.92727500486E+02  0.86930288861E+02 0.  0.
         11    1    3    3    0    0  0.79234200500E+01  0.18140193057E+02  0.24926004852E+02  0.31830062952E+02  0.51100000000E-03 0. -1.
         22    1    1    0    0    0  0.22484407898E+02  0.45818871904E+01  0.22692993107E+02  0.32272499514E+02  0.00000000000E+00 0.  1.
</event>
<event>
 5    1  0.8957809E-005  0.9118800E+02  0.7818608E-02  0.1130116E+00
         25   -1    0    0    0    0  0.00000000000E+00  0.00000000000E+00  0.99999998245E-14  0.12500000000E+03  0.12500000000E+03 0.  0.
        -11    1    3    3    0    0 -0.19771661797E+02 -0.63732795389E+01  0.44956920460E+02  0.49524357641E+02  0.51100000000E-03 0. -1.
         23    2    1    0    0    0 -0.11908333666E+02 -0.25666152995E+02  0.27758177022E+01  0.96569998519E+02  0.92290300843E+02 0.  0.
         11    1    3    3    0    0  0.78633281308E+01 -0.19292873457E+02 -0.42181102758E+02  0.47045640878E+02  0.51100000000E-03 0.  1.
         22    1    1    0    0    0  0.11908333666E+02  0.25666152995E+02 -0.27758177022E+01  0.28430001481E+02  0.00000000000E+00 0. -1.
</event>
<event>
 5    1  0.8957809E-005  0.9118800E+02  0.7818608E-02  0.1130116E+00
         25   -1    0    0    0    0  0.00000000000E+00  0.00000000000E+00  0.99999998245E-14  0.12500000000E+03  0.12500000000E+03 0.  0.
        -11    1    3    3    0    0  0.19283935814E+02  0.37095456866E+02  0.24711064759E+01  0.41881373760E+02  0.51100000000E-03 0. -1.
         23    2    1    0    0    0 -0.33331832757E+01 -0.26292013732E+00 -0.29061475860E+02  0.95746818687E+02  0.91168550892E+02 0.  0.
         11    1    3    3    0    0 -0.22617119089E+02 -0.37358377003E+02 -0.31532582336E+02  0.53865444927E+02  0.51100000000E-03 0.  1.
         22    1    1    0    0    0  0.33331832757E+01  0.26292013732E+00  0.29061475860E+02  0.29253181313E+02  0.00000000000E+00 0. -1.
</event>
<event>
 5    1  0.8957809E-005  0.9118800E+02  0.7818608E-02  0.1130116E+00
         25   -1    0    0    0    0  0.00000000000E+00  0.00000000000E+00  0.99999998245E-14  0.12500000000E+03  0.12500000000E+03 0.  0.
        -11    1    3    3    0    0 -0.21956645678E+01 -0.38493392964E+02 -0.77976185222E+01  0.39336561868E+02  0.51100000000E-03 0.  1.
         23    2    1    0    0    0  0.96555601106E+01  0.53451237513E+01  0.26531793981E+02  0.96264372622E+02  0.91875421934E+02 0.  0.
         11    1    3    3    0    0  0.11851224678E+02  0.43838516715E+02  0.34329412503E+02  0.56927810754E+02  0.51100000000E-03 0. -1.
         22    1    1    0    0    0 -0.96555601106E+01 -0.53451237513E+01 -0.26531793981E+02  0.28735627378E+02  0.00000000000E+00 0. -1.
</event>
<event>
 5    1  0.8957809E-005  0.9118800E+02  0.7818608E-02  0.1130116E+00
         25   -1    0    0    0    0  0.00000000000E+00  0.00000000000E+00  0.99999998245E-14  0.12500000000E+03  0.12500000000E+03 0.  0.
        -11    1    3    3    0    0  0.30504735402E+02 -0.76159108562E+01 -0.11991803889E+02  0.33650324529E+02  0.51100000000E-03 0. -1.
         23    2    1    0    0    0 -0.27978356204E+02 -0.94475663885E+01  0.60008849519E+01  0.94866039976E+02  0.89952820934E+02 0.  0.
         11    1    3    3    0    0 -0.58483091605E+02 -0.18316555323E+01  0.17992688841E+02  0.61215715447E+02  0.51100000000E-03 0.  1.
         22    1    1    0    0    0  0.27978356204E+02  0.94475663885E+01 -0.60008849519E+01  0.30133960024E+02  0.00000000000E+00 0.  1.
</event>
<event>
 5    1  0.8957809E-005  0.9118800E+02  0.7818608E-02  0.1130116E+00
         25   -1    0    0    0    0  0.00000000000E+00  0.00000000000E+00  0.99999998245E-14  0.12500000000E+03  0.12500000000E+03 0.  0.
        -11    1    3    3    0    0 -0.15520221232E+02  0.31266413675E+02 -0.13725605561E+02  0.37508107650E+02  0.51100000000E-03 0.  1.
         23    2    1    0    0    0  0.28825039288E+02 -0.12662593112E+01  0.52202167216E+01  0.95678728452E+02  0.91075145418E+02 0.  0.
         11    1    3    3    0    0  0.44345260520E+02 -0.32532672986E+02  0.18945822283E+02  0.58170620802E+02  0.51100000000E-03 0. -1.
         22    1    1    0    0    0 -0.28825039288E+02  0.12662593112E+01 -0.52202167216E+01  0.29321271548E+02  0.00000000000E+00 0. -1.
</event>
<event>
 5    1  0.8957809E-005  0.9118800E+02  0.7818608E-02  0.1130116E+00
         25   -1    0    0    0    0  0.00000000000E+00  0.00000000000E+00  0.99999998245E-14  0.12500000000E+03  0.12500000000E+03 0.  0.
        -11    1    3    3    0    0  0.28789190706E+02 -0.24511830636E+02 -0.23768873739E+02  0.44661019936E+02  0.51100000000E-03 0. -1.
         23    2    1    0    0    0  0.10460804439E+02  0.72211217637E+01  0.19724560287E+02  0.10153446554E+03  0.98785709416E+02 0.  0.
         11    1    3    3    0    0 -0.18328386267E+02  0.31732952399E+02  0.43493434026E+02  0.56873445603E+02  0.51100000000E-03 0.  1.
         22    1    1    0    0    0 -0.10460804439E+02 -0.72211217637E+01 -0.19724560287E+02  0.23465534461E+02  0.00000000000E+00 0.  1.
</event>
<event>
 5    1  0.8957809E-005  0.9118800E+02  0.7818608E-02  0.1130116E+00
         25   -1    0    0    0    0  0.00000000000E+00  0.00000000000E+00  0.99999998245E-14  0.12500000000E+03  0.12500000000E+03 0.  0.
        -11    1    3    3    0    0 -0.55347342502E+01 -0.33324899200E+02  0.65176035786E+01  0.34404379759E+02  0.51100000000E-03 0.  1.
         23    2    1    0    0    0  0.17933030477E+02  0.11658364398E+02 -0.23393627613E+02  0.93301847760E+02  0.87752275981E+02 0.  0.
         11    1    3    3    0    0  0.23467764727E+02  0.44983263598E+02 -0.29911231192E+02  0.58897468001E+02  0.51100000000E-03 0. -1.
         22    1    1    0    0    0 -0.17933030477E+02 -0.11658364398E+02  0.23393627613E+02  0.31698152240E+02  0.00000000000E+00 0. -1.
</event>
<event>
 5    1  0.8957809E-005  0.9118800E+02  0.7818608E-02  0.1130116E+00
         25   -1    0    0    0    0  0.00000000000E+00  0.00000000000E+00  0.99999998245E-14  0.12500000000E+03  0.12500000000E+03 0.  0.
        -11    1    3    3    0    0  0.32470403055E+02  0.29028398147E+02 -0.19456505098E+02  0.47702521572E+02  0.51100000000E-03 0.  1.
         23    2    1    0    0    0  0.21157590421E+02 -0.88794789445E+00  0.18177785338E+02  0.97091865636E+02  0.92994442893E+02 0.  0.
         11    1    3    3    0    0 -0.11312812634E+02 -0.29916346041E+02  0.37634290436E+02  0.49389344064E+02  0.51100000000E-03 0. -1.
         22    1    1    0    0    0 -0.21157590421E+02  0.88794789445E+00 -0.18177785338E+02  0.27908134364E+02  0.00000000000E+00 0. -1.
</event>
<event>
 5    1  0.8957809E-005  0.9118800E+02  0.7818608E-02  0.1130116E+00
         25   -1    0    0    0    0  0.00000000000E+00  0.00000000000E+00  0.99999998245E-14  0.12500000000E+03  0.12500000000E+03 0.  0.
        -11    1    3    3    0    0 -0.61653173897E+01  0.20528663302E+02  0.28409046678E+02  0.35588075094E+02  0.51100000000E-03 0.  1.
         23    2    1    0    0    0  0.58547076194E+01  0.49838930915E+01 -0.28336168564E+02  0.95639222753E+02  0.91020907973E+02 0.  0.
         11    1    3    3    0    0  0.12020025009E+02 -0.15544770211E+02 -0.56745215242E+02  0.60051147659E+02  0.51100000000E-03 0. -1.
         22    1    1    0    0    0 -0.58547076194E+01 -0.49838930915E+01  0.28336168564E+02  0.29360777247E+02  0.00000000000E+00 0. -1.
</event>
<event>
 5    1  0.8957809E-005  0.9118800E+02  0.7818608E-02  0.1130116E+00
         25   -1    0    0    0    0  0.00000000000E+00  0.00000000000E+00  0.99999998245E-14  0.12500000000E+03  0.12500000000E+03 0.  0.
        -11    1    3    3    0    0 -0.18219002256E+02 -0.40352978720E+02 -0.22438152588E+02  0.49636333734E+02  0.51100000000E-03 0.  1.
         23    2    1    0    0    0 -0.20472094199E+01 -0.68064296308E+00 -0.31500141248E+02  0.93426067082E+02  0.87929043953E+02 0.  0.
         11    1    3    3    0    0  0.16171792836E+02  0.39672335756E+02 -0.90619886600E+01  0.43789733347E+02  0.51100000000E-03 0. -1.
         22    1    1    0    0    0  0.20472094199E+01  0.68064296308E+00  0.31500141248E+02  0.31573932918E+02  0.00000000000E+00 0. -1.
</event>
<event>
 5    1  0.8957809E-005  0.9118800E+02  0.7818608E-02  0.1130116E+00
         25   -1    0    0    0    0  0.00000000000E+00  0.00000000000E+00  0.99999998245E-14  0.12500000000E+03  0.12500000000E+03 0.  0.
        -11    1    3    3    0    0 -0.16432428371E+02 -0.26918327550E+02  0.33382881464E+02  0.45924261947E+02  0.51100000000E-03 0. -1.
         23    2    1    0    0    0  0.22781910430E+02 -0.13092065836E+02  0.86519296292E+00  0.98709960259E+02  0.95144574542E+02 0.  0.
         11    1    3    3    0    0  0.39214338801E+02  0.13826261714E+02 -0.32517688501E+02  0.52785698312E+02  0.51100000000E-03 0.  1.
         22    1    1    0    0    0 -0.22781910430E+02  0.13092065836E+02 -0.86519296292E+00  0.26290039741E+02  0.00000000000E+00 0.  1.
</event>
<event>
 5    1  0.8957809E-005  0.9118800E+02  0.7818608E-02  0.1130116E+00
         25   -1    0    0    0    0  0.00000000000E+00  0.00000000000E+00  0.99999998245E-14  0.12500000000E+03  0.12500000000E+03 0.  0.
        -11    1    3    3    0    0 -0.25628926813E+02  0.45577209587E+02  0.23853931752E+02  0.57472897818E+02  0.51100000000E-03 0.  1.
         23    2    1    0    0    0 -0.73063293335E+01  0.28660918463E+02 -0.43319037919E+01  0.95106922442E+02  0.90286934882E+02 0.  0.
         11    1    3    3    0    0  0.18322597480E+02 -0.16916291125E+02 -0.28185835543E+02  0.37634024623E+02  0.51100000000E-03 0. -1.
         22    1    1    0    0    0  0.73063293335E+01 -0.28660918463E+02  0.43319037919E+01  0.29893077558E+02  0.00000000000E+00 0.  1.
</event>
<event>
 5    1  0.8957809E-005  0.9118800E+02  0.7818608E-02  0.1130116E+00
         25   -1    0    0    0    0  0.00000000000E+00  0.00000000000E+00  0.99999998245E-14  0.12500000000E+03  0.12500000000E+03 0.  0.
        -11    1    3    3    0    0  0.18286350060E+02 -0.19068468366E+02  0.47228362878E+02  0.54115758747E+02  0.51100000000E-03 0. -1.
         23    2    1    0    0    0  0.28041480785E+02 -0.87356916705E+01  0.99842537638E+01  0.93978680286E+02  0.88711160918E+02 0.  0.
         11    1    3    3    0    0  0.97551307246E+01  0.10332776695E+02 -0.37244109114E+02  0.39862921539E+02  0.51100000000E-03 0.  1.
         22    1    1    0    0    0 -0.28041480785E+02  0.87356916705E+01 -0.99842537638E+01  0.31021319714E+02  0.00000000000E+00 0.  1.
</event>
<event>
 5    1  0.8957809E-005  0.9118800E+02  0.7818608E-02  0.1130116E+00
         25   -1    0    0    0    0  0.00000000000E+00  0.00000000000E+00  0.99999998245E-14  0.12500000000E+03  0.12500000000E+03 0.  0.
        -11    1    3    3    0    0 -0.10827293016E+02  0.97490639149E+01  0.85871329614E+01  0.16911929932E+02  0.51100000000E-03 0.  1.
         23    2    1    0    0    0  0.47895230162E+02  0.27865332487E+01 -0.19819221268E+01  0.76982858736E+02  0.60172374759E+02 0.  0.
         11    1    3    3    0    0  0.58722523178E+02 -0.69625306662E+01 -0.10569055088E+02  0.60070928804E+02  0.51100000000E-03 0. -1.
         22    1    1    0    0    0 -0.47895230162E+02 -0.27865332487E+01  0.19819221268E+01  0.48017141264E+02  0.00000000000E+00 0. -1.
</event>
<event>
 5    1  0.8957809E-005  0.9118800E+02  0.7818608E-02  0.1130116E+00
         25   -1    0    0    0    0  0.00000000000E+00  0.00000000000E+00  0.99999998245E-14  0.12500000000E+03  0.12500000000E+03 0.  0.
        -11    1    3    3    0    0  0.14808891200E+02  0.30731935823E+02  0.14117672595E+01  0.34143055297E+02  0.51100000000E-03 0. -1.
         23    2    1    0    0    0 -0.20734831391E+02 -0.17971162704E+02  0.11451952966E+02  0.95267136894E+02  0.90508475976E+02 0.  0.
         11    1    3    3    0    0 -0.35543722590E+02 -0.48703098527E+02  0.10040185707E+02  0.61124081597E+02  0.51100000000E-03 0.  1.
         22    1    1    0    0    0  0.20734831391E+02  0.17971162704E+02 -0.11451952966E+02  0.29732863106E+02  0.00000000000E+00 0.  1.
</event>
<event>
 5    1  0.8957809E-005  0.9118800E+02  0.7818608E-02  0.1130116E+00
         25   -1    0    0    0    0  0.00000000000E+00  0.00000000000E+00  0.99999998245E-14  0.12500000000E+03  0.12500000000E+03 0.  0.
        -11    1    3    3    0    0  0.14603993121E+02  0.37871478628E+02  0.32971752472E+02  0.52293995544E+02  0.51100000000E-03 0. -1.
         23    2    1    0    0    0 -0.15077723930E+02  0.25222723033E+02  0.46042824941E+01  0.95255707549E+02  0.90492689690E+02 0.  0.
         11    1    3    3    0    0 -0.29681717051E+02 -0.12648755595E+02 -0.28367469978E+02  0.42961712005E+02  0.51100000000E-03 0.  1.
         22    1    1    0    0    0  0.15077723930E+02 -0.25222723033E+02 -0.46042824941E+01  0.29744292451E+02  0.00000000000E+00 0.  1.
</event>
<event>
 5    1  0.8957809E-005  0.9118800E+02  0.7818608E-02  0.1130116E+00
         25   -1    0    0    0    0  0.00000000000E+00  0.00000000000E+00  0.99999998245E-14  0.12500000000E+03  0.12500000000E+03 0.  0.
        -11    1    3    3    0    0 -0.12535686041E+01 -0.36693783018E+02  0.21582507092E+01  0.36778569750E+02  0.51100000000E-03 0.  1.
         23    2    1    0    0    0  0.81018871770E+01  0.14199289681E+02 -0.24931575741E+02  0.95186515262E+02  0.90397061985E+02 0.  0.
         11    1    3    3    0    0  0.93554557812E+01  0.50893072699E+02 -0.27089826451E+02  0.58407945513E+02  0.51100000000E-03 0. -1.
         22    1    1    0    0    0 -0.81018871770E+01 -0.14199289681E+02  0.24931575741E+02  0.29813484738E+02  0.00000000000E+00 0. -1.
</event>
<event>
 5    1  0.8957809E-005  0.9118800E+02  0.7818608E-02  0.1130116E+00
         25   -1    0    0    0    0  0.00000000000E+00  0.00000000000E+00  0.99999998245E-14  0.12500000000E+03  0.12500000000E+03 0.  0.
        -11    1    3    3    0    0 -0.31291138283E+02  0.35789821984E+02  0.70738665542E+01  0.48063356946E+02  0.51100000000E-03 0. -1.
         23    2    1    0    0    0 -0.22735208219E+02 -0.12909371289E+02  0.84385905432E+01  0.97527261327E+02  0.93577857059E+02 0.  0.
         11    1    3    3    0    0  0.85559300641E+01 -0.48699193273E+02  0.13647239890E+01  0.49463904381E+02  0.51100000000E-03 0.  1.
         22    1    1    0    0    0  0.22735208219E+02  0.12909371289E+02 -0.84385905432E+01  0.27472738673E+02  0.00000000000E+00 0. -1.
</event>
<event>
 5    1  0.8957809E-005  0.9118800E+02  0.7818608E-02  0.1130116E+00
         25   -1    0    0    0    0  0.00000000000E+00  0.00000000000E+00  0.99999998245E-14  0.12500000000E+03  0.12500000000E+03 0.  0.
        -11    1    3    3    0    0 -0.10387876856E+02 -0.30886206770E+02  0.29504777886E+02  0.43959045401E+02  0.51100000000E-03 0.  1.
         23    2    1    0    0    0  0.13917931709E+02  0.12652918182E+02  0.24555526937E+02  0.94068154521E+02  0.88837146680E+02 0.  0.
         11    1    3    3    0    0  0.24305808564E+02  0.43539124952E+02 -0.49492509490E+01  0.50109109120E+02  0.51100000000E-03 0. -1.
         22    1    1    0    0    0 -0.13917931709E+02 -0.12652918182E+02 -0.24555526937E+02  0.30931845479E+02  0.00000000000E+00 0. -1.
</event>
<event>
 5    1  0.8957809E-005  0.9118800E+02  0.7818608E-02  0.1130116E+00
         25   -1    0    0    0    0  0.00000000000E+00  0.00000000000E+00  0.99999998245E-14  0.12500000000E+03  0.12500000000E+03 0.  0.
        -11    1    3    3    0    0  0.46371896021E+01  0.48713980986E+02 -0.28651407801E+02  0.56705014241E+02  0.51100000000E-03 0.  1.
         23    2    1    0    0    0  0.16369568205E+02  0.24673594124E+02 -0.71809947801E+00  0.95381345792E+02  0.90666071096E+02 0.  0.
         11    1    3    3    0    0  0.11732378602E+02 -0.24040386861E+02  0.27933308323E+02  0.38676331551E+02  0.51100000000E-03 0. -1.
         22    1    1    0    0    0 -0.16369568205E+02 -0.24673594124E+02  0.71809947801E+00  0.29618654208E+02  0.00000000000E+00 0.  1.
</event>
<event>
 5    1  0.8957809E-005  0.9118800E+02  0.7818608E-02  0.1130116E+00
         25   -1    0    0    0    0  0.00000000000E+00  0.00000000000E+00  0.99999998245E-14  0.12500000000E+03  0.12500000000E+03 0.  0.
        -11    1    3    3    0    0  0.58339342604E+02  0.10552195716E+02 -0.67021923938E+01  0.59663616325E+02  0.51100000000E-03 0. -1.
         23    2    1    0    0    0  0.19623078440E+02  0.12062247535E+02  0.72612136913E+01  0.10084863881E+03  0.97914042417E+02 0.  0.
         11    1    3    3    0    0 -0.38716264164E+02  0.15100518190E+01  0.13963406085E+02  0.41185022485E+02  0.51100000000E-03 0.  1.
         22    1    1    0    0    0 -0.19623078440E+02 -0.12062247535E+02 -0.72612136913E+01  0.24151361190E+02  0.00000000000E+00 0. -1.
</event>
<event>
 5    1  0.8957809E-005  0.9118800E+02  0.7818608E-02  0.1130116E+00
         25   -1    0    0    0    0  0.00000000000E+00  0.00000000000E+00  0.99999998245E-14  0.12500000000E+03  0.12500000000E+03 0.  0.
        -11    1    3    3    0    0  0.19390448408E+02 -0.51023961433E+01 -0.29072703872E+02  0.35316370801E+02  0.51100000000E-03 0.  1.
         23    2    1    0    0    0 -0.49927498184E+01 -0.57749575117E+01  0.27253544600E+02  0.96697466928E+02  0.92462785660E+02 0.  0.
         11    1    3    3    0    0 -0.24383198226E+02 -0.67256136842E+00  0.56326248472E+02  0.61381096127E+02  0.51100000000E-03 0. -1.
         22    1    1    0    0    0  0.49927498184E+01  0.57749575117E+01 -0.27253544600E+02  0.28302533072E+02  0.00000000000E+00 0. -1.
</event>
<event>
 5    1  0.8957809E-005  0.9118800E+02  0.7818608E-02  0.1130116E+00
         25   -1    0    0    0    0  0.00000000000E+00  0.00000000000E+00  0.99999998245E-14  0.12500000000E+03  0.12500000000E+03 0.  0.
        -11    1    3    3    0    0  0.25013570044E+02 -0.31881944565E+02  0.30643475707E+02  0.50805114695E+02  0.51100000000E-03 0. -1.
         23    2    1    0    0    0  0.27010640401E+02  0.72445902660E+01  0.86827955989E+01  0.95717757558E+02  0.91128696850E+02 0.  0.
         11    1    3    3    0    0  0.19970703573E+01  0.39126534831E+02 -0.21960680108E+02  0.44912642863E+02  0.51100000000E-03 0.  1.
         22    1    1    0    0    0 -0.27010640401E+02 -0.72445902660E+01 -0.86827955989E+01  0.29282242442E+02  0.00000000000E+00 0. -1.
</event>
<event>
 5    1  0.8957809E-005  0.9118800E+02  0.7818608E-02  0.1130116E+00
         25   -1    0    0    0    0  0.00000000000E+00  0.00000000000E+00  0.99999998245E-14  0.12500000000E+03  0.12500000000E+03 0.  0.
        -11    1    3    3    0    0  0.52668904525E+02 -0.39586280829E+01  0.22164430654E+02  0.57279544574E+02  0.51100000000E-03 0.  1.
         23    2    1    0    0    0  0.16365697216E+02 -0.18045169430E+02  0.13409994392E+02  0.97191869269E+02  0.93128767400E+02 0.  0.
         11    1    3    3    0    0 -0.36303207309E+02 -0.14086541348E+02 -0.87544362627E+01  0.39912324695E+02  0.51100000000E-03 0. -1.
         22    1    1    0    0    0 -0.16365697216E+02  0.18045169430E+02 -0.13409994392E+02  0.27808130731E+02  0.00000000000E+00 0.  1.
</event>
<event>
 5    1  0.8957809E-005  0.9118800E+02  0.7818608E-02  0.1130116E+00
         25   -1    0    0    0    0  0.00000000000E+00  0.00000000000E+00  0.99999998245E-14  0.12500000000E+03  0.12500000000E+03 0.  0.
        -11    1    3    3    0    0  0.15696872390E+02  0.34661404338E+02  0.23196003071E+02  0.44562981411E+02  0.51100000000E-03 0.  1.
         23    2    1    0    0    0  0.24626841199E+02 -0.42487815800E+01 -0.11532902844E+02  0.97476531825E+02  0.93510068743E+02 0.  0.
         11    1    3    3    0    0  0.89299688092E+01 -0.38910185918E+02 -0.34728905915E+02  0.52913550414E+02  0.51100000000E-03 0. -1.
         22    1    1    0    0    0 -0.24626841199E+02  0.42487815800E+01  0.11532902844E+02  0.27523468175E+02  0.00000000000E+00 0. -1.
</event>
<event>
 5    1  0.8957809E-005  0.9118800E+02  0.7818608E-02  0.1130116E+00
         25   -1    0    0    0    0  0.00000000000E+00  0.00000000000E+00  0.99999998245E-14  0.12500000000E+03  0.12500000000E+03 0.  0.
        -11    1    3    3    0    0  0.19951277568E+02 -0.30192669842E+02 -0.31015083489E+02  0.47661160213E+02  0.51100000000E-03 0. -1.
         23    2    1    0    0    0  0.24501554129E+02  0.12264443801E+02 -0.67235224062E+01  0.96787440916E+02  0.92584341166E+02 0.  0.
         11    1    3    3    0    0  0.45502765614E+01  0.42457113643E+02  0.24291561083E+02  0.49126280703E+02  0.51100000000E-03 0.  1.
         22    1    1    0    0    0 -0.24501554129E+02 -0.12264443801E+02  0.67235224062E+01  0.28212559084E+02  0.00000000000E+00 0.  1.
</event>
<event>
 5    1  0.8957809E-005  0.9118800E+02  0.7818608E-02  0.1130116E+00
         25   -1    0    0    0    0  0.00000000000E+00  0.00000000000E+00  0.99999998245E-14  0.12500000000E+03  0.12500000000E+03 0.  0.
        -11    1    3    3    0    0 -0.45795287294E+02  0.37018690202E+02 -0.16917076419E+02  0.61268093144E+02  0.51100000000E-03 0.  1.
         23    2    1    0    0    0 -0.17749875832E+02  0.24157289967E+02 -0.38437912796E+01  0.94777368050E+02  0.89829516377E+02 0.  0.
         11    1    3    3    0    0  0.28045411462E+02 -0.12861400236E+02  0.13073285140E+02  0.33509274906E+02  0.51100000000E-03 0. -1.
         22    1    1    0    0    0  0.17749875832E+02 -0.24157289967E+02  0.38437912796E+01  0.30222631950E+02  0.00000000000E+00 0.  1.
</event>
<event>
 5    1  0.8957809E-005  0.9118800E+02  0.7818608E-02  0.1130116E+00
         25   -1    0    0    0    0  0.00000000000E+00  0.00000000000E+00  0.99999998245E-14  0.12500000000E+03  0.12500000000E+03 0.  0.
        -11    1    3    3    0    0 -0.65999883040E+01  0.17256193843E+02 -0.48465570587E+02  0.51867596862E+02  0.51100000000E-03 0.  1.
         23    2    1    0    0    0  0.17910099269E+02  0.19121257179E+02 -0.11206158479E+02  0.96504875509E+02  0.92202054625E+02 0.  0.
         11    1    3    3    0    0  0.24510087573E+02  0.18650633361E+01  0.37259412108E+02  0.44637278647E+02  0.51100000000E-03 0. -1.
         22    1    1    0    0    0 -0.17910099269E+02 -0.19121257179E+02  0.11206158479E+02  0.28495124491E+02  0.00000000000E+00 0.  1.
</event>
<event>
 5    1  0.8957809E-005  0.9118800E+02  0.7818608E-02  0.1130116E+00
         25   -1    0    0    0    0  0.00000000000E+00  0.00000000000E+00  0.99999998245E-14  0.12500000000E+03  0.12500000000E+03 0.  0.
        -11    1    3    3    0    0 -0.82478713776E+01  0.62816051322E+01 -0.30443184250E+02  0.32160121468E+02  0.51100000000E-03 0.  1.
         23    2    1    0    0    0 -0.19619506714E+02 -0.93562186471E+01  0.25583562844E+02  0.91429439104E+02  0.85043281781E+02 0.  0.
         11    1    3    3    0    0 -0.11371635336E+02 -0.15637823779E+02  0.56026747094E+02  0.59269317636E+02  0.51100000000E-03 0. -1.
         22    1    1    0    0    0  0.19619506714E+02  0.93562186471E+01 -0.25583562844E+02  0.33570560896E+02  0.00000000000E+00 0. -1.
</event>
<event>
 5    1  0.8957809E-005  0.9118800E+02  0.7818608E-02  0.1130116E+00
         25   -1    0    0    0    0  0.00000000000E+00  0.00000000000E+00  0.99999998245E-14  0.12500000000E+03  0.12500000000E+03 0.  0.
        -11    1    3    3    0    0 -0.64476608251E+01  0.43747404325E+02 -0.11474584902E+02  0.45684502999E+02  0.51100000000E-03 0. -1.
         23    2    1    0    0    0 -0.21746491462E+02  0.52728205567E+01  0.17811790774E+02  0.96399782901E+02  0.92059468417E+02 0.  0.
         11    1    3    3    0    0 -0.15298830637E+02 -0.38474583769E+02  0.29286375676E+02  0.50715279902E+02  0.51100000000E-03 0.  1.
         22    1    1    0    0    0  0.21746491462E+02 -0.52728205567E+01 -0.17811790774E+02  0.28600217099E+02  0.00000000000E+00 0. -1.
</event>
<event>
 5    1  0.8957809E-005  0.9118800E+02  0.7818608E-02  0.1130116E+00
         25   -1    0    0    0    0  0.00000000000E+00  0.00000000000E+00  0.99999998245E-14  0.12500000000E+03  0.12500000000E+03 0.  0.
        -11    1    3    3    0    0 -0.13542899083E+02 -0.28865629721E+02  0.26322066453E+02  0.41345929393E+02  0.51100000000E-03 0. -1.
         23    2    1    0    0    0  0.28494274731E+02 -0.31741752316E+01  0.20785927339E+01  0.96254224160E+02  0.91861613529E+02 0.  0.
         11    1    3    3    0    0  0.42037173814E+02  0.25691454489E+02 -0.24243473719E+02  0.54908294768E+02  0.51100000000E-03 0.  1.
         22    1    1    0    0    0 -0.28494274731E+02  0.31741752316E+01 -0.20785927339E+01  0.28745775840E+02  0.00000000000E+00 0.  1.
</event>
<event>
 5    1  0.8957809E-005  0.9118800E+02  0.7818608E-02  0.1130116E+00
         25   -1    0    0    0    0  0.00000000000E+00  0.00000000000E+00  0.99999998245E-14  0.12500000000E+03  0.12500000000E+03 0.  0.
        -11    1    3    3    0    0 -0.49126723273E+02  0.22513096703E+02 -0.25131736867E+02  0.59597639726E+02  0.51100000000E-03 0.  1.
         23    2    1    0    0    0 -0.26940333968E+02  0.11313235728E+02  0.11350227878E+01  0.95758605135E+02  0.91184709704E+02 0.  0.
         11    1    3    3    0    0  0.22186389305E+02 -0.11199860975E+02  0.26266759655E+02  0.36160965409E+02  0.51100000000E-03 0. -1.
         22    1    1    0    0    0  0.26940333968E+02 -0.11313235728E+02 -0.11350227878E+01  0.29241394865E+02  0.00000000000E+00 0.  1.
</event>
<event>
 5    1  0.8957809E-005  0.9118800E+02  0.7818608E-02  0.1130116E+00
         25   -1    0    0    0    0  0.00000000000E+00  0.00000000000E+00  0.99999998245E-14  0.12500000000E+03  0.12500000000E+03 0.  0.
        -11    1    3    3    0    0 -0.31711403333E+02 -0.47515898878E+02 -0.17213860905E+02  0.59663144026E+02  0.51100000000E-03 0. -1.
         23    2    1    0    0    0 -0.24460375811E+02 -0.13266523157E+02 -0.50879484772E+01  0.96712231598E+02  0.92482743792E+02 0.  0.
         11    1    3    3    0    0  0.72510275220E+01  0.34249375721E+02  0.12125912427E+02  0.37049087572E+02  0.51100000000E-03 0.  1.
         22    1    1    0    0    0  0.24460375811E+02  0.13266523157E+02  0.50879484772E+01  0.28287768402E+02  0.00000000000E+00 0. -1.
</event>
<event>
 5    1  0.8957809E-005  0.9118800E+02  0.7818608E-02  0.1130116E+00
         25   -1    0    0    0    0  0.00000000000E+00  0.00000000000E+00  0.99999998245E-14  0.12500000000E+03  0.12500000000E+03 0.  0.
        -11    1    3    3    0    0  0.52412586785E+02  0.16210087949E+02  0.26263251020E+00  0.54862693890E+02  0.51100000000E-03 0. -1.
         23    2    1    0    0    0  0.18941038692E+02  0.12330530250E+02  0.20767127558E+02  0.94306702523E+02  0.89172168477E+02 0.  0.
         11    1    3    3    0    0 -0.33471548092E+02 -0.38795576995E+01  0.20504495048E+02  0.39444008633E+02  0.51100000000E-03 0.  1.
         22    1    1    0    0    0 -0.18941038692E+02 -0.12330530250E+02 -0.20767127558E+02  0.30693297477E+02  0.00000000000E+00 0. -1.
</event>
<event>
 5    1  0.8957809E-005  0.9118800E+02  0.7818608E-02  0.1130116E+00
         25   -1    0    0    0    0  0.00000000000E+00  0.00000000000E+00  0.99999998245E-14  0.12500000000E+03  0.12500000000E+03 0.  0.
        -11    1    3    3    0    0  0.34218018410E+02  0.10208981256E+01  0.25117970034E+02  0.42459715446E+02  0.51100000000E-03 0. -1.
         23    2    1    0    0    0 -0.74842841948E+01  0.27919052578E+02  0.72838571062E+01  0.95191568624E+02  0.90404049445E+02 0.  0.
         11    1    3    3    0    0 -0.41702302604E+02  0.26898154452E+02 -0.17834112927E+02  0.52731853178E+02  0.51100000000E-03 0.  1.
         22    1    1    0    0    0  0.74842841948E+01 -0.27919052578E+02 -0.72838571062E+01  0.29808431376E+02  0.00000000000E+00 0. -1.
</event>
<event>
 5    1  0.8957809E-005  0.9118800E+02  0.7818608E-02  0.1130116E+00
         25   -1    0    0    0    0  0.00000000000E+00  0.00000000000E+00  0.99999998245E-14  0.12500000000E+03  0.12500000000E+03 0.  0.
        -11    1    3    3    0    0  0.10971369807E+02  0.25246739990E+02  0.22843265059E+02  0.35771267722E+02  0.51100000000E-03 0.  1.
         23    2    1    0    0    0 -0.13025755689E+01 -0.28619306131E+02 -0.18627223667E+01  0.96290574350E+02  0.91911063466E+02 0.  0.
         11    1    3    3    0    0 -0.12273945376E+02 -0.53866046121E+02 -0.24705987426E+02  0.60519306628E+02  0.51100000000E-03 0. -1.
         22    1    1    0    0    0  0.13025755689E+01  0.28619306131E+02  0.18627223667E+01  0.28709425650E+02  0.00000000000E+00 0. -1.
</event>
<event>
 5    1  0.8957809E-005  0.9118800E+02  0.7818608E-02  0.1130116E+00
         25   -1    0    0    0    0  0.00000000000E+00  0.00000000000E+00  0.99999998245E-14  0.12500000000E+03  0.12500000000E+03 0.  0.
        -11    1    3    3    0    0 -0.43559912265E+01  0.58803677278E+01 -0.37634776790E+02  0.38339663646E+02  0.51100000000E-03 0.  1.
         23    2    1    0    0    0  0.18635545240E+01 -0.30272766617E+02  0.46457167795E+01  0.94316194523E+02  0.89185473205E+02 0.  0.
         11    1    3    3    0    0  0.62195457504E+01 -0.36153134345E+02  0.42280493570E+02  0.55976530877E+02  0.51100000000E-03 0. -1.
         22    1    1    0    0    0 -0.18635545240E+01  0.30272766617E+02 -0.46457167795E+01  0.30683805477E+02  0.00000000000E+00 0. -1.
</event>
<event>
 5    1  0.8957809E-005  0.9118800E+02  0.7818608E-02  0.1130116E+00
         25   -1    0    0    0    0  0.00000000000E+00  0.00000000000E+00  0.99999998245E-14  0.12500000000E+03  0.12500000000E+03 0.  0.
        -11    1    3    3    0    0  0.26153431063E+02  0.28782196758E+02 -0.82060567230E+00  0.38898460130E+02  0.51100000000E-03 0.  1.
         23    2    1    0    0    0  0.15949924049E+02 -0.25020772091E+02 -0.83492703255E+01  0.94175506035E+02  0.88988069475E+02 0.  0.
         11    1    3    3    0    0 -0.10203507013E+02 -0.53802968849E+02 -0.75286646532E+01  0.55277045905E+02  0.51100000000E-03 0. -1.
         22    1    1    0    0    0 -0.15949924049E+02  0.25020772091E+02  0.83492703255E+01  0.30824493965E+02  0.00000000000E+00 0. -1.
</event>
<event>
 5    1  0.8957809E-005  0.9118800E+02  0.7818608E-02  0.1130116E+00
         25   -1    0    0    0    0  0.00000000000E+00  0.00000000000E+00  0.99999998245E-14  0.12500000000E+03  0.12500000000E+03 0.  0.
        -11    1    3    3    0    0 -0.28689953566E+01  0.25655121581E+01  0.60183675010E+02  0.60306614273E+02  0.51100000000E-03 0. -1.
         23    2    1    0    0    0 -0.12841620410E+02 -0.58822059052E+00  0.27073618110E+02  0.95029447523E+02  0.90179609008E+02 0.  0.
         11    1    3    3    0    0 -0.99726250536E+01 -0.31537327486E+01 -0.33110056901E+02  0.34722833251E+02  0.51100000000E-03 0.  1.
         22    1    1    0    0    0  0.12841620410E+02  0.58822059052E+00 -0.27073618110E+02  0.29970552477E+02  0.00000000000E+00 0. -1.
</event>
<event>
 5    1  0.8957809E-005  0.9118800E+02  0.7818608E-02  0.1130116E+00
         25   -1    0    0    0    0  0.00000000000E+00  0.00000000000E+00  0.99999998245E-14  0.12500000000E+03  0.12500000000E+03 0.  0.
        -11    1    3    3    0    0  0.32689575742E+02  0.21875056300E+02 -0.65215014521E+01  0.39870495755E+02  0.51100000000E-03 0. -1.
         23    2    1    0    0    0 -0.22695637412E+02  0.18446464527E+02 -0.45905725561E+01  0.95395315110E+02  0.90685328347E+02 0.  0.
         11    1    3    3    0    0 -0.55385213154E+02 -0.34285917730E+01  0.19309288961E+01  0.55524819354E+02  0.51100000000E-03 0.  1.
         22    1    1    0    0    0  0.22695637412E+02 -0.18446464527E+02  0.45905725561E+01  0.29604684890E+02  0.00000000000E+00 0.  1.
</event>
<event>
 5    1  0.8957809E-005  0.9118800E+02  0.7818608E-02  0.1130116E+00
         25   -1    0    0    0    0  0.00000000000E+00  0.00000000000E+00  0.99999998245E-14  0.12500000000E+03  0.12500000000E+03 0.  0.
        -11    1    3    3    0    0 -0.21417260937E+02 -0.49268778470E+02 -0.28617728149E+02  0.60869417302E+02  0.51100000000E-03 0.  1.
         23    2    1    0    0    0 -0.19073271859E+02 -0.19361828238E+02 -0.10844481264E+02  0.95737859511E+02  0.91156266256E+02 0.  0.
         11    1    3    3    0    0  0.23439890788E+01  0.29906950232E+02  0.17773246885E+02  0.34868442209E+02  0.51100000000E-03 0. -1.
         22    1    1    0    0    0  0.19073271859E+02  0.19361828238E+02  0.10844481264E+02  0.29262140489E+02  0.00000000000E+00 0.  1.
</event>
<event>
 5    1  0.8957809E-005  0.9118800E+02  0.7818608E-02  0.1130116E+00
         25   -1    0    0    0    0  0.00000000000E+00  0.00000000000E+00  0.99999998245E-14  0.12500000000E+03  0.12500000000E+03 0.  0.
        -11    1    3    3    0    0 -0.15517402869E+02  0.45140507792E+02 -0.31915086187E+02  0.57419752368E+02  0.51100000000E-03 0. -1.
         23    2    1    0    0    0  0.10305879418E+02  0.23729550530E+02 -0.11503184284E+02  0.96687000025E+02  0.92448634420E+02 0.  0.
         11    1    3    3    0    0  0.25823282287E+02 -0.21410957261E+02  0.20411901903E+02  0.39267247656E+02  0.51100000000E-03 0.  1.
         22    1    1    0    0    0 -0.10305879418E+02 -0.23729550530E+02  0.11503184284E+02  0.28312999975E+02  0.00000000000E+00 0. -1.
</event>
<event>
 5    1  0.8957809E-005  0.9118800E+02  0.7818608E-02  0.1130116E+00
         25   -1    0    0    0    0  0.00000000000E+00  0.00000000000E+00  0.99999998245E-14  0.12500000000E+03  0.12500000000E+03 0.  0.
        -11    1    3    3    0    0  0.20601974367E+02  0.17288448944E+02 -0.22271988097E+02  0.34919525610E+02  0.51100000000E-03 0.  1.
         23    2    1    0    0    0  0.18415764133E+01 -0.14507539333E+02  0.25686772430E+02  0.95442084325E+02  0.90749771797E+02 0.  0.
         11    1    3    3    0    0 -0.18760397954E+02 -0.31795988277E+02  0.47958760527E+02  0.60522558716E+02  0.51100000000E-03 0. -1.
         22    1    1    0    0    0 -0.18415764133E+01  0.14507539333E+02 -0.25686772430E+02  0.29557915675E+02  0.00000000000E+00 0. -1.
</event>
<event>
 5    1  0.8957809E-005  0.9118800E+02  0.7818608E-02  0.1130116E+00
         25   -1    0    0    0    0  0.00000000000E+00  0.00000000000E+00  0.99999998245E-14  0.12500000000E+03  0.12500000000E+03 0.  0.
        -11    1    3    3    0    0 -0.83599575803E+01 -0.49263818219E+02  0.91288045624E+01  0.50795154781E+02  0.51100000000E-03 0. -1.
         23    2    1    0    0    0 -0.37003351795E+01 -0.18961890170E+02 -0.22837422405E+02  0.95086898834E+02  0.90259208441E+02 0.  0.
         11    1    3    3    0    0  0.46596224009E+01  0.30301928049E+02 -0.31966226967E+02  0.44291744052E+02  0.51100000000E-03 0.  1.
         22    1    1    0    0    0  0.37003351795E+01  0.18961890170E+02  0.22837422405E+02  0.29913101166E+02  0.00000000000E+00 0. -1.
</event>
<event>
 5    1  0.8957809E-005  0.9118800E+02  0.7818608E-02  0.1130116E+00
         25   -1    0    0    0    0  0.00000000000E+00  0.00000000000E+00  0.99999998245E-14  0.12500000000E+03  0.12500000000E+03 0.  0.
        -11    1    3    3    0    0  0.10903009232E+02  0.29688093593E+01 -0.31730102542E+02  0.33682174023E+02  0.51100000000E-03 0.  1.
         23    2    1    0    0    0  0.98914079428E+00  0.25726659466E+01  0.29328812587E+02  0.95541957680E+02  0.90887234637E+02 0.  0.
         11    1    3    3    0    0 -0.99138684378E+01 -0.39614341262E+00  0.61058915129E+02  0.61859783656E+02  0.51100000000E-03 0. -1.
         22    1    1    0    0    0 -0.98914079428E+00 -0.25726659466E+01 -0.29328812587E+02  0.29458042320E+02  0.00000000000E+00 0. -1.
</event>
<event>
 5    1  0.8957809E-005  0.9118800E+02  0.7818608E-02  0.1130116E+00
         25   -1    0    0    0    0  0.00000000000E+00  0.00000000000E+00  0.99999998245E-14  0.12500000000E+03  0.12500000000E+03 0.  0.
        -11    1    3    3    0    0 -0.17961002775E+02  0.14695057345E+02  0.25410324086E+02  0.34412598006E+02  0.51100000000E-03 0.  1.
         23    2    1    0    0    0  0.14147962970E+02  0.83766091493E+01 -0.25336640518E+02  0.94796063339E+02  0.89855527570E+02 0.  0.
         11    1    3    3    0    0  0.32108965746E+02 -0.63184481961E+01 -0.50746964604E+02  0.60383465334E+02  0.51100000000E-03 0. -1.
         22    1    1    0    0    0 -0.14147962970E+02 -0.83766091493E+01  0.25336640518E+02  0.30203936661E+02  0.00000000000E+00 0. -1.
</event>
<event>
 4    1  0.8957809E-005  0.9118800E+02  0.7818608E-02  0.1130116E+00
         25   -1    0    0    0    0  0.00000000000E+00  0.00000000000E+00  0.99999998245E-14  0.12500000000E+03  0.12500000000E+03 0.  0.
        -11    1    1    0    0    0 -0.31973764741E+01 -0.47897133652E-01 -0.15176014694E+02  0.15509253132E+02  0.51100000000E-03 0. -1.
         11    1    1    0    0    0  0.44177280582E+02 -0.33481838899E+02  0.94772467156E+01  0.56235965904E+02  0.51100000000E-03 0.  1.
         22    1    1    0    0    0 -0.40979904108E+02  0.33529736032E+02  0.56987679782E+01  0.53254780964E+02  0.00000000000E+00 0.  1.
</event>
<event>
 4    1  0.8957809E-005  0.9118800E+02  0.7818608E-02  0.1130116E+00
         25   -1    0    0    0    0  0.00000000000E+00  0.00000000000E+00  0.99999998245E-14  0.12500000000E+03  0.12500000000E+03 0.  0.
        -11    1    1    0    0    0  0.25882076373E+02  0.10861869789E+02  0.11169559722E+02  0.30209620278E+02  0.51100000000E-03 0. -1.
         11    1    1    0    0    0  0.16979112492E+02 -0.39152466199E+02 -0.72276904352E+01  0.43283315259E+02  0.51100000000E-03 0.  1.
         22    1    1    0    0    0 -0.42861188865E+02  0.28290596410E+02 -0.39418692870E+01  0.51507064463E+02  0.00000000000E+00 0.  1.
</event>
<event>
 5    1  0.8957809E-005  0.9118800E+02  0.7818608E-02  0.1130116E+00
         25   -1    0    0    0    0  0.00000000000E+00  0.00000000000E+00  0.99999998245E-14  0.12500000000E+03  0.12500000000E+03 0.  0.
        -11    1    3    3    0    0  0.10363393406E+02 -0.30479186996E+02 -0.12738015373E+02  0.34621348886E+02  0.51100000000E-03 0. -1.
         23    2    1    0    0    0 -0.15773245950E+02  0.11944784125E+02  0.22036318341E+02  0.95384590471E+02  0.90670544377E+02 0.  0.
         11    1    3    3    0    0 -0.26136639355E+02  0.42423971121E+02  0.34774333713E+02  0.60763241585E+02  0.51100000000E-03 0.  1.
         22    1    1    0    0    0  0.15773245950E+02 -0.11944784125E+02 -0.22036318341E+02  0.29615409529E+02  0.00000000000E+00 0.  1.
</event>
<event>
 5    1  0.8957809E-005  0.9118800E+02  0.7818608E-02  0.1130116E+00
         25   -1    0    0    0    0  0.00000000000E+00  0.00000000000E+00  0.99999998245E-14  0.12500000000E+03  0.12500000000E+03 0.  0.
        -11    1    3    3    0    0  0.47795503476E+02  0.37978386910E+02 -0.72518837525E+01  0.61476482032E+02  0.51100000000E-03 0. -1.
         23    2    1    0    0    0  0.21609587481E+02  0.15448465814E+02 -0.11051716601E+02  0.96229011019E+02  0.91827298527E+02 0.  0.
         11    1    3    3    0    0 -0.26185915995E+02 -0.22529921096E+02 -0.37998328487E+01  0.34752528988E+02  0.51100000000E-03 0.  1.
         22    1    1    0    0    0 -0.21609587481E+02 -0.15448465814E+02  0.11051716601E+02  0.28770988981E+02  0.00000000000E+00 0. -1.
</event>
<event>
 5    1  0.8957809E-005  0.9118800E+02  0.7818608E-02  0.1130116E+00
         25   -1    0    0    0    0  0.00000000000E+00  0.00000000000E+00  0.99999998245E-14  0.12500000000E+03  0.12500000000E+03 0.  0.
        -11    1    3    3    0    0  0.65049421261E+01  0.25612265770E+02  0.29679322605E+02  0.39738704313E+02  0.51100000000E-03 0. -1.
         23    2    1    0    0    0  0.23418881018E+02  0.39328910297E+01 -0.18287317584E+02  0.95027719399E+02  0.90177213584E+02 0.  0.
         11    1    3    3    0    0  0.16913938892E+02 -0.21679374740E+02 -0.47966640189E+02  0.55289015087E+02  0.51100000000E-03 0.  1.
         22    1    1    0    0    0 -0.23418881018E+02 -0.39328910297E+01  0.18287317584E+02  0.29972280601E+02  0.00000000000E+00 0.  1.
</event>
<event>
 5    1  0.8957809E-005  0.9118800E+02  0.7818608E-02  0.1130116E+00
         25   -1    0    0    0    0  0.00000000000E+00  0.00000000000E+00  0.99999998245E-14  0.12500000000E+03  0.12500000000E+03 0.  0.
        -11    1    3    3    0    0 -0.35598984066E+02 -0.11384264083E+02 -0.91343680267E+01  0.38475002466E+02  0.51100000000E-03 0.  1.
         23    2    1    0    0    0  0.14172238465E+02  0.36095862408E+01  0.21639409878E+02  0.98882084390E+02  0.95370441424E+02 0.  0.
         11    1    3    3    0    0  0.49771222531E+02  0.14993850324E+02  0.30773777905E+02  0.60407081924E+02  0.51100000000E-03 0. -1.
         22    1    1    0    0    0 -0.14172238465E+02 -0.36095862408E+01 -0.21639409878E+02  0.26117915610E+02  0.00000000000E+00 0. -1.
</event>
<event>
 5    1  0.8957809E-005  0.9118800E+02  0.7818608E-02  0.1130116E+00
         25   -1    0    0    0    0  0.00000000000E+00  0.00000000000E+00  0.99999998245E-14  0.12500000000E+03  0.12500000000E+03 0.  0.
        -11    1    3    3    0    0 -0.27189400611E+02  0.31534578437E+02  0.15602434889E+02  0.44464920077E+02  0.51100000000E-03 0.  1.
         23    2    1    0    0    0 -0.21552165420E+02 -0.18566864613E+02  0.32951347382E+01  0.96362922481E+02  0.92009405065E+02 0.  0.
         11    1    3    3    0    0  0.56372351906E+01 -0.50101443050E+02 -0.12307300151E+02  0.51898002404E+02  0.51100000000E-03 0. -1.
         22    1    1    0    0    0  0.21552165420E+02  0.18566864613E+02 -0.32951347382E+01  0.28637077519E+02  0.00000000000E+00 0. -1.
</event>
<event>
 5    1  0.8957809E-005  0.9118800E+02  0.7818608E-02  0.1130116E+00
         25   -1    0    0    0    0  0.00000000000E+00  0.00000000000E+00  0.99999998245E-14  0.12500000000E+03  0.12500000000E+03 0.  0.
        -11    1    3    3    0    0 -0.36945427742E+02 -0.26218955094E+02 -0.15596971851E+02  0.47913085565E+02  0.51100000000E-03 0. -1.
         23    2    1    0    0    0  0.39848035526E+01 -0.25273806028E+02  0.11436725464E+02  0.96974250771E+02  0.92836214339E+02 0.  0.
         11    1    3    3    0    0  0.40930231294E+02  0.94514906541E+00  0.27033697315E+02  0.49061165206E+02  0.51100000000E-03 0.  1.
         22    1    1    0    0    0 -0.39848035526E+01  0.25273806028E+02 -0.11436725464E+02  0.28025749229E+02  0.00000000000E+00 0.  1.
</event>
<event>
 5    1  0.8957809E-005  0.9118800E+02  0.7818608E-02  0.1130116E+00
         25   -1    0    0    0    0  0.00000000000E+00  0.00000000000E+00  0.99999998245E-14  0.12500000000E+03  0.12500000000E+03 0.  0.
        -11    1    3    3    0    0  0.36029003714E+02 -0.20195936012E+02  0.23507639992E+02  0.47524457685E+02  0.51100000000E-03 0.  1.
         23    2    1    0    0    0 -0.10893128707E+01 -0.29724337964E+02 -0.44011707609E+01  0.94931857823E+02  0.90044236105E+02 0.  0.
         11    1    3    3    0    0 -0.37118316585E+02 -0.95284019519E+01 -0.27908810753E+02  0.47407400137E+02  0.51100000000E-03 0. -1.
         22    1    1    0    0    0  0.10893128707E+01  0.29724337964E+02  0.44011707609E+01  0.30068142177E+02  0.00000000000E+00 0.  1.
</event>
<event>
 5    1  0.8957809E-005  0.9118800E+02  0.7818608E-02  0.1130116E+00
         25   -1    0    0    0    0  0.00000000000E+00  0.00000000000E+00  0.99999998245E-14  0.12500000000E+03  0.12500000000E+03 0.  0.
        -11    1    3    3    0    0  0.36023625269E+02  0.31105872771E+02 -0.20567219508E+02  0.51848697350E+02  0.51100000000E-03 0. -1.
         23    2    1    0    0    0 -0.18421122807E+01  0.29783546427E+02  0.40950900169E+00  0.95156730858E+02  0.90355867073E+02 0.  0.
         11    1    3    3    0    0 -0.37865737550E+02 -0.13223263442E+01  0.20976728509E+02  0.43308033508E+02  0.51100000000E-03 0.  1.
         22    1    1    0    0    0  0.18421122807E+01 -0.29783546427E+02 -0.40950900169E+00  0.29843269142E+02  0.00000000000E+00 0.  1.
</event>
<event>
 5    1  0.8957809E-005  0.9118800E+02  0.7818608E-02  0.1130116E+00
         25   -1    0    0    0    0  0.00000000000E+00  0.00000000000E+00  0.99999998245E-14  0.12500000000E+03  0.12500000000E+03 0.  0.
        -11    1    3    3    0    0  0.13456212855E+02  0.41266225150E+02  0.35412401717E+02  0.56017936397E+02  0.51100000000E-03 0.  1.
         23    2    1    0    0    0 -0.11705149607E+02  0.12591759100E+02  0.23301298696E+02  0.96042903365E+02  0.91573608869E+02 0.  0.
         11    1    3    3    0    0 -0.25161362462E+02 -0.28674466050E+02 -0.12111103020E+02  0.40024966968E+02  0.51100000000E-03 0. -1.
         22    1    1    0    0    0  0.11705149607E+02 -0.12591759100E+02 -0.23301298696E+02  0.28957096635E+02  0.00000000000E+00 0.  1.
</event>
<event>
 5    1  0.8957809E-005  0.9118800E+02  0.7818608E-02  0.1130116E+00
         25   -1    0    0    0    0  0.00000000000E+00  0.00000000000E+00  0.99999998245E-14  0.12500000000E+03  0.12500000000E+03 0.  0.
        -11    1    3    3    0    0 -0.52835655869E+02 -0.24648819539E+00 -0.15269848343E+02  0.54998505036E+02  0.51100000000E-03 0.  1.
         23    2    1    0    0    0 -0.22191556047E+02  0.17330736998E+02  0.59668828239E+01  0.96217656535E+02  0.91811840924E+02 0.  0.
         11    1    3    3    0    0  0.30644099822E+02  0.17577225193E+02  0.21236731167E+02  0.41219151499E+02  0.51100000000E-03 0. -1.
         22    1    1    0    0    0  0.22191556047E+02 -0.17330736998E+02 -0.59668828239E+01  0.28782343465E+02  0.00000000000E+00 0.  1.
</event>
<event>
 5    1  0.8957809E-005  0.9118800E+02  0.7818608E-02  0.1130116E+00
         25   -1    0    0    0    0  0.00000000000E+00  0.00000000000E+00  0.99999998245E-14  0.12500000000E+03  0.12500000000E+03 0.  0.
        -11    1    3    3    0    0 -0.32162539390E+02  0.96894307056E+01  0.13359683286E+02  0.36149621647E+02  0.51100000000E-03 0. -1.
         23    2    1    0    0    0  0.26668998150E+02  0.24801325889E+00  0.12013136926E+02  0.95749146479E+02  0.91171742441E+02 0.  0.
         11    1    3    3    0    0  0.58831537541E+02 -0.94414174468E+01 -0.13465463601E+01  0.59599524832E+02  0.51100000000E-03 0.  1.
         22    1    1    0    0    0 -0.26668998150E+02 -0.24801325889E+00 -0.12013136926E+02  0.29250853521E+02  0.00000000000E+00 0.  1.
</event>
<event>
 5    1  0.8957809E-005  0.9118800E+02  0.7818608E-02  0.1130116E+00
         25   -1    0    0    0    0  0.00000000000E+00  0.00000000000E+00  0.99999998245E-14  0.12500000000E+03  0.12500000000E+03 0.  0.
        -11    1    3    3    0    0 -0.31874356289E+02  0.86178198666E+00 -0.13992625351E+02  0.34821126080E+02  0.51100000000E-03 0.  1.
         23    2    1    0    0    0  0.14882373089E+02  0.29925772166E+00  0.25132142426E+02  0.95790426794E+02  0.91228321801E+02 0.  0.
         11    1    3    3    0    0  0.46756729378E+02 -0.56252426500E+00  0.39124767777E+02  0.60969300714E+02  0.51100000000E-03 0. -1.
         22    1    1    0    0    0 -0.14882373089E+02 -0.29925772166E+00 -0.25132142426E+02  0.29209573206E+02  0.00000000000E+00 0. -1.
</event>
<event>
 5    1  0.8957809E-005  0.9118800E+02  0.7818608E-02  0.1130116E+00
         25   -1    0    0    0    0  0.00000000000E+00  0.00000000000E+00  0.99999998245E-14  0.12500000000E+03  0.12500000000E+03 0.  0.
        -11    1    3    3    0    0 -0.22763573185E+02 -0.29722606179E+02 -0.65409477065E+01  0.38005230948E+02  0.51100000000E-03 0.  1.
         23    2    1    0    0    0  0.20070441242E+02  0.63236895891E+01 -0.20414591692E+02  0.95681623243E+02  0.91079118413E+02 0.  0.
         11    1    3    3    0    0  0.42834014427E+02  0.36046295768E+02 -0.13873643986E+02  0.57676392296E+02  0.51100000000E-03 0. -1.
         22    1    1    0    0    0 -0.20070441242E+02 -0.63236895891E+01  0.20414591692E+02  0.29318376757E+02  0.00000000000E+00 0. -1.
</event>
<event>
 5    1  0.8957809E-005  0.9118800E+02  0.7818608E-02  0.1130116E+00
         25   -1    0    0    0    0  0.00000000000E+00  0.00000000000E+00  0.99999998245E-14  0.12500000000E+03  0.12500000000E+03 0.  0.
        -11    1    3    3    0    0  0.10614748131E+02 -0.31938422002E+02 -0.20598317321E+02  0.39459173263E+02  0.51100000000E-03 0.  1.
         23    2    1    0    0    0 -0.17856972012E+02 -0.73234137509E-01  0.19850753909E+02  0.98299265114E+02  0.94603468639E+02 0.  0.
         11    1    3    3    0    0 -0.28471720143E+02  0.31865187864E+02  0.40449071230E+02  0.58840091852E+02  0.51100000000E-03 0. -1.
         22    1    1    0    0    0  0.17856972012E+02  0.73234137509E-01 -0.19850753909E+02  0.26700734886E+02  0.00000000000E+00 0. -1.
</event>
<event>
 5    1  0.8957809E-005  0.9118800E+02  0.7818608E-02  0.1130116E+00
         25   -1    0    0    0    0  0.00000000000E+00  0.00000000000E+00  0.99999998245E-14  0.12500000000E+03  0.12500000000E+03 0.  0.
        -11    1    3    3    0    0 -0.55414574697E+02  0.87620137085E+01 -0.12954349950E+02  0.57579190303E+02  0.51100000000E-03 0. -1.
         23    2    1    0    0    0 -0.16156201062E+02 -0.93703362671E+01 -0.15256415608E+02  0.10088394204E+03  0.97959101206E+02 0.  0.
         11    1    3    3    0    0  0.39258373635E+02 -0.18132349976E+02 -0.23020656578E+01  0.43304751733E+02  0.51100000000E-03 0.  1.
         22    1    1    0    0    0  0.16156201062E+02  0.93703362671E+01  0.15256415608E+02  0.24116057964E+02  0.00000000000E+00 0.  1.
</event>
<event>
 5    1  0.8957809E-005  0.9118800E+02  0.7818608E-02  0.1130116E+00
         25   -1    0    0    0    0  0.00000000000E+00  0.00000000000E+00  0.99999998245E-14  0.12500000000E+03  0.12500000000E+03 0.  0.
        -11    1    3    3    0    0  0.15656756728E+02 -0.28338583678E+01  0.40901783368E+02  0.43887591270E+02  0.51100000000E-03 0.  1.
         23    2    1    0    0    0  0.95798653512E+01  0.23331437949E+02 -0.70158774528E+01  0.98820764844E+02  0.95290037313E+02 0.  0.
         11    1    3    3    0    0 -0.60768913768E+01  0.26165296317E+02 -0.47917660821E+02  0.54933173575E+02  0.51100000000E-03 0. -1.
         22    1    1    0    0    0 -0.95798653512E+01 -0.23331437949E+02  0.70158774528E+01  0.26179235156E+02  0.00000000000E+00 0. -1.
</event>
<event>
 5    1  0.8957809E-005  0.9118800E+02  0.7818608E-02  0.1130116E+00
         25   -1    0    0    0    0  0.00000000000E+00  0.00000000000E+00  0.99999998245E-14  0.12500000000E+03  0.12500000000E+03 0.  0.
        -11    1    3    3    0    0  0.24507053629E+02 -0.43742592498E+02  0.74793752882E+01  0.50694685431E+02  0.51100000000E-03 0.  1.
         23    2    1    0    0    0 -0.87921490263E+01 -0.15255736271E+02  0.21965136811E+02  0.96848506100E+02  0.92666749835E+02 0.  0.
         11    1    3    3    0    0 -0.33299202655E+02  0.28486856227E+02  0.14485761523E+02  0.46153820669E+02  0.51100000000E-03 0. -1.
         22    1    1    0    0    0  0.87921490263E+01  0.15255736271E+02 -0.21965136811E+02  0.28151493900E+02  0.00000000000E+00 0.  1.
</event>
<event>
 5    1  0.8957809E-005  0.9118800E+02  0.7818608E-02  0.1130116E+00
         25   -1    0    0    0    0  0.00000000000E+00  0.00000000000E+00  0.99999998245E-14  0.12500000000E+03  0.12500000000E+03 0.  0.
        -11    1    3    3    0    0 -0.13921826129E+02  0.78575448306E+00 -0.32617498849E+02  0.35473030379E+02  0.51100000000E-03 0. -1.
         23    2    1    0    0    0  0.16729123119E+02  0.85519868339E+01  0.20439358750E+02  0.97237301549E+02  0.93189727907E+02 0.  0.
         11    1    3    3    0    0  0.30650949248E+02  0.77662323509E+01  0.53056857599E+02  0.61764271171E+02  0.51100000000E-03 0.  1.
         22    1    1    0    0    0 -0.16729123119E+02 -0.85519868339E+01 -0.20439358750E+02  0.27762698451E+02  0.00000000000E+00 0.  1.
</event>
<event>
 5    1  0.8957809E-005  0.9118800E+02  0.7818608E-02  0.1130116E+00
         25   -1    0    0    0    0  0.00000000000E+00  0.00000000000E+00  0.99999998245E-14  0.12500000000E+03  0.12500000000E+03 0.  0.
        -11    1    3    3    0    0  0.28574092806E+02 -0.85507048299E+01  0.15093582691E+02  0.33427676729E+02  0.51100000000E-03 0.  1.
         23    2    1    0    0    0 -0.25358333158E+02 -0.79973410502E+01 -0.14254457408E+02  0.94830610208E+02  0.89903573633E+02 0.  0.
         11    1    3    3    0    0 -0.53932425964E+02  0.55336377969E+00 -0.29348040099E+02  0.61402933479E+02  0.51100000000E-03 0. -1.
         22    1    1    0    0    0  0.25358333158E+02  0.79973410502E+01  0.14254457408E+02  0.30169389792E+02  0.00000000000E+00 0. -1.
</event>
<event>
 5    1  0.8957809E-005  0.9118800E+02  0.7818608E-02  0.1130116E+00
         25   -1    0    0    0    0  0.00000000000E+00  0.00000000000E+00  0.99999998245E-14  0.12500000000E+03  0.12500000000E+03 0.  0.
        -11    1    3    3    0    0 -0.12928279711E+02  0.55658958288E+02 -0.22416614848E+02  0.61380491001E+02  0.51100000000E-03 0.  1.
         23    2    1    0    0    0  0.21201063251E+01  0.27514641442E+02 -0.11374514742E+02  0.95151550624E+02  0.90348700356E+02 0.  0.
         11    1    3    3    0    0  0.15048386037E+02 -0.28144316846E+02  0.11042100106E+02  0.33771059623E+02  0.51100000000E-03 0. -1.
         22    1    1    0    0    0 -0.21201063251E+01 -0.27514641442E+02  0.11374514742E+02  0.29848449376E+02  0.00000000000E+00 0.  1.
</event>
<event>
 5    1  0.8957809E-005  0.9118800E+02  0.7818608E-02  0.1130116E+00
         25   -1    0    0    0    0  0.00000000000E+00  0.00000000000E+00  0.99999998245E-14  0.12500000000E+03  0.12500000000E+03 0.  0.
        -11    1    3    3    0    0 -0.33503655781E+01 -0.13351929154E+02 -0.41993474718E+02  0.44192203847E+02  0.51100000000E-03 0. -1.
         23    2    1    0    0    0 -0.14271672900E+02 -0.12128837546E+02  0.14228997953E+02  0.10147865373E+03  0.98715061832E+02 0.  0.
         11    1    3    3    0    0 -0.10921307322E+02  0.12230916076E+01  0.56222472671E+02  0.57286449883E+02  0.51100000000E-03 0.  1.
         22    1    1    0    0    0  0.14271672900E+02  0.12128837546E+02 -0.14228997953E+02  0.23521346270E+02  0.00000000000E+00 0.  1.
</event>
<event>
 5    1  0.8957809E-005  0.9118800E+02  0.7818608E-02  0.1130116E+00
         25   -1    0    0    0    0  0.00000000000E+00  0.00000000000E+00  0.99999998245E-14  0.12500000000E+03  0.12500000000E+03 0.  0.
        -11    1    3    3    0    0  0.19364581531E+02  0.14267456252E+02  0.30895317569E+02  0.39154411932E+02  0.51100000000E-03 0.  1.
         23    2    1    0    0    0  0.24554924360E+01  0.16696982265E+02 -0.23442691606E+02  0.96114390268E+02  0.91671138135E+02 0.  0.
         11    1    3    3    0    0 -0.16909089095E+02  0.24295260133E+01 -0.54338009175E+02  0.56959978336E+02  0.51100000000E-03 0. -1.
         22    1    1    0    0    0 -0.24554924360E+01 -0.16696982265E+02  0.23442691606E+02  0.28885609732E+02  0.00000000000E+00 0. -1.
</event>
<event>
 5    1  0.8957809E-005  0.9118800E+02  0.7818608E-02  0.1130116E+00
         25   -1    0    0    0    0  0.00000000000E+00  0.00000000000E+00  0.99999998245E-14  0.12500000000E+03  0.12500000000E+03 0.  0.
        -11    1    3    3    0    0 -0.86668180303E+01  0.12767594488E+02 -0.30750063715E+02  0.34404819757E+02  0.51100000000E-03 0. -1.
         23    2    1    0    0    0 -0.85016494290E+00  0.43756325198E+01  0.29210024245E+02  0.95451828199E+02  0.90763192152E+02 0.  0.
         11    1    3    3    0    0  0.78166530874E+01 -0.83919619684E+01  0.59960087960E+02  0.61047008442E+02  0.51100000000E-03 0.  1.
         22    1    1    0    0    0  0.85016494290E+00 -0.43756325198E+01 -0.29210024245E+02  0.29548171801E+02  0.00000000000E+00 0.  1.
</event>
<event>
 5    1  0.8957809E-005  0.9118800E+02  0.7818608E-02  0.1130116E+00
         25   -1    0    0    0    0  0.00000000000E+00  0.00000000000E+00  0.99999998245E-14  0.12500000000E+03  0.12500000000E+03 0.  0.
        -11    1    3    3    0    0  0.94991186248E+01 -0.20584493425E+02 -0.30310577169E+02  0.37850835035E+02  0.51100000000E-03 0. -1.
         23    2    1    0    0    0  0.18318514865E+02 -0.29011824542E+01  0.23434901357E+02  0.95113892055E+02  0.90296583621E+02 0.  0.
         11    1    3    3    0    0  0.88193962405E+01  0.17683310971E+02  0.53745478526E+02  0.57263057020E+02  0.51100000000E-03 0.  1.
         22    1    1    0    0    0 -0.18318514865E+02  0.29011824542E+01 -0.23434901357E+02  0.29886107945E+02  0.00000000000E+00 0.  1.
</event>
<event>
 5    1  0.8957809E-005  0.9118800E+02  0.7818608E-02  0.1130116E+00
         25   -1    0    0    0    0  0.00000000000E+00  0.00000000000E+00  0.99999998245E-14  0.12500000000E+03  0.12500000000E+03 0.  0.
        -11    1    3    3    0    0 -0.17334155838E+02 -0.39097308033E+02  0.20961244787E+02  0.47628208420E+02  0.51100000000E-03 0.  1.
         23    2    1    0    0    0 -0.20411129951E+02 -0.10981324030E+02 -0.17915840709E+02  0.95705272631E+02  0.91111569834E+02 0.  0.
         11    1    3    3    0    0 -0.30769741131E+01  0.28115984003E+02 -0.38877085496E+02  0.48077064210E+02  0.51100000000E-03 0. -1.
         22    1    1    0    0    0  0.20411129951E+02  0.10981324030E+02  0.17915840709E+02  0.29294727369E+02  0.00000000000E+00 0.  1.
</event>
<event>
 5    1  0.8957809E-005  0.9118800E+02  0.7818608E-02  0.1130116E+00
         25   -1    0    0    0    0  0.00000000000E+00  0.00000000000E+00  0.99999998245E-14  0.12500000000E+03  0.12500000000E+03 0.  0.
        -11    1    3    3    0    0  0.46381851023E+02 -0.44491429401E+01 -0.68897705294E+00  0.46599846211E+02  0.51100000000E-03 0. -1.
         23    2    1    0    0    0  0.89454976495E+01  0.58370154387E+01  0.28103517049E+02  0.94935064478E+02  0.90048687495E+02 0.  0.
         11    1    3    3    0    0 -0.37436353373E+02  0.10286158379E+02  0.28792494102E+02  0.48335218267E+02  0.51100000000E-03 0.  1.
         22    1    1    0    0    0 -0.89454976495E+01 -0.58370154387E+01 -0.28103517049E+02  0.30064935522E+02  0.00000000000E+00 0.  1.
</event>
<event>
 5    1  0.8957809E-005  0.9118800E+02  0.7818608E-02  0.1130116E+00
         25   -1    0    0    0    0  0.00000000000E+00  0.00000000000E+00  0.99999998245E-14  0.12500000000E+03  0.12500000000E+03 0.  0.
        -11    1    3    3    0    0  0.17556859909E+02  0.51168840701E+02 -0.13242177655E+02  0.55694244387E+02  0.51100000000E-03 0.  1.
         23    2    1    0    0    0  0.22210533055E+02  0.17983622304E+02  0.79419468356E+01  0.95338695759E+02  0.90607251032E+02 0.  0.
         11    1    3    3    0    0  0.46536731466E+01 -0.33185218397E+02  0.21184124491E+02  0.39644451371E+02  0.51100000000E-03 0. -1.
         22    1    1    0    0    0 -0.22210533055E+02 -0.17983622304E+02 -0.79419468356E+01  0.29661304241E+02  0.00000000000E+00 0.  1.
</event>
<event>
 5    1  0.8957809E-005  0.9118800E+02  0.7818608E-02  0.1130116E+00
         25   -1    0    0    0    0  0.00000000000E+00  0.00000000000E+00  0.99999998245E-14  0.12500000000E+03  0.12500000000E+03 0.  0.
        -11    1    3    3    0    0 -0.20665761054E+02 -0.93358905839E+01  0.25917645995E+02  0.34437725057E+02  0.51100000000E-03 0. -1.
         23    2    1    0    0    0  0.28722228001E+02  0.26011631705E+01 -0.74358865884E+01  0.95217037748E+02  0.90439258273E+02 0.  0.
         11    1    3    3    0    0  0.49387989054E+02  0.11937053754E+02 -0.33353532583E+02  0.60779312691E+02  0.51100000000E-03 0.  1.
         22    1    1    0    0    0 -0.28722228001E+02 -0.26011631705E+01  0.74358865884E+01  0.29782962252E+02  0.00000000000E+00 0.  1.
</event>
<event>
 5    1  0.8957809E-005  0.9118800E+02  0.7818608E-02  0.1130116E+00
         25   -1    0    0    0    0  0.00000000000E+00  0.00000000000E+00  0.99999998245E-14  0.12500000000E+03  0.12500000000E+03 0.  0.
        -11    1    3    3    0    0 -0.14980432011E+02  0.21696677803E+02 -0.37419694597E+02  0.45775459746E+02  0.51100000000E-03 0. -1.
         23    2    1    0    0    0 -0.21397191701E+02 -0.67014289817E+01  0.92200263655E+01  0.10075628227E+03  0.97796066219E+02 0.  0.
         11    1    3    3    0    0 -0.64167596906E+01 -0.28398106785E+02  0.46639720963E+02  0.54980822526E+02  0.51100000000E-03 0.  1.
         22    1    1    0    0    0  0.21397191701E+02  0.67014289817E+01 -0.92200263655E+01  0.24243717728E+02  0.00000000000E+00 0.  1.
</event>
<event>
 5    1  0.8957809E-005  0.9118800E+02  0.7818608E-02  0.1130116E+00
         25   -1    0    0    0    0  0.00000000000E+00  0.00000000000E+00  0.99999998245E-14  0.12500000000E+03  0.12500000000E+03 0.  0.
        -11    1    3    3    0    0  0.60954714365E+01  0.89954574098E+01  0.37889435193E+02  0.39416777209E+02  0.51100000000E-03 0.  1.
         23    2    1    0    0    0 -0.15073982050E+02  0.22094456758E+02 -0.12390953521E+02  0.95522454589E+02  0.90860407480E+02 0.  0.
         11    1    3    3    0    0 -0.21169453487E+02  0.13098999348E+02 -0.50280388714E+02  0.56105677381E+02  0.51100000000E-03 0. -1.
         22    1    1    0    0    0  0.15073982050E+02 -0.22094456758E+02  0.12390953521E+02  0.29477545411E+02  0.00000000000E+00 0. -1.
</event>
<event>
 5    1  0.8957809E-005  0.9118800E+02  0.7818608E-02  0.1130116E+00
         25   -1    0    0    0    0  0.00000000000E+00  0.00000000000E+00  0.99999998245E-14  0.12500000000E+03  0.12500000000E+03 0.  0.
        -11    1    3    3    0    0  0.22611298773E+02 -0.21887160736E+02 -0.29041365778E+02  0.42821951892E+02  0.51100000000E-03 0. -1.
         23    2    1    0    0    0  0.12480404895E+02 -0.11044886179E+02  0.22807440018E+02  0.96752356962E+02  0.92536961483E+02 0.  0.
         11    1    3    3    0    0 -0.10130893878E+02  0.10842274557E+02  0.51848805796E+02  0.53930405070E+02  0.51100000000E-03 0.  1.
         22    1    1    0    0    0 -0.12480404895E+02  0.11044886179E+02 -0.22807440018E+02  0.28247643038E+02  0.00000000000E+00 0.  1.
</event>
<event>
 5    1  0.8957809E-005  0.9118800E+02  0.7818608E-02  0.1130116E+00
         25   -1    0    0    0    0  0.00000000000E+00  0.00000000000E+00  0.99999998245E-14  0.12500000000E+03  0.12500000000E+03 0.  0.
        -11    1    3    3    0    0  0.18489678992E+02 -0.30798036606E+02 -0.19997262595E+02  0.41112988210E+02  0.51100000000E-03 0.  1.
         23    2    1    0    0    0  0.11565350041E+02 -0.57369818647E+01  0.27140294299E+02  0.94945618337E+02  0.90063336515E+02 0.  0.
         11    1    3    3    0    0 -0.69243289504E+01  0.25061054741E+02  0.47137556894E+02  0.53832630127E+02  0.51100000000E-03 0. -1.
         22    1    1    0    0    0 -0.11565350041E+02  0.57369818647E+01 -0.27140294299E+02  0.30054381663E+02  0.00000000000E+00 0. -1.
</event>
<event>
 5    1  0.8957809E-005  0.9118800E+02  0.7818608E-02  0.1130116E+00
         25   -1    0    0    0    0  0.00000000000E+00  0.00000000000E+00  0.99999998245E-14  0.12500000000E+03  0.12500000000E+03 0.  0.
        -11    1    3    3    0    0  0.10696730691E+02 -0.37797215387E+02 -0.84883925212E+01  0.40188335949E+02  0.51100000000E-03 0.  1.
         23    2    1    0    0    0 -0.24650825858E+02 -0.76501512527E+01 -0.24584038563E+02  0.89355042689E+02  0.81937541287E+02 0.  0.
         11    1    3    3    0    0 -0.35347556549E+02  0.30147064134E+02 -0.16095646042E+02  0.49166706740E+02  0.51100000000E-03 0. -1.
         22    1    1    0    0    0  0.24650825858E+02  0.76501512527E+01  0.24584038563E+02  0.35644957311E+02  0.00000000000E+00 0. -1.
</event>
<event>
 5    1  0.8957809E-005  0.9118800E+02  0.7818608E-02  0.1130116E+00
         25   -1    0    0    0    0  0.00000000000E+00  0.00000000000E+00  0.99999998245E-14  0.12500000000E+03  0.12500000000E+03 0.  0.
        -11    1    3    3    0    0  0.39081449428E+02 -0.21156307932E+02 -0.14385113199E+02  0.46710604114E+02  0.51100000000E-03 0.  1.
         23    2    1    0    0    0 -0.11613720713E+02 -0.23482945407E+02 -0.42975906708E+01  0.98451995944E+02  0.94805057808E+02 0.  0.
         11    1    3    3    0    0 -0.50695170140E+02 -0.23266374753E+01  0.10087522528E+02  0.51741391830E+02  0.51100000000E-03 0. -1.
         22    1    1    0    0    0  0.11613720713E+02  0.23482945407E+02  0.42975906708E+01  0.26548004056E+02  0.00000000000E+00 0. -1.
</event>
<event>
 5    1  0.8957809E-005  0.9118800E+02  0.7818608E-02  0.1130116E+00
         25   -1    0    0    0    0  0.00000000000E+00  0.00000000000E+00  0.99999998245E-14  0.12500000000E+03  0.12500000000E+03 0.  0.
        -11    1    3    3    0    0 -0.14323502037E+02  0.75617869622E+00 -0.41151790625E+02  0.43579862193E+02  0.51100000000E-03 0.  1.
         23    2    1    0    0    0  0.97291893722E+01 -0.21008588260E+02  0.62508561780E+01  0.10101894270E+03  0.98131216612E+02 0.  0.
         11    1    3    3    0    0  0.24052691410E+02 -0.21764766956E+02  0.47402646803E+02  0.57439080502E+02  0.51100000000E-03 0. -1.
         22    1    1    0    0    0 -0.97291893722E+01  0.21008588260E+02 -0.62508561780E+01  0.23981057305E+02  0.00000000000E+00 0. -1.
</event>
<event>
 5    1  0.8957809E-005  0.9118800E+02  0.7818608E-02  0.1130116E+00
         25   -1    0    0    0    0  0.00000000000E+00  0.00000000000E+00  0.99999998245E-14  0.12500000000E+03  0.12500000000E+03 0.  0.
        -11    1    3    3    0    0  0.97183900407E+01 -0.32784119778E+02  0.32499299796E+02  0.47174676491E+02  0.51100000000E-03 0.  1.
         23    2    1    0    0    0  0.25222067893E+02 -0.28877939725E+02 -0.34344343781E+01  0.86504760670E+02  0.77467349042E+02 0.  0.
         11    1    3    3    0    0  0.15503677853E+02  0.39061800531E+01 -0.35933734174E+02  0.39330084179E+02  0.51100000000E-03 0. -1.
         22    1    1    0    0    0 -0.25222067893E+02  0.28877939725E+02  0.34344343781E+01  0.38495239330E+02  0.00000000000E+00 0. -1.
</event>
<event>
 5    1  0.8957809E-005  0.9118800E+02  0.7818608E-02  0.1130116E+00
         25   -1    0    0    0    0  0.00000000000E+00  0.00000000000E+00  0.99999998245E-14  0.12500000000E+03  0.12500000000E+03 0.  0.
        -11    1    3    3    0    0  0.30444203279E+02 -0.29617507754E+02 -0.75714543346E+01  0.43143634523E+02  0.51100000000E-03 0. -1.
         23    2    1    0    0    0  0.16876361728E+02  0.21544413517E+02 -0.92812212913E+01  0.96101653895E+02  0.91653769555E+02 0.  0.
         11    1    3    3    0    0 -0.13567841551E+02  0.51161921271E+02 -0.17097669567E+01  0.52958019372E+02  0.51100000000E-03 0.  1.
         22    1    1    0    0    0 -0.16876361728E+02 -0.21544413517E+02  0.92812212913E+01  0.28898346105E+02  0.00000000000E+00 0.  1.
</event>
<event>
 5    1  0.8957809E-005  0.9118800E+02  0.7818608E-02  0.1130116E+00
         25   -1    0    0    0    0  0.00000000000E+00  0.00000000000E+00  0.99999998245E-14  0.12500000000E+03  0.12500000000E+03 0.  0.
        -11    1    3    3    0    0 -0.87642832498E+01  0.21883841602E+02 -0.28801456901E+01  0.23748903630E+02  0.51100000000E-03 0.  1.
         23    2    1    0    0    0 -0.30326550476E+02 -0.24978500575E+02 -0.23405877216E+02  0.79267514358E+02  0.64744718623E+02 0.  0.
         11    1    3    3    0    0 -0.21562267226E+02 -0.46862342177E+02 -0.20525731526E+02  0.55518610728E+02  0.51100000000E-03 0. -1.
         22    1    1    0    0    0  0.30326550476E+02  0.24978500575E+02  0.23405877216E+02  0.45732485642E+02  0.00000000000E+00 0. -1.
</event>
<event>
 5    1  0.8957809E-005  0.9118800E+02  0.7818608E-02  0.1130116E+00
         25   -1    0    0    0    0  0.00000000000E+00  0.00000000000E+00  0.99999998245E-14  0.12500000000E+03  0.12500000000E+03 0.  0.
        -11    1    3    3    0    0  0.49305243902E+00 -0.35037575499E+02 -0.20176763464E+02  0.40434843659E+02  0.51100000000E-03 0.  1.
         23    2    1    0    0    0 -0.56170798335E+01 -0.47215400812E+01  0.27097796153E+02  0.96926256343E+02  0.92771569383E+02 0.  0.
         11    1    3    3    0    0 -0.61101322725E+01  0.30316035418E+02  0.47274559616E+02  0.56491412684E+02  0.51100000000E-03 0. -1.
         22    1    1    0    0    0  0.56170798335E+01  0.47215400812E+01 -0.27097796153E+02  0.28073743657E+02  0.00000000000E+00 0. -1.
</event>
<event>
 5    1  0.8957809E-005  0.9118800E+02  0.7818608E-02  0.1130116E+00
         25   -1    0    0    0    0  0.00000000000E+00  0.00000000000E+00  0.99999998245E-14  0.12500000000E+03  0.12500000000E+03 0.  0.
        -11    1    3    3    0    0 -0.83345499728E+01 -0.28478102927E+01 -0.45846679916E+02  0.46685038356E+02  0.51100000000E-03 0.  1.
         23    2    1    0    0    0  0.17207378400E+02  0.19756162995E+02 -0.80589167391E+01  0.97589308898E+02  0.93660702670E+02 0.  0.
         11    1    3    3    0    0  0.25541928372E+02  0.22603973287E+02  0.37787763177E+02  0.50904270543E+02  0.51100000000E-03 0. -1.
         22    1    1    0    0    0 -0.17207378400E+02 -0.19756162995E+02  0.80589167391E+01  0.27410691102E+02  0.00000000000E+00 0. -1.
</event>
<event>
 5    1  0.8957809E-005  0.9118800E+02  0.7818608E-02  0.1130116E+00
         25   -1    0    0    0    0  0.00000000000E+00  0.00000000000E+00  0.99999998245E-14  0.12500000000E+03  0.12500000000E+03 0.  0.
        -11    1    3    3    0    0  0.42344877713E+02 -0.14768018326E+02  0.27377545554E+02  0.52542487899E+02  0.51100000000E-03 0. -1.
         23    2    1    0    0    0  0.14634621853E+02  0.17185173299E+02  0.18630097531E+02  0.95732562939E+02  0.91149002928E+02 0.  0.
         11    1    3    3    0    0 -0.27710255860E+02  0.31953191624E+02 -0.87474480229E+01  0.43190075040E+02  0.51100000000E-03 0.  1.
         22    1    1    0    0    0 -0.14634621853E+02 -0.17185173299E+02 -0.18630097531E+02  0.29267437061E+02  0.00000000000E+00 0. -1.
</event>
<event>
 5    1  0.8957809E-005  0.9118800E+02  0.7818608E-02  0.1130116E+00
         25   -1    0    0    0    0  0.00000000000E+00  0.00000000000E+00  0.99999998245E-14  0.12500000000E+03  0.12500000000E+03 0.  0.
        -11    1    3    3    0    0  0.33268617096E+02 -0.13237887294E+01  0.87757529390E+01  0.34432065578E+02  0.51100000000E-03 0.  1.
         23    2    1    0    0    0 -0.23768514714E+02  0.12225651433E+02 -0.10703675058E+02  0.96208030557E+02  0.91798734410E+02 0.  0.
         11    1    3    3    0    0 -0.57037131809E+02  0.13549440162E+02 -0.19479427997E+02  0.61775964979E+02  0.51100000000E-03 0. -1.
         22    1    1    0    0    0  0.23768514714E+02 -0.12225651433E+02  0.10703675058E+02  0.28791969443E+02  0.00000000000E+00 0. -1.
</event>
<event>
 5    1  0.8957809E-005  0.9118800E+02  0.7818608E-02  0.1130116E+00
         25   -1    0    0    0    0  0.00000000000E+00  0.00000000000E+00  0.99999998245E-14  0.12500000000E+03  0.12500000000E+03 0.  0.
        -11    1    3    3    0    0  0.32315235583E+02  0.15737225586E+02 -0.11485211202E+02  0.37733868030E+02  0.51100000000E-03 0.  1.
         23    2    1    0    0    0 -0.12061891261E+02 -0.22984658205E+02 -0.11449548198E+02  0.96629665361E+02  0.92371079567E+02 0.  0.
         11    1    3    3    0    0 -0.44377126844E+02 -0.38721883790E+02  0.35663004467E-01  0.58895797331E+02  0.51100000000E-03 0. -1.
         22    1    1    0    0    0  0.12061891261E+02  0.22984658205E+02  0.11449548198E+02  0.28370334639E+02  0.00000000000E+00 0. -1.
</event>
<event>
 5    1  0.8957809E-005  0.9118800E+02  0.7818608E-02  0.1130116E+00
         25   -1    0    0    0    0  0.00000000000E+00  0.00000000000E+00  0.99999998245E-14  0.12500000000E+03  0.12500000000E+03 0.  0.
        -11    1    3    3    0    0  0.22221450572E+02 -0.16854879495E+02  0.25530306831E+02  0.37811061813E+02  0.51100000000E-03 0.  1.
         23    2    1    0    0    0 -0.24921121239E+02  0.12035526916E+02  0.45258961107E+01  0.96957176897E+02  0.92813222250E+02 0.  0.
         11    1    3    3    0    0 -0.47142571811E+02  0.28890406411E+02 -0.21004410720E+02  0.59146115084E+02  0.51100000000E-03 0. -1.
         22    1    1    0    0    0  0.24921121239E+02 -0.12035526916E+02 -0.45258961107E+01  0.28042823103E+02  0.00000000000E+00 0. -1.
</event>
<event>
 5    1  0.8957809E-005  0.9118800E+02  0.7818608E-02  0.1130116E+00
         25   -1    0    0    0    0  0.00000000000E+00  0.00000000000E+00  0.99999998245E-14  0.12500000000E+03  0.12500000000E+03 0.  0.
        -11    1    3    3    0    0 -0.24684594072E+02  0.30763584666E+02 -0.22521214743E+02  0.45419516067E+02  0.51100000000E-03 0. -1.
         23    2    1    0    0    0 -0.14118649917E+02 -0.18515420376E+02 -0.17103867535E+02  0.96108836094E+02  0.91663564318E+02 0.  0.
         11    1    3    3    0    0  0.10565944155E+02 -0.49279005042E+02  0.54173472080E+01  0.50689320027E+02  0.51100000000E-03 0.  1.
         22    1    1    0    0    0  0.14118649917E+02  0.18515420376E+02  0.17103867535E+02  0.28891163906E+02  0.00000000000E+00 0. -1.
</event>
<event>
 5    1  0.8957809E-005  0.9118800E+02  0.7818608E-02  0.1130116E+00
         25   -1    0    0    0    0  0.00000000000E+00  0.00000000000E+00  0.99999998245E-14  0.12500000000E+03  0.12500000000E+03 0.  0.
        -11    1    3    3    0    0  0.11432890231E+02  0.16372759780E+02  0.40476569717E+02  0.45134586940E+02  0.51100000000E-03 0. -1.
         23    2    1    0    0    0 -0.26723721489E+01  0.27110463699E+02 -0.78826467697E+01  0.96640611167E+02  0.92385890653E+02 0.  0.
         11    1    3    3    0    0 -0.14105262380E+02  0.10737703919E+02 -0.48359216487E+02  0.51506024228E+02  0.51100000000E-03 0.  1.
         22    1    1    0    0    0  0.26723721489E+01 -0.27110463699E+02  0.78826467697E+01  0.28359388833E+02  0.00000000000E+00 0.  1.
</event>
<event>
 5    1  0.8957809E-005  0.9118800E+02  0.7818608E-02  0.1130116E+00
         25   -1    0    0    0    0  0.00000000000E+00  0.00000000000E+00  0.99999998245E-14  0.12500000000E+03  0.12500000000E+03 0.  0.
        -11    1    3    3    0    0  0.16110796563E+02  0.27010304514E+02  0.11828764385E+02  0.33601100919E+02  0.51100000000E-03 0.  1.
         23    2    1    0    0    0 -0.43975038691E+01 -0.24156613699E+02 -0.16341089996E+02  0.95505742119E+02  0.90837412610E+02 0.  0.
         11    1    3    3    0    0 -0.20508300432E+02 -0.51166918213E+02 -0.28169854381E+02  0.61904641200E+02  0.51100000000E-03 0. -1.
         22    1    1    0    0    0  0.43975038691E+01  0.24156613699E+02  0.16341089996E+02  0.29494257881E+02  0.00000000000E+00 0. -1.
</event>
<event>
 5    1  0.8957809E-005  0.9118800E+02  0.7818608E-02  0.1130116E+00
         25   -1    0    0    0    0  0.00000000000E+00  0.00000000000E+00  0.99999998245E-14  0.12500000000E+03  0.12500000000E+03 0.  0.
        -11    1    3    3    0    0  0.11128933894E+02 -0.54150144563E+02  0.29220027854E+00  0.55282698080E+02  0.51100000000E-03 0.  1.
         23    2    1    0    0    0  0.24803179024E+02 -0.17161261801E+02  0.21512093799E+01  0.94762038791E+02  0.89808182799E+02 0.  0.
         11    1    3    3    0    0  0.13674245130E+02  0.36988882762E+02  0.18590091014E+01  0.39479340710E+02  0.51100000000E-03 0. -1.
         22    1    1    0    0    0 -0.24803179024E+02  0.17161261801E+02 -0.21512093799E+01  0.30237961209E+02  0.00000000000E+00 0.  1.
</event>
<event>
 5    1  0.8957809E-005  0.9118800E+02  0.7818608E-02  0.1130116E+00
         25   -1    0    0    0    0  0.00000000000E+00  0.00000000000E+00  0.99999998245E-14  0.12500000000E+03  0.12500000000E+03 0.  0.
        -11    1    3    3    0    0  0.53216400268E+00  0.10897634718E+02  0.33537633711E+02  0.35267754624E+02  0.51100000000E-03 0. -1.
         23    2    1    0    0    0  0.22358797960E+02 -0.16874141973E+02 -0.13348635915E+02  0.93970359423E+02  0.88699435487E+02 0.  0.
         11    1    3    3    0    0  0.21826633957E+02 -0.27771776692E+02 -0.46886269626E+02  0.58702604799E+02  0.51100000000E-03 0.  1.
         22    1    1    0    0    0 -0.22358797960E+02  0.16874141973E+02  0.13348635915E+02  0.31029640577E+02  0.00000000000E+00 0.  1.
</event>
<event>
 5    1  0.8957809E-005  0.9118800E+02  0.7818608E-02  0.1130116E+00
         25   -1    0    0    0    0  0.00000000000E+00  0.00000000000E+00  0.99999998245E-14  0.12500000000E+03  0.12500000000E+03 0.  0.
        -11    1    3    3    0    0 -0.33131870076E+02  0.46055559911E+02 -0.25041502856E+01  0.56790018333E+02  0.51100000000E-03 0. -1.
         23    2    1    0    0    0 -0.20855903954E+01  0.25966557838E+02 -0.13884741289E+02  0.95480551260E+02  0.90802741230E+02 0.  0.
         11    1    3    3    0    0  0.31046279681E+02 -0.20089002072E+02 -0.11380591004E+02  0.38690532926E+02  0.51100000000E-03 0.  1.
         22    1    1    0    0    0  0.20855903954E+01 -0.25966557838E+02  0.13884741289E+02  0.29519448740E+02  0.00000000000E+00 0. -1.
</event>
<event>
 5    1  0.8957809E-005  0.9118800E+02  0.7818608E-02  0.1130116E+00
         25   -1    0    0    0    0  0.00000000000E+00  0.00000000000E+00  0.99999998245E-14  0.12500000000E+03  0.12500000000E+03 0.  0.
        -11    1    3    3    0    0 -0.53854286094E+01  0.40369292433E+02 -0.95274181115E+01  0.41826478563E+02  0.51100000000E-03 0. -1.
         23    2    1    0    0    0  0.19301963999E+02 -0.51197949573E+01 -0.22228813339E+02  0.95118596802E+02  0.90303096295E+02 0.  0.
         11    1    3    3    0    0  0.24687392608E+02 -0.45489087390E+02 -0.12701395228E+02  0.53292118239E+02  0.51100000000E-03 0.  1.
         22    1    1    0    0    0 -0.19301963999E+02  0.51197949573E+01  0.22228813339E+02  0.29881403198E+02  0.00000000000E+00 0.  1.
</event>
<event>
 5    1  0.8957809E-005  0.9118800E+02  0.7818608E-02  0.1130116E+00
         25   -1    0    0    0    0  0.00000000000E+00  0.00000000000E+00  0.99999998245E-14  0.12500000000E+03  0.12500000000E+03 0.  0.
        -11    1    3    3    0    0  0.26613875491E+02 -0.53341121795E+02  0.11634999737E+02  0.60736701113E+02  0.51100000000E-03 0. -1.
         23    2    1    0    0    0  0.74256513716E+01 -0.22713833383E+02  0.14593914601E+02  0.96999270213E+02  0.92869895839E+02 0.  0.
         11    1    3    3    0    0 -0.19188224119E+02  0.30627288411E+02  0.29589148639E+01  0.36262569100E+02  0.51100000000E-03 0.  1.
         22    1    1    0    0    0 -0.74256513716E+01  0.22713833383E+02 -0.14593914601E+02  0.28000729787E+02  0.00000000000E+00 0. -1.
</event>
<event>
 5    1  0.8957809E-005  0.9118800E+02  0.7818608E-02  0.1130116E+00
         25   -1    0    0    0    0  0.00000000000E+00  0.00000000000E+00  0.99999998245E-14  0.12500000000E+03  0.12500000000E+03 0.  0.
        -11    1    3    3    0    0  0.42993775118E+02 -0.33257938368E+02 -0.28825629359E+02  0.61526190127E+02  0.51100000000E-03 0. -1.
         23    2    1    0    0    0  0.22593118694E+02 -0.18680828396E+02 -0.67865680684E+01  0.94908807467E+02  0.90012231762E+02 0.  0.
         11    1    3    3    0    0 -0.20400656424E+02  0.14577109972E+02  0.22039061291E+02  0.33382617340E+02  0.51100000000E-03 0.  1.
         22    1    1    0    0    0 -0.22593118694E+02  0.18680828396E+02  0.67865680684E+01  0.30091192533E+02  0.00000000000E+00 0. -1.
</event>
<event>
 5    1  0.8957809E-005  0.9118800E+02  0.7818608E-02  0.1130116E+00
         25   -1    0    0    0    0  0.00000000000E+00  0.00000000000E+00  0.99999998245E-14  0.12500000000E+03  0.12500000000E+03 0.  0.
        -11    1    3    3    0    0  0.38279586098E+01 -0.27860395541E+02  0.49480839183E+02  0.56914043551E+02  0.51100000000E-03 0.  1.
         23    2    1    0    0    0  0.18535950417E+02 -0.44401784735E+01  0.21793195712E+02  0.96047624932E+02  0.91580053686E+02 0.  0.
         11    1    3    3    0    0  0.14707991807E+02  0.23420217067E+02 -0.27687643471E+02  0.39133581381E+02  0.51100000000E-03 0. -1.
         22    1    1    0    0    0 -0.18535950417E+02  0.44401784735E+01 -0.21793195712E+02  0.28952375068E+02  0.00000000000E+00 0.  1.
</event>
<event>
 5    1  0.8957809E-005  0.9118800E+02  0.7818608E-02  0.1130116E+00
         25   -1    0    0    0    0  0.00000000000E+00  0.00000000000E+00  0.99999998245E-14  0.12500000000E+03  0.12500000000E+03 0.  0.
        -11    1    3    3    0    0 -0.24332487814E+01 -0.53873463923E+02  0.19132488581E+02  0.57221699855E+02  0.51100000000E-03 0.  1.
         23    2    1    0    0    0  0.16130808856E+02 -0.29069660640E+02  0.46148170862E+01  0.91435961196E+02  0.85052867671E+02 0.  0.
         11    1    3    3    0    0  0.18564057637E+02  0.24803803283E+02 -0.14517671495E+02  0.34214261342E+02  0.51100000000E-03 0. -1.
         22    1    1    0    0    0 -0.16130808856E+02  0.29069660640E+02 -0.46148170862E+01  0.33564038804E+02  0.00000000000E+00 0.  1.
</event>
<event>
 5    1  0.8957809E-005  0.9118800E+02  0.7818608E-02  0.1130116E+00
         25   -1    0    0    0    0  0.00000000000E+00  0.00000000000E+00  0.99999998245E-14  0.12500000000E+03  0.12500000000E+03 0.  0.
        -11    1    3    3    0    0 -0.97389739605E+01 -0.29873061227E+02 -0.81900397419E+01  0.32470358053E+02  0.51100000000E-03 0.  1.
         23    2    1    0    0    0  0.51950653119E+01  0.28971149873E+02  0.63333274225E+01  0.94893069489E+02  0.89990373776E+02 0.  0.
         11    1    3    3    0    0  0.14934039272E+02  0.58844211100E+02  0.14523367164E+02  0.62422711436E+02  0.51100000000E-03 0. -1.
         22    1    1    0    0    0 -0.51950653119E+01 -0.28971149873E+02 -0.63333274225E+01  0.30106930511E+02  0.00000000000E+00 0. -1.
</event>
<event>
 5    1  0.8957809E-005  0.9118800E+02  0.7818608E-02  0.1130116E+00
         25   -1    0    0    0    0  0.00000000000E+00  0.00000000000E+00  0.99999998245E-14  0.12500000000E+03  0.12500000000E+03 0.  0.
        -11    1    3    3    0    0  0.11342180930E+02  0.37927985704E+02 -0.45698767017E+02  0.60461181554E+02  0.51100000000E-03 0. -1.
         23    2    1    0    0    0  0.11649663578E+02  0.22928122591E+02 -0.13567207057E+02  0.95922816946E+02  0.91409541277E+02 0.  0.
         11    1    3    3    0    0  0.30748264762E+00 -0.14999863112E+02  0.32131559960E+02  0.35461635392E+02  0.51100000000E-03 0.  1.
         22    1    1    0    0    0 -0.11649663578E+02 -0.22928122591E+02  0.13567207057E+02  0.29077183054E+02  0.00000000000E+00 0. -1.
</event>
<event>
 5    1  0.8957809E-005  0.9118800E+02  0.7818608E-02  0.1130116E+00
         25   -1    0    0    0    0  0.00000000000E+00  0.00000000000E+00  0.99999998245E-14  0.12500000000E+03  0.12500000000E+03 0.  0.
        -11    1    3    3    0    0 -0.28463798560E+01 -0.47119118710E+02  0.14933106989E+02  0.49510715112E+02  0.51100000000E-03 0.  1.
         23    2    1    0    0    0  0.31513420318E+01 -0.17073456599E+02 -0.21662458339E+02  0.97238588326E+02  0.93191453908E+02 0.  0.
         11    1    3    3    0    0  0.59977218878E+01  0.30045662111E+02 -0.36595565329E+02  0.47727873214E+02  0.51100000000E-03 0. -1.
         22    1    1    0    0    0 -0.31513420318E+01  0.17073456599E+02  0.21662458339E+02  0.27761411674E+02  0.00000000000E+00 0.  1.
</event>
<event>
 5    1  0.8957809E-005  0.9118800E+02  0.7818608E-02  0.1130116E+00
         25   -1    0    0    0    0  0.00000000000E+00  0.00000000000E+00  0.99999998245E-14  0.12500000000E+03  0.12500000000E+03 0.  0.
        -11    1    3    3    0    0 -0.24545205084E+02 -0.17441281948E+02  0.12303397979E+02  0.32527511596E+02  0.51100000000E-03 0.  1.
         23    2    1    0    0    0 -0.35477478323E+02  0.24457492548E+02 -0.92970826955E+01  0.80917620793E+02  0.67855767612E+02 0.  0.
         11    1    3    3    0    0 -0.10932273239E+02  0.41898774496E+02 -0.21600480674E+02  0.48390109197E+02  0.51100000000E-03 0. -1.
         22    1    1    0    0    0  0.35477478323E+02 -0.24457492548E+02  0.92970826955E+01  0.44082379207E+02  0.00000000000E+00 0. -1.
</event>
<event>
 5    1  0.8957809E-005  0.9118800E+02  0.7818608E-02  0.1130116E+00
         25   -1    0    0    0    0  0.00000000000E+00  0.00000000000E+00  0.99999998245E-14  0.12500000000E+03  0.12500000000E+03 0.  0.
        -11    1    3    3    0    0 -0.32479510334E+01 -0.34316426004E+02 -0.41895240357E+01  0.34723455927E+02  0.51100000000E-03 0.  1.
         23    2    1    0    0    0 -0.16967905505E+02  0.23853279019E+02  0.53400884230E+01  0.95244239523E+02  0.90476847208E+02 0.  0.
         11    1    3    3    0    0 -0.13719954472E+02  0.58169705023E+02  0.95296124588E+01  0.60520783596E+02  0.51100000000E-03 0. -1.
         22    1    1    0    0    0  0.16967905505E+02 -0.23853279019E+02 -0.53400884230E+01  0.29755760477E+02  0.00000000000E+00 0. -1.
</event>
<event>
 5    1  0.8957809E-005  0.9118800E+02  0.7818608E-02  0.1130116E+00
         25   -1    0    0    0    0  0.00000000000E+00  0.00000000000E+00  0.99999998245E-14  0.12500000000E+03  0.12500000000E+03 0.  0.
        -11    1    3    3    0    0 -0.23674432352E+02  0.23221684610E+02  0.16561944089E+02  0.37067821295E+02  0.51100000000E-03 0.  1.
         23    2    1    0    0    0  0.15914045016E+01 -0.28507979374E+02  0.24474875577E+01  0.96342930163E+02  0.91982240355E+02 0.  0.
         11    1    3    3    0    0  0.25265836854E+02 -0.51729663984E+02 -0.14114456532E+02  0.59275108868E+02  0.51100000000E-03 0. -1.
         22    1    1    0    0    0 -0.15914045016E+01  0.28507979374E+02 -0.24474875577E+01  0.28657069837E+02  0.00000000000E+00 0. -1.
</event>
<event>
 5    1  0.8957809E-005  0.9118800E+02  0.7818608E-02  0.1130116E+00
         25   -1    0    0    0    0  0.00000000000E+00  0.00000000000E+00  0.99999998245E-14  0.12500000000E+03  0.12500000000E+03 0.  0.
        -11    1    3    3    0    0  0.11875583683E+02  0.16736978731E+01 -0.54423194634E+02  0.55728941016E+02  0.51100000000E-03 0.  1.
         23    2    1    0    0    0 -0.14389571471E+02  0.63646723534E+01 -0.25120970076E+02  0.95358273349E+02  0.90634255871E+02 0.  0.
         11    1    3    3    0    0 -0.26265155154E+02  0.46909744804E+01  0.29302224558E+02  0.39629332333E+02  0.51100000000E-03 0. -1.
         22    1    1    0    0    0  0.14389571471E+02 -0.63646723534E+01  0.25120970076E+02  0.29641726651E+02  0.00000000000E+00 0. -1.
</event>
<event>
 5    1  0.8957809E-005  0.9118800E+02  0.7818608E-02  0.1130116E+00
         25   -1    0    0    0    0  0.00000000000E+00  0.00000000000E+00  0.99999998245E-14  0.12500000000E+03  0.12500000000E+03 0.  0.
        -11    1    3    3    0    0 -0.35984659648E+02  0.20087173643E+02 -0.24843187048E+02  0.48120413734E+02  0.51100000000E-03 0.  1.
         23    2    1    0    0    0  0.10586044364E+02  0.52772328041E+01 -0.25387357573E+02  0.96992296669E+02  0.92860509191E+02 0.  0.
         11    1    3    3    0    0  0.46570704012E+02 -0.14809940839E+02 -0.54417052582E+00  0.48871882935E+02  0.51100000000E-03 0. -1.
         22    1    1    0    0    0 -0.10586044364E+02 -0.52772328041E+01  0.25387357573E+02  0.28007703331E+02  0.00000000000E+00 0.  1.
</event>
<event>
 5    1  0.8957809E-005  0.9118800E+02  0.7818608E-02  0.1130116E+00
         25   -1    0    0    0    0  0.00000000000E+00  0.00000000000E+00  0.99999998245E-14  0.12500000000E+03  0.12500000000E+03 0.  0.
        -11    1    3    3    0    0 -0.11026425539E+02 -0.16722650541E+02 -0.30573981883E+02  0.36551299152E+02  0.51100000000E-03 0.  1.
         23    2    1    0    0    0 -0.13097651008E+02  0.29348731742E+01  0.25596238296E+02  0.96097935067E+02  0.91648697573E+02 0.  0.
         11    1    3    3    0    0 -0.20712254687E+01  0.19657523715E+02  0.56170220179E+02  0.59546635915E+02  0.51100000000E-03 0. -1.
         22    1    1    0    0    0  0.13097651008E+02 -0.29348731742E+01 -0.25596238296E+02  0.28902064933E+02  0.00000000000E+00 0. -1.
</event>
<event>
 5    1  0.8957809E-005  0.9118800E+02  0.7818608E-02  0.1130116E+00
         25   -1    0    0    0    0  0.00000000000E+00  0.00000000000E+00  0.99999998245E-14  0.12500000000E+03  0.12500000000E+03 0.  0.
        -11    1    3    3    0    0 -0.27375500007E+02 -0.14747168977E+02 -0.35154017155E+02  0.46932951280E+02  0.51100000000E-03 0. -1.
         23    2    1    0    0    0 -0.70727311348E+01  0.24496176234E+02 -0.13834419317E+02  0.95991771277E+02  0.91503785820E+02 0.  0.
         11    1    3    3    0    0  0.20302768872E+02  0.39243345211E+02  0.21319597838E+02  0.49058819997E+02  0.51100000000E-03 0.  1.
         22    1    1    0    0    0  0.70727311348E+01 -0.24496176234E+02  0.13834419317E+02  0.29008228723E+02  0.00000000000E+00 0. -1.
</event>
<event>
 5    1  0.8957809E-005  0.9118800E+02  0.7818608E-02  0.1130116E+00
         25   -1    0    0    0    0  0.00000000000E+00  0.00000000000E+00  0.99999998245E-14  0.12500000000E+03  0.12500000000E+03 0.  0.
        -11    1    3    3    0    0  0.18028422690E+02 -0.15971221970E+02  0.30536870335E+02  0.38892215237E+02  0.51100000000E-03 0.  1.
         23    2    1    0    0    0 -0.17983878274E+02 -0.37979588245E+01 -0.17139284832E+02  0.99868357523E+02  0.96654484535E+02 0.  0.
         11    1    3    3    0    0 -0.36012300964E+02  0.12173263145E+02 -0.47676155167E+02  0.60976142287E+02  0.51100000000E-03 0. -1.
         22    1    1    0    0    0  0.17983878274E+02  0.37979588245E+01  0.17139284832E+02  0.25131642477E+02  0.00000000000E+00 0. -1.
</event>
<event>
 5    1  0.8957809E-005  0.9118800E+02  0.7818608E-02  0.1130116E+00
         25   -1    0    0    0    0  0.00000000000E+00  0.00000000000E+00  0.99999998245E-14  0.12500000000E+03  0.12500000000E+03 0.  0.
        -11    1    3    3    0    0  0.34733178609E+02 -0.25860338896E+01 -0.26853006600E+01  0.34932679649E+02  0.51100000000E-03 0.  1.
         23    2    1    0    0    0 -0.24664888534E+02 -0.63839934936E+01  0.12877161671E+02  0.96452961764E+02  0.92131647337E+02 0.  0.
         11    1    3    3    0    0 -0.59398067143E+02 -0.37979596040E+01  0.15562462331E+02  0.61520282115E+02  0.51100000000E-03 0. -1.
         22    1    1    0    0    0  0.24664888534E+02  0.63839934936E+01 -0.12877161671E+02  0.28547038236E+02  0.00000000000E+00 0. -1.
</event>
<event>
 5    1  0.8957809E-005  0.9118800E+02  0.7818608E-02  0.1130116E+00
         25   -1    0    0    0    0  0.00000000000E+00  0.00000000000E+00  0.99999998245E-14  0.12500000000E+03  0.12500000000E+03 0.  0.
        -11    1    3    3    0    0  0.32146466045E+02  0.15890020263E+02 -0.24111687336E+02  0.43211821179E+02  0.51100000000E-03 0.  1.
         23    2    1    0    0    0 -0.20715461268E+02  0.28505957139E+01 -0.16859869942E+02  0.98139034903E+02  0.94391518294E+02 0.  0.
         11    1    3    3    0    0 -0.52861927313E+02 -0.13039424549E+02  0.72518173939E+01  0.54927213725E+02  0.51100000000E-03 0. -1.
         22    1    1    0    0    0  0.20715461268E+02 -0.28505957139E+01  0.16859869942E+02  0.26860965097E+02  0.00000000000E+00 0.  1.
</event>
<event>
 5    1  0.8957809E-005  0.9118800E+02  0.7818608E-02  0.1130116E+00
         25   -1    0    0    0    0  0.00000000000E+00  0.00000000000E+00  0.99999998245E-14  0.12500000000E+03  0.12500000000E+03 0.  0.
        -11    1    3    3    0    0 -0.31463604960E+01  0.29210931460E+02 -0.23608301045E+02  0.37689918807E+02  0.51100000000E-03 0.  1.
         23    2    1    0    0    0 -0.81691725845E+01 -0.14998434007E+02  0.19109560328E+02  0.99370647700E+02  0.96008655470E+02 0.  0.
         11    1    3    3    0    0 -0.50228120885E+01 -0.44209365468E+02  0.42717861373E+02  0.61680728894E+02  0.51100000000E-03 0. -1.
         22    1    1    0    0    0  0.81691725845E+01  0.14998434007E+02 -0.19109560328E+02  0.25629352300E+02  0.00000000000E+00 0. -1.
</event>
<event>
 5    1  0.8957809E-005  0.9118800E+02  0.7818608E-02  0.1130116E+00
         25   -1    0    0    0    0  0.00000000000E+00  0.00000000000E+00  0.99999998245E-14  0.12500000000E+03  0.12500000000E+03 0.  0.
        -11    1    3    3    0    0  0.32940775979E+02 -0.66151509903E+01  0.49489904252E+02  0.59817268141E+02  0.51100000000E-03 0.  1.
         23    2    1    0    0    0  0.53167337174E+01  0.19884313129E+01  0.29438834088E+02  0.95018898136E+02  0.90164985078E+02 0.  0.
         11    1    3    3    0    0 -0.27624042261E+02  0.86035823032E+01 -0.20051070165E+02  0.35201629995E+02  0.51100000000E-03 0. -1.
         22    1    1    0    0    0 -0.53167337174E+01 -0.19884313129E+01 -0.29438834088E+02  0.29981101864E+02  0.00000000000E+00 0.  1.
</event>
<event>
 5    1  0.8957809E-005  0.9118800E+02  0.7818608E-02  0.1130116E+00
         25   -1    0    0    0    0  0.00000000000E+00  0.00000000000E+00  0.99999998245E-14  0.12500000000E+03  0.12500000000E+03 0.  0.
        -11    1    3    3    0    0 -0.32401366235E+01 -0.11330914817E+02 -0.28402659881E+02  0.30750596816E+02  0.51100000000E-03 0.  1.
         23    2    1    0    0    0 -0.84796431912E+01  0.11700144104E+02  0.28877263665E+02  0.92709226124E+02  0.86904007566E+02 0.  0.
         11    1    3    3    0    0 -0.52395065677E+01  0.23031058921E+02  0.57279923546E+02  0.61958629309E+02  0.51100000000E-03 0. -1.
         22    1    1    0    0    0  0.84796431912E+01 -0.11700144104E+02 -0.28877263665E+02  0.32290773876E+02  0.00000000000E+00 0. -1.
</event>
<event>
 5    1  0.8957809E-005  0.9118800E+02  0.7818608E-02  0.1130116E+00
         25   -1    0    0    0    0  0.00000000000E+00  0.00000000000E+00  0.99999998245E-14  0.12500000000E+03  0.12500000000E+03 0.  0.
        -11    1    3    3    0    0  0.24838677526E+02 -0.11299569777E+02 -0.29345185505E+02  0.40072186002E+02  0.51100000000E-03 0.  1.
         23    2    1    0    0    0 -0.94033824531E+01  0.26838456565E+02 -0.10052850135E+02  0.94837338509E+02  0.89912928032E+02 0.  0.
         11    1    3    3    0    0 -0.34242059979E+02  0.38138026342E+02  0.19292335369E+02  0.54765152508E+02  0.51100000000E-03 0. -1.
         22    1    1    0    0    0  0.94033824531E+01 -0.26838456565E+02  0.10052850135E+02  0.30162661491E+02  0.00000000000E+00 0.  1.
</event>
<event>
 5    1  0.8957809E-005  0.9118800E+02  0.7818608E-02  0.1130116E+00
         25   -1    0    0    0    0  0.00000000000E+00  0.00000000000E+00  0.99999998245E-14  0.12500000000E+03  0.12500000000E+03 0.  0.
        -11    1    3    3    0    0  0.25676691908E+02  0.16781345048E+02 -0.12435280873E+02  0.33098976716E+02  0.51100000000E-03 0.  1.
         23    2    1    0    0    0 -0.27032623861E+02 -0.95244157197E+01  0.76453671174E+01  0.95336404703E+02  0.90604090281E+02 0.  0.
         11    1    3    3    0    0 -0.52709315769E+02 -0.26305760768E+02  0.20080647990E+02  0.62237427987E+02  0.51100000000E-03 0. -1.
         22    1    1    0    0    0  0.27032623861E+02  0.95244157197E+01 -0.76453671174E+01  0.29663595297E+02  0.00000000000E+00 0. -1.
</event>
<event>
 5    1  0.8957809E-005  0.9118800E+02  0.7818608E-02  0.1130116E+00
         25   -1    0    0    0    0  0.00000000000E+00  0.00000000000E+00  0.99999998245E-14  0.12500000000E+03  0.12500000000E+03 0.  0.
        -11    1    3    3    0    0 -0.16469760934E+02 -0.25290692735E+02 -0.45531228275E+02  0.54625679975E+02  0.51100000000E-03 0. -1.
         23    2    1    0    0    0 -0.10013140197E+02 -0.23778294471E+02 -0.14974502284E+01  0.99155994472E+02  0.95728776332E+02 0.  0.
         11    1    3    3    0    0  0.64566207372E+01  0.15123982639E+01  0.44033778047E+02  0.44530314497E+02  0.51100000000E-03 0.  1.
         22    1    1    0    0    0  0.10013140197E+02  0.23778294471E+02  0.14974502284E+01  0.25844005528E+02  0.00000000000E+00 0. -1.
</event>
<event>
 5    1  0.8957809E-005  0.9118800E+02  0.7818608E-02  0.1130116E+00
         25   -1    0    0    0    0  0.00000000000E+00  0.00000000000E+00  0.99999998245E-14  0.12500000000E+03  0.12500000000E+03 0.  0.
        -11    1    3    3    0    0 -0.22825155812E+01  0.10624137436E+02 -0.55710170483E+02  0.56760067557E+02  0.51100000000E-03 0. -1.
         23    2    1    0    0    0  0.57869888428E+01 -0.12641619022E+02 -0.27346448873E+02  0.94322189822E+02  0.89193875661E+02 0.  0.
         11    1    3    3    0    0  0.80695044240E+01 -0.23265756458E+02  0.28363721609E+02  0.37562122265E+02  0.51100000000E-03 0.  1.
         22    1    1    0    0    0 -0.57869888428E+01  0.12641619022E+02  0.27346448873E+02  0.30677810178E+02  0.00000000000E+00 0. -1.
</event>
<event>
 5    1  0.8957809E-005  0.9118800E+02  0.7818608E-02  0.1130116E+00
         25   -1    0    0    0    0  0.00000000000E+00  0.00000000000E+00  0.99999998245E-14  0.12500000000E+03  0.12500000000E+03 0.  0.
        -11    1    3    3    0    0 -0.24034301712E+02 -0.40108596348E+02 -0.42706354220E+01  0.46953013609E+02  0.51100000000E-03 0.  1.
         23    2    1    0    0    0 -0.10576833638E+02 -0.61115063366E+01  0.27192146850E+02  0.95190055857E+02  0.90401957745E+02 0.  0.
         11    1    3    3    0    0  0.13457468074E+02  0.33997090012E+02  0.31462782272E+02  0.48237042247E+02  0.51100000000E-03 0. -1.
         22    1    1    0    0    0  0.10576833638E+02  0.61115063366E+01 -0.27192146850E+02  0.29809944143E+02  0.00000000000E+00 0. -1.
</event>
<event>
 5    1  0.8957809E-005  0.9118800E+02  0.7818608E-02  0.1130116E+00
         25   -1    0    0    0    0  0.00000000000E+00  0.00000000000E+00  0.99999998245E-14  0.12500000000E+03  0.12500000000E+03 0.  0.
        -11    1    3    3    0    0  0.24169308894E+02 -0.25937058164E+02 -0.20865634864E+01  0.35513944107E+02  0.51100000000E-03 0.  1.
         23    2    1    0    0    0 -0.18770921306E+02  0.12759660793E+02  0.17277493921E+02  0.96475129686E+02  0.92161718851E+02 0.  0.
         11    1    3    3    0    0 -0.42940230200E+02  0.38696718957E+02  0.19364057407E+02  0.60961185579E+02  0.51100000000E-03 0. -1.
         22    1    1    0    0    0  0.18770921306E+02 -0.12759660793E+02 -0.17277493921E+02  0.28524870314E+02  0.00000000000E+00 0. -1.
</event>
<event>
 5    1  0.8957809E-005  0.9118800E+02  0.7818608E-02  0.1130116E+00
         25   -1    0    0    0    0  0.00000000000E+00  0.00000000000E+00  0.99999998245E-14  0.12500000000E+03  0.12500000000E+03 0.  0.
        -11    1    3    3    0    0 -0.35832498998E+02 -0.32864964306E+02 -0.37597987629E+02  0.61462854940E+02  0.51100000000E-03 0. -1.
         23    2    1    0    0    0 -0.26996308788E+02 -0.20847152945E+02 -0.17014332047E+02  0.86883179971E+02  0.78075572317E+02 0.  0.
         11    1    3    3    0    0  0.88361902100E+01  0.12017811361E+02  0.20583655582E+02  0.25420325031E+02  0.51100000000E-03 0.  1.
         22    1    1    0    0    0  0.26996308788E+02  0.20847152945E+02  0.17014332047E+02  0.38116820029E+02  0.00000000000E+00 0. -1.
</event>
<event>
 5    1  0.8957809E-005  0.9118800E+02  0.7818608E-02  0.1130116E+00
         25   -1    0    0    0    0  0.00000000000E+00  0.00000000000E+00  0.99999998245E-14  0.12500000000E+03  0.12500000000E+03 0.  0.
        -11    1    3    3    0    0  0.56380317900E+02  0.47931499014E+01  0.55101647800E+01  0.56851353974E+02  0.51100000000E-03 0.  1.
         23    2    1    0    0    0  0.18491722296E+02  0.66243522954E+01  0.19538242876E+02  0.97294968481E+02  0.93267047344E+02 0.  0.
         11    1    3    3    0    0 -0.37888595604E+02  0.18312023940E+01  0.14028078096E+02  0.40443614507E+02  0.51100000000E-03 0. -1.
         22    1    1    0    0    0 -0.18491722296E+02 -0.66243522954E+01 -0.19538242876E+02  0.27705031519E+02  0.00000000000E+00 0.  1.
</event>
<event>
 5    1  0.8957809E-005  0.9118800E+02  0.7818608E-02  0.1130116E+00
         25   -1    0    0    0    0  0.00000000000E+00  0.00000000000E+00  0.99999998245E-14  0.12500000000E+03  0.12500000000E+03 0.  0.
        -11    1    3    3    0    0  0.33330122793E+00 -0.45043047025E+02 -0.39023133836E+02  0.59596913928E+02  0.51100000000E-03 0. -1.
         23    2    1    0    0    0 -0.77606904891E+01 -0.12087285257E+02 -0.24691503075E+02  0.96434266930E+02  0.92106279549E+02 0.  0.
         11    1    3    3    0    0 -0.80939917170E+01  0.32955761769E+02  0.14331630761E+02  0.36837353002E+02  0.51100000000E-03 0.  1.
         22    1    1    0    0    0  0.77606904891E+01  0.12087285257E+02  0.24691503075E+02  0.28565733070E+02  0.00000000000E+00 0. -1.
</event>
<event>
 5    1  0.8957809E-005  0.9118800E+02  0.7818608E-02  0.1130116E+00
         25   -1    0    0    0    0  0.00000000000E+00  0.00000000000E+00  0.99999998245E-14  0.12500000000E+03  0.12500000000E+03 0.  0.
        -11    1    3    3    0    0  0.41820217245E+02 -0.22131648627E+02 -0.77768342998E+01  0.47950178241E+02  0.51100000000E-03 0. -1.
         23    2    1    0    0    0 -0.36454233323E+01 -0.28833900511E+02  0.46721363829E+01  0.95563427707E+02  0.90916758228E+02 0.  0.
         11    1    3    3    0    0 -0.45465640577E+02 -0.67022518849E+01  0.12448970683E+02  0.47613249466E+02  0.51100000000E-03 0.  1.
         22    1    1    0    0    0  0.36454233323E+01  0.28833900511E+02 -0.46721363829E+01  0.29436572293E+02  0.00000000000E+00 0. -1.
</event>
<event>
 5    1  0.8957809E-005  0.9118800E+02  0.7818608E-02  0.1130116E+00
         25   -1    0    0    0    0  0.00000000000E+00  0.00000000000E+00  0.99999998245E-14  0.12500000000E+03  0.12500000000E+03 0.  0.
        -11    1    3    3    0    0  0.36248430648E+02  0.13496650437E+01 -0.46111437493E+02  0.58668858760E+02  0.51100000000E-03 0. -1.
         23    2    1    0    0    0  0.57693133994E+01  0.10498044069E+02 -0.26158054686E+02  0.96229568455E+02  0.91828057334E+02 0.  0.
         11    1    3    3    0    0 -0.30479117249E+02  0.91483790248E+01  0.19953382808E+02  0.37560709695E+02  0.51100000000E-03 0.  1.
         22    1    1    0    0    0 -0.57693133994E+01 -0.10498044069E+02  0.26158054686E+02  0.28770431545E+02  0.00000000000E+00 0. -1.
</event>
<event>
 5    1  0.8957809E-005  0.9118800E+02  0.7818608E-02  0.1130116E+00
         25   -1    0    0    0    0  0.00000000000E+00  0.00000000000E+00  0.99999998245E-14  0.12500000000E+03  0.12500000000E+03 0.  0.
        -11    1    3    3    0    0  0.20731776041E+02 -0.48506077372E+02 -0.13832507863E+02  0.54534249365E+02  0.51100000000E-03 0.  1.
         23    2    1    0    0    0 -0.10913448673E+02 -0.25787786784E+02 -0.14438741826E+02  0.93494594517E+02  0.88026408703E+02 0.  0.
         11    1    3    3    0    0 -0.31645224714E+02  0.22718290588E+02 -0.60623396329E+00  0.38960345152E+02  0.51100000000E-03 0. -1.
         22    1    1    0    0    0  0.10913448673E+02  0.25787786784E+02  0.14438741826E+02  0.31505405483E+02  0.00000000000E+00 0.  1.
</event>
<event>
 5    1  0.8957809E-005  0.9118800E+02  0.7818608E-02  0.1130116E+00
         25   -1    0    0    0    0  0.00000000000E+00  0.00000000000E+00  0.99999998245E-14  0.12500000000E+03  0.12500000000E+03 0.  0.
        -11    1    3    3    0    0 -0.29862645095E+02  0.36290019181E+00 -0.43740835961E+02  0.52963855595E+02  0.51100000000E-03 0. -1.
         23    2    1    0    0    0  0.14756449607E+01  0.18242867520E+02 -0.26090725832E+02  0.93129861659E+02  0.87506944952E+02 0.  0.
         11    1    3    3    0    0  0.31338290056E+02  0.17879967328E+02  0.17650110129E+02  0.40166006064E+02  0.51100000000E-03 0.  1.
         22    1    1    0    0    0 -0.14756449607E+01 -0.18242867520E+02  0.26090725832E+02  0.31870138341E+02  0.00000000000E+00 0. -1.
</event>
<event>
 5    1  0.8957809E-005  0.9118800E+02  0.7818608E-02  0.1130116E+00
         25   -1    0    0    0    0  0.00000000000E+00  0.00000000000E+00  0.99999998245E-14  0.12500000000E+03  0.12500000000E+03 0.  0.
        -11    1    3    3    0    0  0.63550438472E+01 -0.32878553104E+02 -0.31391991960E+01  0.33633917529E+02  0.51100000000E-03 0. -1.
         23    2    1    0    0    0 -0.17967336502E+02  0.23176111968E+02  0.49131329384E+01  0.95266244398E+02  0.90507243354E+02 0.  0.
         11    1    3    3    0    0 -0.24322380349E+02  0.56054665072E+02  0.80523321343E+01  0.61632326869E+02  0.51100000000E-03 0.  1.
         22    1    1    0    0    0  0.17967336502E+02 -0.23176111968E+02 -0.49131329384E+01  0.29733755602E+02  0.00000000000E+00 0.  1.
</event>
<event>
 5    1  0.8957809E-005  0.9118800E+02  0.7818608E-02  0.1130116E+00
         25   -1    0    0    0    0  0.00000000000E+00  0.00000000000E+00  0.99999998245E-14  0.12500000000E+03  0.12500000000E+03 0.  0.
        -11    1    3    3    0    0 -0.23836309332E+00 -0.31942794597E+02 -0.17755789754E+02  0.36546778431E+02  0.51100000000E-03 0.  1.
         23    2    1    0    0    0 -0.19988105192E+02  0.17196572191E+02  0.10554596772E+02  0.96598486707E+02  0.92328877805E+02 0.  0.
         11    1    3    3    0    0 -0.19749742099E+02  0.49139366788E+02  0.28310386526E+02  0.60051708276E+02  0.51100000000E-03 0. -1.
         22    1    1    0    0    0  0.19988105192E+02 -0.17196572191E+02 -0.10554596772E+02  0.28401513293E+02  0.00000000000E+00 0. -1.
</event>
<event>
 5    1  0.8957809E-005  0.9118800E+02  0.7818608E-02  0.1130116E+00
         25   -1    0    0    0    0  0.00000000000E+00  0.00000000000E+00  0.99999998245E-14  0.12500000000E+03  0.12500000000E+03 0.  0.
        -11    1    3    3    0    0 -0.56861257749E+02  0.23305909519E+02  0.10822234784E+02  0.62397827024E+02  0.51100000000E-03 0.  1.
         23    2    1    0    0    0 -0.29078425285E+02  0.10112900393E+02  0.34888648869E+01  0.94016169546E+02  0.88763970092E+02 0.  0.
         11    1    3    3    0    0  0.27782832464E+02 -0.13193009125E+02 -0.73333698971E+01  0.31618342522E+02  0.51100000000E-03 0. -1.
         22    1    1    0    0    0  0.29078425285E+02 -0.10112900393E+02 -0.34888648869E+01  0.30983830454E+02  0.00000000000E+00 0.  1.
</event>
<event>
 5    1  0.8957809E-005  0.9118800E+02  0.7818608E-02  0.1130116E+00
         25   -1    0    0    0    0  0.00000000000E+00  0.00000000000E+00  0.99999998245E-14  0.12500000000E+03  0.12500000000E+03 0.  0.
        -11    1    3    3    0    0  0.50054713535E+01 -0.29539693999E+01  0.35255112397E+02  0.35730989758E+02  0.51100000000E-03 0. -1.
         23    2    1    0    0    0 -0.19041028783E+02  0.91575227869E+01 -0.19182182070E+02  0.96462706686E+02  0.92144867852E+02 0.  0.
         11    1    3    3    0    0 -0.24046500137E+02  0.12111492187E+02 -0.54437294467E+02  0.60731716928E+02  0.51100000000E-03 0.  1.
         22    1    1    0    0    0  0.19041028783E+02 -0.91575227869E+01  0.19182182070E+02  0.28537293314E+02  0.00000000000E+00 0.  1.
</event>
<event>
 5    1  0.8957809E-005  0.9118800E+02  0.7818608E-02  0.1130116E+00
         25   -1    0    0    0    0  0.00000000000E+00  0.00000000000E+00  0.99999998245E-14  0.12500000000E+03  0.12500000000E+03 0.  0.
        -11    1    3    3    0    0 -0.10056025278E+02  0.13197419316E+02 -0.48889817241E+02  0.51628574947E+02  0.51100000000E-03 0. -1.
         23    2    1    0    0    0  0.13647633624E+02  0.22491145816E+02 -0.12937999452E+02  0.95682746147E+02  0.91080659510E+02 0.  0.
         11    1    3    3    0    0  0.23703658902E+02  0.92937265003E+01  0.35951817788E+02  0.44054171200E+02  0.51100000000E-03 0.  1.
         22    1    1    0    0    0 -0.13647633624E+02 -0.22491145816E+02  0.12937999452E+02  0.29317253853E+02  0.00000000000E+00 0. -1.
</event>
<event>
 5    1  0.8957809E-005  0.9118800E+02  0.7818608E-02  0.1130116E+00
         25   -1    0    0    0    0  0.00000000000E+00  0.00000000000E+00  0.99999998245E-14  0.12500000000E+03  0.12500000000E+03 0.  0.
        -11    1    3    3    0    0  0.59802338421E+01  0.13009640371E+02  0.34689656510E+02  0.37528471971E+02  0.51100000000E-03 0.  1.
         23    2    1    0    0    0  0.15045047708E+02  0.98327488341E+01 -0.22886119760E+02  0.95899984745E+02  0.91378313545E+02 0.  0.
         11    1    3    3    0    0  0.90648138658E+01 -0.31768915368E+01 -0.57575776270E+02  0.58371512775E+02  0.51100000000E-03 0. -1.
         22    1    1    0    0    0 -0.15045047708E+02 -0.98327488341E+01  0.22886119760E+02  0.29100015255E+02  0.00000000000E+00 0. -1.
</event>
<event>
 5    1  0.8957809E-005  0.9118800E+02  0.7818608E-02  0.1130116E+00
         25   -1    0    0    0    0  0.00000000000E+00  0.00000000000E+00  0.99999998245E-14  0.12500000000E+03  0.12500000000E+03 0.  0.
        -11    1    3    3    0    0  0.27155221860E+02  0.28751311039E+02  0.39758485283E+01  0.39747343716E+02  0.51100000000E-03 0. -1.
         23    2    1    0    0    0 -0.25179150779E+02  0.13148270261E+02 -0.76512083107E+01  0.95582188500E+02  0.90942548486E+02 0.  0.
         11    1    3    3    0    0 -0.52334372639E+02 -0.15603040779E+02 -0.11627056839E+02  0.55834844784E+02  0.51100000000E-03 0.  1.
         22    1    1    0    0    0  0.25179150779E+02 -0.13148270261E+02  0.76512083107E+01  0.29417811500E+02  0.00000000000E+00 0.  1.
</event>
<event>
 5    1  0.8957809E-005  0.9118800E+02  0.7818608E-02  0.1130116E+00
         25   -1    0    0    0    0  0.00000000000E+00  0.00000000000E+00  0.99999998245E-14  0.12500000000E+03  0.12500000000E+03 0.  0.
        -11    1    3    3    0    0 -0.30756623245E+02  0.17043826055E+02 -0.16376520447E+02  0.38789847927E+02  0.51100000000E-03 0.  1.
         23    2    1    0    0    0  0.14962964446E+02  0.32718210744E+02 -0.32290119931E+01  0.88878010329E+02  0.81206542731E+02 0.  0.
         11    1    3    3    0    0  0.45719587691E+02  0.15674384689E+02  0.13147508454E+02  0.50088162402E+02  0.51100000000E-03 0. -1.
         22    1    1    0    0    0 -0.14962964446E+02 -0.32718210744E+02  0.32290119931E+01  0.36121989671E+02  0.00000000000E+00 0. -1.
</event>
<event>
 5    1  0.8957809E-005  0.9118800E+02  0.7818608E-02  0.1130116E+00
         25   -1    0    0    0    0  0.00000000000E+00  0.00000000000E+00  0.99999998245E-14  0.12500000000E+03  0.12500000000E+03 0.  0.
        -11    1    3    3    0    0  0.46714094104E+02  0.15657012888E+02  0.21914456020E+02  0.53922092165E+02  0.51100000000E-03 0. -1.
         23    2    1    0    0    0  0.16437817012E+02  0.20569784544E+02 -0.87104237878E+01  0.97265736951E+02  0.93227861918E+02 0.  0.
         11    1    3    3    0    0 -0.30276277091E+02  0.49127716557E+01 -0.30624879808E+02  0.43343644786E+02  0.51100000000E-03 0.  1.
         22    1    1    0    0    0 -0.16437817012E+02 -0.20569784544E+02  0.87104237878E+01  0.27734263049E+02  0.00000000000E+00 0. -1.
</event>
<event>
 5    1  0.8957809E-005  0.9118800E+02  0.7818608E-02  0.1130116E+00
         25   -1    0    0    0    0  0.00000000000E+00  0.00000000000E+00  0.99999998245E-14  0.12500000000E+03  0.12500000000E+03 0.  0.
        -11    1    3    3    0    0 -0.15435801864E+02 -0.54755257789E+02 -0.50155758166E+01  0.57110053719E+02  0.51100000000E-03 0.  1.
         23    2    1    0    0    0 -0.20425069403E+02 -0.18583551172E+02 -0.12987473413E+02  0.94484326978E+02  0.89420812704E+02 0.  0.
         11    1    3    3    0    0 -0.49892675388E+01  0.36171706616E+02 -0.79718975967E+01  0.37374273260E+02  0.51100000000E-03 0. -1.
         22    1    1    0    0    0  0.20425069403E+02  0.18583551172E+02  0.12987473413E+02  0.30515673022E+02  0.00000000000E+00 0.  1.
</event>
<event>
 5    1  0.8957809E-005  0.9118800E+02  0.7818608E-02  0.1130116E+00
         25   -1    0    0    0    0  0.00000000000E+00  0.00000000000E+00  0.99999998245E-14  0.12500000000E+03  0.12500000000E+03 0.  0.
        -11    1    3    3    0    0  0.31028172756E+01  0.32051715346E+02 -0.26775973922E+02  0.41879502282E+02  0.51100000000E-03 0.  1.
         23    2    1    0    0    0  0.27313631929E+02 -0.82697854580E+01  0.89560535356E+00  0.96447838092E+02  0.92124695511E+02 0.  0.
         11    1    3    3    0    0  0.24210814653E+02 -0.40321500804E+02  0.27671579276E+02  0.54568335810E+02  0.51100000000E-03 0. -1.
         22    1    1    0    0    0 -0.27313631929E+02  0.82697854580E+01 -0.89560535356E+00  0.28552161908E+02  0.00000000000E+00 0.  1.
</event>
<event>
 5    1  0.8957809E-005  0.9118800E+02  0.7818608E-02  0.1130116E+00
         25   -1    0    0    0    0  0.00000000000E+00  0.00000000000E+00  0.99999998245E-14  0.12500000000E+03  0.12500000000E+03 0.  0.
        -11    1    3    3    0    0  0.16945255784E+02  0.69211781428E+01 -0.53898734855E+02  0.56922034571E+02  0.51100000000E-03 0. -1.
         23    2    1    0    0    0 -0.10275161083E+02  0.81729650039E+01 -0.25730248142E+02  0.96113637099E+02  0.91670111130E+02 0.  0.
         11    1    3    3    0    0 -0.27220416867E+02  0.12517868611E+01  0.28168486713E+02  0.39191602528E+02  0.51100000000E-03 0.  1.
         22    1    1    0    0    0  0.10275161083E+02 -0.81729650039E+01  0.25730248142E+02  0.28886362901E+02  0.00000000000E+00 0. -1.
</event>
<event>
 5    1  0.8957809E-005  0.9118800E+02  0.7818608E-02  0.1130116E+00
         25   -1    0    0    0    0  0.00000000000E+00  0.00000000000E+00  0.99999998245E-14  0.12500000000E+03  0.12500000000E+03 0.  0.
        -11    1    3    3    0    0  0.48634268781E+02 -0.35235892127E+01  0.51496243599E+01  0.49032911520E+02  0.51100000000E-03 0. -1.
         23    2    1    0    0    0  0.15879027375E+02  0.25995065196E+02 -0.46047663113E+01  0.94192682725E+02  0.89012194003E+02 0.  0.
         11    1    3    3    0    0 -0.32755241406E+02  0.29518654409E+02 -0.97543906712E+01  0.45159771205E+02  0.51100000000E-03 0.  1.
         22    1    1    0    0    0 -0.15879027375E+02 -0.25995065196E+02  0.46047663113E+01  0.30807317275E+02  0.00000000000E+00 0. -1.
</event>
<event>
 5    1  0.8957809E-005  0.9118800E+02  0.7818608E-02  0.1130116E+00
         25   -1    0    0    0    0  0.00000000000E+00  0.00000000000E+00  0.99999998245E-14  0.12500000000E+03  0.12500000000E+03 0.  0.
        -11    1    3    3    0    0  0.30847525415E+02  0.21390255846E+02  0.49827917898E+01  0.37867414536E+02  0.51100000000E-03 0. -1.
         23    2    1    0    0    0 -0.96811603090E+01 -0.11722965029E+02 -0.23164001812E+02  0.97292171612E+02  0.93263298800E+02 0.  0.
         11    1    3    3    0    0 -0.40528685724E+02 -0.33113220875E+02 -0.28146793602E+02  0.59424757076E+02  0.51100000000E-03 0.  1.
         22    1    1    0    0    0  0.96811603090E+01  0.11722965029E+02  0.23164001812E+02  0.27707828388E+02  0.00000000000E+00 0.  1.
</event>
<event>
 5    1  0.8957809E-005  0.9118800E+02  0.7818608E-02  0.1130116E+00
         25   -1    0    0    0    0  0.00000000000E+00  0.00000000000E+00  0.99999998245E-14  0.12500000000E+03  0.12500000000E+03 0.  0.
        -11    1    3    3    0    0  0.15403108657E+02 -0.26733948286E+02  0.12395812528E+02  0.33250803235E+02  0.51100000000E-03 0.  1.
         23    2    1    0    0    0 -0.21478047035E+02  0.20221029218E+02 -0.41547795489E+01  0.95209754614E+02  0.90429191379E+02 0.  0.
         11    1    3    3    0    0 -0.36881155692E+02  0.46954977505E+02 -0.16550592077E+02  0.61958951379E+02  0.51100000000E-03 0. -1.
         22    1    1    0    0    0  0.21478047035E+02 -0.20221029218E+02  0.41547795489E+01  0.29790245386E+02  0.00000000000E+00 0. -1.
</event>
<event>
 5    1  0.8957809E-005  0.9118800E+02  0.7818608E-02  0.1130116E+00
         25   -1    0    0    0    0  0.00000000000E+00  0.00000000000E+00  0.99999998245E-14  0.12500000000E+03  0.12500000000E+03 0.  0.
        -11    1    3    3    0    0  0.24870460235E+02  0.29902802637E+02 -0.58732093118E+01  0.39334615617E+02  0.51100000000E-03 0.  1.
         23    2    1    0    0    0 -0.18507575785E+02  0.53801831817E+01  0.21449148618E+02  0.96163517744E+02  0.91738102422E+02 0.  0.
         11    1    3    3    0    0 -0.43378036020E+02 -0.24522619455E+02  0.27322357929E+02  0.56828902127E+02  0.51100000000E-03 0. -1.
         22    1    1    0    0    0  0.18507575785E+02 -0.53801831817E+01 -0.21449148618E+02  0.28836482256E+02  0.00000000000E+00 0. -1.
</event>
<event>
 5    1  0.8957809E-005  0.9118800E+02  0.7818608E-02  0.1130116E+00
         25   -1    0    0    0    0  0.00000000000E+00  0.00000000000E+00  0.99999998245E-14  0.12500000000E+03  0.12500000000E+03 0.  0.
        -11    1    3    3    0    0  0.53349578583E+01 -0.51452018959E+02  0.30328827679E+02  0.59963403997E+02  0.51100000000E-03 0.  1.
         23    2    1    0    0    0  0.77931549381E+01 -0.16448130105E+02  0.22754525096E+02  0.95861663394E+02  0.91325877212E+02 0.  0.
         11    1    3    3    0    0  0.24581970798E+01  0.35003888855E+02 -0.75743025833E+01  0.35898259397E+02  0.51100000000E-03 0. -1.
         22    1    1    0    0    0 -0.77931549381E+01  0.16448130105E+02 -0.22754525096E+02  0.29138336606E+02  0.00000000000E+00 0.  1.
</event>
<event>
 5    1  0.8957809E-005  0.9118800E+02  0.7818608E-02  0.1130116E+00
         25   -1    0    0    0    0  0.00000000000E+00  0.00000000000E+00  0.99999998245E-14  0.12500000000E+03  0.12500000000E+03 0.  0.
        -11    1    3    3    0    0 -0.88159633729E+01  0.53929230703E+02 -0.11152395557E+01  0.54656444213E+02  0.51100000000E-03 0.  1.
         23    2    1    0    0    0 -0.20437870610E+02  0.16705136431E+02  0.12277152582E+02  0.95888204903E+02  0.91362198012E+02 0.  0.
         11    1    3    3    0    0 -0.11621907237E+02 -0.37224094272E+02  0.13392392138E+02  0.41231760690E+02  0.51100000000E-03 0. -1.
         22    1    1    0    0    0  0.20437870610E+02 -0.16705136431E+02 -0.12277152582E+02  0.29111795097E+02  0.00000000000E+00 0.  1.
</event>
<event>
 5    1  0.8957809E-005  0.9118800E+02  0.7818608E-02  0.1130116E+00
         25   -1    0    0    0    0  0.00000000000E+00  0.00000000000E+00  0.99999998245E-14  0.12500000000E+03  0.12500000000E+03 0.  0.
        -11    1    3    3    0    0 -0.76368445627E+01 -0.18836724613E+02  0.32165207205E+02  0.38049233156E+02  0.51100000000E-03 0. -1.
         23    2    1    0    0    0 -0.60128884898E+01 -0.12649747648E+02 -0.25413669563E+02  0.95982323591E+02  0.91490878768E+02 0.  0.
         11    1    3    3    0    0  0.16239560729E+01  0.61869769648E+01 -0.57578876767E+02  0.57933090435E+02  0.51100000000E-03 0.  1.
         22    1    1    0    0    0  0.60128884898E+01  0.12649747648E+02  0.25413669563E+02  0.29017676409E+02  0.00000000000E+00 0.  1.
</event>
<event>
 5    1  0.8957809E-005  0.9118800E+02  0.7818608E-02  0.1130116E+00
         25   -1    0    0    0    0  0.00000000000E+00  0.00000000000E+00  0.99999998245E-14  0.12500000000E+03  0.12500000000E+03 0.  0.
        -11    1    3    3    0    0  0.29094601664E+02 -0.25862972462E+01 -0.11749061374E+02  0.31483729494E+02  0.51100000000E-03 0. -1.
         23    2    1    0    0    0 -0.29083564449E+02  0.10610834977E+02  0.54399664101E+01  0.93566947738E+02  0.88129092441E+02 0.  0.
         11    1    3    3    0    0 -0.58178166113E+02  0.13197132223E+02  0.17189027784E+02  0.62083218244E+02  0.51100000000E-03 0.  1.
         22    1    1    0    0    0  0.29083564449E+02 -0.10610834977E+02 -0.54399664101E+01  0.31433052262E+02  0.00000000000E+00 0.  1.
</event>
<event>
 5    1  0.8957809E-005  0.9118800E+02  0.7818608E-02  0.1130116E+00
         25   -1    0    0    0    0  0.00000000000E+00  0.00000000000E+00  0.99999998245E-14  0.12500000000E+03  0.12500000000E+03 0.  0.
        -11    1    3    3    0    0  0.21500774238E+02  0.38264685047E+02 -0.61307385903E+00  0.43895845754E+02  0.51100000000E-03 0. -1.
         23    2    1    0    0    0 -0.52825017621E+01  0.59969391068E+00  0.26831327172E+02  0.97647037172E+02  0.93737715424E+02 0.  0.
         11    1    3    3    0    0 -0.26783276000E+02 -0.37664991137E+02  0.27444401031E+02  0.53751191418E+02  0.51100000000E-03 0.  1.
         22    1    1    0    0    0  0.52825017621E+01 -0.59969391068E+00 -0.26831327172E+02  0.27352962828E+02  0.00000000000E+00 0.  1.
</event>
<event>
 5    1  0.8957809E-005  0.9118800E+02  0.7818608E-02  0.1130116E+00
         25   -1    0    0    0    0  0.00000000000E+00  0.00000000000E+00  0.99999998245E-14  0.12500000000E+03  0.12500000000E+03 0.  0.
        -11    1    3    3    0    0  0.57237716188E+01  0.28944711312E+02 -0.26329849340E+02  0.39545149400E+02  0.51100000000E-03 0. -1.
         23    2    1    0    0    0  0.27043858160E+02 -0.32960201973E+01  0.13108493459E+02  0.94766465406E+02  0.89814343795E+02 0.  0.
         11    1    3    3    0    0  0.21320086541E+02 -0.32240731510E+02  0.39438342799E+02  0.55221316006E+02  0.51100000000E-03 0.  1.
         22    1    1    0    0    0 -0.27043858160E+02  0.32960201973E+01 -0.13108493459E+02  0.30233534594E+02  0.00000000000E+00 0.  1.
</event>
<event>
 5    1  0.8957809E-005  0.9118800E+02  0.7818608E-02  0.1130116E+00
         25   -1    0    0    0    0  0.00000000000E+00  0.00000000000E+00  0.99999998245E-14  0.12500000000E+03  0.12500000000E+03 0.  0.
        -11    1    3    3    0    0 -0.41308871992E+00 -0.55121731397E+02  0.20104249934E+02  0.58675009844E+02  0.51100000000E-03 0. -1.
         23    2    1    0    0    0 -0.14831898072E+02 -0.24567195219E+02  0.42716810858E+01  0.95986562757E+02  0.91496670373E+02 0.  0.
         11    1    3    3    0    0 -0.14418809352E+02  0.30554536179E+02 -0.15832568848E+02  0.37311552913E+02  0.51100000000E-03 0.  1.
         22    1    1    0    0    0  0.14831898072E+02  0.24567195219E+02 -0.42716810858E+01  0.29013437243E+02  0.00000000000E+00 0. -1.
</event>
<event>
 5    1  0.8957809E-005  0.9118800E+02  0.7818608E-02  0.1130116E+00
         25   -1    0    0    0    0  0.00000000000E+00  0.00000000000E+00  0.99999998245E-14  0.12500000000E+03  0.12500000000E+03 0.  0.
        -11    1    3    3    0    0 -0.18682783679E+02 -0.12601212637E+01 -0.47617516299E+02  0.51167002749E+02  0.51100000000E-03 0.  1.
         23    2    1    0    0    0 -0.38240789736E+01 -0.25876141438E+02 -0.14252604353E+02  0.95211831097E+02  0.90432061650E+02 0.  0.
         11    1    3    3    0    0  0.14858704706E+02 -0.24616020175E+02  0.33364911946E+02  0.44044828348E+02  0.51100000000E-03 0. -1.
         22    1    1    0    0    0  0.38240789736E+01  0.25876141438E+02  0.14252604353E+02  0.29788168903E+02  0.00000000000E+00 0.  1.
</event>
<event>
 5    1  0.8957809E-005  0.9118800E+02  0.7818608E-02  0.1130116E+00
         25   -1    0    0    0    0  0.00000000000E+00  0.00000000000E+00  0.99999998245E-14  0.12500000000E+03  0.12500000000E+03 0.  0.
        -11    1    3    3    0    0 -0.26999120264E+01 -0.19107504826E+02  0.27704525845E+02  0.33762805248E+02  0.51100000000E-03 0. -1.
         23    2    1    0    0    0  0.20456967258E+02  0.24753415653E+02 -0.40158399805E+01  0.92637273498E+02  0.86800451465E+02 0.  0.
         11    1    3    3    0    0  0.23156879284E+02  0.43860920479E+02 -0.31720365826E+02  0.58874468251E+02  0.51100000000E-03 0.  1.
         22    1    1    0    0    0 -0.20456967258E+02 -0.24753415653E+02  0.40158399805E+01  0.32362726502E+02  0.00000000000E+00 0.  1.
</event>
<event>
 5    1  0.8957809E-005  0.9118800E+02  0.7818608E-02  0.1130116E+00
         25   -1    0    0    0    0  0.00000000000E+00  0.00000000000E+00  0.99999998245E-14  0.12500000000E+03  0.12500000000E+03 0.  0.
        -11    1    3    3    0    0  0.21783641165E+02  0.13535642402E+02 -0.30874480649E+02  0.40136942998E+02  0.51100000000E-03 0.  1.
         23    2    1    0    0    0  0.41048930483E+02 -0.63335209352E+01  0.23751675897E+01  0.83397480818E+02  0.72279804956E+02 0.  0.
         11    1    3    3    0    0  0.19265289318E+02 -0.19869163337E+02  0.33249648239E+02  0.43260537820E+02  0.51100000000E-03 0. -1.
         22    1    1    0    0    0 -0.41048930483E+02  0.63335209352E+01 -0.23751675897E+01  0.41602519182E+02  0.00000000000E+00 0.  1.
</event>
<event>
 5    1  0.8957809E-005  0.9118800E+02  0.7818608E-02  0.1130116E+00
         25   -1    0    0    0    0  0.00000000000E+00  0.00000000000E+00  0.99999998245E-14  0.12500000000E+03  0.12500000000E+03 0.  0.
        -11    1    3    3    0    0 -0.41941058043E+02 -0.19880786527E+02 -0.11738985834E+02  0.47875900110E+02  0.51100000000E-03 0.  1.
         23    2    1    0    0    0 -0.30130270554E+02  0.16123373180E+02 -0.18149672236E+02  0.86306241219E+02  0.77146356393E+02 0.  0.
         11    1    3    3    0    0  0.11810787489E+02  0.36004159707E+02 -0.64106864020E+01  0.38430341108E+02  0.51100000000E-03 0. -1.
         22    1    1    0    0    0  0.30130270554E+02 -0.16123373180E+02  0.18149672236E+02  0.38693758781E+02  0.00000000000E+00 0. -1.
</event>
<event>
 5    1  0.8957809E-005  0.9118800E+02  0.7818608E-02  0.1130116E+00
         25   -1    0    0    0    0  0.00000000000E+00  0.00000000000E+00  0.99999998245E-14  0.12500000000E+03  0.12500000000E+03 0.  0.
        -11    1    3    3    0    0  0.11301943829E+02  0.73005013458E+01 -0.30710697045E+02  0.33528766268E+02  0.51100000000E-03 0.  1.
         23    2    1    0    0    0 -0.10591482750E+02 -0.22768554563E+02  0.17479621783E+02  0.94403860351E+02  0.89308258788E+02 0.  0.
         11    1    3    3    0    0 -0.21893426578E+02 -0.30069055909E+02  0.48190318828E+02  0.60875094083E+02  0.51100000000E-03 0. -1.
         22    1    1    0    0    0  0.10591482750E+02  0.22768554563E+02 -0.17479621783E+02  0.30596139649E+02  0.00000000000E+00 0. -1.
</event>
<event>
 5    1  0.8957809E-005  0.9118800E+02  0.7818608E-02  0.1130116E+00
         25   -1    0    0    0    0  0.00000000000E+00  0.00000000000E+00  0.99999998245E-14  0.12500000000E+03  0.12500000000E+03 0.  0.
        -11    1    3    3    0    0 -0.18954752128E+02  0.46941900048E+02  0.23739621713E+02  0.55914168577E+02  0.51100000000E-03 0.  1.
         23    2    1    0    0    0  0.11089861168E+02  0.25814586507E+02  0.88976149871E+01  0.95528904844E+02  0.90869280898E+02 0.  0.
         11    1    3    3    0    0  0.30044613296E+02 -0.21127313541E+02 -0.14842006726E+02  0.39614736267E+02  0.51100000000E-03 0. -1.
         22    1    1    0    0    0 -0.11089861168E+02 -0.25814586507E+02 -0.88976149871E+01  0.29471095156E+02  0.00000000000E+00 0.  1.
</event>
<event>
 5    1  0.8957809E-005  0.9118800E+02  0.7818608E-02  0.1130116E+00
         25   -1    0    0    0    0  0.00000000000E+00  0.00000000000E+00  0.99999998245E-14  0.12500000000E+03  0.12500000000E+03 0.  0.
        -11    1    3    3    0    0  0.45389044980E+02 -0.16761140365E+02  0.27191596845E+02  0.55502109597E+02  0.51100000000E-03 0. -1.
         23    2    1    0    0    0  0.60756621329E+01 -0.18896426617E+02  0.22251121464E+02  0.95182203038E+02  0.90391098895E+02 0.  0.
         11    1    3    3    0    0 -0.39313382847E+02 -0.21352862522E+01 -0.49404753803E+01  0.39680093441E+02  0.51100000000E-03 0.  1.
         22    1    1    0    0    0 -0.60756621329E+01  0.18896426617E+02 -0.22251121464E+02  0.29817796962E+02  0.00000000000E+00 0. -1.
</event>
<event>
 5    1  0.8957809E-005  0.9118800E+02  0.7818608E-02  0.1130116E+00
         25   -1    0    0    0    0  0.00000000000E+00  0.00000000000E+00  0.99999998245E-14  0.12500000000E+03  0.12500000000E+03 0.  0.
        -11    1    3    3    0    0 -0.20913638809E+02  0.56349896745E+01 -0.39919668331E+02  0.45417103792E+02  0.51100000000E-03 0. -1.
         23    2    1    0    0    0 -0.20710056244E+02 -0.22326000896E+02  0.47306816887E+00  0.94543793094E+02  0.89503900884E+02 0.  0.
         11    1    3    3    0    0  0.20358256564E+00 -0.27960990571E+02  0.40392736500E+02  0.49126689302E+02  0.51100000000E-03 0.  1.
         22    1    1    0    0    0  0.20710056244E+02  0.22326000896E+02 -0.47306816887E+00  0.30456206906E+02  0.00000000000E+00 0.  1.
</event>
<event>
 5    1  0.8957809E-005  0.9118800E+02  0.7818608E-02  0.1130116E+00
         25   -1    0    0    0    0  0.00000000000E+00  0.00000000000E+00  0.99999998245E-14  0.12500000000E+03  0.12500000000E+03 0.  0.
        -11    1    3    3    0    0  0.10958641331E+02 -0.44698883851E+02  0.25831984716E+01  0.46095064290E+02  0.51100000000E-03 0.  1.
         23    2    1    0    0    0  0.19741988142E+02  0.69440025845E+01  0.14145170939E+02  0.99740326040E+02  0.96488763646E+02 0.  0.
         11    1    3    3    0    0  0.87833468115E+01  0.51642886435E+02  0.11561972467E+02  0.53645261749E+02  0.51100000000E-03 0. -1.
         22    1    1    0    0    0 -0.19741988142E+02 -0.69440025845E+01 -0.14145170939E+02  0.25259673960E+02  0.00000000000E+00 0. -1.
</event>
<event>
 5    1  0.8957809E-005  0.9118800E+02  0.7818608E-02  0.1130116E+00
         25   -1    0    0    0    0  0.00000000000E+00  0.00000000000E+00  0.99999998245E-14  0.12500000000E+03  0.12500000000E+03 0.  0.
        -11    1    3    3    0    0  0.30510461971E+02  0.97120514386E+01  0.15801329376E+02  0.35705661219E+02  0.51100000000E-03 0. -1.
         23    2    1    0    0    0 -0.24372511198E+02 -0.13591971418E+02  0.87898296365E+01  0.95742144744E+02  0.91162142285E+02 0.  0.
         11    1    3    3    0    0 -0.54882973169E+02 -0.23304022857E+02 -0.70114997391E+01  0.60036483525E+02  0.51100000000E-03 0.  1.
         22    1    1    0    0    0  0.24372511198E+02  0.13591971418E+02 -0.87898296365E+01  0.29257855256E+02  0.00000000000E+00 0.  1.
</event>
<event>
 5    1  0.8957809E-005  0.9118800E+02  0.7818608E-02  0.1130116E+00
         25   -1    0    0    0    0  0.00000000000E+00  0.00000000000E+00  0.99999998245E-14  0.12500000000E+03  0.12500000000E+03 0.  0.
        -11    1    3    3    0    0  0.90921670970E+01 -0.91471871861E+01 -0.36844897101E+02  0.39036969383E+02  0.51100000000E-03 0. -1.
         23    2    1    0    0    0  0.35727059988E+01 -0.24823919329E+02  0.16545427015E+02  0.94954328862E+02  0.90075425147E+02 0.  0.
         11    1    3    3    0    0 -0.55194610982E+01 -0.15676732143E+02  0.53390324117E+02  0.55917359479E+02  0.51100000000E-03 0.  1.
         22    1    1    0    0    0 -0.35727059988E+01  0.24823919329E+02 -0.16545427015E+02  0.30045671138E+02  0.00000000000E+00 0.  1.
</event>
<event>
 5    1  0.8957809E-005  0.9118800E+02  0.7818608E-02  0.1130116E+00
         25   -1    0    0    0    0  0.00000000000E+00  0.00000000000E+00  0.99999998245E-14  0.12500000000E+03  0.12500000000E+03 0.  0.
        -11    1    3    3    0    0 -0.11171179468E+02  0.30733098664E+02  0.53243040154E+01  0.33131055185E+02  0.51100000000E-03 0. -1.
         23    2    1    0    0    0  0.16142799349E+02 -0.23085193727E+02 -0.94891768790E+01  0.95275252430E+02  0.90519683537E+02 0.  0.
         11    1    3    3    0    0  0.27313978817E+02 -0.53818292391E+02 -0.14813480894E+02  0.62144197245E+02  0.51100000000E-03 0.  1.
         22    1    1    0    0    0 -0.16142799349E+02  0.23085193727E+02  0.94891768790E+01  0.29724747570E+02  0.00000000000E+00 0.  1.
</event>
<event>
 5    1  0.8957809E-005  0.9118800E+02  0.7818608E-02  0.1130116E+00
         25   -1    0    0    0    0  0.00000000000E+00  0.00000000000E+00  0.99999998245E-14  0.12500000000E+03  0.12500000000E+03 0.  0.
        -11    1    3    3    0    0 -0.20339089589E+02 -0.36841749286E+01 -0.37850407800E+02  0.43126616852E+02  0.51100000000E-03 0. -1.
         23    2    1    0    0    0  0.24160280969E+02  0.86388308311E+01 -0.79426576639E+01  0.98140469375E+02  0.94393417905E+02 0.  0.
         11    1    3    3    0    0  0.44499370558E+02  0.12323005760E+02  0.29907750136E+02  0.55013852523E+02  0.51100000000E-03 0.  1.
         22    1    1    0    0    0 -0.24160280969E+02 -0.86388308311E+01  0.79426576639E+01  0.26859530625E+02  0.00000000000E+00 0. -1.
</event>
<event>
 5    1  0.8957809E-005  0.9118800E+02  0.7818608E-02  0.1130116E+00
         25   -1    0    0    0    0  0.00000000000E+00  0.00000000000E+00  0.99999998245E-14  0.12500000000E+03  0.12500000000E+03 0.  0.
        -11    1    3    3    0    0 -0.20028336705E+02 -0.35958708629E+02 -0.12920905250E+02  0.43140616479E+02  0.51100000000E-03 0.  1.
         23    2    1    0    0    0  0.67293891179E+01  0.68592209477E+01 -0.27643204475E+02  0.95734314573E+02  0.91151405053E+02 0.  0.
         11    1    3    3    0    0  0.26757725823E+02  0.42817929577E+02 -0.14722299224E+02  0.52593698094E+02  0.51100000000E-03 0. -1.
         22    1    1    0    0    0 -0.67293891179E+01 -0.68592209477E+01  0.27643204475E+02  0.29265685427E+02  0.00000000000E+00 0. -1.
</event>
<event>
 5    1  0.8957809E-005  0.9118800E+02  0.7818608E-02  0.1130116E+00
         25   -1    0    0    0    0  0.00000000000E+00  0.00000000000E+00  0.99999998245E-14  0.12500000000E+03  0.12500000000E+03 0.  0.
        -11    1    3    3    0    0  0.51593840560E+01 -0.28156422202E+02 -0.34634697863E+02  0.44932901657E+02  0.51100000000E-03 0. -1.
         23    2    1    0    0    0 -0.20966981781E+02 -0.15944256292E+02  0.89370807763E+01  0.97184445960E+02  0.93118803096E+02 0.  0.
         11    1    3    3    0    0 -0.26126365837E+02  0.12212165909E+02  0.43571778639E+02  0.52251544303E+02  0.51100000000E-03 0.  1.
         22    1    1    0    0    0  0.20966981781E+02  0.15944256292E+02 -0.89370807763E+01  0.27815554040E+02  0.00000000000E+00 0.  1.
</event>
<event>
 5    1  0.8957809E-005  0.9118800E+02  0.7818608E-02  0.1130116E+00
         25   -1    0    0    0    0  0.00000000000E+00  0.00000000000E+00  0.99999998245E-14  0.12500000000E+03  0.12500000000E+03 0.  0.
        -11    1    3    3    0    0  0.10685569713E+02  0.80821615341E+01  0.34819874586E+02  0.37308529877E+02  0.51100000000E-03 0. -1.
         23    2    1    0    0    0  0.17479418266E+02 -0.73385689912E+01 -0.21640724522E+02  0.96230126598E+02  0.91828817097E+02 0.  0.
         11    1    3    3    0    0  0.67938485529E+01 -0.15420730525E+02 -0.56460599109E+02  0.58921596720E+02  0.51100000000E-03 0.  1.
         22    1    1    0    0    0 -0.17479418266E+02  0.73385689912E+01  0.21640724522E+02  0.28769873402E+02  0.00000000000E+00 0.  1.
</event>
<event>
 5    1  0.8957809E-005  0.9118800E+02  0.7818608E-02  0.1130116E+00
         25   -1    0    0    0    0  0.00000000000E+00  0.00000000000E+00  0.99999998245E-14  0.12500000000E+03  0.12500000000E+03 0.  0.
        -11    1    3    3    0    0  0.40027028178E+02 -0.27824054005E+01  0.18465674736E+02  0.44168834129E+02  0.51100000000E-03 0.  1.
         23    2    1    0    0    0 -0.10500754733E+01 -0.22045489148E+02 -0.13003267737E+02  0.99383770338E+02  0.96025739177E+02 0.  0.
         11    1    3    3    0    0 -0.41077103652E+02 -0.19263083747E+02 -0.31468942473E+02  0.55214936209E+02  0.51100000000E-03 0. -1.
         22    1    1    0    0    0  0.10500754733E+01  0.22045489148E+02  0.13003267737E+02  0.25616229662E+02  0.00000000000E+00 0. -1.
</event>
<event>
 5    1  0.8957809E-005  0.9118800E+02  0.7818608E-02  0.1130116E+00
         25   -1    0    0    0    0  0.00000000000E+00  0.00000000000E+00  0.99999998245E-14  0.12500000000E+03  0.12500000000E+03 0.  0.
        -11    1    3    3    0    0 -0.23552478973E+02  0.14962055968E+02  0.15819809365E+00  0.27903537615E+02  0.51100000000E-03 0. -1.
         23    2    1    0    0    0  0.33335373279E+01 -0.31358906059E+02 -0.22708549412E+02  0.86139072621E+02  0.76875016457E+02 0.  0.
         11    1    3    3    0    0  0.26886016301E+02 -0.46320962027E+02 -0.22866747506E+02  0.58235535006E+02  0.51100000000E-03 0.  1.
         22    1    1    0    0    0 -0.33335373279E+01  0.31358906059E+02  0.22708549412E+02  0.38860927379E+02  0.00000000000E+00 0.  1.
</event>
<event>
 5    1  0.8957809E-005  0.9118800E+02  0.7818608E-02  0.1130116E+00
         25   -1    0    0    0    0  0.00000000000E+00  0.00000000000E+00  0.99999998245E-14  0.12500000000E+03  0.12500000000E+03 0.  0.
        -11    1    3    3    0    0 -0.62617675619E+01  0.25297979541E+02  0.19574434727E+02  0.32593803046E+02  0.51100000000E-03 0. -1.
         23    2    1    0    0    0  0.39423217514E+00 -0.28856650321E+02 -0.97515626709E+01  0.94537651744E+02  0.89495323543E+02 0.  0.
         11    1    3    3    0    0  0.66559997370E+01 -0.54154629861E+02 -0.29325997398E+02  0.61943848698E+02  0.51100000000E-03 0.  1.
         22    1    1    0    0    0 -0.39423217514E+00  0.28856650321E+02  0.97515626709E+01  0.30462348256E+02  0.00000000000E+00 0.  1.
</event>
<event>
 5    1  0.8957809E-005  0.9118800E+02  0.7818608E-02  0.1130116E+00
         25   -1    0    0    0    0  0.00000000000E+00  0.00000000000E+00  0.99999998245E-14  0.12500000000E+03  0.12500000000E+03 0.  0.
        -11    1    3    3    0    0  0.17393466933E+02 -0.14491494792E+02  0.41719489065E+02  0.47466323655E+02  0.51100000000E-03 0. -1.
         23    2    1    0    0    0  0.85203862130E+01  0.24070364599E+02  0.13094051351E+02  0.96304467003E+02  0.91929955677E+02 0.  0.
         11    1    3    3    0    0 -0.88730807198E+01  0.38561859391E+02 -0.28625437713E+02  0.48838143348E+02  0.51100000000E-03 0.  1.
         22    1    1    0    0    0 -0.85203862130E+01 -0.24070364599E+02 -0.13094051351E+02  0.28695532997E+02  0.00000000000E+00 0. -1.
</event>
<event>
 5    1  0.8957809E-005  0.9118800E+02  0.7818608E-02  0.1130116E+00
         25   -1    0    0    0    0  0.00000000000E+00  0.00000000000E+00  0.99999998245E-14  0.12500000000E+03  0.12500000000E+03 0.  0.
        -11    1    3    3    0    0  0.34719803346E+01  0.53490793333E+02  0.19273286402E+02  0.56962963299E+02  0.51100000000E-03 0.  1.
         23    2    1    0    0    0 -0.16371940206E+02  0.23827164183E+02  0.38769894831E+01  0.95831434273E+02  0.91284492485E+02 0.  0.
         11    1    3    3    0    0 -0.19843920541E+02 -0.29663629150E+02 -0.15396296919E+02  0.38868470974E+02  0.51100000000E-03 0. -1.
         22    1    1    0    0    0  0.16371940206E+02 -0.23827164183E+02 -0.38769894831E+01  0.29168565727E+02  0.00000000000E+00 0.  1.
</event>
<event>
 5    1  0.8957809E-005  0.9118800E+02  0.7818608E-02  0.1130116E+00
         25   -1    0    0    0    0  0.00000000000E+00  0.00000000000E+00  0.99999998245E-14  0.12500000000E+03  0.12500000000E+03 0.  0.
        -11    1    3    3    0    0 -0.19919695400E+01 -0.59022892893E+02  0.71162129678E+00  0.59060784225E+02  0.51100000000E-03 0.  1.
         23    2    1    0    0    0  0.10960470254E+02 -0.26228586409E+02 -0.81718478138E+01  0.95422140884E+02  0.90722297264E+02 0.  0.
         11    1    3    3    0    0  0.12952439794E+02  0.32794306484E+02 -0.88834691106E+01  0.36361356659E+02  0.51100000000E-03 0. -1.
         22    1    1    0    0    0 -0.10960470254E+02  0.26228586409E+02  0.81718478138E+01  0.29577859116E+02  0.00000000000E+00 0.  1.
</event>
<event>
 5    1  0.8957809E-005  0.9118800E+02  0.7818608E-02  0.1130116E+00
         25   -1    0    0    0    0  0.00000000000E+00  0.00000000000E+00  0.99999998245E-14  0.12500000000E+03  0.12500000000E+03 0.  0.
        -11    1    3    3    0    0  0.32920116941E+01 -0.49836363069E+02  0.37416508270E+02  0.62405893282E+02  0.51100000000E-03 0. -1.
         23    2    1    0    0    0 -0.43432603676E+00 -0.24041130250E+02  0.16283548146E+02  0.95960052978E+02  0.91460446339E+02 0.  0.
         11    1    3    3    0    0 -0.37263377308E+01  0.25795232818E+02 -0.21132960124E+02  0.33554159696E+02  0.51100000000E-03 0.  1.
         22    1    1    0    0    0  0.43432603676E+00  0.24041130250E+02 -0.16283548146E+02  0.29039947022E+02  0.00000000000E+00 0. -1.
</event>
<event>
 5    1  0.8957809E-005  0.9118800E+02  0.7818608E-02  0.1130116E+00
         25   -1    0    0    0    0  0.00000000000E+00  0.00000000000E+00  0.99999998245E-14  0.12500000000E+03  0.12500000000E+03 0.  0.
        -11    1    3    3    0    0  0.25219977091E+02  0.30694044191E+02 -0.42264750107E+01  0.39950402808E+02  0.51100000000E-03 0.  1.
         23    2    1    0    0    0 -0.23958037285E+02  0.62526623932E+01  0.12371654334E+02  0.97320744799E+02  0.93301587338E+02 0.  0.
         11    1    3    3    0    0 -0.49178014376E+02 -0.24441381798E+02  0.16598129345E+02  0.57370341991E+02  0.51100000000E-03 0. -1.
         22    1    1    0    0    0  0.23958037285E+02 -0.62526623932E+01 -0.12371654334E+02  0.27679255201E+02  0.00000000000E+00 0. -1.
</event>
<event>
 5    1  0.8957809E-005  0.9118800E+02  0.7818608E-02  0.1130116E+00
         25   -1    0    0    0    0  0.00000000000E+00  0.00000000000E+00  0.99999998245E-14  0.12500000000E+03  0.12500000000E+03 0.  0.
        -11    1    3    3    0    0  0.18318750817E+02 -0.12861957396E+02 -0.26593160019E+02  0.34759210860E+02  0.51100000000E-03 0.  1.
         23    2    1    0    0    0 -0.24866234004E+02  0.11675842303E+01  0.14662592910E+02  0.96109093519E+02  0.91663915363E+02 0.  0.
         11    1    3    3    0    0 -0.43184984821E+02  0.14029541626E+02  0.41255752929E+02  0.61349882659E+02  0.51100000000E-03 0. -1.
         22    1    1    0    0    0  0.24866234004E+02 -0.11675842303E+01 -0.14662592910E+02  0.28890906481E+02  0.00000000000E+00 0. -1.
</event>
<event>
 5    1  0.8957809E-005  0.9118800E+02  0.7818608E-02  0.1130116E+00
         25   -1    0    0    0    0  0.00000000000E+00  0.00000000000E+00  0.99999998245E-14  0.12500000000E+03  0.12500000000E+03 0.  0.
        -11    1    3    3    0    0 -0.28345688869E+02 -0.53882882351E+00  0.30182510265E+02  0.41409568219E+02  0.51100000000E-03 0. -1.
         23    2    1    0    0    0 -0.90491718863E+01  0.27010225658E+02 -0.10895967353E+02  0.94501444190E+02  0.89444737395E+02 0.  0.
         11    1    3    3    0    0  0.19296516983E+02  0.27549054481E+02 -0.41078477618E+02  0.53091875971E+02  0.51100000000E-03 0.  1.
         22    1    1    0    0    0  0.90491718863E+01 -0.27010225658E+02  0.10895967353E+02  0.30498555810E+02  0.00000000000E+00 0.  1.
</event>
<event>
 5    1  0.8957809E-005  0.9118800E+02  0.7818608E-02  0.1130116E+00
         25   -1    0    0    0    0  0.00000000000E+00  0.00000000000E+00  0.99999998245E-14  0.12500000000E+03  0.12500000000E+03 0.  0.
        -11    1    3    3    0    0 -0.35226498468E+02 -0.14218799707E+02  0.33328525766E+02  0.50535839653E+02  0.51100000000E-03 0. -1.
         23    2    1    0    0    0 -0.28437805067E+02 -0.81724053849E+01 -0.91911866173E+01  0.94016538634E+02  0.88764489851E+02 0.  0.
         11    1    3    3    0    0  0.67886934014E+01  0.60463943223E+01 -0.42519712384E+02  0.43480698981E+02  0.51100000000E-03 0.  1.
         22    1    1    0    0    0  0.28437805067E+02  0.81724053849E+01  0.91911866173E+01  0.30983461366E+02  0.00000000000E+00 0. -1.
</event>
<event>
 5    1  0.8957809E-005  0.9118800E+02  0.7818608E-02  0.1130116E+00
         25   -1    0    0    0    0  0.00000000000E+00  0.00000000000E+00  0.99999998245E-14  0.12500000000E+03  0.12500000000E+03 0.  0.
        -11    1    3    3    0    0  0.22435817013E+02  0.27101998817E+02 -0.94983737862E+01  0.36443152028E+02  0.51100000000E-03 0. -1.
         23    2    1    0    0    0 -0.25735800033E+02 -0.14031287462E+01  0.12211429260E+02  0.96479495478E+02  0.92167640035E+02 0.  0.
         11    1    3    3    0    0 -0.48171617046E+02 -0.28505127563E+02  0.21709803046E+02  0.60036343450E+02  0.51100000000E-03 0.  1.
         22    1    1    0    0    0  0.25735800033E+02  0.14031287462E+01 -0.12211429260E+02  0.28520504522E+02  0.00000000000E+00 0.  1.
</event>
<event>
 5    1  0.8957809E-005  0.9118800E+02  0.7818608E-02  0.1130116E+00
         25   -1    0    0    0    0  0.00000000000E+00  0.00000000000E+00  0.99999998245E-14  0.12500000000E+03  0.12500000000E+03 0.  0.
        -11    1    3    3    0    0 -0.48415483002E+01  0.56234755707E+02  0.23550958671E+02  0.61159103933E+02  0.51100000000E-03 0. -1.
         23    2    1    0    0    0 -0.69543239274E+01  0.23223783312E+02  0.19219639919E+01  0.10068126898E+03  0.97700139438E+02 0.  0.
         11    1    3    3    0    0 -0.21127756272E+01 -0.33010972395E+02 -0.21628994679E+02  0.39522165052E+02  0.51100000000E-03 0.  1.
         22    1    1    0    0    0  0.69543239274E+01 -0.23223783312E+02 -0.19219639919E+01  0.24318731015E+02  0.00000000000E+00 0. -1.
</event>
<event>
 5    1  0.8957809E-005  0.9118800E+02  0.7818608E-02  0.1130116E+00
         25   -1    0    0    0    0  0.00000000000E+00  0.00000000000E+00  0.99999998245E-14  0.12500000000E+03  0.12500000000E+03 0.  0.
        -11    1    3    3    0    0  0.30270750912E+02 -0.30980509560E+02 -0.38961782722E+02  0.58259169634E+02  0.51100000000E-03 0. -1.
         23    2    1    0    0    0  0.75259425859E+01 -0.26943177405E+02 -0.10030132890E+02  0.95281686012E+02  0.90528567331E+02 0.  0.
         11    1    3    3    0    0 -0.22744808326E+02  0.40373321550E+01  0.28931649831E+02  0.37022516378E+02  0.51100000000E-03 0.  1.
         22    1    1    0    0    0 -0.75259425859E+01  0.26943177405E+02  0.10030132890E+02  0.29718313988E+02  0.00000000000E+00 0.  1.
</event>
<event>
 5    1  0.8957809E-005  0.9118800E+02  0.7818608E-02  0.1130116E+00
         25   -1    0    0    0    0  0.00000000000E+00  0.00000000000E+00  0.99999998245E-14  0.12500000000E+03  0.12500000000E+03 0.  0.
        -11    1    3    3    0    0  0.21709674586E+02  0.28837432770E+02 -0.37537712707E+02  0.52076745049E+02  0.51100000000E-03 0.  1.
         23    2    1    0    0    0 -0.96076289535E+01 -0.28755463226E+01 -0.24519161130E+02  0.98509160767E+02  0.94880399407E+02 0.  0.
         11    1    3    3    0    0 -0.31317303539E+02 -0.31712979093E+02  0.13018551577E+02  0.46432415717E+02  0.51100000000E-03 0. -1.
         22    1    1    0    0    0  0.96076289535E+01  0.28755463226E+01  0.24519161130E+02  0.26490839233E+02  0.00000000000E+00 0.  1.
</event>
<event>
 5    1  0.8957809E-005  0.9118800E+02  0.7818608E-02  0.1130116E+00
         25   -1    0    0    0    0  0.00000000000E+00  0.00000000000E+00  0.99999998245E-14  0.12500000000E+03  0.12500000000E+03 0.  0.
        -11    1    3    3    0    0 -0.57214921873E+02  0.11194097727E+02 -0.13668616690E+02  0.59880599457E+02  0.51100000000E-03 0. -1.
         23    2    1    0    0    0 -0.24542964255E+02 -0.45214394871E+01 -0.14484984793E+02  0.96144926029E+02  0.91712766326E+02 0.  0.
         11    1    3    3    0    0  0.32671957618E+02 -0.15715537215E+02 -0.81636810324E+00  0.36264326572E+02  0.51100000000E-03 0.  1.
         22    1    1    0    0    0  0.24542964255E+02  0.45214394871E+01  0.14484984793E+02  0.28855073971E+02  0.00000000000E+00 0. -1.
</event>
<event>
 5    1  0.8957809E-005  0.9118800E+02  0.7818608E-02  0.1130116E+00
         25   -1    0    0    0    0  0.00000000000E+00  0.00000000000E+00  0.99999998245E-14  0.12500000000E+03  0.12500000000E+03 0.  0.
        -11    1    3    3    0    0 -0.38751703259E+02  0.16051170423E+02  0.24095275248E+02  0.48372687200E+02  0.51100000000E-03 0.  1.
         23    2    1    0    0    0  0.25232803375E+01  0.28912780125E+02  0.53768546135E+01  0.95483456100E+02  0.90806739976E+02 0.  0.
         11    1    3    3    0    0  0.41274983597E+02  0.12861609703E+02 -0.18718420634E+02  0.47110768900E+02  0.51100000000E-03 0. -1.
         22    1    1    0    0    0 -0.25232803375E+01 -0.28912780125E+02 -0.53768546135E+01  0.29516543900E+02  0.00000000000E+00 0.  1.
</event>
<event>
 5    1  0.8957809E-005  0.9118800E+02  0.7818608E-02  0.1130116E+00
         25   -1    0    0    0    0  0.00000000000E+00  0.00000000000E+00  0.99999998245E-14  0.12500000000E+03  0.12500000000E+03 0.  0.
        -11    1    3    3    0    0 -0.14965874705E+01  0.33655691695E+02 -0.72632913866E+01  0.34463034682E+02  0.51100000000E-03 0.  1.
         23    2    1    0    0    0  0.25887640909E+02 -0.17993040854E+02  0.72245193304E+00  0.93465234933E+02  0.87984707383E+02 0.  0.
         11    1    3    3    0    0  0.27384228380E+02 -0.51648732548E+02  0.79857433197E+01  0.59002200251E+02  0.51100000000E-03 0. -1.
         22    1    1    0    0    0 -0.25887640909E+02  0.17993040854E+02 -0.72245193304E+00  0.31534765067E+02  0.00000000000E+00 0. -1.
</event>
<event>
 5    1  0.8957809E-005  0.9118800E+02  0.7818608E-02  0.1130116E+00
         25   -1    0    0    0    0  0.00000000000E+00  0.00000000000E+00  0.99999998245E-14  0.12500000000E+03  0.12500000000E+03 0.  0.
        -11    1    3    3    0    0 -0.23035529774E+02 -0.27841672601E+02  0.25936404537E+02  0.44480236575E+02  0.51100000000E-03 0. -1.
         23    2    1    0    0    0 -0.59971268423E+01 -0.17358636836E+02 -0.21951722239E+02  0.96378925380E+02  0.92031143343E+02 0.  0.
         11    1    3    3    0    0  0.17038402932E+02  0.10483035765E+02 -0.47888126776E+02  0.51898688805E+02  0.51100000000E-03 0.  1.
         22    1    1    0    0    0  0.59971268423E+01  0.17358636836E+02  0.21951722239E+02  0.28621074620E+02  0.00000000000E+00 0. -1.
</event>
<event>
 5    1  0.8957809E-005  0.9118800E+02  0.7818608E-02  0.1130116E+00
         25   -1    0    0    0    0  0.00000000000E+00  0.00000000000E+00  0.99999998245E-14  0.12500000000E+03  0.12500000000E+03 0.  0.
        -11    1    3    3    0    0 -0.16800990518E+02 -0.29838551335E+02 -0.17491666387E+01  0.34288073909E+02  0.51100000000E-03 0.  1.
         23    2    1    0    0    0  0.48167138858E+01  0.25105586029E+02 -0.15756424994E+02  0.94970745745E+02  0.90098204401E+02 0.  0.
         11    1    3    3    0    0  0.21617704404E+02  0.54944137364E+02 -0.14007258356E+02  0.60682671837E+02  0.51100000000E-03 0. -1.
         22    1    1    0    0    0 -0.48167138858E+01 -0.25105586029E+02  0.15756424994E+02  0.30029254255E+02  0.00000000000E+00 0. -1.
</event>
<event>
 5    1  0.8957809E-005  0.9118800E+02  0.7818608E-02  0.1130116E+00
         25   -1    0    0    0    0  0.00000000000E+00  0.00000000000E+00  0.99999998245E-14  0.12500000000E+03  0.12500000000E+03 0.  0.
        -11    1    3    3    0    0  0.28298548956E+02  0.65747869928E+01  0.37247955079E+02  0.47238182171E+02  0.51100000000E-03 0. -1.
         23    2    1    0    0    0 -0.62466866148E+01 -0.18809495013E+02  0.27330908217E+02  0.91239124119E+02  0.84763087661E+02 0.  0.
         11    1    3    3    0    0 -0.34545235571E+02 -0.25384282005E+02 -0.99170468623E+01  0.44000941948E+02  0.51100000000E-03 0.  1.
         22    1    1    0    0    0  0.62466866148E+01  0.18809495013E+02 -0.27330908217E+02  0.33760875881E+02  0.00000000000E+00 0.  1.
</event>
<event>
 5    1  0.8957809E-005  0.9118800E+02  0.7818608E-02  0.1130116E+00
         25   -1    0    0    0    0  0.00000000000E+00  0.00000000000E+00  0.99999998245E-14  0.12500000000E+03  0.12500000000E+03 0.  0.
        -11    1    3    3    0    0  0.39250362640E+02  0.28158935307E+02 -0.14508083795E+01  0.48328267610E+02  0.51100000000E-03 0.  1.
         23    2    1    0    0    0 -0.10579288908E+02  0.24334032355E+02  0.17592694432E+01  0.98407491404E+02  0.94746360621E+02 0.  0.
         11    1    3    3    0    0 -0.49829651547E+02 -0.38249029516E+01  0.32100778227E+01  0.50079223794E+02  0.51100000000E-03 0. -1.
         22    1    1    0    0    0  0.10579288908E+02 -0.24334032355E+02 -0.17592694432E+01  0.26592508596E+02  0.00000000000E+00 0.  1.
</event>
<event>
 5    1  0.8957809E-005  0.9118800E+02  0.7818608E-02  0.1130116E+00
         25   -1    0    0    0    0  0.00000000000E+00  0.00000000000E+00  0.99999998245E-14  0.12500000000E+03  0.12500000000E+03 0.  0.
        -11    1    3    3    0    0 -0.28058703755E+02  0.34764092287E+02  0.41755751913E+02  0.61150435706E+02  0.51100000000E-03 0. -1.
         23    2    1    0    0    0 -0.19836925156E+02  0.19220885994E+02  0.13934254866E+02  0.94062813368E+02  0.88829630991E+02 0.  0.
         11    1    3    3    0    0  0.82217785992E+01 -0.15543206294E+02 -0.27821497046E+02  0.32912377662E+02  0.51100000000E-03 0.  1.
         22    1    1    0    0    0  0.19836925156E+02 -0.19220885994E+02 -0.13934254866E+02  0.30937186632E+02  0.00000000000E+00 0. -1.
</event>
<event>
 5    1  0.8957809E-005  0.9118800E+02  0.7818608E-02  0.1130116E+00
         25   -1    0    0    0    0  0.00000000000E+00  0.00000000000E+00  0.99999998245E-14  0.12500000000E+03  0.12500000000E+03 0.  0.
        -11    1    3    3    0    0 -0.31438319012E+02 -0.32643462345E+02 -0.65968235129E+00  0.45325475367E+02  0.51100000000E-03 0. -1.
         23    2    1    0    0    0  0.13013055354E+02 -0.15413447537E+02 -0.19833617894E+02  0.96710666792E+02  0.92480628771E+02 0.  0.
         11    1    3    3    0    0  0.44451374366E+02  0.17230014807E+02 -0.19173935542E+02  0.51385191425E+02  0.51100000000E-03 0.  1.
         22    1    1    0    0    0 -0.13013055354E+02  0.15413447537E+02  0.19833617894E+02  0.28289333208E+02  0.00000000000E+00 0. -1.
</event>
<event>
 5    1  0.8957809E-005  0.9118800E+02  0.7818608E-02  0.1130116E+00
         25   -1    0    0    0    0  0.00000000000E+00  0.00000000000E+00  0.99999998245E-14  0.12500000000E+03  0.12500000000E+03 0.  0.
        -11    1    3    3    0    0 -0.16152707599E+02 -0.55029473379E+02  0.21656501261E+02  0.61303808611E+02  0.51100000000E-03 0.  1.
         23    2    1    0    0    0 -0.99516835122E+01 -0.27392746378E+02  0.19863659631E+01  0.95787944122E+02  0.91224920008E+02 0.  0.
         11    1    3    3    0    0  0.62010240867E+01  0.27636727001E+02 -0.19670135297E+02  0.34484135511E+02  0.51100000000E-03 0. -1.
         22    1    1    0    0    0  0.99516835122E+01  0.27392746378E+02 -0.19863659631E+01  0.29212055878E+02  0.00000000000E+00 0.  1.
</event>
<event>
 5    1  0.8957809E-005  0.9118800E+02  0.7818608E-02  0.1130116E+00
         25   -1    0    0    0    0  0.00000000000E+00  0.00000000000E+00  0.99999998245E-14  0.12500000000E+03  0.12500000000E+03 0.  0.
        -11    1    3    3    0    0  0.35668451554E+02 -0.21209782862E+02  0.10820149070E+01  0.41512216056E+02  0.51100000000E-03 0.  1.
         23    2    1    0    0    0 -0.94837977399E+01 -0.80604096564E+01 -0.26280482888E+02  0.95921203529E+02  0.91407334948E+02 0.  0.
         11    1    3    3    0    0 -0.45152249294E+02  0.13149373205E+02 -0.27362497795E+02  0.54408987473E+02  0.51100000000E-03 0. -1.
         22    1    1    0    0    0  0.94837977399E+01  0.80604096564E+01  0.26280482888E+02  0.29078796471E+02  0.00000000000E+00 0.  1.
</event>
<event>
 5    1  0.8957809E-005  0.9118800E+02  0.7818608E-02  0.1130116E+00
         25   -1    0    0    0    0  0.00000000000E+00  0.00000000000E+00  0.99999998245E-14  0.12500000000E+03  0.12500000000E+03 0.  0.
        -11    1    3    3    0    0 -0.10946853177E+02 -0.18973403983E+02 -0.23677859884E+02  0.32256235089E+02  0.51100000000E-03 0.  1.
         23    2    1    0    0    0  0.27628774337E+02  0.20209122600E+02 -0.13648416719E+02  0.88148445262E+02  0.80075659944E+02 0.  0.
         11    1    3    3    0    0  0.38575627514E+02  0.39182526583E+02  0.10029443165E+02  0.55892210173E+02  0.51100000000E-03 0. -1.
         22    1    1    0    0    0 -0.27628774337E+02 -0.20209122600E+02  0.13648416719E+02  0.36851554738E+02  0.00000000000E+00 0. -1.
</event>
<event>
 5    1  0.8957809E-005  0.9118800E+02  0.7818608E-02  0.1130116E+00
         25   -1    0    0    0    0  0.00000000000E+00  0.00000000000E+00  0.99999998245E-14  0.12500000000E+03  0.12500000000E+03 0.  0.
        -11    1    3    3    0    0 -0.47716982783E+01  0.13049627484E+02  0.35995243444E+02  0.38583927130E+02  0.51100000000E-03 0. -1.
         23    2    1    0    0    0  0.20436130205E+02 -0.16270126108E+02 -0.84978239493E+01  0.97530645563E+02  0.93582377565E+02 0.  0.
         11    1    3    3    0    0  0.25207828483E+02 -0.29319753593E+02 -0.44493067394E+02  0.58946718432E+02  0.51100000000E-03 0.  1.
         22    1    1    0    0    0 -0.20436130205E+02  0.16270126108E+02  0.84978239493E+01  0.27469354437E+02  0.00000000000E+00 0.  1.
</event>
<event>
 5    1  0.8957809E-005  0.9118800E+02  0.7818608E-02  0.1130116E+00
         25   -1    0    0    0    0  0.00000000000E+00  0.00000000000E+00  0.99999998245E-14  0.12500000000E+03  0.12500000000E+03 0.  0.
        -11    1    3    3    0    0  0.43798702588E+02  0.21964312133E+02 -0.33652673230E+02  0.59441229561E+02  0.51100000000E-03 0.  1.
         23    2    1    0    0    0  0.14579057533E+02  0.27021349861E+01 -0.25697871850E+02  0.95331311629E+02  0.90597063459E+02 0.  0.
         11    1    3    3    0    0 -0.29219645055E+02 -0.19262177147E+02  0.79548013804E+01  0.35890082069E+02  0.51100000000E-03 0. -1.
         22    1    1    0    0    0 -0.14579057533E+02 -0.27021349861E+01  0.25697871850E+02  0.29668688371E+02  0.00000000000E+00 0.  1.
</event>
<event>
 5    1  0.8957809E-005  0.9118800E+02  0.7818608E-02  0.1130116E+00
         25   -1    0    0    0    0  0.00000000000E+00  0.00000000000E+00  0.99999998245E-14  0.12500000000E+03  0.12500000000E+03 0.  0.
        -11    1    3    3    0    0 -0.37414840270E+02 -0.27044495905E+02  0.25172559245E+02  0.52582628028E+02  0.51100000000E-03 0.  1.
         23    2    1    0    0    0 -0.42711354208E+01 -0.59354170466E+01  0.31745152553E+02  0.92423528676E+02  0.86492093101E+02 0.  0.
         11    1    3    3    0    0  0.33143704849E+02  0.21109078858E+02  0.65725933083E+01  0.39840900648E+02  0.51100000000E-03 0. -1.
         22    1    1    0    0    0  0.42711354208E+01  0.59354170466E+01 -0.31745152553E+02  0.32576471324E+02  0.00000000000E+00 0.  1.
</event>
<event>
 5    1  0.8957809E-005  0.9118800E+02  0.7818608E-02  0.1130116E+00
         25   -1    0    0    0    0  0.00000000000E+00  0.00000000000E+00  0.99999998245E-14  0.12500000000E+03  0.12500000000E+03 0.  0.
        -11    1    3    3    0    0  0.33784561186E+02 -0.26868959962E+02  0.87208990299E+01  0.44038524773E+02  0.51100000000E-03 0.  1.
         23    2    1    0    0    0  0.16335183790E+02  0.21886564787E+02  0.10208765342E+02  0.95843888506E+02  0.91301545039E+02 0.  0.
         11    1    3    3    0    0 -0.17449377396E+02  0.48755524749E+02  0.14878663118E+01  0.51805363733E+02  0.51100000000E-03 0. -1.
         22    1    1    0    0    0 -0.16335183790E+02 -0.21886564787E+02 -0.10208765342E+02  0.29156111494E+02  0.00000000000E+00 0. -1.
</event>
<event>
 5    1  0.8957809E-005  0.9118800E+02  0.7818608E-02  0.1130116E+00
         25   -1    0    0    0    0  0.00000000000E+00  0.00000000000E+00  0.99999998245E-14  0.12500000000E+03  0.12500000000E+03 0.  0.
        -11    1    3    3    0    0 -0.22952706852E+02  0.57056768822E+02 -0.92859645621E+01  0.62197514085E+02  0.51100000000E-03 0.  1.
         23    2    1    0    0    0 -0.12113130578E+02  0.26251216485E+02 -0.22590355035E+00  0.96087972542E+02  0.91635108640E+02 0.  0.
         11    1    3    3    0    0  0.10839576274E+02 -0.30805552338E+02  0.90600610118E+01  0.33890458457E+02  0.51100000000E-03 0. -1.
         22    1    1    0    0    0  0.12113130578E+02 -0.26251216485E+02  0.22590355035E+00  0.28912027458E+02  0.00000000000E+00 0.  1.
</event>
<event>
 5    1  0.8957809E-005  0.9118800E+02  0.7818608E-02  0.1130116E+00
         25   -1    0    0    0    0  0.00000000000E+00  0.00000000000E+00  0.99999998245E-14  0.12500000000E+03  0.12500000000E+03 0.  0.
        -11    1    3    3    0    0 -0.35292751531E-01  0.36175489710E+02  0.16719610547E+02  0.39852386107E+02  0.51100000000E-03 0. -1.
         23    2    1    0    0    0 -0.26725058036E+02  0.20865911600E+01 -0.15695268469E+02  0.93936773477E+02  0.88652091736E+02 0.  0.
         11    1    3    3    0    0 -0.26689765285E+02 -0.34088898550E+02 -0.32414879016E+02  0.54084387370E+02  0.51100000000E-03 0.  1.
         22    1    1    0    0    0  0.26725058036E+02 -0.20865911600E+01  0.15695268469E+02  0.31063226523E+02  0.00000000000E+00 0.  1.
</event>
<event>
 5    1  0.8957809E-005  0.9118800E+02  0.7818608E-02  0.1130116E+00
         25   -1    0    0    0    0  0.00000000000E+00  0.00000000000E+00  0.99999998245E-14  0.12500000000E+03  0.12500000000E+03 0.  0.
        -11    1    3    3    0    0  0.35040380626E+02  0.38770967166E+02  0.20089734174E+02  0.55987619961E+02  0.51100000000E-03 0. -1.
         23    2    1    0    0    0 -0.13229664980E+01  0.28088787567E+02  0.81935350918E+01  0.95710680366E+02  0.91118988644E+02 0.  0.
         11    1    3    3    0    0 -0.36363347124E+02 -0.10682179599E+02 -0.11896199083E+02  0.39723060405E+02  0.51100000000E-03 0.  1.
         22    1    1    0    0    0  0.13229664980E+01 -0.28088787567E+02 -0.81935350918E+01  0.29289319634E+02  0.00000000000E+00 0. -1.
</event>
<event>
 5    1  0.8957809E-005  0.9118800E+02  0.7818608E-02  0.1130116E+00
         25   -1    0    0    0    0  0.00000000000E+00  0.00000000000E+00  0.99999998245E-14  0.12500000000E+03  0.12500000000E+03 0.  0.
        -11    1    3    3    0    0  0.55684226351E+01 -0.58716957125E+02  0.85882272545E+01  0.59602399552E+02  0.51100000000E-03 0.  1.
         23    2    1    0    0    0  0.56064434152E+01 -0.26253671503E+02 -0.92023795963E+01  0.96620936143E+02  0.92359266107E+02 0.  0.
         11    1    3    3    0    0  0.38020780122E-01  0.32463285622E+02 -0.17790606851E+02  0.37018536591E+02  0.51100000000E-03 0. -1.
         22    1    1    0    0    0 -0.56064434152E+01  0.26253671503E+02  0.92023795963E+01  0.28379063857E+02  0.00000000000E+00 0.  1.
</event>
<event>
 5    1  0.8957809E-005  0.9118800E+02  0.7818608E-02  0.1130116E+00
         25   -1    0    0    0    0  0.00000000000E+00  0.00000000000E+00  0.99999998245E-14  0.12500000000E+03  0.12500000000E+03 0.  0.
        -11    1    3    3    0    0 -0.32366677696E+02 -0.16922585855E+02 -0.27982408266E+00  0.36524704501E+02  0.51100000000E-03 0.  1.
         23    2    1    0    0    0  0.26465203495E+02 -0.11797311161E+02  0.40727739915E+01  0.95739599548E+02  0.91158652288E+02 0.  0.
         11    1    3    3    0    0  0.58831881191E+02  0.51252746945E+01  0.43525980741E+01  0.59214895047E+02  0.51100000000E-03 0. -1.
         22    1    1    0    0    0 -0.26465203495E+02  0.11797311161E+02 -0.40727739915E+01  0.29260400452E+02  0.00000000000E+00 0.  1.
</event>
<event>
 5    1  0.8957809E-005  0.9118800E+02  0.7818608E-02  0.1130116E+00
         25   -1    0    0    0    0  0.00000000000E+00  0.00000000000E+00  0.99999998245E-14  0.12500000000E+03  0.12500000000E+03 0.  0.
        -11    1    3    3    0    0 -0.46362398227E+01 -0.25996404311E+02 -0.23313638015E+02  0.35225466279E+02  0.51100000000E-03 0. -1.
         23    2    1    0    0    0 -0.13870321851E+02  0.25170882392E+02  0.70127963640E+01  0.95417260751E+02  0.90715573017E+02 0.  0.
         11    1    3    3    0    0 -0.92340820286E+01  0.51167286702E+02  0.30326434379E+02  0.60191794472E+02  0.51100000000E-03 0.  1.
         22    1    1    0    0    0  0.13870321851E+02 -0.25170882392E+02 -0.70127963640E+01  0.29582739249E+02  0.00000000000E+00 0.  1.
</event>
<event>
 5    1  0.8957809E-005  0.9118800E+02  0.7818608E-02  0.1130116E+00
         25   -1    0    0    0    0  0.00000000000E+00  0.00000000000E+00  0.99999998245E-14  0.12500000000E+03  0.12500000000E+03 0.  0.
        -11    1    3    3    0    0 -0.21547502323E+02  0.24540623832E+02 -0.27499987127E+02  0.42694102247E+02  0.51100000000E-03 0. -1.
         23    2    1    0    0    0 -0.18199486809E+02 -0.22252703573E+02 -0.17734788909E+01  0.96198101385E+02  0.91785213114E+02 0.  0.
         11    1    3    3    0    0  0.33480155134E+01 -0.46793327405E+02  0.25726508236E+02  0.53503999138E+02  0.51100000000E-03 0.  1.
         22    1    1    0    0    0  0.18199486809E+02  0.22252703573E+02  0.17734788909E+01  0.28801898615E+02  0.00000000000E+00 0.  1.
</event>
<event>
 5    1  0.8957809E-005  0.9118800E+02  0.7818608E-02  0.1130116E+00
         25   -1    0    0    0    0  0.00000000000E+00  0.00000000000E+00  0.99999998245E-14  0.12500000000E+03  0.12500000000E+03 0.  0.
        -11    1    3    3    0    0  0.26466816664E+02 -0.26837445253E+02 -0.12196776897E+02  0.39616943585E+02  0.51100000000E-03 0. -1.
         23    2    1    0    0    0 -0.24397549665E+02 -0.50500041218E+01 -0.16498047158E+02  0.95118090233E+02  0.90302395086E+02 0.  0.
         11    1    3    3    0    0 -0.50864366329E+02  0.21787441132E+02 -0.43012702606E+01  0.55501146648E+02  0.51100000000E-03 0.  1.
         22    1    1    0    0    0  0.24397549665E+02  0.50500041218E+01  0.16498047158E+02  0.29881909767E+02  0.00000000000E+00 0.  1.
</event>
<event>
 5    1  0.8957809E-005  0.9118800E+02  0.7818608E-02  0.1130116E+00
         25   -1    0    0    0    0  0.00000000000E+00  0.00000000000E+00  0.99999998245E-14  0.12500000000E+03  0.12500000000E+03 0.  0.
        -11    1    3    3    0    0  0.97059407917E+01  0.26993234310E+02 -0.52817308033E+02  0.60104143063E+02  0.51100000000E-03 0.  1.
         23    2    1    0    0    0  0.14609423032E+01  0.15095358725E+01 -0.28932821244E+02  0.95991015252E+02  0.91502753035E+02 0.  0.
         11    1    3    3    0    0 -0.82449984885E+01 -0.25483698437E+02  0.23884486789E+02  0.35886872190E+02  0.51100000000E-03 0. -1.
         22    1    1    0    0    0 -0.14609423032E+01 -0.15095358725E+01  0.28932821244E+02  0.29008984748E+02  0.00000000000E+00 0.  1.
</event>
<event>
 5    1  0.8957809E-005  0.9118800E+02  0.7818608E-02  0.1130116E+00
         25   -1    0    0    0    0  0.00000000000E+00  0.00000000000E+00  0.99999998245E-14  0.12500000000E+03  0.12500000000E+03 0.  0.
        -11    1    3    3    0    0  0.40035909588E+02  0.16289886529E+02  0.65328854197E+01  0.43713991488E+02  0.51100000000E-03 0.  1.
         23    2    1    0    0    0 -0.14303140635E+01 -0.16144835636E+02  0.21153288958E+02  0.98351113536E+02  0.94671951411E+02 0.  0.
         11    1    3    3    0    0 -0.41466223651E+02 -0.32434722165E+02  0.14620403538E+02  0.54637122048E+02  0.51100000000E-03 0. -1.
         22    1    1    0    0    0  0.14303140635E+01  0.16144835636E+02 -0.21153288958E+02  0.26648886464E+02  0.00000000000E+00 0. -1.
</event>
<event>
 5    1  0.8957809E-005  0.9118800E+02  0.7818608E-02  0.1130116E+00
         25   -1    0    0    0    0  0.00000000000E+00  0.00000000000E+00  0.99999998245E-14  0.12500000000E+03  0.12500000000E+03 0.  0.
        -11    1    3    3    0    0  0.12218506646E+02  0.21990881477E+02  0.18325486122E+02  0.31124174120E+02  0.51100000000E-03 0.  1.
         23    2    1    0    0    0  0.59428395852E+01 -0.26206830353E+02 -0.18731191909E+02  0.92243735716E+02  0.86231861450E+02 0.  0.
         11    1    3    3    0    0 -0.62756670610E+01 -0.48197711830E+02 -0.37056678032E+02  0.61119561596E+02  0.51100000000E-03 0. -1.
         22    1    1    0    0    0 -0.59428395852E+01  0.26206830353E+02  0.18731191909E+02  0.32756264284E+02  0.00000000000E+00 0. -1.
</event>
<event>
 5    1  0.8957809E-005  0.9118800E+02  0.7818608E-02  0.1130116E+00
         25   -1    0    0    0    0  0.00000000000E+00  0.00000000000E+00  0.99999998245E-14  0.12500000000E+03  0.12500000000E+03 0.  0.
        -11    1    3    3    0    0 -0.44320907804E+01  0.33345256616E+02  0.95924700928E+01  0.34979494711E+02  0.51100000000E-03 0.  1.
         23    2    1    0    0    0 -0.10871212922E+02 -0.26797847680E+02  0.10949182265E+01  0.96060291007E+02  0.91597340310E+02 0.  0.
         11    1    3    3    0    0 -0.64391221419E+01 -0.60143104296E+02 -0.84975518663E+01  0.61080796297E+02  0.51100000000E-03 0. -1.
         22    1    1    0    0    0  0.10871212922E+02  0.26797847680E+02 -0.10949182265E+01  0.28939708993E+02  0.00000000000E+00 0. -1.
</event>
<event>
 5    1  0.8957809E-005  0.9118800E+02  0.7818608E-02  0.1130116E+00
         25   -1    0    0    0    0  0.00000000000E+00  0.00000000000E+00  0.99999998245E-14  0.12500000000E+03  0.12500000000E+03 0.  0.
        -11    1    3    3    0    0 -0.43547376624E+01 -0.20700084068E+02 -0.24541408520E+02  0.32399659765E+02  0.51100000000E-03 0.  1.
         23    2    1    0    0    0  0.74528100153E+01  0.91859897790E+01  0.28346450203E+02  0.94284400959E+02  0.89140901049E+02 0.  0.
         11    1    3    3    0    0  0.11807547678E+02  0.29886073847E+02  0.52887858722E+02  0.61884741194E+02  0.51100000000E-03 0. -1.
         22    1    1    0    0    0 -0.74528100153E+01 -0.91859897790E+01 -0.28346450203E+02  0.30715599041E+02  0.00000000000E+00 0. -1.
</event>
<event>
 5    1  0.8957809E-005  0.9118800E+02  0.7818608E-02  0.1130116E+00
         25   -1    0    0    0    0  0.00000000000E+00  0.00000000000E+00  0.99999998245E-14  0.12500000000E+03  0.12500000000E+03 0.  0.
        -11    1    3    3    0    0  0.33486101726E+02 -0.43652211947E+02 -0.63385101984E+01  0.55380604262E+02  0.51100000000E-03 0.  1.
         23    2    1    0    0    0 -0.12889064781E+01 -0.24020068407E+02 -0.15541774230E+02  0.96361359802E+02  0.92007282051E+02 0.  0.
         11    1    3    3    0    0 -0.34775008204E+02  0.19632143539E+02 -0.92032640314E+01  0.40980755540E+02  0.51100000000E-03 0. -1.
         22    1    1    0    0    0  0.12889064781E+01  0.24020068407E+02  0.15541774230E+02  0.28638640198E+02  0.00000000000E+00 0.  1.
</event>
<event>
 5    1  0.8957809E-005  0.9118800E+02  0.7818608E-02  0.1130116E+00
         25   -1    0    0    0    0  0.00000000000E+00  0.00000000000E+00  0.99999998245E-14  0.12500000000E+03  0.12500000000E+03 0.  0.
        -11    1    3    3    0    0  0.41760750039E+02 -0.32334923805E+02  0.29729893323E+02  0.60608366572E+02  0.51100000000E-03 0.  1.
         23    2    1    0    0    0  0.27104448374E+02 -0.79906516267E+01  0.10817084447E+02  0.94742588495E+02  0.89781106719E+02 0.  0.
         11    1    3    3    0    0 -0.14656301665E+02  0.24344272178E+02 -0.18912808876E+02  0.34134221922E+02  0.51100000000E-03 0. -1.
         22    1    1    0    0    0 -0.27104448374E+02  0.79906516267E+01 -0.10817084447E+02  0.30257411505E+02  0.00000000000E+00 0.  1.
</event>
<event>
 5    1  0.8957809E-005  0.9118800E+02  0.7818608E-02  0.1130116E+00
         25   -1    0    0    0    0  0.00000000000E+00  0.00000000000E+00  0.99999998245E-14  0.12500000000E+03  0.12500000000E+03 0.  0.
        -11    1    3    3    0    0 -0.26261027073E+02 -0.22738025276E+01  0.49459811906E+02  0.56045380853E+02  0.51100000000E-03 0. -1.
         23    2    1    0    0    0  0.44978089343E+01 -0.13332727558E+02  0.22718536501E+02  0.98276904930E+02  0.94573919410E+02 0.  0.
         11    1    3    3    0    0  0.30758836007E+02 -0.11058925031E+02 -0.26741275405E+02  0.42231524078E+02  0.51100000000E-03 0.  1.
         22    1    1    0    0    0 -0.44978089343E+01  0.13332727558E+02 -0.22718536501E+02  0.26723095070E+02  0.00000000000E+00 0. -1.
</event>
<event>
 5    1  0.8957809E-005  0.9118800E+02  0.7818608E-02  0.1130116E+00
         25   -1    0    0    0    0  0.00000000000E+00  0.00000000000E+00  0.99999998245E-14  0.12500000000E+03  0.12500000000E+03 0.  0.
        -11    1    3    3    0    0  0.18787875953E+02 -0.83167224094E+01  0.31500297583E+02  0.37608787571E+02  0.51100000000E-03 0.  1.
         23    2    1    0    0    0 -0.21221947082E+02 -0.19545103387E+02 -0.81231142804E+01  0.95027227523E+02  0.90176531763E+02 0.  0.
         11    1    3    3    0    0 -0.40009823035E+02 -0.11228380977E+02 -0.39623411864E+02  0.57418439953E+02  0.51100000000E-03 0. -1.
         22    1    1    0    0    0  0.21221947082E+02  0.19545103387E+02  0.81231142804E+01  0.29972772477E+02  0.00000000000E+00 0. -1.
</event>
<event>
 5    1  0.8957809E-005  0.9118800E+02  0.7818608E-02  0.1130116E+00
         25   -1    0    0    0    0  0.00000000000E+00  0.00000000000E+00  0.99999998245E-14  0.12500000000E+03  0.12500000000E+03 0.  0.
        -11    1    3    3    0    0 -0.17684277018E+02  0.26336386336E+02 -0.47051222559E+02  0.56746422296E+02  0.51100000000E-03 0.  1.
         23    2    1    0    0    0 -0.14044847104E+02 -0.64681325823E+01 -0.21650835074E+02  0.98394490633E+02  0.94729206997E+02 0.  0.
         11    1    3    3    0    0  0.36394299141E+01 -0.32804518918E+02  0.25400387485E+02  0.41648068337E+02  0.51100000000E-03 0. -1.
         22    1    1    0    0    0  0.14044847104E+02  0.64681325823E+01  0.21650835074E+02  0.26605509367E+02  0.00000000000E+00 0.  1.
</event>
<event>
 5    1  0.8957809E-005  0.9118800E+02  0.7818608E-02  0.1130116E+00
         25   -1    0    0    0    0  0.00000000000E+00  0.00000000000E+00  0.99999998245E-14  0.12500000000E+03  0.12500000000E+03 0.  0.
        -11    1    3    3    0    0 -0.19523533185E+02  0.30898713507E+02 -0.33271648407E+02  0.49425716306E+02  0.51100000000E-03 0.  1.
         23    2    1    0    0    0 -0.16551429768E+02  0.25330964825E+02  0.99817268655E+01  0.93137130111E+02  0.87517327015E+02 0.  0.
         11    1    3    3    0    0  0.29721034168E+01 -0.55677486823E+01  0.43253375273E+02  0.43711413805E+02  0.51100000000E-03 0. -1.
         22    1    1    0    0    0  0.16551429768E+02 -0.25330964825E+02 -0.99817268655E+01  0.31862869889E+02  0.00000000000E+00 0.  1.
</event>
<event>
 5    1  0.8957809E-005  0.9118800E+02  0.7818608E-02  0.1130116E+00
         25   -1    0    0    0    0  0.00000000000E+00  0.00000000000E+00  0.99999998245E-14  0.12500000000E+03  0.12500000000E+03 0.  0.
        -11    1    3    3    0    0 -0.38043488585E+02 -0.25337870792E+02  0.14975241399E+02  0.48099610968E+02  0.51100000000E-03 0. -1.
         23    2    1    0    0    0  0.13364243770E+01 -0.34603350524E+02  0.10567899712E+02  0.88794221429E+02  0.81077465163E+02 0.  0.
         11    1    3    3    0    0  0.39379912962E+02 -0.92654797319E+01 -0.44073416875E+01  0.40694610461E+02  0.51100000000E-03 0.  1.
         22    1    1    0    0    0 -0.13364243770E+01  0.34603350524E+02 -0.10567899712E+02  0.36205778571E+02  0.00000000000E+00 0. -1.
</event>
<event>
 5    1  0.8957809E-005  0.9118800E+02  0.7818608E-02  0.1130116E+00
         25   -1    0    0    0    0  0.00000000000E+00  0.00000000000E+00  0.99999998245E-14  0.12500000000E+03  0.12500000000E+03 0.  0.
        -11    1    3    3    0    0 -0.12436505634E+02  0.63079165330E+01 -0.34688469952E+02  0.37386447160E+02  0.51100000000E-03 0.  1.
         23    2    1    0    0    0  0.21958184282E+02  0.14680869576E+02  0.12008743984E+02  0.95984491724E+02  0.91493840946E+02 0.  0.
         11    1    3    3    0    0  0.34394689915E+02  0.83729530426E+01  0.46697213936E+02  0.58598044564E+02  0.51100000000E-03 0. -1.
         22    1    1    0    0    0 -0.21958184282E+02 -0.14680869576E+02 -0.12008743984E+02  0.29015508276E+02  0.00000000000E+00 0. -1.
</event>
<event>
 5    1  0.8957809E-005  0.9118800E+02  0.7818608E-02  0.1130116E+00
         25   -1    0    0    0    0  0.00000000000E+00  0.00000000000E+00  0.99999998245E-14  0.12500000000E+03  0.12500000000E+03 0.  0.
        -11    1    3    3    0    0 -0.30249925958E+02  0.10566045256E+00  0.28206991179E+02  0.41360652028E+02  0.51100000000E-03 0. -1.
         23    2    1    0    0    0 -0.18657777117E+02 -0.46392449706E+00 -0.23861203737E+02  0.94706685281E+02  0.89731105645E+02 0.  0.
         11    1    3    3    0    0  0.11592148842E+02 -0.56958494962E+00 -0.52068194916E+02  0.53346033253E+02  0.51100000000E-03 0.  1.
         22    1    1    0    0    0  0.18657777117E+02  0.46392449706E+00  0.23861203737E+02  0.30293314719E+02  0.00000000000E+00 0.  1.
</event>
<event>
 5    1  0.8957809E-005  0.9118800E+02  0.7818608E-02  0.1130116E+00
         25   -1    0    0    0    0  0.00000000000E+00  0.00000000000E+00  0.99999998245E-14  0.12500000000E+03  0.12500000000E+03 0.  0.
        -11    1    3    3    0    0 -0.31471345334E+02 -0.50913441367E+02 -0.11325832800E+02  0.60917145188E+02  0.51100000000E-03 0.  1.
         23    2    1    0    0    0 -0.17282299241E+02 -0.17840752318E+02 -0.13040744533E+02  0.96945921360E+02  0.92798062157E+02 0.  0.
         11    1    3    3    0    0  0.14189046092E+02  0.33072689049E+02 -0.17149117334E+01  0.36028776172E+02  0.51100000000E-03 0. -1.
         22    1    1    0    0    0  0.17282299241E+02  0.17840752318E+02  0.13040744533E+02  0.28054078640E+02  0.00000000000E+00 0.  1.
</event>
<event>
 5    1  0.8957809E-005  0.9118800E+02  0.7818608E-02  0.1130116E+00
         25   -1    0    0    0    0  0.00000000000E+00  0.00000000000E+00  0.99999998245E-14  0.12500000000E+03  0.12500000000E+03 0.  0.
        -11    1    3    3    0    0 -0.44041728950E+01  0.24698602659E+02  0.30704475946E+02  0.39650757314E+02  0.51100000000E-03 0. -1.
         23    2    1    0    0    0  0.50914596311E+01  0.78676013353E+01 -0.24834726013E+02  0.98455966243E+02  0.94810292483E+02 0.  0.
         11    1    3    3    0    0  0.94956325261E+01 -0.16831001323E+02 -0.55539201960E+02  0.58805208929E+02  0.51100000000E-03 0.  1.
         22    1    1    0    0    0 -0.50914596311E+01 -0.78676013353E+01  0.24834726013E+02  0.26544033757E+02  0.00000000000E+00 0.  1.
</event>
<event>
 5    1  0.8957809E-005  0.9118800E+02  0.7818608E-02  0.1130116E+00
         25   -1    0    0    0    0  0.00000000000E+00  0.00000000000E+00  0.99999998245E-14  0.12500000000E+03  0.12500000000E+03 0.  0.
        -11    1    3    3    0    0  0.20567883117E+02 -0.45913977251E+02  0.32924090301E+02  0.60125924902E+02  0.51100000000E-03 0. -1.
         23    2    1    0    0    0  0.13277121140E+02 -0.13166369200E+02  0.23489830162E+02  0.94976553417E+02  0.90106261460E+02 0.  0.
         11    1    3    3    0    0 -0.72907619766E+01  0.32747608051E+02 -0.94342601392E+01  0.34850628515E+02  0.51100000000E-03 0.  1.
         22    1    1    0    0    0 -0.13277121140E+02  0.13166369200E+02 -0.23489830162E+02  0.30023446583E+02  0.00000000000E+00 0. -1.
</event>
<event>
 5    1  0.8957809E-005  0.9118800E+02  0.7818608E-02  0.1130116E+00
         25   -1    0    0    0    0  0.00000000000E+00  0.00000000000E+00  0.99999998245E-14  0.12500000000E+03  0.12500000000E+03 0.  0.
        -11    1    3    3    0    0 -0.17754946030E+02  0.23680838355E+02  0.28448784667E+02  0.41053057901E+02  0.51100000000E-03 0. -1.
         23    2    1    0    0    0  0.19518533801E+02  0.15383384024E+02 -0.12616374905E+02  0.97128965188E+02  0.93044297498E+02 0.  0.
         11    1    3    3    0    0  0.37273479831E+02 -0.82974543316E+01 -0.41065159572E+02  0.56075907287E+02  0.51100000000E-03 0.  1.
         22    1    1    0    0    0 -0.19518533801E+02 -0.15383384024E+02  0.12616374905E+02  0.27871034812E+02  0.00000000000E+00 0.  1.
</event>
<event>
 5    1  0.8957809E-005  0.9118800E+02  0.7818608E-02  0.1130116E+00
         25   -1    0    0    0    0  0.00000000000E+00  0.00000000000E+00  0.99999998245E-14  0.12500000000E+03  0.12500000000E+03 0.  0.
        -11    1    3    3    0    0 -0.91182782808E+01 -0.49425586368E+02  0.23164998517E+02  0.55341202943E+02  0.51100000000E-03 0.  1.
         23    2    1    0    0    0 -0.57611269632E+01 -0.26767071476E+02 -0.10174030118E+02  0.95790796175E+02  0.91228827920E+02 0.  0.
         11    1    3    3    0    0  0.33571513176E+01  0.22658514892E+02 -0.33339028634E+02  0.40449593232E+02  0.51100000000E-03 0. -1.
         22    1    1    0    0    0  0.57611269632E+01  0.26767071476E+02  0.10174030118E+02  0.29209203825E+02  0.00000000000E+00 0.  1.
</event>
<event>
 5    1  0.8957809E-005  0.9118800E+02  0.7818608E-02  0.1130116E+00
         25   -1    0    0    0    0  0.00000000000E+00  0.00000000000E+00  0.99999998245E-14  0.12500000000E+03  0.12500000000E+03 0.  0.
        -11    1    3    3    0    0 -0.36099627148E+02  0.47324124793E+02  0.12083246544E+02  0.60735168683E+02  0.51100000000E-03 0.  1.
         23    2    1    0    0    0 -0.25345110996E+02  0.17381817832E+02  0.16280765888E+01  0.94224151094E+02  0.89056374131E+02 0.  0.
         11    1    3    3    0    0  0.10754516152E+02 -0.29942306961E+02 -0.10455169955E+02  0.33488982410E+02  0.51100000000E-03 0. -1.
         22    1    1    0    0    0  0.25345110996E+02 -0.17381817832E+02 -0.16280765888E+01  0.30775848906E+02  0.00000000000E+00 0.  1.
</event>
<event>
 5    1  0.8957809E-005  0.9118800E+02  0.7818608E-02  0.1130116E+00
         25   -1    0    0    0    0  0.00000000000E+00  0.00000000000E+00  0.99999998245E-14  0.12500000000E+03  0.12500000000E+03 0.  0.
        -11    1    3    3    0    0 -0.98719903339E+01 -0.43470121262E+01 -0.39866723261E+02  0.41300221929E+02  0.51100000000E-03 0.  1.
         23    2    1    0    0    0  0.16748773491E+02 -0.16095220793E+02  0.10531500061E+02  0.99495293780E+02  0.96170803496E+02 0.  0.
         11    1    3    3    0    0  0.26620763825E+02 -0.11748208667E+02  0.50398223322E+02  0.58195071851E+02  0.51100000000E-03 0. -1.
         22    1    1    0    0    0 -0.16748773491E+02  0.16095220793E+02 -0.10531500061E+02  0.25504706220E+02  0.00000000000E+00 0. -1.
</event>
<event>
 5    1  0.8957809E-005  0.9118800E+02  0.7818608E-02  0.1130116E+00
         25   -1    0    0    0    0  0.00000000000E+00  0.00000000000E+00  0.99999998245E-14  0.12500000000E+03  0.12500000000E+03 0.  0.
        -11    1    3    3    0    0  0.13068247617E+02  0.15306560214E+02 -0.47463945729E+02  0.51554786643E+02  0.51100000000E-03 0. -1.
         23    2    1    0    0    0 -0.14965293849E+02 -0.76070624497E+01 -0.27173008431E+02  0.93059433219E+02  0.87406282982E+02 0.  0.
         11    1    3    3    0    0 -0.28033541466E+02 -0.22913622664E+02  0.20290937298E+02  0.41504646576E+02  0.51100000000E-03 0.  1.
         22    1    1    0    0    0  0.14965293849E+02  0.76070624497E+01  0.27173008431E+02  0.31940566781E+02  0.00000000000E+00 0. -1.
</event>
<event>
 5    1  0.8957809E-005  0.9118800E+02  0.7818608E-02  0.1130116E+00
         25   -1    0    0    0    0  0.00000000000E+00  0.00000000000E+00  0.99999998245E-14  0.12500000000E+03  0.12500000000E+03 0.  0.
        -11    1    3    3    0    0  0.45131029319E+02  0.16770337541E+02  0.13340416305E+02  0.49960191514E+02  0.51100000000E-03 0.  1.
         23    2    1    0    0    0  0.35218292220E+02 -0.93608792889E+01 -0.10907963290E+02  0.86961363969E+02  0.78200645728E+02 0.  0.
         11    1    3    3    0    0 -0.99127370993E+01 -0.26131216830E+02 -0.24248379595E+02  0.37001172455E+02  0.51100000000E-03 0. -1.
         22    1    1    0    0    0 -0.35218292220E+02  0.93608792889E+01  0.10907963290E+02  0.38038636031E+02  0.00000000000E+00 0.  1.
</event>
<event>
 5    1  0.8957809E-005  0.9118800E+02  0.7818608E-02  0.1130116E+00
         25   -1    0    0    0    0  0.00000000000E+00  0.00000000000E+00  0.99999998245E-14  0.12500000000E+03  0.12500000000E+03 0.  0.
        -11    1    3    3    0    0  0.31940092937E+02 -0.51004927391E+02 -0.13532430214E+02  0.61683051341E+02  0.51100000000E-03 0.  1.
         23    2    1    0    0    0  0.92241865530E+01 -0.27841859736E+02 -0.48089459416E+01  0.95278278445E+02  0.90523862110E+02 0.  0.
         11    1    3    3    0    0 -0.22715906384E+02  0.23163067655E+02  0.87234842725E+01  0.33595227104E+02  0.51100000000E-03 0. -1.
         22    1    1    0    0    0 -0.92241865530E+01  0.27841859736E+02  0.48089459416E+01  0.29721721555E+02  0.00000000000E+00 0.  1.
</event>
<event>
 5    1  0.8957809E-005  0.9118800E+02  0.7818608E-02  0.1130116E+00
         25   -1    0    0    0    0  0.00000000000E+00  0.00000000000E+00  0.99999998245E-14  0.12500000000E+03  0.12500000000E+03 0.  0.
        -11    1    3    3    0    0 -0.28504173717E+02  0.28497089793E+00  0.17308101142E+02  0.33348755495E+02  0.51100000000E-03 0.  1.
         23    2    1    0    0    0  0.90795125005E+01  0.14744079133E+01 -0.29908487846E+02  0.93708961807E+02  0.88330291814E+02 0.  0.
         11    1    3    3    0    0  0.37583686217E+02  0.11894370154E+01 -0.47216588988E+02  0.60360206312E+02  0.51100000000E-03 0. -1.
         22    1    1    0    0    0 -0.90795125005E+01 -0.14744079133E+01  0.29908487846E+02  0.31291038193E+02  0.00000000000E+00 0. -1.
</event>
<event>
 5    1  0.8957809E-005  0.9118800E+02  0.7818608E-02  0.1130116E+00
         25   -1    0    0    0    0  0.00000000000E+00  0.00000000000E+00  0.99999998245E-14  0.12500000000E+03  0.12500000000E+03 0.  0.
        -11    1    3    3    0    0  0.14202555067E+02  0.28360984820E+02  0.40510020464E+01  0.31976063676E+02  0.51100000000E-03 0.  1.
         23    2    1    0    0    0  0.27620762470E+02 -0.25358838069E+02 -0.12289848043E+00  0.87503436269E+02  0.79062374535E+02 0.  0.
         11    1    3    3    0    0  0.13418207404E+02 -0.53719822889E+02 -0.41739005268E+01  0.55527372592E+02  0.51100000000E-03 0. -1.
         22    1    1    0    0    0 -0.27620762470E+02  0.25358838069E+02  0.12289848043E+00  0.37496563731E+02  0.00000000000E+00 0. -1.
</event>
<event>
 5    1  0.8957809E-005  0.9118800E+02  0.7818608E-02  0.1130116E+00
         25   -1    0    0    0    0  0.00000000000E+00  0.00000000000E+00  0.99999998245E-14  0.12500000000E+03  0.12500000000E+03 0.  0.
        -11    1    3    3    0    0  0.45049674369E+02 -0.40272304029E+01  0.30079599239E+02  0.54318266137E+02  0.51100000000E-03 0.  1.
         23    2    1    0    0    0  0.26106391370E+02 -0.10801743375E+02 -0.64489612890E+01  0.96020517051E+02  0.91543045955E+02 0.  0.
         11    1    3    3    0    0 -0.18943283000E+02 -0.67745129718E+01 -0.36528560528E+02  0.41702250914E+02  0.51100000000E-03 0. -1.
         22    1    1    0    0    0 -0.26106391370E+02  0.10801743375E+02  0.64489612890E+01  0.28979482949E+02  0.00000000000E+00 0.  1.
</event>
<event>
 5    1  0.8957809E-005  0.9118800E+02  0.7818608E-02  0.1130116E+00
         25   -1    0    0    0    0  0.00000000000E+00  0.00000000000E+00  0.99999998245E-14  0.12500000000E+03  0.12500000000E+03 0.  0.
        -11    1    3    3    0    0 -0.10230941142E+02 -0.31714433590E+02  0.15695529357E+02  0.36835133998E+02  0.51100000000E-03 0.  1.
         23    2    1    0    0    0  0.31042019915E+02 -0.11502511000E+01 -0.72754194667E+01  0.93096053435E+02  0.87458637988E+02 0.  0.
         11    1    3    3    0    0  0.41272961058E+02  0.30564182490E+02 -0.22970948823E+02  0.56260919437E+02  0.51100000000E-03 0. -1.
         22    1    1    0    0    0 -0.31042019915E+02  0.11502511000E+01  0.72754194667E+01  0.31903946565E+02  0.00000000000E+00 0. -1.
</event>
<event>
 5    1  0.8957809E-005  0.9118800E+02  0.7818608E-02  0.1130116E+00
         25   -1    0    0    0    0  0.00000000000E+00  0.00000000000E+00  0.99999998245E-14  0.12500000000E+03  0.12500000000E+03 0.  0.
        -11    1    3    3    0    0  0.14262085029E+02 -0.31745443528E+02  0.12788541088E+02  0.37077311629E+02  0.51100000000E-03 0. -1.
         23    2    1    0    0    0  0.64932303150E+01  0.26568079728E+02 -0.14738939077E+01  0.97610270837E+02  0.93688674391E+02 0.  0.
         11    1    3    3    0    0 -0.77688547142E+01  0.58313523257E+02 -0.14262434996E+02  0.60532959208E+02  0.51100000000E-03 0.  1.
         22    1    1    0    0    0 -0.64932303150E+01 -0.26568079728E+02  0.14738939077E+01  0.27389729163E+02  0.00000000000E+00 0.  1.
</event>
<event>
 5    1  0.8957809E-005  0.9118800E+02  0.7818608E-02  0.1130116E+00
         25   -1    0    0    0    0  0.00000000000E+00  0.00000000000E+00  0.99999998245E-14  0.12500000000E+03  0.12500000000E+03 0.  0.
        -11    1    3    3    0    0  0.20512684447E+02 -0.20596605823E+02  0.14933185500E+02  0.32680122767E+02  0.51100000000E-03 0.  1.
         23    2    1    0    0    0 -0.32951445625E+02  0.19778576002E+01  0.70103785205E+01  0.91253072785E+02  0.84783655243E+02 0.  0.
         11    1    3    3    0    0 -0.53464130072E+02  0.22574463423E+02 -0.79228069792E+01  0.58572950018E+02  0.51100000000E-03 0. -1.
         22    1    1    0    0    0  0.32951445625E+02 -0.19778576002E+01 -0.70103785205E+01  0.33746927215E+02  0.00000000000E+00 0. -1.
</event>
<event>
 5    1  0.8957809E-005  0.9118800E+02  0.7818608E-02  0.1130116E+00
         25   -1    0    0    0    0  0.00000000000E+00  0.00000000000E+00  0.99999998245E-14  0.12500000000E+03  0.12500000000E+03 0.  0.
        -11    1    3    3    0    0  0.83533485311E+00 -0.13007808853E+02 -0.55710074899E+02  0.57214625062E+02  0.51100000000E-03 0.  1.
         23    2    1    0    0    0  0.13885537146E+02  0.61343724773E+01 -0.26040753037E+02  0.94857679481E+02  0.89941202295E+02 0.  0.
         11    1    3    3    0    0  0.13050202293E+02  0.19142181331E+02  0.29669321862E+02  0.37643054419E+02  0.51100000000E-03 0. -1.
         22    1    1    0    0    0 -0.13885537146E+02 -0.61343724773E+01  0.26040753037E+02  0.30142320519E+02  0.00000000000E+00 0.  1.
</event>
<event>
 5    1  0.8957809E-005  0.9118800E+02  0.7818608E-02  0.1130116E+00
         25   -1    0    0    0    0  0.00000000000E+00  0.00000000000E+00  0.99999998245E-14  0.12500000000E+03  0.12500000000E+03 0.  0.
        -11    1    3    3    0    0  0.37153717461E+02 -0.33466949414E+01  0.48615014289E+02  0.61278207406E+02  0.51100000000E-03 0. -1.
         23    2    1    0    0    0  0.11585466642E+02 -0.70656108516E+01  0.26246554506E+02  0.95452960936E+02  0.90764752156E+02 0.  0.
         11    1    3    3    0    0 -0.25568250819E+02 -0.37189159102E+01 -0.22368459784E+02  0.34174753530E+02  0.51100000000E-03 0.  1.
         22    1    1    0    0    0 -0.11585466642E+02  0.70656108516E+01 -0.26246554506E+02  0.29547039064E+02  0.00000000000E+00 0. -1.
</event>
<event>
 5    1  0.8957809E-005  0.9118800E+02  0.7818608E-02  0.1130116E+00
         25   -1    0    0    0    0  0.00000000000E+00  0.00000000000E+00  0.99999998245E-14  0.12500000000E+03  0.12500000000E+03 0.  0.
        -11    1    3    3    0    0 -0.11919343605E+02  0.18047033620E+02 -0.27993742724E+02  0.35375355919E+02  0.51100000000E-03 0.  1.
         23    2    1    0    0    0  0.98610063620E+01 -0.23310816247E+02  0.12089074837E+02  0.96950412998E+02  0.92804112244E+02 0.  0.
         11    1    3    3    0    0  0.21780349967E+02 -0.41357849867E+02  0.40082817561E+02  0.61575057078E+02  0.51100000000E-03 0. -1.
         22    1    1    0    0    0 -0.98610063620E+01  0.23310816247E+02 -0.12089074837E+02  0.28049587002E+02  0.00000000000E+00 0. -1.
</event>
<event>
 5    1  0.8957809E-005  0.9118800E+02  0.7818608E-02  0.1130116E+00
         25   -1    0    0    0    0  0.00000000000E+00  0.00000000000E+00  0.99999998245E-14  0.12500000000E+03  0.12500000000E+03 0.  0.
        -11    1    3    3    0    0 -0.20149875162E+02 -0.33853833066E+02  0.18784907347E+01  0.39441452940E+02  0.51100000000E-03 0. -1.
         23    2    1    0    0    0  0.23823442085E+00  0.23714179644E+02  0.56205807448E+01  0.10062767964E+03  0.97631551816E+02 0.  0.
         11    1    3    3    0    0  0.20388109583E+02  0.57568012710E+02  0.37420900101E+01  0.61186226699E+02  0.51100000000E-03 0.  1.
         22    1    1    0    0    0 -0.23823442085E+00 -0.23714179644E+02 -0.56205807448E+01  0.24372320360E+02  0.00000000000E+00 0.  1.
</event>
<event>
 5    1  0.8957809E-005  0.9118800E+02  0.7818608E-02  0.1130116E+00
         25   -1    0    0    0    0  0.00000000000E+00  0.00000000000E+00  0.99999998245E-14  0.12500000000E+03  0.12500000000E+03 0.  0.
        -11    1    3    3    0    0  0.36323528509E+02  0.83134620941E+01 -0.16400886529E+02  0.40712423835E+02  0.51100000000E-03 0.  1.
         23    2    1    0    0    0 -0.16890480097E+02  0.21873971663E+02 -0.76917106985E+01  0.96313393932E+02  0.91942093097E+02 0.  0.
         11    1    3    3    0    0 -0.53214008607E+02  0.13560509569E+02  0.87091758304E+01  0.55600970096E+02  0.51100000000E-03 0. -1.
         22    1    1    0    0    0  0.16890480097E+02 -0.21873971663E+02  0.76917106985E+01  0.28686606068E+02  0.00000000000E+00 0. -1.
</event>
<event>
 5    1  0.8957809E-005  0.9118800E+02  0.7818608E-02  0.1130116E+00
         25   -1    0    0    0    0  0.00000000000E+00  0.00000000000E+00  0.99999998245E-14  0.12500000000E+03  0.12500000000E+03 0.  0.
        -11    1    3    3    0    0 -0.29206172303E+02  0.82555460486E+01  0.84073044891E+01  0.31493448687E+02  0.51100000000E-03 0.  1.
         23    2    1    0    0    0  0.10288532240E+02 -0.24336713845E+02 -0.21624705120E+02  0.90856810226E+02  0.84197402315E+02 0.  0.
         11    1    3    3    0    0  0.39494704542E+02 -0.32592259894E+02 -0.30032009609E+02  0.59363361540E+02  0.51100000000E-03 0. -1.
         22    1    1    0    0    0 -0.10288532240E+02  0.24336713845E+02  0.21624705120E+02  0.34143189774E+02  0.00000000000E+00 0. -1.
</event>
<event>
 5    1  0.8957809E-005  0.9118800E+02  0.7818608E-02  0.1130116E+00
         25   -1    0    0    0    0  0.00000000000E+00  0.00000000000E+00  0.99999998245E-14  0.12500000000E+03  0.12500000000E+03 0.  0.
        -11    1    3    3    0    0  0.29834513906E+02  0.17877959775E+02  0.21616326761E+01  0.34848132257E+02  0.51100000000E-03 0.  1.
         23    2    1    0    0    0 -0.27486499282E+02  0.12644023923E+01 -0.99423754326E+01  0.95743254019E+02  0.91163663291E+02 0.  0.
         11    1    3    3    0    0 -0.57321013188E+02 -0.16613557383E+02 -0.12104008109E+02  0.60895121761E+02  0.51100000000E-03 0. -1.
         22    1    1    0    0    0  0.27486499282E+02 -0.12644023923E+01  0.99423754326E+01  0.29256745981E+02  0.00000000000E+00 0. -1.
</event>
<event>
 5    1  0.8957809E-005  0.9118800E+02  0.7818608E-02  0.1130116E+00
         25   -1    0    0    0    0  0.00000000000E+00  0.00000000000E+00  0.99999998245E-14  0.12500000000E+03  0.12500000000E+03 0.  0.
        -11    1    3    3    0    0  0.14454401093E+02  0.39543126600E+02 -0.91642892460E+01  0.43087965488E+02  0.51100000000E-03 0.  1.
         23    2    1    0    0    0 -0.12691950206E+02 -0.14332733780E+02 -0.99554254628E+01  0.10342169252E+03  0.10114555418E+03 0.  0.
         11    1    3    3    0    0 -0.27146351299E+02 -0.53875860380E+02 -0.79113621685E+00  0.60333727030E+02  0.51100000000E-03 0. -1.
         22    1    1    0    0    0  0.12691950206E+02  0.14332733780E+02  0.99554254628E+01  0.21578307482E+02  0.00000000000E+00 0. -1.
</event>
<event>
 5    1  0.8957809E-005  0.9118800E+02  0.7818608E-02  0.1130116E+00
         25   -1    0    0    0    0  0.00000000000E+00  0.00000000000E+00  0.99999998245E-14  0.12500000000E+03  0.12500000000E+03 0.  0.
        -11    1    3    3    0    0  0.13953682166E+02 -0.35210383715E+02  0.20579074930E+02  0.43104230565E+02  0.51100000000E-03 0. -1.
         23    2    1    0    0    0 -0.23037687544E+02  0.92373069727E-01 -0.66308981836E+01  0.10102684020E+03  0.98141275973E+02 0.  0.
         11    1    3    3    0    0 -0.36991369710E+02  0.35302756785E+02 -0.27209973114E+02  0.57922609633E+02  0.51100000000E-03 0.  1.
         22    1    1    0    0    0  0.23037687544E+02 -0.92373069727E-01  0.66308981836E+01  0.23973159801E+02  0.00000000000E+00 0.  1.
</event>
<event>
 5    1  0.8957809E-005  0.9118800E+02  0.7818608E-02  0.1130116E+00
         25   -1    0    0    0    0  0.00000000000E+00  0.00000000000E+00  0.99999998245E-14  0.12500000000E+03  0.12500000000E+03 0.  0.
        -11    1    3    3    0    0 -0.17022298238E+02 -0.31254753421E+02 -0.25379588138E+02  0.43712032017E+02  0.51100000000E-03 0.  1.
         23    2    1    0    0    0  0.17748512157E+02 -0.20343768805E+02  0.11586417517E+02  0.95621033309E+02  0.90995924783E+02 0.  0.
         11    1    3    3    0    0  0.34770810394E+02  0.10910984616E+02  0.36966005655E+02  0.51909001292E+02  0.51100000000E-03 0. -1.
         22    1    1    0    0    0 -0.17748512157E+02  0.20343768805E+02 -0.11586417517E+02  0.29378966691E+02  0.00000000000E+00 0. -1.
</event>
<event>
 5    1  0.8957809E-005  0.9118800E+02  0.7818608E-02  0.1130116E+00
         25   -1    0    0    0    0  0.00000000000E+00  0.00000000000E+00  0.99999998245E-14  0.12500000000E+03  0.12500000000E+03 0.  0.
        -11    1    3    3    0    0 -0.84170866531E+01  0.42576856738E+02 -0.41835505717E+02  0.60281386980E+02  0.51100000000E-03 0.  1.
         23    2    1    0    0    0 -0.41016316357E+01  0.14492521030E+02 -0.30709069118E+02  0.90796148258E+02  0.84107294954E+02 0.  0.
         11    1    3    3    0    0  0.43154550174E+01 -0.28084335708E+02  0.11126436598E+02  0.30514761277E+02  0.51100000000E-03 0. -1.
         22    1    1    0    0    0  0.41016316357E+01 -0.14492521030E+02  0.30709069118E+02  0.34203851742E+02  0.00000000000E+00 0.  1.
</event>
<event>
 5    1  0.8957809E-005  0.9118800E+02  0.7818608E-02  0.1130116E+00
         25   -1    0    0    0    0  0.00000000000E+00  0.00000000000E+00  0.99999998245E-14  0.12500000000E+03  0.12500000000E+03 0.  0.
        -11    1    3    3    0    0  0.45032561316E+01  0.20512221647E+02 -0.30556759327E+02  0.37077568603E+02  0.51100000000E-03 0.  1.
         23    2    1    0    0    0  0.53295399359E+01 -0.26556297452E+02  0.66829386240E+01  0.97101924817E+02  0.93007963122E+02 0.  0.
         11    1    3    3    0    0  0.82628380421E+00 -0.47068519099E+02  0.37239697951E+02  0.60024356214E+02  0.51100000000E-03 0. -1.
         22    1    1    0    0    0 -0.53295399359E+01  0.26556297452E+02 -0.66829386240E+01  0.27898075183E+02  0.00000000000E+00 0. -1.
</event>
<event>
 5    1  0.8957809E-005  0.9118800E+02  0.7818608E-02  0.1130116E+00
         25   -1    0    0    0    0  0.00000000000E+00  0.00000000000E+00  0.99999998245E-14  0.12500000000E+03  0.12500000000E+03 0.  0.
        -11    1    3    3    0    0  0.91592295485E+00  0.31477944832E+02 -0.20291683432E+02  0.37462679328E+02  0.51100000000E-03 0.  1.
         23    2    1    0    0    0  0.92767989419E-01 -0.23525811297E+02 -0.22403678390E+02  0.92513122518E+02  0.86621479031E+02 0.  0.
         11    1    3    3    0    0 -0.82315496543E+00 -0.55003756129E+02 -0.21119949579E+01  0.55050443190E+02  0.51100000000E-03 0. -1.
         22    1    1    0    0    0 -0.92767989419E-01  0.23525811297E+02  0.22403678390E+02  0.32486877482E+02  0.00000000000E+00 0. -1.
</event>
<event>
 5    1  0.8957809E-005  0.9118800E+02  0.7818608E-02  0.1130116E+00
         25   -1    0    0    0    0  0.00000000000E+00  0.00000000000E+00  0.99999998245E-14  0.12500000000E+03  0.12500000000E+03 0.  0.
        -11    1    3    3    0    0  0.32286706697E+02  0.65917434193E+01  0.30752218033E+01  0.33095913646E+02  0.51100000000E-03 0. -1.
         23    2    1    0    0    0 -0.22945103464E+02 -0.18233549388E+02  0.99728502566E+01  0.94041998797E+02  0.88800336144E+02 0.  0.
         11    1    3    3    0    0 -0.55231810161E+02 -0.24825292807E+02  0.68976284533E+01  0.60946085151E+02  0.51100000000E-03 0.  1.
         22    1    1    0    0    0  0.22945103464E+02  0.18233549388E+02 -0.99728502566E+01  0.30958001203E+02  0.00000000000E+00 0.  1.
</event>
<event>
 5    1  0.8957809E-005  0.9118800E+02  0.7818608E-02  0.1130116E+00
         25   -1    0    0    0    0  0.00000000000E+00  0.00000000000E+00  0.99999998245E-14  0.12500000000E+03  0.12500000000E+03 0.  0.
        -11    1    3    3    0    0 -0.99069889751E+01 -0.19900092807E+02 -0.23964182157E+02  0.32687063970E+02  0.51100000000E-03 0.  1.
         23    2    1    0    0    0  0.19952600931E+02  0.18286192163E+02  0.14250015767E+02  0.94413171837E+02  0.89321290626E+02 0.  0.
         11    1    3    3    0    0  0.29859589906E+02  0.38186284969E+02  0.38214197924E+02  0.61726107867E+02  0.51100000000E-03 0. -1.
         22    1    1    0    0    0 -0.19952600931E+02 -0.18286192163E+02 -0.14250015767E+02  0.30586828163E+02  0.00000000000E+00 0. -1.
</event>
<event>
 5    1  0.8957809E-005  0.9118800E+02  0.7818608E-02  0.1130116E+00
         25   -1    0    0    0    0  0.00000000000E+00  0.00000000000E+00  0.99999998245E-14  0.12500000000E+03  0.12500000000E+03 0.  0.
        -11    1    3    3    0    0 -0.51913807513E+01  0.33860362192E+02 -0.14800298336E+02  0.37316529756E+02  0.51100000000E-03 0. -1.
         23    2    1    0    0    0 -0.16730751964E+02 -0.22927716638E+02 -0.67888549718E+01  0.95816326425E+02  0.91263802277E+02 0.  0.
         11    1    3    3    0    0 -0.11539371213E+02 -0.56788078831E+02  0.80114433645E+01  0.58499796669E+02  0.51100000000E-03 0.  1.
         22    1    1    0    0    0  0.16730751964E+02  0.22927716638E+02  0.67888549718E+01  0.29183673575E+02  0.00000000000E+00 0.  1.
</event>
<event>
 5    1  0.8957809E-005  0.9118800E+02  0.7818608E-02  0.1130116E+00
         25   -1    0    0    0    0  0.00000000000E+00  0.00000000000E+00  0.99999998245E-14  0.12500000000E+03  0.12500000000E+03 0.  0.
        -11    1    3    3    0    0  0.34289491946E+02 -0.37985129413E+02  0.27198469242E-01  0.51172649477E+02  0.51100000000E-03 0.  1.
         23    2    1    0    0    0  0.34865665433E+01 -0.16170316347E+02 -0.23952189981E+02  0.95890848828E+02  0.91365815309E+02 0.  0.
         11    1    3    3    0    0 -0.30802925403E+02  0.21814813066E+02 -0.23979388451E+02  0.44718199351E+02  0.51100000000E-03 0. -1.
         22    1    1    0    0    0 -0.34865665433E+01  0.16170316347E+02  0.23952189981E+02  0.29109151172E+02  0.00000000000E+00 0. -1.
</event>
<event>
 5    1  0.8957809E-005  0.9118800E+02  0.7818608E-02  0.1130116E+00
         25   -1    0    0    0    0  0.00000000000E+00  0.00000000000E+00  0.99999998245E-14  0.12500000000E+03  0.12500000000E+03 0.  0.
        -11    1    3    3    0    0 -0.25934160620E+02 -0.13966019740E+02  0.32004609880E+02  0.43496269361E+02  0.51100000000E-03 0.  1.
         23    2    1    0    0    0  0.13881232298E+02 -0.25962265163E+02  0.69025070549E+00  0.95551667814E+02  0.90900588302E+02 0.  0.
         11    1    3    3    0    0  0.39815392918E+02 -0.11996245422E+02 -0.31314359174E+02  0.52055398454E+02  0.51100000000E-03 0. -1.
         22    1    1    0    0    0 -0.13881232298E+02  0.25962265163E+02 -0.69025070549E+00  0.29448332186E+02  0.00000000000E+00 0. -1.
</event>
<event>
 5    1  0.8957809E-005  0.9118800E+02  0.7818608E-02  0.1130116E+00
         25   -1    0    0    0    0  0.00000000000E+00  0.00000000000E+00  0.99999998245E-14  0.12500000000E+03  0.12500000000E+03 0.  0.
        -11    1    3    3    0    0  0.18500628163E+02 -0.54857066112E+02  0.64390281844E+00  0.57896334564E+02  0.51100000000E-03 0. -1.
         23    2    1    0    0    0  0.21615037635E+02 -0.21480228246E+02 -0.97708527710E+01  0.92998755941E+02  0.87319465099E+02 0.  0.
         11    1    3    3    0    0  0.31144094723E+01  0.33376837866E+02 -0.10414755589E+02  0.35102421377E+02  0.51100000000E-03 0.  1.
         22    1    1    0    0    0 -0.21615037635E+02  0.21480228246E+02  0.97708527710E+01  0.32001244059E+02  0.00000000000E+00 0. -1.
</event>
<event>
 5    1  0.8957809E-005  0.9118800E+02  0.7818608E-02  0.1130116E+00
         25   -1    0    0    0    0  0.00000000000E+00  0.00000000000E+00  0.99999998245E-14  0.12500000000E+03  0.12500000000E+03 0.  0.
        -11    1    3    3    0    0  0.21519369966E+02 -0.31938287258E+02  0.41977575075E+02  0.56967133385E+02  0.51100000000E-03 0.  1.
         23    2    1    0    0    0  0.58242619716E+01  0.13303348598E+01  0.28082549189E+02  0.96289002328E+02  0.91908925475E+02 0.  0.
         11    1    3    3    0    0 -0.15695107995E+02  0.33268622117E+02 -0.13895025886E+02  0.39321868943E+02  0.51100000000E-03 0. -1.
         22    1    1    0    0    0 -0.58242619716E+01 -0.13303348598E+01 -0.28082549189E+02  0.28710997672E+02  0.00000000000E+00 0.  1.
</event>
<event>
 5    1  0.8957809E-005  0.9118800E+02  0.7818608E-02  0.1130116E+00
         25   -1    0    0    0    0  0.00000000000E+00  0.00000000000E+00  0.99999998245E-14  0.12500000000E+03  0.12500000000E+03 0.  0.
        -11    1    3    3    0    0  0.28639254746E+02  0.33937030629E+02 -0.36959177441E+02  0.57774646323E+02  0.51100000000E-03 0.  1.
         23    2    1    0    0    0  0.12223300469E+02  0.25755111446E+02 -0.30472561964E+01  0.96329098195E+02  0.91963441371E+02 0.  0.
         11    1    3    3    0    0 -0.16415954277E+02 -0.81819191829E+01  0.33911921245E+02  0.38554451872E+02  0.51100000000E-03 0. -1.
         22    1    1    0    0    0 -0.12223300469E+02 -0.25755111446E+02  0.30472561964E+01  0.28670901805E+02  0.00000000000E+00 0.  1.
</event>
<event>
 5    1  0.8957809E-005  0.9118800E+02  0.7818608E-02  0.1130116E+00
         25   -1    0    0    0    0  0.00000000000E+00  0.00000000000E+00  0.99999998245E-14  0.12500000000E+03  0.12500000000E+03 0.  0.
        -11    1    3    3    0    0 -0.93102167022E+01  0.27543498632E+02  0.37758560312E+02  0.47655359919E+02  0.51100000000E-03 0. -1.
         23    2    1    0    0    0  0.13392670774E+02  0.26519400761E+02 -0.38266976623E+01  0.95045269786E+02  0.90201537939E+02 0.  0.
         11    1    3    3    0    0  0.22702887476E+02 -0.10240978711E+01 -0.41585257974E+02  0.47389909867E+02  0.51100000000E-03 0.  1.
         22    1    1    0    0    0 -0.13392670774E+02 -0.26519400761E+02  0.38266976623E+01  0.29954730214E+02  0.00000000000E+00 0.  1.
</event>
<event>
 5    1  0.8957809E-005  0.9118800E+02  0.7818608E-02  0.1130116E+00
         25   -1    0    0    0    0  0.00000000000E+00  0.00000000000E+00  0.99999998245E-14  0.12500000000E+03  0.12500000000E+03 0.  0.
        -11    1    3    3    0    0  0.29679886346E+01  0.37766520133E+02 -0.49359192355E+02  0.62220968088E+02  0.51100000000E-03 0.  1.
         23    2    1    0    0    0  0.38183060757E+01  0.14331421060E+02 -0.24218894610E+02  0.96600634743E+02  0.92331785890E+02 0.  0.
         11    1    3    3    0    0  0.85031744113E+00 -0.23435099074E+02  0.25140297745E+02  0.34379666655E+02  0.51100000000E-03 0. -1.
         22    1    1    0    0    0 -0.38183060757E+01 -0.14331421060E+02  0.24218894610E+02  0.28399365257E+02  0.00000000000E+00 0.  1.
</event>
<event>
 5    1  0.8957809E-005  0.9118800E+02  0.7818608E-02  0.1130116E+00
         25   -1    0    0    0    0  0.00000000000E+00  0.00000000000E+00  0.99999998245E-14  0.12500000000E+03  0.12500000000E+03 0.  0.
        -11    1    3    3    0    0 -0.36797403170E+02 -0.15257931942E+02  0.16723964305E+02  0.43203522421E+02  0.51100000000E-03 0.  1.
         23    2    1    0    0    0 -0.10222081180E+02 -0.33423213445E+01 -0.27112134281E+02  0.95832725857E+02  0.91286261093E+02 0.  0.
         11    1    3    3    0    0  0.26575321991E+02  0.11915610598E+02 -0.43836098586E+02  0.52629203437E+02  0.51100000000E-03 0. -1.
         22    1    1    0    0    0  0.10222081180E+02  0.33423213445E+01  0.27112134281E+02  0.29167274143E+02  0.00000000000E+00 0. -1.
</event>
<event>
 5    1  0.8957809E-005  0.9118800E+02  0.7818608E-02  0.1130116E+00
         25   -1    0    0    0    0  0.00000000000E+00  0.00000000000E+00  0.99999998245E-14  0.12500000000E+03  0.12500000000E+03 0.  0.
        -11    1    3    3    0    0  0.13108776022E+02  0.21802630212E+02 -0.53629479211E+02  0.59357524659E+02  0.51100000000E-03 0.  1.
         23    2    1    0    0    0  0.18034741987E+02  0.20576559587E+02 -0.26669490625E+02  0.86791251615E+02  0.77928254848E+02 0.  0.
         11    1    3    3    0    0  0.49259659642E+01 -0.12260706248E+01  0.26959988586E+02  0.27433726956E+02  0.51100000000E-03 0. -1.
         22    1    1    0    0    0 -0.18034741987E+02 -0.20576559587E+02  0.26669490625E+02  0.38208748385E+02  0.00000000000E+00 0.  1.
</event>
<event>
 5    1  0.8957809E-005  0.9118800E+02  0.7818608E-02  0.1130116E+00
         25   -1    0    0    0    0  0.00000000000E+00  0.00000000000E+00  0.99999998245E-14  0.12500000000E+03  0.12500000000E+03 0.  0.
        -11    1    3    3    0    0  0.38533360907E+02  0.29900787151E+02  0.36392898920E+02  0.60854909967E+02  0.51100000000E-03 0.  1.
         23    2    1    0    0    0  0.80498426772E+01  0.18565716727E+02  0.12441362165E+02  0.10124556258E+03  0.98419462732E+02 0.  0.
         11    1    3    3    0    0 -0.30483518230E+02 -0.11335070423E+02 -0.23951536754E+02  0.40390652611E+02  0.51100000000E-03 0. -1.
         22    1    1    0    0    0 -0.80498426772E+01 -0.18565716727E+02 -0.12441362165E+02  0.23754437422E+02  0.00000000000E+00 0.  1.
</event>
<event>
 5    1  0.8957809E-005  0.9118800E+02  0.7818608E-02  0.1130116E+00
         25   -1    0    0    0    0  0.00000000000E+00  0.00000000000E+00  0.99999998245E-14  0.12500000000E+03  0.12500000000E+03 0.  0.
        -11    1    3    3    0    0 -0.17527298772E+02  0.50378313775E+02 -0.31377719234E+02  0.61884909030E+02  0.51100000000E-03 0. -1.
         23    2    1    0    0    0 -0.11007793175E+02  0.16396241612E+02 -0.77455482035E+01  0.10378675493E+03  0.10159571217E+03 0.  0.
         11    1    3    3    0    0  0.65195055974E+01 -0.33982072162E+02  0.23632171030E+02  0.41901845897E+02  0.51100000000E-03 0.  1.
         22    1    1    0    0    0  0.11007793175E+02 -0.16396241612E+02  0.77455482035E+01  0.21213245074E+02  0.00000000000E+00 0. -1.
</event>
<event>
 5    1  0.8957809E-005  0.9118800E+02  0.7818608E-02  0.1130116E+00
         25   -1    0    0    0    0  0.00000000000E+00  0.00000000000E+00  0.99999998245E-14  0.12500000000E+03  0.12500000000E+03 0.  0.
        -11    1    3    3    0    0  0.12169187755E+02 -0.26021045547E+02 -0.34925659673E+02  0.45221517509E+02  0.51100000000E-03 0.  1.
         23    2    1    0    0    0 -0.21347763134E+02 -0.25630500383E+02 -0.31847083460E+02  0.78881822829E+02  0.63995747571E+02 0.  0.
         11    1    3    3    0    0 -0.33516950889E+02  0.39054516442E+00  0.30785762129E+01  0.33660305320E+02  0.51100000000E-03 0. -1.
         22    1    1    0    0    0  0.21347763134E+02  0.25630500383E+02  0.31847083460E+02  0.46118177171E+02  0.00000000000E+00 0.  1.
</event>
<event>
 5    1  0.8957809E-005  0.9118800E+02  0.7818608E-02  0.1130116E+00
         25   -1    0    0    0    0  0.00000000000E+00  0.00000000000E+00  0.99999998245E-14  0.12500000000E+03  0.12500000000E+03 0.  0.
        -11    1    3    3    0    0  0.12567325186E+02  0.15148663282E+02 -0.38995119204E+02  0.43681105567E+02  0.51100000000E-03 0. -1.
         23    2    1    0    0    0 -0.86731939316E+01  0.27061101459E+02  0.70071496636E+01  0.95731797945E+02  0.91147953823E+02 0.  0.
         11    1    3    3    0    0 -0.21240519118E+02  0.11912438177E+02  0.46002268868E+02  0.52050692377E+02  0.51100000000E-03 0.  1.
         22    1    1    0    0    0  0.86731939316E+01 -0.27061101459E+02 -0.70071496636E+01  0.29268202055E+02  0.00000000000E+00 0.  1.
</event>
<event>
 5    1  0.8957809E-005  0.9118800E+02  0.7818608E-02  0.1130116E+00
         25   -1    0    0    0    0  0.00000000000E+00  0.00000000000E+00  0.99999998245E-14  0.12500000000E+03  0.12500000000E+03 0.  0.
        -11    1    3    3    0    0  0.41951914740E+02  0.12117954530E+02 -0.42962704502E+02  0.61258484724E+02  0.51100000000E-03 0.  1.
         23    2    1    0    0    0  0.11853660879E+02  0.51649834696E+01 -0.24636875450E+02  0.97176233857E+02  0.93107778752E+02 0.  0.
         11    1    3    3    0    0 -0.30098253861E+02 -0.69529710599E+01  0.18325829052E+02  0.35917749133E+02  0.51100000000E-03 0. -1.
         22    1    1    0    0    0 -0.11853660879E+02 -0.51649834696E+01  0.24636875450E+02  0.27823766143E+02  0.00000000000E+00 0.  1.
</event>
<event>
 5    1  0.8957809E-005  0.9118800E+02  0.7818608E-02  0.1130116E+00
         25   -1    0    0    0    0  0.00000000000E+00  0.00000000000E+00  0.99999998245E-14  0.12500000000E+03  0.12500000000E+03 0.  0.
        -11    1    3    3    0    0 -0.56597928125E+01  0.46245614958E+02  0.17740621496E+02  0.49853984885E+02  0.51100000000E-03 0. -1.
         23    2    1    0    0    0 -0.10817677349E+02  0.18466768520E+02 -0.19122766741E+02  0.96299409577E+02  0.91923078681E+02 0.  0.
         11    1    3    3    0    0 -0.51578845361E+01 -0.27778846438E+02 -0.36863388237E+02  0.46445424693E+02  0.51100000000E-03 0.  1.
         22    1    1    0    0    0  0.10817677349E+02 -0.18466768520E+02  0.19122766741E+02  0.28700590423E+02  0.00000000000E+00 0. -1.
</event>
<event>
 5    1  0.8957809E-005  0.9118800E+02  0.7818608E-02  0.1130116E+00
         25   -1    0    0    0    0  0.00000000000E+00  0.00000000000E+00  0.99999998245E-14  0.12500000000E+03  0.12500000000E+03 0.  0.
        -11    1    3    3    0    0 -0.98878407577E+01  0.27940828379E+02  0.25266558427E+02  0.38946864577E+02  0.51100000000E-03 0. -1.
         23    2    1    0    0    0 -0.24006795889E+02 -0.42721704323E+01 -0.17990163393E+02  0.94697794338E+02  0.89718719254E+02 0.  0.
         11    1    3    3    0    0 -0.14118955131E+02 -0.32212998811E+02 -0.43256721820E+02  0.55750929762E+02  0.51100000000E-03 0.  1.
         22    1    1    0    0    0  0.24006795889E+02  0.42721704323E+01  0.17990163393E+02  0.30302205662E+02  0.00000000000E+00 0.  1.
</event>
<event>
 5    1  0.8957809E-005  0.9118800E+02  0.7818608E-02  0.1130116E+00
         25   -1    0    0    0    0  0.00000000000E+00  0.00000000000E+00  0.99999998245E-14  0.12500000000E+03  0.12500000000E+03 0.  0.
        -11    1    3    3    0    0  0.24534278758E+02  0.40938676746E+01 -0.29140906261E+02  0.38312961314E+02  0.51100000000E-03 0. -1.
         23    2    1    0    0    0  0.11490478192E+02 -0.25564847271E+02  0.15110496999E+02  0.93157895412E+02  0.87546980833E+02 0.  0.
         11    1    3    3    0    0 -0.13043800566E+02 -0.29658714945E+02  0.44251403260E+02  0.54844934097E+02  0.51100000000E-03 0.  1.
         22    1    1    0    0    0 -0.11490478192E+02  0.25564847271E+02 -0.15110496999E+02  0.31842104588E+02  0.00000000000E+00 0.  1.
</event>
<event>
 5    1  0.8957809E-005  0.9118800E+02  0.7818608E-02  0.1130116E+00
         25   -1    0    0    0    0  0.00000000000E+00  0.00000000000E+00  0.99999998245E-14  0.12500000000E+03  0.12500000000E+03 0.  0.
        -11    1    3    3    0    0  0.99712697508E+00 -0.19553816097E+02 -0.51393090033E+02  0.54996324327E+02  0.51100000000E-03 0.  1.
         23    2    1    0    0    0 -0.91869526256E+00 -0.27242092122E+02 -0.11931693673E+02  0.95245321408E+02  0.90478341895E+02 0.  0.
         11    1    3    3    0    0 -0.19158222376E+01 -0.76882760255E+01  0.39461396360E+02  0.40248997081E+02  0.51100000000E-03 0. -1.
         22    1    1    0    0    0  0.91869526256E+00  0.27242092122E+02  0.11931693673E+02  0.29754678592E+02  0.00000000000E+00 0.  1.
</event>
<event>
 5    1  0.8957809E-005  0.9118800E+02  0.7818608E-02  0.1130116E+00
         25   -1    0    0    0    0  0.00000000000E+00  0.00000000000E+00  0.99999998245E-14  0.12500000000E+03  0.12500000000E+03 0.  0.
        -11    1    3    3    0    0  0.47135066770E+02 -0.64781964451E+01 -0.20018054213E+02  0.51617865545E+02  0.51100000000E-03 0.  1.
         23    2    1    0    0    0  0.24085158821E+02  0.13972903482E+02  0.10739311595E+02  0.95155909787E+02  0.90354731180E+02 0.  0.
         11    1    3    3    0    0 -0.23049907949E+02  0.20451099927E+02  0.30757365808E+02  0.43538044242E+02  0.51100000000E-03 0. -1.
         22    1    1    0    0    0 -0.24085158821E+02 -0.13972903482E+02 -0.10739311595E+02  0.29844090213E+02  0.00000000000E+00 0.  1.
</event>
<event>
 5    1  0.8957809E-005  0.9118800E+02  0.7818608E-02  0.1130116E+00
         25   -1    0    0    0    0  0.00000000000E+00  0.00000000000E+00  0.99999998245E-14  0.12500000000E+03  0.12500000000E+03 0.  0.
        -11    1    3    3    0    0 -0.16575274110E+02 -0.19808663240E+02 -0.53452540852E+02  0.59365789601E+02  0.51100000000E-03 0.  1.
         23    2    1    0    0    0 -0.39250097000E+01 -0.21407285709E+02 -0.18974923581E+02  0.96125698148E+02  0.91686555923E+02 0.  0.
         11    1    3    3    0    0  0.12650264410E+02 -0.15986224686E+01  0.34477617271E+02  0.36759908547E+02  0.51100000000E-03 0. -1.
         22    1    1    0    0    0  0.39250097000E+01  0.21407285709E+02  0.18974923581E+02  0.28874301852E+02  0.00000000000E+00 0.  1.
</event>
<event>
 5    1  0.8957809E-005  0.9118800E+02  0.7818608E-02  0.1130116E+00
         25   -1    0    0    0    0  0.00000000000E+00  0.00000000000E+00  0.99999998245E-14  0.12500000000E+03  0.12500000000E+03 0.  0.
        -11    1    3    3    0    0 -0.86116109409E+01  0.30417808473E+02 -0.10730556723E+02  0.33384843315E+02  0.51100000000E-03 0.  1.
         23    2    1    0    0    0  0.73549050744E+01 -0.25643352034E+02  0.11736382046E+02  0.95855209801E+02  0.91317043592E+02 0.  0.
         11    1    3    3    0    0  0.15966516015E+02 -0.56061160507E+02  0.22466938769E+02  0.62470366487E+02  0.51100000000E-03 0. -1.
         22    1    1    0    0    0 -0.73549050744E+01  0.25643352034E+02 -0.11736382046E+02  0.29144790199E+02  0.00000000000E+00 0. -1.
</event>
<event>
 5    1  0.8957809E-005  0.9118800E+02  0.7818608E-02  0.1130116E+00
         25   -1    0    0    0    0  0.00000000000E+00  0.00000000000E+00  0.99999998245E-14  0.12500000000E+03  0.12500000000E+03 0.  0.
        -11    1    3    3    0    0  0.20013024485E+02  0.15301398107E+02  0.70387876538E+01  0.26157187635E+02  0.51100000000E-03 0.  1.
         23    2    1    0    0    0 -0.72740687466E+01 -0.29079002628E+02 -0.23823929157E+02  0.86710574953E+02  0.77798738667E+02 0.  0.
         11    1    3    3    0    0 -0.27287093231E+02 -0.44380400735E+02 -0.30862716811E+02  0.60553387318E+02  0.51100000000E-03 0. -1.
         22    1    1    0    0    0  0.72740687466E+01  0.29079002628E+02  0.23823929157E+02  0.38289425047E+02  0.00000000000E+00 0. -1.
</event>
<event>
 5    1  0.8957809E-005  0.9118800E+02  0.7818608E-02  0.1130116E+00
         25   -1    0    0    0    0  0.00000000000E+00  0.00000000000E+00  0.99999998245E-14  0.12500000000E+03  0.12500000000E+03 0.  0.
        -11    1    3    3    0    0  0.33916880369E+02 -0.26467369168E+02  0.43331758229E+01  0.43239482162E+02  0.51100000000E-03 0. -1.
         23    2    1    0    0    0 -0.17090691762E+02 -0.17782501040E+02  0.15088041835E+02  0.96087060085E+02  0.91633863943E+02 0.  0.
         11    1    3    3    0    0 -0.51007572131E+02  0.86848681278E+01  0.10754866012E+02  0.52847577923E+02  0.51100000000E-03 0.  1.
         22    1    1    0    0    0  0.17090691762E+02  0.17782501040E+02 -0.15088041835E+02  0.28912939915E+02  0.00000000000E+00 0.  1.
</event>
<event>
 5    1  0.8957809E-005  0.9118800E+02  0.7818608E-02  0.1130116E+00
         25   -1    0    0    0    0  0.00000000000E+00  0.00000000000E+00  0.99999998245E-14  0.12500000000E+03  0.12500000000E+03 0.  0.
        -11    1    3    3    0    0 -0.22454492796E+02 -0.20705660825E+02 -0.87698955777E+01  0.31777975165E+02  0.51100000000E-03 0.  1.
         23    2    1    0    0    0  0.16585592332E+02  0.25290497338E+02  0.66190984476E+01  0.94040290814E+02  0.88797931865E+02 0.  0.
         11    1    3    3    0    0  0.39040085128E+02  0.45996158163E+02  0.15388994025E+02  0.62262315649E+02  0.51100000000E-03 0. -1.
         22    1    1    0    0    0 -0.16585592332E+02 -0.25290497338E+02 -0.66190984476E+01  0.30959709186E+02  0.00000000000E+00 0. -1.
</event>
<event>
 5    1  0.8957809E-005  0.9118800E+02  0.7818608E-02  0.1130116E+00
         25   -1    0    0    0    0  0.00000000000E+00  0.00000000000E+00  0.99999998245E-14  0.12500000000E+03  0.12500000000E+03 0.  0.
        -11    1    3    3    0    0 -0.29395710554E+02 -0.20232906888E+02 -0.17642568847E+02  0.39808774860E+02  0.51100000000E-03 0.  1.
         23    2    1    0    0    0 -0.89504852843E+01  0.25885270600E+02  0.80920351014E+01  0.96440597819E+02  0.92114870975E+02 0.  0.
         11    1    3    3    0    0  0.20445225269E+02  0.46118177487E+02  0.25734603948E+02  0.56631822959E+02  0.51100000000E-03 0. -1.
         22    1    1    0    0    0  0.89504852843E+01 -0.25885270600E+02 -0.80920351014E+01  0.28559402181E+02  0.00000000000E+00 0. -1.
</event>
<event>
 5    1  0.8957809E-005  0.9118800E+02  0.7818608E-02  0.1130116E+00
         25   -1    0    0    0    0  0.00000000000E+00  0.00000000000E+00  0.99999998245E-14  0.12500000000E+03  0.12500000000E+03 0.  0.
        -11    1    3    3    0    0  0.34877923392E+01 -0.50072784311E+02  0.12703401786E+02  0.51776682409E+02  0.51100000000E-03 0. -1.
         23    2    1    0    0    0  0.26760813548E+02 -0.30576793153E+02  0.88201619766E+00  0.84356927111E+02  0.73920442219E+02 0.  0.
         11    1    3    3    0    0  0.23273021209E+02  0.19495991158E+02 -0.11821385588E+02  0.32580244703E+02  0.51100000000E-03 0.  1.
         22    1    1    0    0    0 -0.26760813548E+02  0.30576793153E+02 -0.88201619766E+00  0.40643072889E+02  0.00000000000E+00 0. -1.
</event>
<event>
 5    1  0.8957809E-005  0.9118800E+02  0.7818608E-02  0.1130116E+00
         25   -1    0    0    0    0  0.00000000000E+00  0.00000000000E+00  0.99999998245E-14  0.12500000000E+03  0.12500000000E+03 0.  0.
        -11    1    3    3    0    0 -0.17449445636E+02 -0.27885677550E+02  0.12276664958E+02  0.35111403677E+02  0.51100000000E-03 0. -1.
         23    2    1    0    0    0  0.23113198037E+02  0.15211625601E+02  0.13290829486E+02  0.94303752259E+02  0.89168032751E+02 0.  0.
         11    1    3    3    0    0  0.40562643673E+02  0.43097303151E+02  0.10141645278E+01  0.59192348582E+02  0.51100000000E-03 0.  1.
         22    1    1    0    0    0 -0.23113198037E+02 -0.15211625601E+02 -0.13290829486E+02  0.30696247741E+02  0.00000000000E+00 0.  1.
</event>
<event>
 5    1  0.8957809E-005  0.9118800E+02  0.7818608E-02  0.1130116E+00
         25   -1    0    0    0    0  0.00000000000E+00  0.00000000000E+00  0.99999998245E-14  0.12500000000E+03  0.12500000000E+03 0.  0.
        -11    1    3    3    0    0 -0.75084307260E+01  0.27576737262E+02  0.50208801644E+02  0.57773495072E+02  0.51100000000E-03 0.  1.
         23    2    1    0    0    0  0.55361582775E+01 -0.90472912486E+00  0.28660582960E+02  0.95795606515E+02  0.91235418718E+02 0.  0.
         11    1    3    3    0    0  0.13044589004E+02 -0.28481466387E+02 -0.21548218685E+02  0.38022111443E+02  0.51100000000E-03 0. -1.
         22    1    1    0    0    0 -0.55361582775E+01  0.90472912486E+00 -0.28660582960E+02  0.29204393485E+02  0.00000000000E+00 0.  1.
</event>
<event>
 5    1  0.8957809E-005  0.9118800E+02  0.7818608E-02  0.1130116E+00
         25   -1    0    0    0    0  0.00000000000E+00  0.00000000000E+00  0.99999998245E-14  0.12500000000E+03  0.12500000000E+03 0.  0.
        -11    1    3    3    0    0  0.17324209781E+02  0.56089088034E+02  0.95001413279E+01  0.59467358496E+02  0.51100000000E-03 0. -1.
         23    2    1    0    0    0 -0.51298742593E+01  0.29884304933E+02  0.50146248042E+01  0.94266732143E+02  0.89116121077E+02 0.  0.
         11    1    3    3    0    0 -0.22454084040E+02 -0.26204783101E+02 -0.44855165238E+01  0.34799373647E+02  0.51100000000E-03 0.  1.
         22    1    1    0    0    0  0.51298742593E+01 -0.29884304933E+02 -0.50146248042E+01  0.30733267857E+02  0.00000000000E+00 0. -1.
</event>
<event>
 5    1  0.8957809E-005  0.9118800E+02  0.7818608E-02  0.1130116E+00
         25   -1    0    0    0    0  0.00000000000E+00  0.00000000000E+00  0.99999998245E-14  0.12500000000E+03  0.12500000000E+03 0.  0.
        -11    1    3    3    0    0  0.13532483044E+02  0.30029297076E+02  0.20370950688E+02  0.38728057174E+02  0.51100000000E-03 0. -1.
         23    2    1    0    0    0 -0.23781369002E+02 -0.12420413464E+02  0.10931305086E+02  0.96029090226E+02  0.91554751688E+02 0.  0.
         11    1    3    3    0    0 -0.37313852047E+02 -0.42449710541E+02 -0.94396456019E+01  0.57301033053E+02  0.51100000000E-03 0.  1.
         22    1    1    0    0    0  0.23781369002E+02  0.12420413464E+02 -0.10931305086E+02  0.28970909774E+02  0.00000000000E+00 0.  1.
</event>
<event>
 5    1  0.8957809E-005  0.9118800E+02  0.7818608E-02  0.1130116E+00
         25   -1    0    0    0    0  0.00000000000E+00  0.00000000000E+00  0.99999998245E-14  0.12500000000E+03  0.12500000000E+03 0.  0.
        -11    1    3    3    0    0  0.33858860827E+02  0.49066139780E+02  0.28087001363E+01  0.59680795287E+02  0.51100000000E-03 0.  1.
         23    2    1    0    0    0  0.13977636938E+02  0.20318885488E+02  0.14322139648E+02  0.96480618416E+02  0.92169162978E+02 0.  0.
         11    1    3    3    0    0 -0.19881223889E+02 -0.28747254292E+02  0.11513439511E+02  0.36799823129E+02  0.51100000000E-03 0. -1.
         22    1    1    0    0    0 -0.13977636938E+02 -0.20318885488E+02 -0.14322139648E+02  0.28519381584E+02  0.00000000000E+00 0.  1.
</event>
<event>
 5    1  0.8957809E-005  0.9118800E+02  0.7818608E-02  0.1130116E+00
         25   -1    0    0    0    0  0.00000000000E+00  0.00000000000E+00  0.99999998245E-14  0.12500000000E+03  0.12500000000E+03 0.  0.
        -11    1    3    3    0    0 -0.17910929590E+02 -0.16408007973E+02  0.55313406973E+02  0.60411895481E+02  0.51100000000E-03 0. -1.
         23    2    1    0    0    0 -0.18106221986E+02 -0.79750899814E+01  0.19443118437E+02  0.97260638267E+02  0.93221025347E+02 0.  0.
         11    1    3    3    0    0 -0.19529239614E+00  0.84329179913E+01 -0.35870288536E+02  0.36848742786E+02  0.51100000000E-03 0.  1.
         22    1    1    0    0    0  0.18106221986E+02  0.79750899814E+01 -0.19443118437E+02  0.27739361733E+02  0.00000000000E+00 0. -1.
</event>
<event>
 5    1  0.8957809E-005  0.9118800E+02  0.7818608E-02  0.1130116E+00
         25   -1    0    0    0    0  0.00000000000E+00  0.00000000000E+00  0.99999998245E-14  0.12500000000E+03  0.12500000000E+03 0.  0.
        -11    1    3    3    0    0  0.32341618954E+02 -0.11148352261E+02  0.37392671133E+02  0.50680153211E+02  0.51100000000E-03 0. -1.
         23    2    1    0    0    0 -0.46971506568E+01 -0.24324999750E+02  0.16868926917E+02  0.95027854057E+02  0.90177400241E+02 0.  0.
         11    1    3    3    0    0 -0.37038769611E+02 -0.13176647489E+02 -0.20523744217E+02  0.44347700846E+02  0.51100000000E-03 0.  1.
         22    1    1    0    0    0  0.46971506568E+01  0.24324999750E+02 -0.16868926917E+02  0.29972145943E+02  0.00000000000E+00 0. -1.
</event>
<event>
 5    1  0.8957809E-005  0.9118800E+02  0.7818608E-02  0.1130116E+00
         25   -1    0    0    0    0  0.00000000000E+00  0.00000000000E+00  0.99999998245E-14  0.12500000000E+03  0.12500000000E+03 0.  0.
        -11    1    3    3    0    0 -0.12229622179E+02  0.57017193054E+01  0.40645460099E+02  0.42826705320E+02  0.51100000000E-03 0.  1.
         23    2    1    0    0    0 -0.22036470574E+02  0.39519969176E+01 -0.14146602939E+02  0.98516973555E+02  0.94890691792E+02 0.  0.
         11    1    3    3    0    0 -0.98068483950E+01 -0.17497223879E+01 -0.54792063038E+02  0.55690268235E+02  0.51100000000E-03 0. -1.
         22    1    1    0    0    0  0.22036470574E+02 -0.39519969176E+01  0.14146602939E+02  0.26483026445E+02  0.00000000000E+00 0. -1.
</event>
<event>
 5    1  0.8957809E-005  0.9118800E+02  0.7818608E-02  0.1130116E+00
         25   -1    0    0    0    0  0.00000000000E+00  0.00000000000E+00  0.99999998245E-14  0.12500000000E+03  0.12500000000E+03 0.  0.
        -11    1    3    3    0    0 -0.19387160056E+02  0.32341949844E+02  0.11278813239E+02  0.39358294210E+02  0.51100000000E-03 0. -1.
         23    2    1    0    0    0 -0.65187012102E+01 -0.21838538223E+02  0.18675296530E+02  0.95535073092E+02  0.90877765560E+02 0.  0.
         11    1    3    3    0    0  0.12868458846E+02 -0.54180488067E+02  0.73964832905E+01  0.56176778882E+02  0.51100000000E-03 0.  1.
         22    1    1    0    0    0  0.65187012102E+01  0.21838538223E+02 -0.18675296530E+02  0.29464926908E+02  0.00000000000E+00 0.  1.
</event>
<event>
 5    1  0.8957809E-005  0.9118800E+02  0.7818608E-02  0.1130116E+00
         25   -1    0    0    0    0  0.00000000000E+00  0.00000000000E+00  0.99999998245E-14  0.12500000000E+03  0.12500000000E+03 0.  0.
        -11    1    3    3    0    0  0.69925176056E+01 -0.27623782084E+02 -0.41864451725E+02  0.50641889357E+02  0.51100000000E-03 0. -1.
         23    2    1    0    0    0  0.25865594678E+02 -0.10327104443E+02 -0.32661763441E+01  0.96958138754E+02  0.92814517661E+02 0.  0.
         11    1    3    3    0    0  0.18873077072E+02  0.17296677641E+02  0.38598275381E+02  0.46316249398E+02  0.51100000000E-03 0.  1.
         22    1    1    0    0    0 -0.25865594678E+02  0.10327104443E+02  0.32661763441E+01  0.28041861246E+02  0.00000000000E+00 0.  1.
</event>
<event>
 5    1  0.8957809E-005  0.9118800E+02  0.7818608E-02  0.1130116E+00
         25   -1    0    0    0    0  0.00000000000E+00  0.00000000000E+00  0.99999998245E-14  0.12500000000E+03  0.12500000000E+03 0.  0.
        -11    1    3    3    0    0  0.65257097568E+01 -0.55024736387E+02 -0.24036026997E+02  0.60398982578E+02  0.51100000000E-03 0. -1.
         23    2    1    0    0    0  0.14326084114E+02 -0.28672320209E+02 -0.90851127265E+01  0.91685169887E+02  0.85418338030E+02 0.  0.
         11    1    3    3    0    0  0.78003743573E+01  0.26352416179E+02  0.14950914271E+02  0.31286187309E+02  0.51100000000E-03 0.  1.
         22    1    1    0    0    0 -0.14326084114E+02  0.28672320209E+02  0.90851127265E+01  0.33314830113E+02  0.00000000000E+00 0. -1.
</event>
<event>
 5    1  0.8957809E-005  0.9118800E+02  0.7818608E-02  0.1130116E+00
         25   -1    0    0    0    0  0.00000000000E+00  0.00000000000E+00  0.99999998245E-14  0.12500000000E+03  0.12500000000E+03 0.  0.
        -11    1    3    3    0    0  0.26620781150E+02  0.72945520523E+01 -0.19650351773E+02  0.33882337637E+02  0.51100000000E-03 0. -1.
         23    2    1    0    0    0 -0.19592839912E+02 -0.25602120592E+02 -0.65274183181E+01  0.92106913423E+02  0.86033297948E+02 0.  0.
         11    1    3    3    0    0 -0.46213621062E+02 -0.32896672645E+02  0.13122933455E+02  0.58224575786E+02  0.51100000000E-03 0.  1.
         22    1    1    0    0    0  0.19592839912E+02  0.25602120592E+02  0.65274183181E+01  0.32893086577E+02  0.00000000000E+00 0.  1.
</event>
<event>
 5    1  0.8957809E-005  0.9118800E+02  0.7818608E-02  0.1130116E+00
         25   -1    0    0    0    0  0.00000000000E+00  0.00000000000E+00  0.99999998245E-14  0.12500000000E+03  0.12500000000E+03 0.  0.
        -11    1    3    3    0    0 -0.75474199049E+01  0.15136776722E+02  0.36230471947E+02  0.39984155043E+02  0.51100000000E-03 0. -1.
         23    2    1    0    0    0  0.31251987142E+02 -0.67170306872E+01  0.10831564714E+02  0.91249029707E+02  0.84777694158E+02 0.  0.
         11    1    3    3    0    0  0.38799407047E+02 -0.21853807409E+02 -0.25398907232E+02  0.51264874664E+02  0.51100000000E-03 0.  1.
         22    1    1    0    0    0 -0.31251987142E+02  0.67170306872E+01 -0.10831564714E+02  0.33750970293E+02  0.00000000000E+00 0.  1.
</event>
<event>
 5    1  0.8957809E-005  0.9118800E+02  0.7818608E-02  0.1130116E+00
         25   -1    0    0    0    0  0.00000000000E+00  0.00000000000E+00  0.99999998245E-14  0.12500000000E+03  0.12500000000E+03 0.  0.
        -11    1    3    3    0    0 -0.35358079141E+02 -0.31087459907E+02  0.11262919599E+02  0.48409475128E+02  0.51100000000E-03 0.  1.
         23    2    1    0    0    0 -0.34382545525E+01  0.14986812150E+01  0.27813875230E+02  0.96934375206E+02  0.92782508058E+02 0.  0.
         11    1    3    3    0    0  0.31919824588E+02  0.32586141122E+02  0.16550955632E+02  0.48524900078E+02  0.51100000000E-03 0. -1.
         22    1    1    0    0    0  0.34382545525E+01 -0.14986812150E+01 -0.27813875230E+02  0.28065624794E+02  0.00000000000E+00 0.  1.
</event>
<event>
 5    1  0.8957809E-005  0.9118800E+02  0.7818608E-02  0.1130116E+00
         25   -1    0    0    0    0  0.00000000000E+00  0.00000000000E+00  0.99999998245E-14  0.12500000000E+03  0.12500000000E+03 0.  0.
        -11    1    3    3    0    0  0.65385599642E+01  0.54742986671E+02 -0.52741960236E+01  0.55383792756E+02  0.51100000000E-03 0.  1.
         23    2    1    0    0    0  0.14944844636E+02  0.15345880147E+02 -0.17345120033E+02  0.97437387503E+02  0.93457727748E+02 0.  0.
         11    1    3    3    0    0  0.84062846722E+01 -0.39397106524E+02 -0.12070924010E+02  0.42053594747E+02  0.51100000000E-03 0. -1.
         22    1    1    0    0    0 -0.14944844636E+02 -0.15345880147E+02  0.17345120033E+02  0.27562612497E+02  0.00000000000E+00 0.  1.
</event>
<event>
 5    1  0.8957809E-005  0.9118800E+02  0.7818608E-02  0.1130116E+00
         25   -1    0    0    0    0  0.00000000000E+00  0.00000000000E+00  0.99999998245E-14  0.12500000000E+03  0.12500000000E+03 0.  0.
        -11    1    3    3    0    0 -0.45002190077E+02 -0.16845318936E+02  0.21183123141E+02  0.52513680009E+02  0.51100000000E-03 0. -1.
         23    2    1    0    0    0 -0.23800160908E+02  0.14744514937E+02 -0.17702685356E+01  0.96946796428E+02  0.92799240875E+02 0.  0.
         11    1    3    3    0    0  0.21202029169E+02  0.31589833872E+02 -0.22953391677E+02  0.44433116419E+02  0.51100000000E-03 0.  1.
         22    1    1    0    0    0  0.23800160908E+02 -0.14744514937E+02  0.17702685356E+01  0.28053203572E+02  0.00000000000E+00 0. -1.
</event>
<event>
 5    1  0.8957809E-005  0.9118800E+02  0.7818608E-02  0.1130116E+00
         25   -1    0    0    0    0  0.00000000000E+00  0.00000000000E+00  0.99999998245E-14  0.12500000000E+03  0.12500000000E+03 0.  0.
        -11    1    3    3    0    0 -0.41113637978E+02  0.38779760038E+02  0.14355803640E+02  0.58312006609E+02  0.51100000000E-03 0. -1.
         23    2    1    0    0    0 -0.24593050437E+02  0.12638425950E+02 -0.77020808048E+01  0.96296864474E+02  0.91919617703E+02 0.  0.
         11    1    3    3    0    0  0.16520587541E+02 -0.26141334089E+02 -0.22057884444E+02  0.37984857865E+02  0.51100000000E-03 0.  1.
         22    1    1    0    0    0  0.24593050437E+02 -0.12638425950E+02  0.77020808048E+01  0.28703135526E+02  0.00000000000E+00 0. -1.
</event>
<event>
 5    1  0.8957809E-005  0.9118800E+02  0.7818608E-02  0.1130116E+00
         25   -1    0    0    0    0  0.00000000000E+00  0.00000000000E+00  0.99999998245E-14  0.12500000000E+03  0.12500000000E+03 0.  0.
        -11    1    3    3    0    0  0.20504663096E+02  0.38287269731E+02  0.38470627859E+02  0.58020215789E+02  0.51100000000E-03 0. -1.
         23    2    1    0    0    0  0.22606165069E+02  0.17748586933E+02  0.74057202863E+01  0.95320112362E+02  0.90581610112E+02 0.  0.
         11    1    3    3    0    0  0.21015019734E+01 -0.20538682798E+02 -0.31064907573E+02  0.37299896573E+02  0.51100000000E-03 0.  1.
         22    1    1    0    0    0 -0.22606165069E+02 -0.17748586933E+02 -0.74057202863E+01  0.29679887638E+02  0.00000000000E+00 0. -1.
</event>
<event>
 5    1  0.8957809E-005  0.9118800E+02  0.7818608E-02  0.1130116E+00
         25   -1    0    0    0    0  0.00000000000E+00  0.00000000000E+00  0.99999998245E-14  0.12500000000E+03  0.12500000000E+03 0.  0.
        -11    1    3    3    0    0  0.18006994654E+02 -0.20961042342E+02  0.12937543208E+02  0.30512246346E+02  0.51100000000E-03 0.  1.
         23    2    1    0    0    0 -0.17683932158E+02  0.24031570854E+02  0.21012149670E+02  0.88506873414E+02  0.80633233555E+02 0.  0.
         11    1    3    3    0    0 -0.35690926813E+02  0.44992613196E+02  0.80746064618E+01  0.57994627068E+02  0.51100000000E-03 0. -1.
         22    1    1    0    0    0  0.17683932158E+02 -0.24031570854E+02 -0.21012149670E+02  0.36493126586E+02  0.00000000000E+00 0. -1.
</event>
<event>
 5    1  0.8957809E-005  0.9118800E+02  0.7818608E-02  0.1130116E+00
         25   -1    0    0    0    0  0.00000000000E+00  0.00000000000E+00  0.99999998245E-14  0.12500000000E+03  0.12500000000E+03 0.  0.
        -11    1    3    3    0    0 -0.57194537575E+02  0.34670246730E+01  0.16588524649E+02  0.59652447886E+02  0.51100000000E-03 0. -1.
         23    2    1    0    0    0 -0.22473551031E+02  0.10600357521E+02  0.16633176998E+02  0.95098651325E+02  0.90275483002E+02 0.  0.
         11    1    3    3    0    0  0.34720986544E+02  0.71333328484E+01  0.44652349358E-01  0.35446203439E+02  0.51100000000E-03 0.  1.
         22    1    1    0    0    0  0.22473551031E+02 -0.10600357521E+02 -0.16633176998E+02  0.29901348675E+02  0.00000000000E+00 0. -1.
</event>
<event>
 5    1  0.8957809E-005  0.9118800E+02  0.7818608E-02  0.1130116E+00
         25   -1    0    0    0    0  0.00000000000E+00  0.00000000000E+00  0.99999998245E-14  0.12500000000E+03  0.12500000000E+03 0.  0.
        -11    1    3    3    0    0  0.30405986748E+02  0.19824699109E+02 -0.37443211767E+02  0.52149178638E+02  0.51100000000E-03 0. -1.
         23    2    1    0    0    0  0.15653311263E+02  0.36039365906E+02 -0.30860166717E+02  0.75037894978E+02  0.55986371061E+02 0.  0.
         11    1    3    3    0    0 -0.14752675486E+02  0.16214666797E+02  0.65830450505E+01  0.22888716340E+02  0.51100000000E-03 0.  1.
         22    1    1    0    0    0 -0.15653311263E+02 -0.36039365906E+02  0.30860166717E+02  0.49962105022E+02  0.00000000000E+00 0. -1.
</event>
<event>
 5    1  0.8957809E-005  0.9118800E+02  0.7818608E-02  0.1130116E+00
         25   -1    0    0    0    0  0.00000000000E+00  0.00000000000E+00  0.99999998245E-14  0.12500000000E+03  0.12500000000E+03 0.  0.
        -11    1    3    3    0    0 -0.28686604932E+02 -0.18790007134E+02  0.23116228985E+02  0.41356326158E+02  0.51100000000E-03 0.  1.
         23    2    1    0    0    0  0.13960318967E+02 -0.24456076867E+02 -0.94311690520E+01  0.95302573326E+02  0.90557403516E+02 0.  0.
         11    1    3    3    0    0  0.42646923899E+02 -0.56660697333E+01 -0.32547398037E+02  0.53946247168E+02  0.51100000000E-03 0. -1.
         22    1    1    0    0    0 -0.13960318967E+02  0.24456076867E+02  0.94311690520E+01  0.29697426674E+02  0.00000000000E+00 0. -1.
</event>
<event>
 5    1  0.8957809E-005  0.9118800E+02  0.7818608E-02  0.1130116E+00
         25   -1    0    0    0    0  0.00000000000E+00  0.00000000000E+00  0.99999998245E-14  0.12500000000E+03  0.12500000000E+03 0.  0.
        -11    1    3    3    0    0  0.37810993326E+02  0.22914539898E+02  0.69095578999E+01  0.44749182626E+02  0.51100000000E-03 0. -1.
         23    2    1    0    0    0  0.17679610858E+02 -0.15305720301E+02 -0.18779396892E+02  0.95008343466E+02  0.90150351449E+02 0.  0.
         11    1    3    3    0    0 -0.20131382467E+02 -0.38220260200E+02 -0.25688954792E+02  0.50259160840E+02  0.51100000000E-03 0.  1.
         22    1    1    0    0    0 -0.17679610858E+02  0.15305720301E+02  0.18779396892E+02  0.29991656534E+02  0.00000000000E+00 0.  1.
</event>
<event>
 5    1  0.8957809E-005  0.9118800E+02  0.7818608E-02  0.1130116E+00
         25   -1    0    0    0    0  0.00000000000E+00  0.00000000000E+00  0.99999998245E-14  0.12500000000E+03  0.12500000000E+03 0.  0.
        -11    1    3    3    0    0 -0.41758900377E+02  0.45393741722E+02  0.41003624524E+01  0.61815940669E+02  0.51100000000E-03 0.  1.
         23    2    1    0    0    0 -0.22637569414E+02  0.19562843188E+02  0.75616584172E+01  0.94139943931E+02  0.88938101975E+02 0.  0.
         11    1    3    3    0    0  0.19121330963E+02 -0.25830898535E+02  0.34612959648E+01  0.32324003263E+02  0.51100000000E-03 0. -1.
         22    1    1    0    0    0  0.22637569414E+02 -0.19562843188E+02 -0.75616584172E+01  0.30860056069E+02  0.00000000000E+00 0.  1.
</event>
<event>
 5    1  0.8957809E-005  0.9118800E+02  0.7818608E-02  0.1130116E+00
         25   -1    0    0    0    0  0.00000000000E+00  0.00000000000E+00  0.99999998245E-14  0.12500000000E+03  0.12500000000E+03 0.  0.
        -11    1    3    3    0    0  0.27680711497E+02 -0.26307920262E+02 -0.41272912386E+01  0.38410454185E+02  0.51100000000E-03 0. -1.
         23    2    1    0    0    0 -0.24118050276E+02 -0.16946586160E+02  0.11562319443E+02  0.93336861140E+02  0.87802137132E+02 0.  0.
         11    1    3    3    0    0 -0.51798761773E+02  0.93613341016E+01  0.15689610682E+02  0.54926406955E+02  0.51100000000E-03 0.  1.
         22    1    1    0    0    0  0.24118050276E+02  0.16946586160E+02 -0.11562319443E+02  0.31663138860E+02  0.00000000000E+00 0.  1.
</event>
<event>
 5    1  0.8957809E-005  0.9118800E+02  0.7818608E-02  0.1130116E+00
         25   -1    0    0    0    0  0.00000000000E+00  0.00000000000E+00  0.99999998245E-14  0.12500000000E+03  0.12500000000E+03 0.  0.
        -11    1    3    3    0    0  0.26926558313E+02  0.51092332096E+01  0.48782357843E+02  0.55954108370E+02  0.51100000000E-03 0.  1.
         23    2    1    0    0    0  0.26727015194E+02 -0.10178480355E+02  0.15756517688E+02  0.92347241263E+02  0.86381770737E+02 0.  0.
         11    1    3    3    0    0 -0.19954311897E+00 -0.15287713565E+02 -0.33025840155E+02  0.36393132892E+02  0.51100000000E-03 0. -1.
         22    1    1    0    0    0 -0.26727015194E+02  0.10178480355E+02 -0.15756517688E+02  0.32652758737E+02  0.00000000000E+00 0.  1.
</event>
<event>
 5    1  0.8957809E-005  0.9118800E+02  0.7818608E-02  0.1130116E+00
         25   -1    0    0    0    0  0.00000000000E+00  0.00000000000E+00  0.99999998245E-14  0.12500000000E+03  0.12500000000E+03 0.  0.
        -11    1    3    3    0    0 -0.23506871130E+01 -0.32285296323E+02 -0.20805698094E+02  0.38480425699E+02  0.51100000000E-03 0.  1.
         23    2    1    0    0    0 -0.23328070447E+02  0.51329544957E+01  0.17018109862E+02  0.95671478797E+02  0.91065194775E+02 0.  0.
         11    1    3    3    0    0 -0.20977383334E+02  0.37418250819E+02  0.37823807956E+02  0.57191053098E+02  0.51100000000E-03 0. -1.
         22    1    1    0    0    0  0.23328070447E+02 -0.51329544957E+01 -0.17018109862E+02  0.29328521203E+02  0.00000000000E+00 0. -1.
</event>
<event>
 5    1  0.8957809E-005  0.9118800E+02  0.7818608E-02  0.1130116E+00
         25   -1    0    0    0    0  0.00000000000E+00  0.00000000000E+00  0.99999998245E-14  0.12500000000E+03  0.12500000000E+03 0.  0.
        -11    1    3    3    0    0  0.17243329466E+02  0.50638627948E+02 -0.16908274995E+01  0.53520668432E+02  0.51100000000E-03 0. -1.
         23    2    1    0    0    0  0.12292255270E+02  0.13920814452E+02 -0.22349935539E+02  0.95941296773E+02  0.91434808433E+02 0.  0.
         11    1    3    3    0    0 -0.49510741957E+01 -0.36717813496E+02 -0.20659108039E+02  0.42420628341E+02  0.51100000000E-03 0.  1.
         22    1    1    0    0    0 -0.12292255270E+02 -0.13920814452E+02  0.22349935539E+02  0.29058703227E+02  0.00000000000E+00 0. -1.
</event>
<event>
 5    1  0.8957809E-005  0.9118800E+02  0.7818608E-02  0.1130116E+00
         25   -1    0    0    0    0  0.00000000000E+00  0.00000000000E+00  0.99999998245E-14  0.12500000000E+03  0.12500000000E+03 0.  0.
        -11    1    3    3    0    0  0.20794942669E+01  0.30415580604E+02 -0.33320668583E+01  0.30668135087E+02  0.51100000000E-03 0. -1.
         23    2    1    0    0    0  0.64490850481E+01 -0.14715506549E+02 -0.35346452200E+02  0.86173353041E+02  0.76930736773E+02 0.  0.
         11    1    3    3    0    0  0.43695907812E+01 -0.45131087153E+02 -0.32014385341E+02  0.55505217955E+02  0.51100000000E-03 0.  1.
         22    1    1    0    0    0 -0.64490850481E+01  0.14715506549E+02  0.35346452200E+02  0.38826646959E+02  0.00000000000E+00 0.  1.
</event>
<event>
 5    1  0.8957809E-005  0.9118800E+02  0.7818608E-02  0.1130116E+00
         25   -1    0    0    0    0  0.00000000000E+00  0.00000000000E+00  0.99999998245E-14  0.12500000000E+03  0.12500000000E+03 0.  0.
        -11    1    3    3    0    0 -0.88571947964E+01  0.47619130333E+02 -0.84976515129E+01  0.49175619516E+02  0.51100000000E-03 0.  1.
         23    2    1    0    0    0  0.23599745034E+02  0.17390566452E+02  0.43772133649E+01  0.95359828542E+02  0.90636400720E+02 0.  0.
         11    1    3    3    0    0  0.32456939831E+02 -0.30228563880E+02  0.12874864878E+02  0.46184209026E+02  0.51100000000E-03 0. -1.
         22    1    1    0    0    0 -0.23599745034E+02 -0.17390566452E+02 -0.43772133649E+01  0.29640171458E+02  0.00000000000E+00 0.  1.
</event>
<event>
 5    1  0.8957809E-005  0.9118800E+02  0.7818608E-02  0.1130116E+00
         25   -1    0    0    0    0  0.00000000000E+00  0.00000000000E+00  0.99999998245E-14  0.12500000000E+03  0.12500000000E+03 0.  0.
        -11    1    3    3    0    0  0.30543214381E+02  0.15761685573E+02  0.47173082519E+02  0.58366243595E+02  0.51100000000E-03 0. -1.
         23    2    1    0    0    0  0.13599673066E+02 -0.86624214746E+01  0.24134862795E+02  0.95974489575E+02  0.91480174867E+02 0.  0.
         11    1    3    3    0    0 -0.16943541315E+02 -0.24424107047E+02 -0.23038219724E+02  0.37608245980E+02  0.51100000000E-03 0.  1.
         22    1    1    0    0    0 -0.13599673066E+02  0.86624214746E+01 -0.24134862795E+02  0.29025510425E+02  0.00000000000E+00 0. -1.
</event>
<event>
 5    1  0.8957809E-005  0.9118800E+02  0.7818608E-02  0.1130116E+00
         25   -1    0    0    0    0  0.00000000000E+00  0.00000000000E+00  0.99999998245E-14  0.12500000000E+03  0.12500000000E+03 0.  0.
        -11    1    3    3    0    0  0.30679754353E+02  0.18814512433E+02  0.81938236162E+01  0.36910323095E+02  0.51100000000E-03 0.  1.
         23    2    1    0    0    0 -0.46002528419E+01 -0.18774079061E+02 -0.21246661183E+02  0.96276334109E+02  0.91891694550E+02 0.  0.
         11    1    3    3    0    0 -0.35280007195E+02 -0.37588591494E+02 -0.29440484799E+02  0.59366011014E+02  0.51100000000E-03 0. -1.
         22    1    1    0    0    0  0.46002528419E+01  0.18774079061E+02  0.21246661183E+02  0.28723665891E+02  0.00000000000E+00 0. -1.
</event>
<event>
 5    1  0.8957809E-005  0.9118800E+02  0.7818608E-02  0.1130116E+00
         25   -1    0    0    0    0  0.00000000000E+00  0.00000000000E+00  0.99999998245E-14  0.12500000000E+03  0.12500000000E+03 0.  0.
        -11    1    3    3    0    0  0.14038903119E+02  0.15211690690E+02 -0.40545575248E+02  0.45523949816E+02  0.51100000000E-03 0. -1.
         23    2    1    0    0    0 -0.88563054807E+01 -0.22492878018E+02 -0.12639194481E+02  0.97721566295E+02  0.93837047980E+02 0.  0.
         11    1    3    3    0    0 -0.22895208600E+02 -0.37704568708E+02  0.27906380767E+02  0.52197616478E+02  0.51100000000E-03 0.  1.
         22    1    1    0    0    0  0.88563054807E+01  0.22492878018E+02  0.12639194481E+02  0.27278433705E+02  0.00000000000E+00 0. -1.
</event>
<event>
 5    1  0.8957809E-005  0.9118800E+02  0.7818608E-02  0.1130116E+00
         25   -1    0    0    0    0  0.00000000000E+00  0.00000000000E+00  0.99999998245E-14  0.12500000000E+03  0.12500000000E+03 0.  0.
        -11    1    3    3    0    0  0.50144373994E+02 -0.20725177185E+02 -0.30832991945E+02  0.62407248018E+02  0.51100000000E-03 0. -1.
         23    2    1    0    0    0  0.26662642579E+02 -0.95166120755E+01 -0.13806479555E+02  0.93502678012E+02  0.88037886748E+02 0.  0.
         11    1    3    3    0    0 -0.23481731415E+02  0.11208565110E+02  0.17026512390E+02  0.31095429994E+02  0.51100000000E-03 0.  1.
         22    1    1    0    0    0 -0.26662642579E+02  0.95166120755E+01  0.13806479555E+02  0.31497321988E+02  0.00000000000E+00 0. -1.
</event>
<event>
 5    1  0.8957809E-005  0.9118800E+02  0.7818608E-02  0.1130116E+00
         25   -1    0    0    0    0  0.00000000000E+00  0.00000000000E+00  0.99999998245E-14  0.12500000000E+03  0.12500000000E+03 0.  0.
        -11    1    3    3    0    0  0.13368306126E+01  0.20709263308E+01  0.37906582718E+02  0.37986640620E+02  0.51100000000E-03 0.  1.
         23    2    1    0    0    0 -0.25474650765E+02 -0.35245767822E+01 -0.13291893534E+02  0.96050822001E+02  0.91584417345E+02 0.  0.
         11    1    3    3    0    0 -0.26811481377E+02 -0.55955031129E+01 -0.51198476252E+02  0.58064181382E+02  0.51100000000E-03 0. -1.
         22    1    1    0    0    0  0.25474650765E+02  0.35245767822E+01  0.13291893534E+02  0.28949177999E+02  0.00000000000E+00 0. -1.
</event>
<event>
 5    1  0.8957809E-005  0.9118800E+02  0.7818608E-02  0.1130116E+00
         25   -1    0    0    0    0  0.00000000000E+00  0.00000000000E+00  0.99999998245E-14  0.12500000000E+03  0.12500000000E+03 0.  0.
        -11    1    3    3    0    0  0.91400549501E+00 -0.15267682876E+02  0.37945628060E+02  0.40912201549E+02  0.51100000000E-03 0.  1.
         23    2    1    0    0    0 -0.28747447758E+02 -0.79628722940E+01 -0.61376757430E+01  0.94545211357E+02  0.89505881590E+02 0.  0.
         11    1    3    3    0    0 -0.29661453253E+02  0.73048105822E+01 -0.44083303803E+02  0.53633009809E+02  0.51100000000E-03 0. -1.
         22    1    1    0    0    0  0.28747447758E+02  0.79628722940E+01  0.61376757430E+01  0.30454788643E+02  0.00000000000E+00 0. -1.
</event>
<event>
 5    1  0.8957809E-005  0.9118800E+02  0.7818608E-02  0.1130116E+00
         25   -1    0    0    0    0  0.00000000000E+00  0.00000000000E+00  0.99999998245E-14  0.12500000000E+03  0.12500000000E+03 0.  0.
        -11    1    3    3    0    0 -0.52984730088E+02 -0.90300208917E+01 -0.27126513669E+02  0.60206068165E+02  0.51100000000E-03 0.  1.
         23    2    1    0    0    0 -0.10252355139E+02 -0.10828276142E+02 -0.12907152897E+02  0.10527800857E+03  0.10341422602E+03 0.  0.
         11    1    3    3    0    0  0.42732374949E+02 -0.17982552501E+01  0.14219360772E+02  0.45071940404E+02  0.51100000000E-03 0. -1.
         22    1    1    0    0    0  0.10252355139E+02  0.10828276142E+02  0.12907152897E+02  0.19721991431E+02  0.00000000000E+00 0.  1.
</event>
<event>
 5    1  0.8957809E-005  0.9118800E+02  0.7818608E-02  0.1130116E+00
         25   -1    0    0    0    0  0.00000000000E+00  0.00000000000E+00  0.99999998245E-14  0.12500000000E+03  0.12500000000E+03 0.  0.
        -11    1    3    3    0    0 -0.46376132644E+02 -0.28957292936E+02 -0.83021668459E+01  0.55300962630E+02  0.51100000000E-03 0. -1.
         23    2    1    0    0    0 -0.11215983894E+02 -0.27981430942E+02  0.76133423344E+01  0.93907850609E+02  0.88611300928E+02 0.  0.
         11    1    3    3    0    0  0.35160148749E+02  0.97586199435E+00  0.15915509180E+02  0.38606887979E+02  0.51100000000E-03 0.  1.
         22    1    1    0    0    0  0.11215983894E+02  0.27981430942E+02 -0.76133423344E+01  0.31092149391E+02  0.00000000000E+00 0. -1.
</event>
<event>
 5    1  0.8957809E-005  0.9118800E+02  0.7818608E-02  0.1130116E+00
         25   -1    0    0    0    0  0.00000000000E+00  0.00000000000E+00  0.99999998245E-14  0.12500000000E+03  0.12500000000E+03 0.  0.
        -11    1    3    3    0    0  0.26825516207E+02  0.27189746123E+02  0.54134652928E+00  0.38199262694E+02  0.51100000000E-03 0.  1.
         23    2    1    0    0    0 -0.16873374833E+02 -0.14067951513E+02  0.12856093890E+02  0.99546175373E+02  0.96236915179E+02 0.  0.
         11    1    3    3    0    0 -0.43698891041E+02 -0.41257697636E+02  0.12314747361E+02  0.61346912679E+02  0.51100000000E-03 0. -1.
         22    1    1    0    0    0  0.16873374833E+02  0.14067951513E+02 -0.12856093890E+02  0.25453824627E+02  0.00000000000E+00 0. -1.
</event>
<event>
 5    1  0.8957809E-005  0.9118800E+02  0.7818608E-02  0.1130116E+00
         25   -1    0    0    0    0  0.00000000000E+00  0.00000000000E+00  0.99999998245E-14  0.12500000000E+03  0.12500000000E+03 0.  0.
        -11    1    3    3    0    0  0.40262517569E+02  0.10360538040E+02  0.10993980029E+01  0.41588697331E+02  0.51100000000E-03 0. -1.
         23    2    1    0    0    0 -0.78414216910E+01  0.96651095655E+01  0.26303910862E+02  0.95900206810E+02  0.91378617316E+02 0.  0.
         11    1    3    3    0    0 -0.48103939260E+02 -0.69542847452E+00  0.25204512859E+02  0.54311509479E+02  0.51100000000E-03 0.  1.
         22    1    1    0    0    0  0.78414216910E+01 -0.96651095655E+01 -0.26303910862E+02  0.29099793190E+02  0.00000000000E+00 0.  1.
</event>
<event>
 5    1  0.8957809E-005  0.9118800E+02  0.7818608E-02  0.1130116E+00
         25   -1    0    0    0    0  0.00000000000E+00  0.00000000000E+00  0.99999998245E-14  0.12500000000E+03  0.12500000000E+03 0.  0.
        -11    1    3    3    0    0 -0.11392133970E+02  0.60607279892E+02 -0.28112900783E+01  0.61732701581E+02  0.51100000000E-03 0. -1.
         23    2    1    0    0    0  0.92011509953E+00  0.30548423858E+02  0.88410864553E+00  0.94424937284E+02  0.89337754175E+02 0.  0.
         11    1    3    3    0    0  0.12312249069E+02 -0.30058856035E+02  0.36953987238E+01  0.32692235703E+02  0.51100000000E-03 0.  1.
         22    1    1    0    0    0 -0.92011509953E+00 -0.30548423858E+02 -0.88410864553E+00  0.30575062716E+02  0.00000000000E+00 0. -1.
</event>
<event>
 5    1  0.8957809E-005  0.9118800E+02  0.7818608E-02  0.1130116E+00
         25   -1    0    0    0    0  0.00000000000E+00  0.00000000000E+00  0.99999998245E-14  0.12500000000E+03  0.12500000000E+03 0.  0.
        -11    1    3    3    0    0 -0.21237736372E+02  0.22052124141E+02 -0.21265565840E+02  0.37276828139E+02  0.51100000000E-03 0.  1.
         23    2    1    0    0    0  0.18089824502E+02 -0.18800641190E+02 -0.16381754676E+02  0.94193056855E+02  0.89012719393E+02 0.  0.
         11    1    3    3    0    0  0.39327560874E+02 -0.40852765331E+02  0.48838111639E+01  0.56916228716E+02  0.51100000000E-03 0. -1.
         22    1    1    0    0    0 -0.18089824502E+02  0.18800641190E+02  0.16381754676E+02  0.30806943145E+02  0.00000000000E+00 0. -1.
</event>
<event>
 5    1  0.8957809E-005  0.9118800E+02  0.7818608E-02  0.1130116E+00
         25   -1    0    0    0    0  0.00000000000E+00  0.00000000000E+00  0.99999998245E-14  0.12500000000E+03  0.12500000000E+03 0.  0.
        -11    1    3    3    0    0 -0.11143277662E+02 -0.52765937421E+02  0.15169738230E+02  0.56022653875E+02  0.51100000000E-03 0. -1.
         23    2    1    0    0    0 -0.13610124250E+02 -0.16239794120E+02  0.23281510648E+02  0.93519924822E+02  0.88062371110E+02 0.  0.
         11    1    3    3    0    0 -0.24668465873E+01  0.36526143301E+02  0.81117724177E+01  0.37497270948E+02  0.51100000000E-03 0.  1.
         22    1    1    0    0    0  0.13610124250E+02  0.16239794120E+02 -0.23281510648E+02  0.31480075178E+02  0.00000000000E+00 0. -1.
</event>
<event>
 5    1  0.8957809E-005  0.9118800E+02  0.7818608E-02  0.1130116E+00
         25   -1    0    0    0    0  0.00000000000E+00  0.00000000000E+00  0.99999998245E-14  0.12500000000E+03  0.12500000000E+03 0.  0.
        -11    1    3    3    0    0 -0.18564785454E+02 -0.35167045905E+02  0.11535640040E+02  0.41405837366E+02  0.51100000000E-03 0.  1.
         23    2    1    0    0    0 -0.96326228015E+00  0.91778452340E+01  0.30791378568E+02  0.92855487070E+02  0.87114130700E+02 0.  0.
         11    1    3    3    0    0  0.17601523174E+02  0.44344891139E+02  0.19255738528E+02  0.51449649704E+02  0.51100000000E-03 0. -1.
         22    1    1    0    0    0  0.96326228015E+00 -0.91778452340E+01 -0.30791378568E+02  0.32144512930E+02  0.00000000000E+00 0.  1.
</event>
<event>
 5    1  0.8957809E-005  0.9118800E+02  0.7818608E-02  0.1130116E+00
         25   -1    0    0    0    0  0.00000000000E+00  0.00000000000E+00  0.99999998245E-14  0.12500000000E+03  0.12500000000E+03 0.  0.
        -11    1    3    3    0    0 -0.34624969606E+02 -0.22784818056E+02  0.16322751096E+02  0.44547375429E+02  0.51100000000E-03 0. -1.
         23    2    1    0    0    0  0.29219352423E+01 -0.28018274890E+02 -0.14417798599E+02  0.93354552463E+02  0.87827319871E+02 0.  0.
         11    1    3    3    0    0  0.37546904848E+02 -0.52334568345E+01 -0.30740549695E+02  0.48807177033E+02  0.51100000000E-03 0.  1.
         22    1    1    0    0    0 -0.29219352423E+01  0.28018274890E+02  0.14417798599E+02  0.31645447537E+02  0.00000000000E+00 0.  1.
</event>
<event>
 5    1  0.8957809E-005  0.9118800E+02  0.7818608E-02  0.1130116E+00
         25   -1    0    0    0    0  0.00000000000E+00  0.00000000000E+00  0.99999998245E-14  0.12500000000E+03  0.12500000000E+03 0.  0.
        -11    1    3    3    0    0  0.52831831503E+02 -0.72466605873E+01 -0.31963364487E+02  0.62172125420E+02  0.51100000000E-03 0. -1.
         23    2    1    0    0    0  0.27127194454E+02  0.84566264209E+00 -0.15860114081E+02  0.93565257391E+02  0.88126694865E+02 0.  0.
         11    1    3    3    0    0 -0.25704637049E+02  0.80923232294E+01  0.16103250406E+02  0.31393131972E+02  0.51100000000E-03 0.  1.
         22    1    1    0    0    0 -0.27127194454E+02 -0.84566264209E+00  0.15860114081E+02  0.31434742609E+02  0.00000000000E+00 0. -1.
</event>
<event>
 5    1  0.8957809E-005  0.9118800E+02  0.7818608E-02  0.1130116E+00
         25   -1    0    0    0    0  0.00000000000E+00  0.00000000000E+00  0.99999998245E-14  0.12500000000E+03  0.12500000000E+03 0.  0.
        -11    1    3    3    0    0 -0.46679582371E+02 -0.31706982753E+02 -0.20397246848E+02  0.60003031964E+02  0.51100000000E-03 0. -1.
         23    2    1    0    0    0 -0.27880782261E+02 -0.52984595218E+01 -0.39700614855E+01  0.96343882312E+02  0.91983534276E+02 0.  0.
         11    1    3    3    0    0  0.18798800110E+02  0.26408523231E+02  0.16427185363E+02  0.36340850348E+02  0.51100000000E-03 0.  1.
         22    1    1    0    0    0  0.27880782261E+02  0.52984595218E+01  0.39700614855E+01  0.28656117688E+02  0.00000000000E+00 0. -1.
</event>
<event>
 5    1  0.8957809E-005  0.9118800E+02  0.7818608E-02  0.1130116E+00
         25   -1    0    0    0    0  0.00000000000E+00  0.00000000000E+00  0.99999998245E-14  0.12500000000E+03  0.12500000000E+03 0.  0.
        -11    1    3    3    0    0 -0.23073556293E+02  0.27557887456E+02  0.10088147959E+02  0.37330910658E+02  0.51100000000E-03 0.  1.
         23    2    1    0    0    0  0.24993416042E+02  0.13637192435E+02 -0.14456458497E+02  0.93068306414E+02  0.87418971646E+02 0.  0.
         11    1    3    3    0    0  0.48066972335E+02 -0.13920695021E+02 -0.24544606456E+02  0.55737395756E+02  0.51100000000E-03 0. -1.
         22    1    1    0    0    0 -0.24993416042E+02 -0.13637192435E+02  0.14456458497E+02  0.31931693586E+02  0.00000000000E+00 0. -1.
</event>
<event>
 5    1  0.8957809E-005  0.9118800E+02  0.7818608E-02  0.1130116E+00
         25   -1    0    0    0    0  0.00000000000E+00  0.00000000000E+00  0.99999998245E-14  0.12500000000E+03  0.12500000000E+03 0.  0.
        -11    1    3    3    0    0  0.35535692331E+02  0.32972463495E+02  0.46442336682E+01  0.48698436166E+02  0.51100000000E-03 0.  1.
         23    2    1    0    0    0  0.13156623152E+02  0.75050009036E+01 -0.26332515111E+02  0.94621996060E+02  0.89613051588E+02 0.  0.
         11    1    3    3    0    0 -0.22379069179E+02 -0.25467462591E+02 -0.30976748779E+02  0.45923559894E+02  0.51100000000E-03 0. -1.
         22    1    1    0    0    0 -0.13156623152E+02 -0.75050009036E+01  0.26332515111E+02  0.30378003940E+02  0.00000000000E+00 0.  1.
</event>
<event>
 5    1  0.8957809E-005  0.9118800E+02  0.7818608E-02  0.1130116E+00
         25   -1    0    0    0    0  0.00000000000E+00  0.00000000000E+00  0.99999998245E-14  0.12500000000E+03  0.12500000000E+03 0.  0.
        -11    1    3    3    0    0  0.37688827671E+02  0.36600568638E+02  0.16019416946E+01  0.52560589544E+02  0.51100000000E-03 0.  1.
         23    2    1    0    0    0  0.12800304079E+02  0.11747274772E+02 -0.23502167362E+02  0.95773332045E+02  0.91204895763E+02 0.  0.
         11    1    3    3    0    0 -0.24888523592E+02 -0.24853293866E+02 -0.25104109057E+02  0.43212742500E+02  0.51100000000E-03 0. -1.
         22    1    1    0    0    0 -0.12800304079E+02 -0.11747274772E+02  0.23502167362E+02  0.29226667955E+02  0.00000000000E+00 0. -1.
</event>
<event>
 5    1  0.8957809E-005  0.9118800E+02  0.7818608E-02  0.1130116E+00
         25   -1    0    0    0    0  0.00000000000E+00  0.00000000000E+00  0.99999998245E-14  0.12500000000E+03  0.12500000000E+03 0.  0.
        -11    1    3    3    0    0 -0.44130177320E+02 -0.33047083631E+02 -0.20397713709E+02  0.58784768534E+02  0.51100000000E-03 0.  1.
         23    2    1    0    0    0 -0.18324613841E+02 -0.63567609961E+01 -0.21651412298E+02  0.95931399461E+02  0.91421276874E+02 0.  0.
         11    1    3    3    0    0  0.25805563479E+02  0.26690322635E+02 -0.12536985891E+01  0.37146630927E+02  0.51100000000E-03 0. -1.
         22    1    1    0    0    0  0.18324613841E+02  0.63567609961E+01  0.21651412298E+02  0.29068600539E+02  0.00000000000E+00 0.  1.
</event>
<event>
 5    1  0.8957809E-005  0.9118800E+02  0.7818608E-02  0.1130116E+00
         25   -1    0    0    0    0  0.00000000000E+00  0.00000000000E+00  0.99999998245E-14  0.12500000000E+03  0.12500000000E+03 0.  0.
        -11    1    3    3    0    0 -0.57048724561E+01  0.37351493823E+02  0.19787763758E+01  0.37836427114E+02  0.51100000000E-03 0. -1.
         23    2    1    0    0    0 -0.22639329480E+02 -0.18184613299E+02 -0.61951861663E+00  0.95955151860E+02  0.91453747682E+02 0.  0.
         11    1    3    3    0    0 -0.16934457024E+02 -0.55536107122E+02 -0.25982949924E+01  0.58118724746E+02  0.51100000000E-03 0.  1.
         22    1    1    0    0    0  0.22639329480E+02  0.18184613299E+02  0.61951861663E+00  0.29044848140E+02  0.00000000000E+00 0.  1.
</event>
<event>
 5    1  0.8957809E-005  0.9118800E+02  0.7818608E-02  0.1130116E+00
         25   -1    0    0    0    0  0.00000000000E+00  0.00000000000E+00  0.99999998245E-14  0.12500000000E+03  0.12500000000E+03 0.  0.
        -11    1    3    3    0    0  0.25935893114E+02  0.10207827623E+02  0.25795350497E+02  0.37977235338E+02  0.51100000000E-03 0.  1.
         23    2    1    0    0    0 -0.14918819121E+02 -0.24640757895E+02  0.40504472556E+01  0.95911441483E+02  0.91393984325E+02 0.  0.
         11    1    3    3    0    0 -0.40854712235E+02 -0.34848585518E+02 -0.21744903242E+02  0.57934206145E+02  0.51100000000E-03 0. -1.
         22    1    1    0    0    0  0.14918819121E+02  0.24640757895E+02 -0.40504472556E+01  0.29088558517E+02  0.00000000000E+00 0. -1.
</event>
<event>
 5    1  0.8957809E-005  0.9118800E+02  0.7818608E-02  0.1130116E+00
         25   -1    0    0    0    0  0.00000000000E+00  0.00000000000E+00  0.99999998245E-14  0.12500000000E+03  0.12500000000E+03 0.  0.
        -11    1    3    3    0    0  0.10765274554E+01 -0.78963184778E+01  0.45065140824E+02  0.45764371236E+02  0.51100000000E-03 0.  1.
         23    2    1    0    0    0 -0.22485539396E+02 -0.20526211160E+02  0.46789259912E+01  0.94197123918E+02  0.89018430560E+02 0.  0.
         11    1    3    3    0    0 -0.23562066851E+02 -0.12629892683E+02 -0.40386214833E+02  0.48432752681E+02  0.51100000000E-03 0. -1.
         22    1    1    0    0    0  0.22485539396E+02  0.20526211160E+02 -0.46789259912E+01  0.30802876082E+02  0.00000000000E+00 0. -1.
</event>
<event>
 5    1  0.8957809E-005  0.9118800E+02  0.7818608E-02  0.1130116E+00
         25   -1    0    0    0    0  0.00000000000E+00  0.00000000000E+00  0.99999998245E-14  0.12500000000E+03  0.12500000000E+03 0.  0.
        -11    1    3    3    0    0  0.49846018955E+02 -0.17447518077E+02  0.35143700531E+01  0.52928180488E+02  0.51100000000E-03 0.  1.
         23    2    1    0    0    0  0.15870186234E+02 -0.13782618481E+02 -0.21234292241E+02  0.95121603954E+02  0.90307258781E+02 0.  0.
         11    1    3    3    0    0 -0.33975832721E+02  0.36648995954E+01 -0.24748662294E+02  0.42193423466E+02  0.51100000000E-03 0. -1.
         22    1    1    0    0    0 -0.15870186234E+02  0.13782618481E+02  0.21234292241E+02  0.29878396046E+02  0.00000000000E+00 0. -1.
</event>
<event>
 5    1  0.8957809E-005  0.9118800E+02  0.7818608E-02  0.1130116E+00
         25   -1    0    0    0    0  0.00000000000E+00  0.00000000000E+00  0.99999998245E-14  0.12500000000E+03  0.12500000000E+03 0.  0.
        -11    1    3    3    0    0 -0.56589140516E+02 -0.89783075459E+01 -0.48384677888E+01  0.57500883485E+02  0.51100000000E-03 0. -1.
         23    2    1    0    0    0 -0.22733349013E+02 -0.34087782861E+00 -0.19164970902E+02  0.95264205665E+02  0.90504427606E+02 0.  0.
         11    1    3    3    0    0  0.33855791503E+02  0.86374297173E+01 -0.14326503113E+02  0.37763322181E+02  0.51100000000E-03 0.  1.
         22    1    1    0    0    0  0.22733349013E+02  0.34087782861E+00  0.19164970902E+02  0.29735794335E+02  0.00000000000E+00 0. -1.
</event>
<event>
 5    1  0.8957809E-005  0.9118800E+02  0.7818608E-02  0.1130116E+00
         25   -1    0    0    0    0  0.00000000000E+00  0.00000000000E+00  0.99999998245E-14  0.12500000000E+03  0.12500000000E+03 0.  0.
        -11    1    3    3    0    0 -0.87805188478E+01  0.24922639107E+02  0.35662543018E+01  0.26663713569E+02  0.51100000000E-03 0.  1.
         23    2    1    0    0    0  0.13973897629E+02 -0.32624103550E+02  0.76990900621E+01  0.88683640943E+02  0.80906799687E+02 0.  0.
         11    1    3    3    0    0  0.22754416477E+02 -0.57546742657E+02  0.41328357603E+01  0.62019927373E+02  0.51100000000E-03 0. -1.
         22    1    1    0    0    0 -0.13973897629E+02  0.32624103550E+02 -0.76990900621E+01  0.36316359057E+02  0.00000000000E+00 0. -1.
</event>
<event>
 5    1  0.8957809E-005  0.9118800E+02  0.7818608E-02  0.1130116E+00
         25   -1    0    0    0    0  0.00000000000E+00  0.00000000000E+00  0.99999998245E-14  0.12500000000E+03  0.12500000000E+03 0.  0.
        -11    1    3    3    0    0  0.35988497274E+02 -0.36504650762E+01 -0.14979936166E+02  0.39152219849E+02  0.51100000000E-03 0. -1.
         23    2    1    0    0    0 -0.77664432464E+01 -0.30342612881E+02 -0.14686193391E+02  0.90406993865E+02  0.83526932580E+02 0.  0.
         11    1    3    3    0    0 -0.43754940520E+02 -0.26692147805E+02  0.29374277573E+00  0.51254774016E+02  0.51100000000E-03 0.  1.
         22    1    1    0    0    0  0.77664432464E+01  0.30342612881E+02  0.14686193391E+02  0.34593006135E+02  0.00000000000E+00 0.  1.
</event>
<event>
 5    1  0.8957809E-005  0.9118800E+02  0.7818608E-02  0.1130116E+00
         25   -1    0    0    0    0  0.00000000000E+00  0.00000000000E+00  0.99999998245E-14  0.12500000000E+03  0.12500000000E+03 0.  0.
        -11    1    3    3    0    0  0.13477137824E+02 -0.78421081227E+01 -0.33902969812E+02  0.37316796032E+02  0.51100000000E-03 0. -1.
         23    2    1    0    0    0 -0.25947421580E+02 -0.60099021148E+01  0.10180706165E+02  0.96486242125E+02  0.92176789548E+02 0.  0.
         11    1    3    3    0    0 -0.39424559405E+02  0.18322060079E+01  0.44083675977E+02  0.59169446094E+02  0.51100000000E-03 0.  1.
         22    1    1    0    0    0  0.25947421580E+02  0.60099021148E+01 -0.10180706165E+02  0.28513757875E+02  0.00000000000E+00 0.  1.
</event>
<event>
 5    1  0.8957809E-005  0.9118800E+02  0.7818608E-02  0.1130116E+00
         25   -1    0    0    0    0  0.00000000000E+00  0.00000000000E+00  0.99999998245E-14  0.12500000000E+03  0.12500000000E+03 0.  0.
        -11    1    3    3    0    0 -0.19091457073E+02  0.38217549825E+02 -0.67859635013E+00  0.42726166937E+02  0.51100000000E-03 0.  1.
         23    2    1    0    0    0  0.90530567481E+01  0.66769500199E+01 -0.29191915599E+02  0.93715699874E+02  0.88339826627E+02 0.  0.
         11    1    3    3    0    0  0.28144513822E+02 -0.31540599805E+02 -0.28513319249E+02  0.50989532937E+02  0.51100000000E-03 0. -1.
         22    1    1    0    0    0 -0.90530567481E+01 -0.66769500199E+01  0.29191915599E+02  0.31284300126E+02  0.00000000000E+00 0. -1.
</event>
<event>
 5    1  0.8957809E-005  0.9118800E+02  0.7818608E-02  0.1130116E+00
         25   -1    0    0    0    0  0.00000000000E+00  0.00000000000E+00  0.99999998245E-14  0.12500000000E+03  0.12500000000E+03 0.  0.
        -11    1    3    3    0    0  0.35573997872E+01  0.54106276477E+01  0.39244649175E+02  0.39775274656E+02  0.51100000000E-03 0.  1.
         23    2    1    0    0    0 -0.91104099358E+01  0.26743167072E+02 -0.10092234317E+02  0.94999170882E+02  0.90137632100E+02 0.  0.
         11    1    3    3    0    0 -0.12667809723E+02  0.21332539424E+02 -0.49336883492E+02  0.55223896227E+02  0.51100000000E-03 0. -1.
         22    1    1    0    0    0  0.91104099358E+01 -0.26743167072E+02  0.10092234317E+02  0.30000829118E+02  0.00000000000E+00 0. -1.
</event>
<event>
 5    1  0.8957809E-005  0.9118800E+02  0.7818608E-02  0.1130116E+00
         25   -1    0    0    0    0  0.00000000000E+00  0.00000000000E+00  0.99999998245E-14  0.12500000000E+03  0.12500000000E+03 0.  0.
        -11    1    3    3    0    0  0.38881364159E+01 -0.33372046607E+02  0.24595286120E+02  0.41638193994E+02  0.51100000000E-03 0.  1.
         23    2    1    0    0    0 -0.27045278463E+02  0.77736428816E+01  0.75328752433E+01  0.95868902866E+02  0.91335785520E+02 0.  0.
         11    1    3    3    0    0 -0.30933414879E+02  0.41145689489E+02 -0.17062410877E+02  0.54230708872E+02  0.51100000000E-03 0. -1.
         22    1    1    0    0    0  0.27045278463E+02 -0.77736428816E+01 -0.75328752433E+01  0.29131097134E+02  0.00000000000E+00 0.  1.
</event>
<event>
 5    1  0.8957809E-005  0.9118800E+02  0.7818608E-02  0.1130116E+00
         25   -1    0    0    0    0  0.00000000000E+00  0.00000000000E+00  0.99999998245E-14  0.12500000000E+03  0.12500000000E+03 0.  0.
        -11    1    3    3    0    0 -0.12019290851E+02  0.26101336908E+02  0.19185285293E+02  0.34551675979E+02  0.51100000000E-03 0.  1.
         23    2    1    0    0    0  0.19911027670E+01 -0.20299374027E+02 -0.19663110487E+02  0.96668621810E+02  0.92423781856E+02 0.  0.
         11    1    3    3    0    0  0.14010393618E+02 -0.46400710934E+02 -0.38848395780E+02  0.62116945832E+02  0.51100000000E-03 0. -1.
         22    1    1    0    0    0 -0.19911027670E+01  0.20299374027E+02  0.19663110487E+02  0.28331378190E+02  0.00000000000E+00 0. -1.
</event>
<event>
 5    1  0.8957809E-005  0.9118800E+02  0.7818608E-02  0.1130116E+00
         25   -1    0    0    0    0  0.00000000000E+00  0.00000000000E+00  0.99999998245E-14  0.12500000000E+03  0.12500000000E+03 0.  0.
        -11    1    3    3    0    0  0.91729814080E+01  0.22774400011E+02 -0.28575251563E+02  0.37674419517E+02  0.51100000000E-03 0.  1.
         23    2    1    0    0    0 -0.29003115713E+02  0.17343636649E+00  0.77113102365E+01  0.94988750329E+02  0.90123180050E+02 0.  0.
         11    1    3    3    0    0 -0.38176097121E+02 -0.22600963644E+02  0.36286561800E+02  0.57314330813E+02  0.51100000000E-03 0. -1.
         22    1    1    0    0    0  0.29003115713E+02 -0.17343636649E+00 -0.77113102365E+01  0.30011249671E+02  0.00000000000E+00 0. -1.
</event>
<event>
 5    1  0.8957809E-005  0.9118800E+02  0.7818608E-02  0.1130116E+00
         25   -1    0    0    0    0  0.00000000000E+00  0.00000000000E+00  0.99999998245E-14  0.12500000000E+03  0.12500000000E+03 0.  0.
        -11    1    3    3    0    0 -0.80512211984E+01  0.20185940393E+02 -0.25558758929E+02  0.33549135765E+02  0.51100000000E-03 0. -1.
         23    2    1    0    0    0  0.16131540437E+01 -0.12182183391E+02  0.26604296651E+02  0.95694770800E+02  0.91097160768E+02 0.  0.
         11    1    3    3    0    0  0.96643752420E+01 -0.32368123785E+02  0.52163055580E+02  0.62145635035E+02  0.51100000000E-03 0.  1.
         22    1    1    0    0    0 -0.16131540437E+01  0.12182183391E+02 -0.26604296651E+02  0.29305229200E+02  0.00000000000E+00 0.  1.
</event>
<event>
 5    1  0.8957809E-005  0.9118800E+02  0.7818608E-02  0.1130116E+00
         25   -1    0    0    0    0  0.00000000000E+00  0.00000000000E+00  0.99999998245E-14  0.12500000000E+03  0.12500000000E+03 0.  0.
        -11    1    3    3    0    0 -0.19177941863E+02 -0.37417364626E+02  0.27837380602E+01  0.42137890639E+02  0.51100000000E-03 0.  1.
         23    2    1    0    0    0 -0.17675324076E+02  0.15592443054E+02  0.15650084405E+02  0.96707483261E+02  0.92476325701E+02 0.  0.
         11    1    3    3    0    0  0.15026177865E+01  0.53009807679E+02  0.12866346344E+02  0.54569592622E+02  0.51100000000E-03 0. -1.
         22    1    1    0    0    0  0.17675324076E+02 -0.15592443054E+02 -0.15650084405E+02  0.28292516739E+02  0.00000000000E+00 0. -1.
</event>
<event>
 5    1  0.8957809E-005  0.9118800E+02  0.7818608E-02  0.1130116E+00
         25   -1    0    0    0    0  0.00000000000E+00  0.00000000000E+00  0.99999998245E-14  0.12500000000E+03  0.12500000000E+03 0.  0.
        -11    1    3    3    0    0 -0.40154665562E+02 -0.20391210419E+02  0.24950988396E+02  0.51485439212E+02  0.51100000000E-03 0.  1.
         23    2    1    0    0    0 -0.42683329902E+01 -0.30822471321E+02  0.63024650271E+01  0.93251543813E+02  0.87680590516E+02 0.  0.
         11    1    3    3    0    0  0.35886332572E+02 -0.10431260902E+02 -0.18648523368E+02  0.41766104601E+02  0.51100000000E-03 0. -1.
         22    1    1    0    0    0  0.42683329902E+01  0.30822471321E+02 -0.63024650271E+01  0.31748456187E+02  0.00000000000E+00 0.  1.
</event>
<event>
 5    1  0.8957809E-005  0.9118800E+02  0.7818608E-02  0.1130116E+00
         25   -1    0    0    0    0  0.00000000000E+00  0.00000000000E+00  0.99999998245E-14  0.12500000000E+03  0.12500000000E+03 0.  0.
        -11    1    3    3    0    0  0.37883529192E+02  0.22883520668E+02  0.19714759612E+01  0.44302415509E+02  0.51100000000E-03 0.  1.
         23    2    1    0    0    0  0.68132618264E+01 -0.10262838191E+02  0.26387040411E+02  0.95879177791E+02  0.91349846457E+02 0.  0.
         11    1    3    3    0    0 -0.31070267366E+02 -0.33146358860E+02  0.24415564450E+02  0.51576762282E+02  0.51100000000E-03 0. -1.
         22    1    1    0    0    0 -0.68132618264E+01  0.10262838191E+02 -0.26387040411E+02  0.29120822209E+02  0.00000000000E+00 0. -1.
</event>
<event>
 5    1  0.8957809E-005  0.9118800E+02  0.7818608E-02  0.1130116E+00
         25   -1    0    0    0    0  0.00000000000E+00  0.00000000000E+00  0.99999998245E-14  0.12500000000E+03  0.12500000000E+03 0.  0.
        -11    1    3    3    0    0  0.48626960729E+02  0.27534183756E+02  0.18338030451E+02  0.58813229344E+02  0.51100000000E-03 0.  1.
         23    2    1    0    0    0  0.22587484665E+02  0.16314582581E+02 -0.63653153272E+01  0.96418934458E+02  0.92085469074E+02 0.  0.
         11    1    3    3    0    0 -0.26039476063E+02 -0.11219601175E+02 -0.24703345778E+02  0.37605705114E+02  0.51100000000E-03 0. -1.
         22    1    1    0    0    0 -0.22587484665E+02 -0.16314582581E+02  0.63653153272E+01  0.28581065542E+02  0.00000000000E+00 0.  1.
</event>
<event>
 5    1  0.8957809E-005  0.9118800E+02  0.7818608E-02  0.1130116E+00
         25   -1    0    0    0    0  0.00000000000E+00  0.00000000000E+00  0.99999998245E-14  0.12500000000E+03  0.12500000000E+03 0.  0.
        -11    1    3    3    0    0  0.31426027432E+02 -0.12572329106E+02  0.51362995053E+01  0.34235073129E+02  0.51100000000E-03 0. -1.
         23    2    1    0    0    0 -0.17120201766E+02  0.51175173961E+01 -0.25167034806E+02  0.94134648330E+02  0.88930658844E+02 0.  0.
         11    1    3    3    0    0 -0.48546229197E+02  0.17689846502E+02 -0.30303334312E+02  0.59899575201E+02  0.51100000000E-03 0.  1.
         22    1    1    0    0    0  0.17120201766E+02 -0.51175173961E+01  0.25167034806E+02  0.30865351670E+02  0.00000000000E+00 0.  1.
</event>
<event>
 5    1  0.8957809E-005  0.9118800E+02  0.7818608E-02  0.1130116E+00
         25   -1    0    0    0    0  0.00000000000E+00  0.00000000000E+00  0.99999998245E-14  0.12500000000E+03  0.12500000000E+03 0.  0.
        -11    1    3    3    0    0  0.30244419674E+02 -0.35938120157E+02  0.19635749835E+02  0.50910078311E+02  0.51100000000E-03 0.  1.
         23    2    1    0    0    0 -0.12397888576E+02 -0.16607757030E+02  0.17660761887E+02  0.97770829150E+02  0.93902647926E+02 0.  0.
         11    1    3    3    0    0 -0.42642308250E+02  0.19330363127E+02 -0.19749879473E+01  0.46860750839E+02  0.51100000000E-03 0. -1.
         22    1    1    0    0    0  0.12397888576E+02  0.16607757030E+02 -0.17660761887E+02  0.27229170850E+02  0.00000000000E+00 0.  1.
</event>
<event>
 5    1  0.8957809E-005  0.9118800E+02  0.7818608E-02  0.1130116E+00
         25   -1    0    0    0    0  0.00000000000E+00  0.00000000000E+00  0.99999998245E-14  0.12500000000E+03  0.12500000000E+03 0.  0.
        -11    1    3    3    0    0 -0.75995193304E+01  0.17566211883E+02  0.36634631551E+02  0.41333046381E+02  0.51100000000E-03 0. -1.
         23    2    1    0    0    0  0.22586813597E+02 -0.17773526581E+02  0.13717857349E+02  0.93152833629E+02  0.87539753297E+02 0.  0.
         11    1    3    3    0    0  0.30186332928E+02 -0.35339738465E+02 -0.22916774202E+02  0.51819787248E+02  0.51100000000E-03 0.  1.
         22    1    1    0    0    0 -0.22586813597E+02  0.17773526581E+02 -0.13717857349E+02  0.31847166371E+02  0.00000000000E+00 0.  1.
</event>
<event>
 5    1  0.8957809E-005  0.9118800E+02  0.7818608E-02  0.1130116E+00
         25   -1    0    0    0    0  0.00000000000E+00  0.00000000000E+00  0.99999998245E-14  0.12500000000E+03  0.12500000000E+03 0.  0.
        -11    1    3    3    0    0 -0.23225170214E+02 -0.20998128377E+02 -0.30317923365E+02  0.43583327136E+02  0.51100000000E-03 0.  1.
         23    2    1    0    0    0  0.15893673591E+02 -0.61329424576E+01  0.12816103150E+02  0.10368159614E+03  0.10146624579E+03 0.  0.
         11    1    3    3    0    0  0.39118843805E+02  0.14865185919E+02  0.43134026515E+02  0.60098268999E+02  0.51100000000E-03 0. -1.
         22    1    1    0    0    0 -0.15893673591E+02  0.61329424576E+01 -0.12816103150E+02  0.21318403865E+02  0.00000000000E+00 0. -1.
</event>
<event>
 5    1  0.8957809E-005  0.9118800E+02  0.7818608E-02  0.1130116E+00
         25   -1    0    0    0    0  0.00000000000E+00  0.00000000000E+00  0.99999998245E-14  0.12500000000E+03  0.12500000000E+03 0.  0.
        -11    1    3    3    0    0  0.47846443292E+02  0.22831761159E+02 -0.30224269373E+02  0.61025223577E+02  0.51100000000E-03 0.  1.
         23    2    1    0    0    0  0.28563507529E+02  0.52315096287E+01 -0.92210575764E+01  0.94532467146E+02  0.89488081813E+02 0.  0.
         11    1    3    3    0    0 -0.19282935763E+02 -0.17600251530E+02  0.21003211797E+02  0.33507243569E+02  0.51100000000E-03 0. -1.
         22    1    1    0    0    0 -0.28563507529E+02 -0.52315096287E+01  0.92210575764E+01  0.30467532854E+02  0.00000000000E+00 0.  1.
</event>
<event>
 5    1  0.8957809E-005  0.9118800E+02  0.7818608E-02  0.1130116E+00
         25   -1    0    0    0    0  0.00000000000E+00  0.00000000000E+00  0.99999998245E-14  0.12500000000E+03  0.12500000000E+03 0.  0.
        -11    1    3    3    0    0 -0.19052640083E+02 -0.86273387702E+01  0.42242520075E+02  0.47136658461E+02  0.51100000000E-03 0. -1.
         23    2    1    0    0    0 -0.14644088775E+02  0.24052628043E+02  0.58651739284E+01  0.96235811900E+02  0.91836555767E+02 0.  0.
         11    1    3    3    0    0  0.44085513074E+01  0.32679966813E+02 -0.36377346146E+02  0.49099153439E+02  0.51100000000E-03 0.  1.
         22    1    1    0    0    0  0.14644088775E+02 -0.24052628043E+02 -0.58651739284E+01  0.28764188100E+02  0.00000000000E+00 0.  1.
</event>
<event>
 5    1  0.8957809E-005  0.9118800E+02  0.7818608E-02  0.1130116E+00
         25   -1    0    0    0    0  0.00000000000E+00  0.00000000000E+00  0.99999998245E-14  0.12500000000E+03  0.12500000000E+03 0.  0.
        -11    1    3    3    0    0  0.26268664260E+01 -0.34800710624E+02  0.28699478627E+02  0.45184620845E+02  0.51100000000E-03 0.  1.
         23    2    1    0    0    0 -0.27562143349E+02  0.10426766812E+01  0.94997497313E+01  0.95828024311E+02  0.91279822949E+02 0.  0.
         11    1    3    3    0    0 -0.30189009775E+02  0.35843387305E+02 -0.19199728896E+02  0.50643403466E+02  0.51100000000E-03 0. -1.
         22    1    1    0    0    0  0.27562143349E+02 -0.10426766812E+01 -0.94997497313E+01  0.29171975689E+02  0.00000000000E+00 0. -1.
</event>
<event>
 5    1  0.8957809E-005  0.9118800E+02  0.7818608E-02  0.1130116E+00
         25   -1    0    0    0    0  0.00000000000E+00  0.00000000000E+00  0.99999998245E-14  0.12500000000E+03  0.12500000000E+03 0.  0.
        -11    1    3    3    0    0 -0.78017617854E+01  0.35918275972E+02 -0.68507752622E+01  0.37388810595E+02  0.51100000000E-03 0. -1.
         23    2    1    0    0    0 -0.10724627194E+02 -0.17346854950E+02  0.19408107424E+02  0.96846747277E+02  0.92664377294E+02 0.  0.
         11    1    3    3    0    0 -0.29228654082E+01 -0.53265130922E+02  0.26258882686E+02  0.59457936682E+02  0.51100000000E-03 0.  1.
         22    1    1    0    0    0  0.10724627194E+02  0.17346854950E+02 -0.19408107424E+02  0.28153252723E+02  0.00000000000E+00 0.  1.
</event>
<event>
 5    1  0.8957809E-005  0.9118800E+02  0.7818608E-02  0.1130116E+00
         25   -1    0    0    0    0  0.00000000000E+00  0.00000000000E+00  0.99999998245E-14  0.12500000000E+03  0.12500000000E+03 0.  0.
        -11    1    3    3    0    0 -0.43423667599E+02 -0.15162953606E+02 -0.97205901218E+01  0.47010849198E+02  0.51100000000E-03 0. -1.
         23    2    1    0    0    0 -0.12526415313E+02 -0.24441162469E+01  0.26069870456E+02  0.95973754455E+02  0.91479170382E+02 0.  0.
         11    1    3    3    0    0  0.30897252286E+02  0.12718837359E+02  0.35790460578E+02  0.48962905257E+02  0.51100000000E-03 0.  1.
         22    1    1    0    0    0  0.12526415313E+02  0.24441162469E+01 -0.26069870456E+02  0.29026245545E+02  0.00000000000E+00 0. -1.
</event>
<event>
 5    1  0.8957809E-005  0.9118800E+02  0.7818608E-02  0.1130116E+00
         25   -1    0    0    0    0  0.00000000000E+00  0.00000000000E+00  0.99999998245E-14  0.12500000000E+03  0.12500000000E+03 0.  0.
        -11    1    3    3    0    0  0.78827617859E+01  0.70024612647E+01  0.52286602989E+02  0.53339115568E+02  0.51100000000E-03 0.  1.
         23    2    1    0    0    0 -0.11311696774E+02  0.20682891347E+02  0.16369175575E+02  0.96300062938E+02  0.91923967139E+02 0.  0.
         11    1    3    3    0    0 -0.19194458560E+02  0.13680430082E+02 -0.35917427414E+02  0.42960947370E+02  0.51100000000E-03 0. -1.
         22    1    1    0    0    0  0.11311696774E+02 -0.20682891347E+02 -0.16369175575E+02  0.28699937062E+02  0.00000000000E+00 0. -1.
</event>
<event>
 5    1  0.8957809E-005  0.9118800E+02  0.7818608E-02  0.1130116E+00
         25   -1    0    0    0    0  0.00000000000E+00  0.00000000000E+00  0.99999998245E-14  0.12500000000E+03  0.12500000000E+03 0.  0.
        -11    1    3    3    0    0 -0.30744521133E+02 -0.28809388770E+02 -0.22921682341E+02  0.47964674320E+02  0.51100000000E-03 0.  1.
         23    2    1    0    0    0 -0.86643059285E+01  0.12692158633E+02 -0.25699387185E+02  0.95056393175E+02  0.90216951255E+02 0.  0.
         11    1    3    3    0    0  0.22080215204E+02  0.41501547403E+02 -0.27777048441E+01  0.47091718855E+02  0.51100000000E-03 0. -1.
         22    1    1    0    0    0  0.86643059285E+01 -0.12692158633E+02  0.25699387185E+02  0.29943606825E+02  0.00000000000E+00 0. -1.
</event>
<event>
 5    1  0.8957809E-005  0.9118800E+02  0.7818608E-02  0.1130116E+00
         25   -1    0    0    0    0  0.00000000000E+00  0.00000000000E+00  0.99999998245E-14  0.12500000000E+03  0.12500000000E+03 0.  0.
        -11    1    3    3    0    0  0.38973172269E+02  0.13002155721E+02  0.10570818837E+02  0.42422946871E+02  0.51100000000E-03 0.  1.
         23    2    1    0    0    0 -0.16511843868E+02  0.19952584603E+02  0.50499657604E+01  0.98613473619E+02  0.95017726793E+02 0.  0.
         11    1    3    3    0    0 -0.55485016136E+02  0.69504288824E+01 -0.55208530766E+01  0.56190526748E+02  0.51100000000E-03 0. -1.
         22    1    1    0    0    0  0.16511843868E+02 -0.19952584603E+02 -0.50499657604E+01  0.26386526381E+02  0.00000000000E+00 0. -1.
</event>
<event>
 5    1  0.8957809E-005  0.9118800E+02  0.7818608E-02  0.1130116E+00
         25   -1    0    0    0    0  0.00000000000E+00  0.00000000000E+00  0.99999998245E-14  0.12500000000E+03  0.12500000000E+03 0.  0.
        -11    1    3    3    0    0  0.21143831854E+02 -0.83689248783E+00 -0.58371383777E+02  0.62088488940E+02  0.51100000000E-03 0.  1.
         23    2    1    0    0    0  0.13718593016E+02  0.22772165345E+01 -0.25257256839E+02  0.96167474399E+02  0.91743493500E+02 0.  0.
         11    1    3    3    0    0 -0.74252388381E+01  0.31141090224E+01  0.33114126938E+02  0.34078985459E+02  0.51100000000E-03 0. -1.
         22    1    1    0    0    0 -0.13718593016E+02 -0.22772165345E+01  0.25257256839E+02  0.28832525601E+02  0.00000000000E+00 0.  1.
</event>
<event>
 5    1  0.8957809E-005  0.9118800E+02  0.7818608E-02  0.1130116E+00
         25   -1    0    0    0    0  0.00000000000E+00  0.00000000000E+00  0.99999998245E-14  0.12500000000E+03  0.12500000000E+03 0.  0.
        -11    1    3    3    0    0 -0.13610972991E+02  0.28112718911E+02 -0.12151221825E+02  0.33514709344E+02  0.51100000000E-03 0.  1.
         23    2    1    0    0    0  0.22129173697E+02 -0.20556357265E+02 -0.59617896890E+01  0.94213524255E+02  0.89041456994E+02 0.  0.
         11    1    3    3    0    0  0.35740146688E+02 -0.48669076176E+02  0.61894321359E+01  0.60698814910E+02  0.51100000000E-03 0. -1.
         22    1    1    0    0    0 -0.22129173697E+02  0.20556357265E+02  0.59617896890E+01  0.30786475745E+02  0.00000000000E+00 0. -1.
</event>
<event>
 5    1  0.8957809E-005  0.9118800E+02  0.7818608E-02  0.1130116E+00
         25   -1    0    0    0    0  0.00000000000E+00  0.00000000000E+00  0.99999998245E-14  0.12500000000E+03  0.12500000000E+03 0.  0.
        -11    1    3    3    0    0  0.21853049987E+02 -0.24137164125E+02  0.32857341189E+02  0.46257576201E+02  0.51100000000E-03 0.  1.
         23    2    1    0    0    0  0.16784586706E+02 -0.21394493336E+02 -0.14649186914E+02  0.94112375079E+02  0.88899346285E+02 0.  0.
         11    1    3    3    0    0 -0.50684632808E+01  0.27426707888E+01 -0.47506528102E+02  0.47854798878E+02  0.51100000000E-03 0. -1.
         22    1    1    0    0    0 -0.16784586706E+02  0.21394493336E+02  0.14649186914E+02  0.30887624921E+02  0.00000000000E+00 0. -1.
</event>
<event>
 5    1  0.8957809E-005  0.9118800E+02  0.7818608E-02  0.1130116E+00
         25   -1    0    0    0    0  0.00000000000E+00  0.00000000000E+00  0.99999998245E-14  0.12500000000E+03  0.12500000000E+03 0.  0.
        -11    1    3    3    0    0  0.15403596753E+02 -0.28626035589E+02  0.28427310623E+02  0.43183708687E+02  0.51100000000E-03 0. -1.
         23    2    1    0    0    0 -0.26114610567E+02 -0.18575697347E+02  0.21372560518E+02  0.86479670821E+02  0.77426853903E+02 0.  0.
         11    1    3    3    0    0 -0.41518207319E+02  0.10050338242E+02 -0.70547501051E+01  0.43295962134E+02  0.51100000000E-03 0.  1.
         22    1    1    0    0    0  0.26114610567E+02  0.18575697347E+02 -0.21372560518E+02  0.38520329179E+02  0.00000000000E+00 0. -1.
</event>
<event>
 5    1  0.8957809E-005  0.9118800E+02  0.7818608E-02  0.1130116E+00
         25   -1    0    0    0    0  0.00000000000E+00  0.00000000000E+00  0.99999998245E-14  0.12500000000E+03  0.12500000000E+03 0.  0.
        -11    1    3    3    0    0 -0.44930921469E+02  0.33452267668E+02  0.44918916335E+01  0.56196254385E+02  0.51100000000E-03 0.  1.
         23    2    1    0    0    0 -0.18163107264E+02  0.76073445245E+01  0.20385172106E+02  0.96657004428E+02  0.92408068409E+02 0.  0.
         11    1    3    3    0    0  0.26767814205E+02 -0.25844923144E+02  0.15893280472E+02  0.40460750043E+02  0.51100000000E-03 0. -1.
         22    1    1    0    0    0  0.18163107264E+02 -0.76073445245E+01 -0.20385172106E+02  0.28342995572E+02  0.00000000000E+00 0.  1.
</event>
<event>
 5    1  0.8957809E-005  0.9118800E+02  0.7818608E-02  0.1130116E+00
         25   -1    0    0    0    0  0.00000000000E+00  0.00000000000E+00  0.99999998245E-14  0.12500000000E+03  0.12500000000E+03 0.  0.
        -11    1    3    3    0    0  0.17440382046E+02 -0.53383304775E+02 -0.16119936029E+02  0.58427703125E+02  0.51100000000E-03 0. -1.
         23    2    1    0    0    0  0.12809465697E+02 -0.25560159389E+02  0.77495986201E+01  0.95378041284E+02  0.90661515104E+02 0.  0.
         11    1    3    3    0    0 -0.46309163486E+01  0.27823145387E+02  0.23869534649E+02  0.36950338159E+02  0.51100000000E-03 0.  1.
         22    1    1    0    0    0 -0.12809465697E+02  0.25560159389E+02 -0.77495986201E+01  0.29621958716E+02  0.00000000000E+00 0. -1.
</event>
<event>
 5    1  0.8957809E-005  0.9118800E+02  0.7818608E-02  0.1130116E+00
         25   -1    0    0    0    0  0.00000000000E+00  0.00000000000E+00  0.99999998245E-14  0.12500000000E+03  0.12500000000E+03 0.  0.
        -11    1    3    3    0    0 -0.59366911615E+01  0.39626793164E+02  0.46636226868E+02  0.61485483613E+02  0.51100000000E-03 0. -1.
         23    2    1    0    0    0 -0.24817649993E+01  0.12272379066E+02  0.26700629720E+02  0.95509423999E+02  0.90842479049E+02 0.  0.
         11    1    3    3    0    0  0.34549261621E+01 -0.27354414098E+02 -0.19935597148E+02  0.34023940386E+02  0.51100000000E-03 0.  1.
         22    1    1    0    0    0  0.24817649993E+01 -0.12272379066E+02 -0.26700629720E+02  0.29490576001E+02  0.00000000000E+00 0. -1.
</event>
<event>
 5    1  0.8957809E-005  0.9118800E+02  0.7818608E-02  0.1130116E+00
         25   -1    0    0    0    0  0.00000000000E+00  0.00000000000E+00  0.99999998245E-14  0.12500000000E+03  0.12500000000E+03 0.  0.
        -11    1    3    3    0    0  0.30327809399E+02  0.35880667514E+02  0.35410396690E+02  0.58831067628E+02  0.51100000000E-03 0.  1.
         23    2    1    0    0    0  0.18906313818E+02  0.23230116667E+02  0.37140558295E+01  0.94819190978E+02  0.89887695178E+02 0.  0.
         11    1    3    3    0    0 -0.11421495581E+02 -0.12650550847E+02 -0.31696340860E+02  0.35988123350E+02  0.51100000000E-03 0. -1.
         22    1    1    0    0    0 -0.18906313818E+02 -0.23230116667E+02 -0.37140558295E+01  0.30180809022E+02  0.00000000000E+00 0.  1.
</event>
<event>
 5    1  0.8957809E-005  0.9118800E+02  0.7818608E-02  0.1130116E+00
         25   -1    0    0    0    0  0.00000000000E+00  0.00000000000E+00  0.99999998245E-14  0.12500000000E+03  0.12500000000E+03 0.  0.
        -11    1    3    3    0    0  0.10969202615E+01 -0.23578716415E+02  0.51073498333E+02  0.56264210063E+02  0.51100000000E-03 0.  1.
         23    2    1    0    0    0  0.17279534909E+01 -0.26974320968E+02  0.12108158004E+02  0.95382314317E+02  0.90667406378E+02 0.  0.
         11    1    3    3    0    0  0.63103322948E+00 -0.33956045535E+01 -0.38965340329E+02  0.39118104254E+02  0.51100000000E-03 0. -1.
         22    1    1    0    0    0 -0.17279534909E+01  0.26974320968E+02 -0.12108158004E+02  0.29617685683E+02  0.00000000000E+00 0.  1.
</event>
<event>
 5    1  0.8957809E-005  0.9118800E+02  0.7818608E-02  0.1130116E+00
         25   -1    0    0    0    0  0.00000000000E+00  0.00000000000E+00  0.99999998245E-14  0.12500000000E+03  0.12500000000E+03 0.  0.
        -11    1    3    3    0    0 -0.13846374818E+02 -0.52323652128E+01 -0.42889516478E+02  0.45371911634E+02  0.51100000000E-03 0.  1.
         23    2    1    0    0    0  0.16716060761E+01 -0.32646385024E+02 -0.33385079106E+02  0.78275871020E+02  0.62801017149E+02 0.  0.
         11    1    3    3    0    0  0.15517980894E+02 -0.27414019811E+02  0.95044373724E+01  0.32903959386E+02  0.51100000000E-03 0. -1.
         22    1    1    0    0    0 -0.16716060761E+01  0.32646385024E+02  0.33385079106E+02  0.46724128980E+02  0.00000000000E+00 0. -1.
</event>
<event>
 5    1  0.8957809E-005  0.9118800E+02  0.7818608E-02  0.1130116E+00
         25   -1    0    0    0    0  0.00000000000E+00  0.00000000000E+00  0.99999998245E-14  0.12500000000E+03  0.12500000000E+03 0.  0.
        -11    1    3    3    0    0  0.80410514112E+01 -0.31543197355E+02  0.14443704506E+02  0.35612531605E+02  0.51100000000E-03 0.  1.
         23    2    1    0    0    0 -0.21274403139E+02  0.11165933568E+02 -0.16407430819E+02  0.95905634782E+02  0.91386042126E+02 0.  0.
         11    1    3    3    0    0 -0.29315454550E+02  0.42709130923E+02 -0.30851135324E+02  0.60293103177E+02  0.51100000000E-03 0. -1.
         22    1    1    0    0    0  0.21274403139E+02 -0.11165933568E+02  0.16407430819E+02  0.29094365218E+02  0.00000000000E+00 0. -1.
</event>
<event>
 5    1  0.8957809E-005  0.9118800E+02  0.7818608E-02  0.1130116E+00
         25   -1    0    0    0    0  0.00000000000E+00  0.00000000000E+00  0.99999998245E-14  0.12500000000E+03  0.12500000000E+03 0.  0.
        -11    1    3    3    0    0  0.18783542119E+02  0.47638263434E+02 -0.24123679975E+02  0.56605454979E+02  0.51100000000E-03 0.  1.
         23    2    1    0    0    0  0.13779354187E+02  0.24660865224E+02  0.72701049862E+01  0.95830095956E+02  0.91282659849E+02 0.  0.
         11    1    3    3    0    0 -0.50041879323E+01 -0.22977398210E+02  0.31393784961E+02  0.39224640978E+02  0.51100000000E-03 0. -1.
         22    1    1    0    0    0 -0.13779354187E+02 -0.24660865224E+02 -0.72701049862E+01  0.29169904044E+02  0.00000000000E+00 0.  1.
</event>
<event>
 5    1  0.8957809E-005  0.9118800E+02  0.7818608E-02  0.1130116E+00
         25   -1    0    0    0    0  0.00000000000E+00  0.00000000000E+00  0.99999998245E-14  0.12500000000E+03  0.12500000000E+03 0.  0.
        -11    1    3    3    0    0 -0.50608546705E+02  0.27049353637E+02 -0.66751337831E+01  0.57770666805E+02  0.51100000000E-03 0. -1.
         23    2    1    0    0    0 -0.13115108518E+02  0.22207796133E+02  0.74916677282E+01  0.98142647825E+02  0.94396302662E+02 0.  0.
         11    1    3    3    0    0  0.37493438187E+02 -0.48415575040E+01  0.14166801511E+02  0.40371981020E+02  0.51100000000E-03 0.  1.
         22    1    1    0    0    0  0.13115108518E+02 -0.22207796133E+02 -0.74916677282E+01  0.26857352175E+02  0.00000000000E+00 0. -1.
</event>
<event>
 5    1  0.8957809E-005  0.9118800E+02  0.7818608E-02  0.1130116E+00
         25   -1    0    0    0    0  0.00000000000E+00  0.00000000000E+00  0.99999998245E-14  0.12500000000E+03  0.12500000000E+03 0.  0.
        -11    1    3    3    0    0 -0.50872186934E+01  0.22578155479E+02  0.46137496944E+02  0.51617066203E+02  0.51100000000E-03 0. -1.
         23    2    1    0    0    0  0.13447799858E+02  0.24630870926E+02  0.53967837723E+01  0.96422939293E+02  0.92090905215E+02 0.  0.
         11    1    3    3    0    0  0.18535018551E+02  0.20527154462E+01 -0.40740713171E+02  0.44805873090E+02  0.51100000000E-03 0.  1.
         22    1    1    0    0    0 -0.13447799858E+02 -0.24630870926E+02 -0.53967837723E+01  0.28577060707E+02  0.00000000000E+00 0. -1.
</event>
<event>
 5    1  0.8957809E-005  0.9118800E+02  0.7818608E-02  0.1130116E+00
         25   -1    0    0    0    0  0.00000000000E+00  0.00000000000E+00  0.99999998245E-14  0.12500000000E+03  0.12500000000E+03 0.  0.
        -11    1    3    3    0    0  0.42964390896E+02  0.27419172811E+02 -0.18419456466E+02  0.54194338260E+02  0.51100000000E-03 0. -1.
         23    2    1    0    0    0  0.18647051193E+02  0.15379830815E+02  0.14467059819E+02  0.96830024247E+02  0.92641815946E+02 0.  0.
         11    1    3    3    0    0 -0.24317339703E+02 -0.12039341996E+02  0.32886516285E+02  0.42635685987E+02  0.51100000000E-03 0.  1.
         22    1    1    0    0    0 -0.18647051193E+02 -0.15379830815E+02 -0.14467059819E+02  0.28169975753E+02  0.00000000000E+00 0. -1.
</event>
<event>
 5    1  0.8957809E-005  0.9118800E+02  0.7818608E-02  0.1130116E+00
         25   -1    0    0    0    0  0.00000000000E+00  0.00000000000E+00  0.99999998245E-14  0.12500000000E+03  0.12500000000E+03 0.  0.
        -11    1    3    3    0    0  0.16399312948E+01  0.39009158334E+02 -0.96408783400E+01  0.40216294509E+02  0.51100000000E-03 0. -1.
         23    2    1    0    0    0  0.17391321712E+02 -0.11833107197E+02 -0.21685484181E+02  0.94788400887E+02  0.89844867532E+02 0.  0.
         11    1    3    3    0    0  0.15751390417E+02 -0.50842265531E+02 -0.12044605841E+02  0.54572106378E+02  0.51100000000E-03 0.  1.
         22    1    1    0    0    0 -0.17391321712E+02  0.11833107197E+02  0.21685484181E+02  0.30211599113E+02  0.00000000000E+00 0.  1.
</event>
<event>
 5    1  0.8957809E-005  0.9118800E+02  0.7818608E-02  0.1130116E+00
         25   -1    0    0    0    0  0.00000000000E+00  0.00000000000E+00  0.99999998245E-14  0.12500000000E+03  0.12500000000E+03 0.  0.
        -11    1    3    3    0    0  0.24778430459E+02 -0.12609028074E+02 -0.26822655239E+02  0.38631762053E+02  0.51100000000E-03 0. -1.
         23    2    1    0    0    0 -0.24069583160E+02  0.87583516400E+01  0.21218798500E+01  0.99298717327E+02  0.95914958852E+02 0.  0.
         11    1    3    3    0    0 -0.48848013619E+02  0.21367379714E+02  0.28944535089E+02  0.60666955274E+02  0.51100000000E-03 0.  1.
         22    1    1    0    0    0  0.24069583160E+02 -0.87583516400E+01 -0.21218798500E+01  0.25701282673E+02  0.00000000000E+00 0.  1.
</event>
<event>
 5    1  0.8957809E-005  0.9118800E+02  0.7818608E-02  0.1130116E+00
         25   -1    0    0    0    0  0.00000000000E+00  0.00000000000E+00  0.99999998245E-14  0.12500000000E+03  0.12500000000E+03 0.  0.
        -11    1    3    3    0    0 -0.62440308831E+01 -0.38747724161E+02 -0.32104128330E+00  0.39248912305E+02  0.51100000000E-03 0. -1.
         23    2    1    0    0    0 -0.17865765484E+02  0.12528195463E+02  0.19791302760E+02  0.95540928005E+02  0.90885818483E+02 0.  0.
         11    1    3    3    0    0 -0.11621734601E+02  0.51275919624E+02  0.20112344043E+02  0.56292015700E+02  0.51100000000E-03 0.  1.
         22    1    1    0    0    0  0.17865765484E+02 -0.12528195463E+02 -0.19791302760E+02  0.29459071995E+02  0.00000000000E+00 0.  1.
</event>
<event>
 5    1  0.8957809E-005  0.9118800E+02  0.7818608E-02  0.1130116E+00
         25   -1    0    0    0    0  0.00000000000E+00  0.00000000000E+00  0.99999998245E-14  0.12500000000E+03  0.12500000000E+03 0.  0.
        -11    1    3    3    0    0 -0.56263026849E+02  0.71006287979E+01 -0.17219930258E+02  0.59266121165E+02  0.51100000000E-03 0. -1.
         23    2    1    0    0    0 -0.27860164709E+02 -0.98594791100E+01 -0.29299861241E+01  0.95301802670E+02  0.90556339742E+02 0.  0.
         11    1    3    3    0    0  0.28402862140E+02 -0.16960107908E+02  0.14289944133E+02  0.36035681506E+02  0.51100000000E-03 0.  1.
         22    1    1    0    0    0  0.27860164709E+02  0.98594791100E+01  0.29299861241E+01  0.29698197330E+02  0.00000000000E+00 0. -1.
</event>
<event>
 5    1  0.8957809E-005  0.9118800E+02  0.7818608E-02  0.1130116E+00
         25   -1    0    0    0    0  0.00000000000E+00  0.00000000000E+00  0.99999998245E-14  0.12500000000E+03  0.12500000000E+03 0.  0.
        -11    1    3    3    0    0 -0.20716105031E+02 -0.22951636256E+02  0.16725711486E+02  0.35152297783E+02  0.51100000000E-03 0.  1.
         23    2    1    0    0    0  0.25122645783E+02  0.14390040223E+02  0.83627867260E+01  0.94864360126E+02  0.89950486556E+02 0.  0.
         11    1    3    3    0    0  0.45838750814E+02  0.37341676479E+02 -0.83629247599E+01  0.59712062343E+02  0.51100000000E-03 0. -1.
         22    1    1    0    0    0 -0.25122645783E+02 -0.14390040223E+02 -0.83627867260E+01  0.30135639874E+02  0.00000000000E+00 0. -1.
</event>
<event>
 5    1  0.8957809E-005  0.9118800E+02  0.7818608E-02  0.1130116E+00
         25   -1    0    0    0    0  0.00000000000E+00  0.00000000000E+00  0.99999998245E-14  0.12500000000E+03  0.12500000000E+03 0.  0.
        -11    1    3    3    0    0  0.33429004903E+02 -0.66073187175E+01 -0.27587032711E+01  0.34187212133E+02  0.51100000000E-03 0.  1.
         23    2    1    0    0    0 -0.27018096504E+02  0.11774325097E+01 -0.11225849759E+02  0.95718886823E+02  0.91130245835E+02 0.  0.
         11    1    3    3    0    0 -0.60447101408E+02  0.77847512271E+01 -0.84671464883E+01  0.61531674690E+02  0.51100000000E-03 0. -1.
         22    1    1    0    0    0  0.27018096504E+02 -0.11774325097E+01  0.11225849759E+02  0.29281113177E+02  0.00000000000E+00 0. -1.
</event>
<event>
 5    1  0.8957809E-005  0.9118800E+02  0.7818608E-02  0.1130116E+00
         25   -1    0    0    0    0  0.00000000000E+00  0.00000000000E+00  0.99999998245E-14  0.12500000000E+03  0.12500000000E+03 0.  0.
        -11    1    3    3    0    0  0.17956158389E+02 -0.29261690189E+02  0.12821690561E+02  0.36647863320E+02  0.51100000000E-03 0. -1.
         23    2    1    0    0    0 -0.29406020213E+02  0.36638449458E+01  0.63667697811E+01  0.94690372124E+02  0.89708377708E+02 0.  0.
         11    1    3    3    0    0 -0.47362178601E+02  0.32925535135E+02 -0.64549207800E+01  0.58042508804E+02  0.51100000000E-03 0.  1.
         22    1    1    0    0    0  0.29406020213E+02 -0.36638449458E+01 -0.63667697811E+01  0.30309627876E+02  0.00000000000E+00 0.  1.
</event>
<event>
 5    1  0.8957809E-005  0.9118800E+02  0.7818608E-02  0.1130116E+00
         25   -1    0    0    0    0  0.00000000000E+00  0.00000000000E+00  0.99999998245E-14  0.12500000000E+03  0.12500000000E+03 0.  0.
        -11    1    3    3    0    0 -0.27288277211E+02 -0.10733719719E+02 -0.35804549041E+02  0.46279893522E+02  0.51100000000E-03 0.  1.
         23    2    1    0    0    0  0.16303558169E+02 -0.95437532664E+01  0.44106540813E+01  0.10560043545E+03  0.10380322183E+03 0.  0.
         11    1    3    3    0    0  0.43591835380E+02  0.11899664523E+01  0.40215203122E+02  0.59320541926E+02  0.51100000000E-03 0. -1.
         22    1    1    0    0    0 -0.16303558169E+02  0.95437532664E+01 -0.44106540813E+01  0.19399564552E+02  0.00000000000E+00 0. -1.
</event>
<event>
 5    1  0.8957809E-005  0.9118800E+02  0.7818608E-02  0.1130116E+00
         25   -1    0    0    0    0  0.00000000000E+00  0.00000000000E+00  0.99999998245E-14  0.12500000000E+03  0.12500000000E+03 0.  0.
        -11    1    3    3    0    0 -0.17412653783E+02  0.52035627150E+02 -0.29202352521E+02  0.62158542435E+02  0.51100000000E-03 0.  1.
         23    2    1    0    0    0 -0.82680478850E+01  0.21740776852E+02 -0.17476852106E+02  0.95905973921E+02  0.91386506007E+02 0.  0.
         11    1    3    3    0    0  0.91446058980E+01 -0.30294850298E+02  0.11725500415E+02  0.33747431486E+02  0.51100000000E-03 0. -1.
         22    1    1    0    0    0  0.82680478850E+01 -0.21740776852E+02  0.17476852106E+02  0.29094026079E+02  0.00000000000E+00 0.  1.
</event>
<event>
 5    1  0.8957809E-005  0.9118800E+02  0.7818608E-02  0.1130116E+00
         25   -1    0    0    0    0  0.00000000000E+00  0.00000000000E+00  0.99999998245E-14  0.12500000000E+03  0.12500000000E+03 0.  0.
        -11    1    3    3    0    0 -0.13449547627E+00 -0.36334680567E+02  0.25832462139E+02  0.44581870770E+02  0.51100000000E-03 0. -1.
         23    2    1    0    0    0  0.27924921383E+02  0.27050109780E+01  0.85639184181E+01  0.95666418266E+02  0.91058248208E+02 0.  0.
         11    1    3    3    0    0  0.28059416859E+02  0.39039691545E+02 -0.17268543721E+02  0.51084547496E+02  0.51100000000E-03 0.  1.
         22    1    1    0    0    0 -0.27924921383E+02 -0.27050109780E+01 -0.85639184181E+01  0.29333581734E+02  0.00000000000E+00 0.  1.
</event>
<event>
 5    1  0.8957809E-005  0.9118800E+02  0.7818608E-02  0.1130116E+00
         25   -1    0    0    0    0  0.00000000000E+00  0.00000000000E+00  0.99999998245E-14  0.12500000000E+03  0.12500000000E+03 0.  0.
        -11    1    3    3    0    0  0.48596577902E+02 -0.71989968790E+01  0.33096283043E+02  0.59235267294E+02  0.51100000000E-03 0. -1.
         23    2    1    0    0    0  0.24640102674E+02 -0.13457798918E+02  0.53573705037E+01  0.96417690257E+02  0.92083780137E+02 0.  0.
         11    1    3    3    0    0 -0.23956475228E+02 -0.62588020393E+01 -0.27738912539E+02  0.37182422963E+02  0.51100000000E-03 0.  1.
         22    1    1    0    0    0 -0.24640102674E+02  0.13457798918E+02 -0.53573705037E+01  0.28582309743E+02  0.00000000000E+00 0. -1.
</event>
<event>
 5    1  0.8957809E-005  0.9118800E+02  0.7818608E-02  0.1130116E+00
         25   -1    0    0    0    0  0.00000000000E+00  0.00000000000E+00  0.99999998245E-14  0.12500000000E+03  0.12500000000E+03 0.  0.
        -11    1    3    3    0    0  0.86735732221E+01 -0.52864959431E+02 -0.23606532739E+02  0.58542319704E+02  0.51100000000E-03 0.  1.
         23    2    1    0    0    0  0.96296934083E+01 -0.15898364714E+02 -0.22870826873E+02  0.95528594916E+02  0.90868854560E+02 0.  0.
         11    1    3    3    0    0  0.95612018622E+00  0.36966594716E+02  0.73570586536E+00  0.36986275213E+02  0.51100000000E-03 0. -1.
         22    1    1    0    0    0 -0.96296934083E+01  0.15898364714E+02  0.22870826873E+02  0.29471405084E+02  0.00000000000E+00 0.  1.
</event>
<event>
 5    1  0.8957809E-005  0.9118800E+02  0.7818608E-02  0.1130116E+00
         25   -1    0    0    0    0  0.00000000000E+00  0.00000000000E+00  0.99999998245E-14  0.12500000000E+03  0.12500000000E+03 0.  0.
        -11    1    3    3    0    0  0.10375796340E+02  0.31494750269E+02 -0.50762076930E+02  0.60633034715E+02  0.51100000000E-03 0.  1.
         23    2    1    0    0    0 -0.60694023671E+01  0.14841911913E+02 -0.23304595573E+02  0.96711766242E+02  0.92482114814E+02 0.  0.
         11    1    3    3    0    0 -0.16445198708E+02 -0.16652838356E+02  0.27457481357E+02  0.36078731527E+02  0.51100000000E-03 0. -1.
         22    1    1    0    0    0  0.60694023671E+01 -0.14841911913E+02  0.23304595573E+02  0.28288233758E+02  0.00000000000E+00 0. -1.
</event>
<event>
 5    1  0.8957809E-005  0.9118800E+02  0.7818608E-02  0.1130116E+00
         25   -1    0    0    0    0  0.00000000000E+00  0.00000000000E+00  0.99999998245E-14  0.12500000000E+03  0.12500000000E+03 0.  0.
        -11    1    3    3    0    0 -0.24502899794E+02  0.32172594887E+02 -0.12227648993E+02  0.42249063424E+02  0.51100000000E-03 0.  1.
         23    2    1    0    0    0 -0.14969334961E+02 -0.20936076592E+02 -0.12900233973E+02  0.96210829661E+02  0.91802545800E+02 0.  0.
         11    1    3    3    0    0  0.95335648321E+01 -0.53108671478E+02 -0.67258497985E+00  0.53961766237E+02  0.51100000000E-03 0. -1.
         22    1    1    0    0    0  0.14969334961E+02  0.20936076592E+02  0.12900233973E+02  0.28789170339E+02  0.00000000000E+00 0. -1.
</event>
<event>
 5    1  0.8957809E-005  0.9118800E+02  0.7818608E-02  0.1130116E+00
         25   -1    0    0    0    0  0.00000000000E+00  0.00000000000E+00  0.99999998245E-14  0.12500000000E+03  0.12500000000E+03 0.  0.
        -11    1    3    3    0    0 -0.18563628067E+02 -0.15048942980E+00 -0.37306938639E+02  0.41670596407E+02  0.51100000000E-03 0.  1.
         23    2    1    0    0    0 -0.14902837968E+02  0.69149293406E+01  0.19767218747E+02  0.99296814122E+02  0.95912478492E+02 0.  0.
         11    1    3    3    0    0  0.36607900988E+01  0.70654187704E+01  0.57074157386E+02  0.57626217715E+02  0.51100000000E-03 0. -1.
         22    1    1    0    0    0  0.14902837968E+02 -0.69149293406E+01 -0.19767218747E+02  0.25703185878E+02  0.00000000000E+00 0. -1.
</event>
<event>
 5    1  0.8957809E-005  0.9118800E+02  0.7818608E-02  0.1130116E+00
         25   -1    0    0    0    0  0.00000000000E+00  0.00000000000E+00  0.99999998245E-14  0.12500000000E+03  0.12500000000E+03 0.  0.
        -11    1    3    3    0    0  0.39322136952E+02 -0.36247483024E+02 -0.15459967662E+01  0.53502341877E+02  0.51100000000E-03 0. -1.
         23    2    1    0    0    0 -0.78164367488E+00 -0.25189948294E+02 -0.12988818716E+02  0.96647683101E+02  0.92395458628E+02 0.  0.
         11    1    3    3    0    0 -0.40103780627E+02  0.11057534729E+02 -0.11442821950E+02  0.43145341224E+02  0.51100000000E-03 0.  1.
         22    1    1    0    0    0  0.78164367488E+00  0.25189948294E+02  0.12988818716E+02  0.28352316899E+02  0.00000000000E+00 0. -1.
</event>
<event>
 5    1  0.8957809E-005  0.9118800E+02  0.7818608E-02  0.1130116E+00
         25   -1    0    0    0    0  0.00000000000E+00  0.00000000000E+00  0.99999998245E-14  0.12500000000E+03  0.12500000000E+03 0.  0.
        -11    1    3    3    0    0 -0.83300316050E+01  0.31352306858E+02 -0.52896908856E+02  0.62051910032E+02  0.51100000000E-03 0. -1.
         23    2    1    0    0    0  0.83568257855E+00  0.16332329797E+02 -0.22322300849E+02  0.97328200688E+02  0.93311575767E+02 0.  0.
         11    1    3    3    0    0  0.91657141835E+01 -0.15019977061E+02  0.30574608007E+02  0.35276290656E+02  0.51100000000E-03 0.  1.
         22    1    1    0    0    0 -0.83568257855E+00 -0.16332329797E+02  0.22322300849E+02  0.27671799312E+02  0.00000000000E+00 0. -1.
</event>
<event>
 5    1  0.8957809E-005  0.9118800E+02  0.7818608E-02  0.1130116E+00
         25   -1    0    0    0    0  0.00000000000E+00  0.00000000000E+00  0.99999998245E-14  0.12500000000E+03  0.12500000000E+03 0.  0.
        -11    1    3    3    0    0  0.41028965796E+02 -0.31611505468E+02 -0.15927514664E+01  0.51818917103E+02  0.51100000000E-03 0. -1.
         23    2    1    0    0    0  0.67474172068E+01 -0.87336813396E+01 -0.23894165912E+02  0.98680121708E+02  0.95105364869E+02 0.  0.
         11    1    3    3    0    0 -0.34281548589E+02  0.22877824128E+02 -0.22301414445E+02  0.46861204605E+02  0.51100000000E-03 0.  1.
         22    1    1    0    0    0 -0.67474172068E+01  0.87336813396E+01  0.23894165912E+02  0.26319878292E+02  0.00000000000E+00 0. -1.
</event>
<event>
 5    1  0.8957809E-005  0.9118800E+02  0.7818608E-02  0.1130116E+00
         25   -1    0    0    0    0  0.00000000000E+00  0.00000000000E+00  0.99999998245E-14  0.12500000000E+03  0.12500000000E+03 0.  0.
        -11    1    3    3    0    0 -0.37369809962E+02 -0.33463858444E+02 -0.19205572115E+02  0.53713932263E+02  0.51100000000E-03 0.  1.
         23    2    1    0    0    0 -0.37476345106E+00 -0.31028675745E+02 -0.43025793405E+01  0.93672195176E+02  0.88278246437E+02 0.  0.
         11    1    3    3    0    0  0.36995046511E+02  0.24351826994E+01  0.14902992774E+02  0.39958262913E+02  0.51100000000E-03 0. -1.
         22    1    1    0    0    0  0.37476345106E+00  0.31028675745E+02  0.43025793405E+01  0.31327804824E+02  0.00000000000E+00 0.  1.
</event>
<event>
 5    1  0.8957809E-005  0.9118800E+02  0.7818608E-02  0.1130116E+00
         25   -1    0    0    0    0  0.00000000000E+00  0.00000000000E+00  0.99999998245E-14  0.12500000000E+03  0.12500000000E+03 0.  0.
        -11    1    3    3    0    0 -0.21236017921E+02  0.30700101468E+02 -0.34057266776E+01  0.37484178819E+02  0.51100000000E-03 0.  1.
         23    2    1    0    0    0 -0.13619924595E+02 -0.13957900784E+02  0.26742680662E+02  0.91901717427E+02  0.85734645020E+02 0.  0.
         11    1    3    3    0    0  0.76160933258E+01 -0.44658002253E+02  0.30148407340E+02  0.54417538608E+02  0.51100000000E-03 0. -1.
         22    1    1    0    0    0  0.13619924595E+02  0.13957900784E+02 -0.26742680662E+02  0.33098282573E+02  0.00000000000E+00 0. -1.
</event>
<event>
 5    1  0.8957809E-005  0.9118800E+02  0.7818608E-02  0.1130116E+00
         25   -1    0    0    0    0  0.00000000000E+00  0.00000000000E+00  0.99999998245E-14  0.12500000000E+03  0.12500000000E+03 0.  0.
        -11    1    3    3    0    0 -0.15363186583E+02  0.56129557459E+01  0.28645427117E+02  0.32986258793E+02  0.51100000000E-03 0. -1.
         23    2    1    0    0    0  0.53389913234E+01 -0.10473991848E+02 -0.27577268756E+02  0.95021422889E+02  0.90168485195E+02 0.  0.
         11    1    3    3    0    0  0.20702177907E+02 -0.16086947594E+02 -0.56222695873E+02  0.62035164096E+02  0.51100000000E-03 0.  1.
         22    1    1    0    0    0 -0.53389913234E+01  0.10473991848E+02  0.27577268756E+02  0.29978577111E+02  0.00000000000E+00 0.  1.
</event>
<event>
 5    1  0.8957809E-005  0.9118800E+02  0.7818608E-02  0.1130116E+00
         25   -1    0    0    0    0  0.00000000000E+00  0.00000000000E+00  0.99999998245E-14  0.12500000000E+03  0.12500000000E+03 0.  0.
        -11    1    3    3    0    0 -0.17739104982E+02  0.91625439246E+01  0.27550721899E+02  0.34024554870E+02  0.51100000000E-03 0.  1.
         23    2    1    0    0    0  0.95125849187E+01 -0.14417430474E+01 -0.27229296571E+02  0.96120898792E+02  0.91680012533E+02 0.  0.
         11    1    3    3    0    0  0.27251689901E+02 -0.10604286972E+02 -0.54780018470E+02  0.62096343921E+02  0.51100000000E-03 0. -1.
         22    1    1    0    0    0 -0.95125849187E+01  0.14417430474E+01  0.27229296571E+02  0.28879101208E+02  0.00000000000E+00 0. -1.
</event>
<event>
 5    1  0.8957809E-005  0.9118800E+02  0.7818608E-02  0.1130116E+00
         25   -1    0    0    0    0  0.00000000000E+00  0.00000000000E+00  0.99999998245E-14  0.12500000000E+03  0.12500000000E+03 0.  0.
        -11    1    3    3    0    0  0.24873191086E+02  0.10406251308E+02  0.48129265357E+02  0.55166945585E+02  0.51100000000E-03 0.  1.
         23    2    1    0    0    0  0.12713736339E+02 -0.16510865212E+02  0.16713719243E+02  0.98286779066E+02  0.94586969327E+02 0.  0.
         11    1    3    3    0    0 -0.12159454747E+02 -0.26917116520E+02 -0.31415546114E+02  0.43119833481E+02  0.51100000000E-03 0. -1.
         22    1    1    0    0    0 -0.12713736339E+02  0.16510865212E+02 -0.16713719243E+02  0.26713220934E+02  0.00000000000E+00 0.  1.
</event>
<event>
 5    1  0.8957809E-005  0.9118800E+02  0.7818608E-02  0.1130116E+00
         25   -1    0    0    0    0  0.00000000000E+00  0.00000000000E+00  0.99999998245E-14  0.12500000000E+03  0.12500000000E+03 0.  0.
        -11    1    3    3    0    0  0.81683356817E+01 -0.38498261968E+02 -0.20316756100E+00  0.39355802110E+02  0.51100000000E-03 0.  1.
         23    2    1    0    0    0 -0.38905125811E+00  0.12604703909E+01 -0.33228523048E+02  0.91745302731E+02  0.85506290311E+02 0.  0.
         11    1    3    3    0    0 -0.85573869398E+01  0.39758732359E+02 -0.33025355487E+02  0.52389500621E+02  0.51100000000E-03 0. -1.
         22    1    1    0    0    0  0.38905125811E+00 -0.12604703909E+01  0.33228523048E+02  0.33254697269E+02  0.00000000000E+00 0. -1.
</event>
<event>
 5    1  0.8957809E-005  0.9118800E+02  0.7818608E-02  0.1130116E+00
         25   -1    0    0    0    0  0.00000000000E+00  0.00000000000E+00  0.99999998245E-14  0.12500000000E+03  0.12500000000E+03 0.  0.
        -11    1    3    3    0    0  0.13428542263E+02 -0.24930230704E+02 -0.16746476211E+02  0.32898124810E+02  0.51100000000E-03 0.  1.
         23    2    1    0    0    0 -0.10790485250E+02  0.22775440637E+02  0.15544974857E+02  0.95389165641E+02  0.90676851568E+02 0.  0.
         11    1    3    3    0    0 -0.24219027513E+02  0.47705671341E+02  0.32291451068E+02  0.62491040831E+02  0.51100000000E-03 0. -1.
         22    1    1    0    0    0  0.10790485250E+02 -0.22775440637E+02 -0.15544974857E+02  0.29610834359E+02  0.00000000000E+00 0. -1.
</event>
<event>
 5    1  0.8957809E-005  0.9118800E+02  0.7818608E-02  0.1130116E+00
         25   -1    0    0    0    0  0.00000000000E+00  0.00000000000E+00  0.99999998245E-14  0.12500000000E+03  0.12500000000E+03 0.  0.
        -11    1    3    3    0    0  0.48825699503E+01  0.49807445811E+02 -0.31353325344E+02  0.59056347313E+02  0.51100000000E-03 0. -1.
         23    2    1    0    0    0  0.56621255419E+01  0.24171786803E+02  0.76954016357E+00  0.10016198206E+03  0.97033476266E+02 0.  0.
         11    1    3    3    0    0  0.77955559161E+00 -0.25635659008E+02  0.32122865507E+02  0.41105634752E+02  0.51100000000E-03 0.  1.
         22    1    1    0    0    0 -0.56621255419E+01 -0.24171786803E+02 -0.76954016357E+00  0.24838017935E+02  0.00000000000E+00 0. -1.
</event>
<event>
 5    1  0.8957809E-005  0.9118800E+02  0.7818608E-02  0.1130116E+00
         25   -1    0    0    0    0  0.00000000000E+00  0.00000000000E+00  0.99999998245E-14  0.12500000000E+03  0.12500000000E+03 0.  0.
        -11    1    3    3    0    0  0.98989308359E+01 -0.36213160323E+02  0.39707952810E+02  0.54645249829E+02  0.51100000000E-03 0. -1.
         23    2    1    0    0    0  0.18657081260E+02 -0.21829259141E+02  0.16802848699E+01  0.96234976221E+02  0.91835418305E+02 0.  0.
         11    1    3    3    0    0  0.87581504242E+01  0.14383901183E+02 -0.38027667940E+02  0.41589726391E+02  0.51100000000E-03 0.  1.
         22    1    1    0    0    0 -0.18657081260E+02  0.21829259141E+02 -0.16802848699E+01  0.28765023779E+02  0.00000000000E+00 0. -1.
</event>
<event>
 5    1  0.8957809E-005  0.9118800E+02  0.7818608E-02  0.1130116E+00
         25   -1    0    0    0    0  0.00000000000E+00  0.00000000000E+00  0.99999998245E-14  0.12500000000E+03  0.12500000000E+03 0.  0.
        -11    1    3    3    0    0 -0.18404560947E+02 -0.10296096164E+02  0.50600279317E+02  0.54819027054E+02  0.51100000000E-03 0.  1.
         23    2    1    0    0    0 -0.25809950085E+02 -0.88804549614E+01  0.10287645599E+02  0.95830638409E+02  0.91283402665E+02 0.  0.
         11    1    3    3    0    0 -0.74053891371E+01  0.14156412025E+01 -0.40312633719E+02  0.41011611355E+02  0.51100000000E-03 0. -1.
         22    1    1    0    0    0  0.25809950085E+02  0.88804549614E+01 -0.10287645599E+02  0.29169361591E+02  0.00000000000E+00 0.  1.
</event>
<event>
 5    1  0.8957809E-005  0.9118800E+02  0.7818608E-02  0.1130116E+00
         25   -1    0    0    0    0  0.00000000000E+00  0.00000000000E+00  0.99999998245E-14  0.12500000000E+03  0.12500000000E+03 0.  0.
        -11    1    3    3    0    0  0.13989627921E+02  0.21374544866E+02 -0.27314464931E+02  0.37398674473E+02  0.51100000000E-03 0. -1.
         23    2    1    0    0    0 -0.31488656831E+02 -0.19297020478E+01 -0.54331062275E+01  0.92987847584E+02  0.87303848117E+02 0.  0.
         11    1    3    3    0    0 -0.45478284752E+02 -0.23304246914E+02  0.21881358703E+02  0.55589173111E+02  0.51100000000E-03 0.  1.
         22    1    1    0    0    0  0.31488656831E+02  0.19297020478E+01  0.54331062275E+01  0.32012152416E+02  0.00000000000E+00 0.  1.
</event>
<event>
 5    1  0.8957809E-005  0.9118800E+02  0.7818608E-02  0.1130116E+00
         25   -1    0    0    0    0  0.00000000000E+00  0.00000000000E+00  0.99999998245E-14  0.12500000000E+03  0.12500000000E+03 0.  0.
        -11    1    3    3    0    0  0.31035154966E+02  0.18982005750E+02  0.37860492917E+02  0.52506326383E+02  0.51100000000E-03 0.  1.
         23    2    1    0    0    0 -0.55760281504E+01  0.24195112677E+02  0.15905879745E+02  0.95512840458E+02  0.90847180004E+02 0.  0.
         11    1    3    3    0    0 -0.36611183117E+02  0.52131069270E+01 -0.21954613173E+02  0.43006514075E+02  0.51100000000E-03 0. -1.
         22    1    1    0    0    0  0.55760281504E+01 -0.24195112677E+02 -0.15905879745E+02  0.29487159542E+02  0.00000000000E+00 0.  1.
</event>
<event>
 5    1  0.8957809E-005  0.9118800E+02  0.7818608E-02  0.1130116E+00
         25   -1    0    0    0    0  0.00000000000E+00  0.00000000000E+00  0.99999998245E-14  0.12500000000E+03  0.12500000000E+03 0.  0.
        -11    1    3    3    0    0 -0.29136198399E+02 -0.19318501311E+02  0.51802689042E+02  0.62495128949E+02  0.51100000000E-03 0. -1.
         23    2    1    0    0    0 -0.12199859401E+02 -0.82282898270E+01  0.20857583926E+02  0.99473932341E+02  0.96143034512E+02 0.  0.
         11    1    3    3    0    0  0.16936338998E+02  0.11090211484E+02 -0.30945105116E+02  0.36978803392E+02  0.51100000000E-03 0.  1.
         22    1    1    0    0    0  0.12199859401E+02  0.82282898270E+01 -0.20857583926E+02  0.25526067659E+02  0.00000000000E+00 0. -1.
</event>
<event>
 5    1  0.8957809E-005  0.9118800E+02  0.7818608E-02  0.1130116E+00
         25   -1    0    0    0    0  0.00000000000E+00  0.00000000000E+00  0.99999998245E-14  0.12500000000E+03  0.12500000000E+03 0.  0.
        -11    1    3    3    0    0 -0.44662775919E+02  0.20369424736E+02  0.11437185380E+02  0.50403236270E+02  0.51100000000E-03 0. -1.
         23    2    1    0    0    0 -0.96231771240E+00  0.28908715662E+02  0.75896384522E+01  0.95096112152E+02  0.90271967066E+02 0.  0.
         11    1    3    3    0    0  0.43700458206E+02  0.85392909261E+01 -0.38475469273E+01  0.44692875882E+02  0.51100000000E-03 0.  1.
         22    1    1    0    0    0  0.96231771240E+00 -0.28908715662E+02 -0.75896384522E+01  0.29903887848E+02  0.00000000000E+00 0. -1.
</event>
<event>
 5    1  0.8957809E-005  0.9118800E+02  0.7818608E-02  0.1130116E+00
         25   -1    0    0    0    0  0.00000000000E+00  0.00000000000E+00  0.99999998245E-14  0.12500000000E+03  0.12500000000E+03 0.  0.
        -11    1    3    3    0    0  0.35299195642E+02 -0.66172559912E+01  0.41923136377E+02  0.55202994971E+02  0.51100000000E-03 0.  1.
         23    2    1    0    0    0  0.13016466319E+02  0.18131488338E+02  0.19610937545E+02  0.95288585759E+02  0.90538093860E+02 0.  0.
         11    1    3    3    0    0 -0.22282729323E+02  0.24748744329E+02 -0.22312198831E+02  0.40085590789E+02  0.51100000000E-03 0. -1.
         22    1    1    0    0    0 -0.13016466319E+02 -0.18131488338E+02 -0.19610937545E+02  0.29711414241E+02  0.00000000000E+00 0.  1.
</event>
<event>
 5    1  0.8957809E-005  0.9118800E+02  0.7818608E-02  0.1130116E+00
         25   -1    0    0    0    0  0.00000000000E+00  0.00000000000E+00  0.99999998245E-14  0.12500000000E+03  0.12500000000E+03 0.  0.
        -11    1    3    3    0    0  0.76464764175E+01 -0.37451838830E+02  0.83231997593E+01  0.39120128934E+02  0.51100000000E-03 0.  1.
         23    2    1    0    0    0  0.22069960074E+02  0.12393063795E+02 -0.14524462569E+02  0.95817279414E+02  0.91265107536E+02 0.  0.
         11    1    3    3    0    0  0.14423483656E+02  0.49844902624E+02 -0.22847662329E+02  0.56697150480E+02  0.51100000000E-03 0. -1.
         22    1    1    0    0    0 -0.22069960074E+02 -0.12393063795E+02  0.14524462569E+02  0.29182720586E+02  0.00000000000E+00 0.  1.
</event>
<event>
 5    1  0.8957809E-005  0.9118800E+02  0.7818608E-02  0.1130116E+00
         25   -1    0    0    0    0  0.00000000000E+00  0.00000000000E+00  0.99999998245E-14  0.12500000000E+03  0.12500000000E+03 0.  0.
        -11    1    3    3    0    0 -0.34670670878E+01 -0.17692090739E+02  0.49123782198E+02  0.52327589345E+02  0.51100000000E-03 0. -1.
         23    2    1    0    0    0  0.40552707364E+01  0.16760575250E+02  0.23189992562E+02  0.96101248151E+02  0.91653216188E+02 0.  0.
         11    1    3    3    0    0  0.75223378242E+01  0.34452665989E+02 -0.25933789637E+02  0.43773658806E+02  0.51100000000E-03 0.  1.
         22    1    1    0    0    0 -0.40552707364E+01 -0.16760575250E+02 -0.23189992562E+02  0.28898751849E+02  0.00000000000E+00 0. -1.
</event>
<event>
 5    1  0.8957809E-005  0.9118800E+02  0.7818608E-02  0.1130116E+00
         25   -1    0    0    0    0  0.00000000000E+00  0.00000000000E+00  0.99999998245E-14  0.12500000000E+03  0.12500000000E+03 0.  0.
        -11    1    3    3    0    0 -0.24206057185E+01  0.47306044698E+02  0.78150877030E+00  0.47374380769E+02  0.51100000000E-03 0.  1.
         23    2    1    0    0    0  0.27331490296E+02  0.10988574261E+02  0.69701860795E+01  0.94728848386E+02  0.89761974669E+02 0.  0.
         11    1    3    3    0    0  0.29752096014E+02 -0.36317470437E+02  0.61886773092E+01  0.47354467617E+02  0.51100000000E-03 0. -1.
         22    1    1    0    0    0 -0.27331490296E+02 -0.10988574261E+02 -0.69701860795E+01  0.30271151614E+02  0.00000000000E+00 0. -1.
</event>
<event>
 5    1  0.8957809E-005  0.9118800E+02  0.7818608E-02  0.1130116E+00
         25   -1    0    0    0    0  0.00000000000E+00  0.00000000000E+00  0.99999998245E-14  0.12500000000E+03  0.12500000000E+03 0.  0.
        -11    1    3    3    0    0 -0.13995267061E+02 -0.38524295836E+02 -0.33656647976E+02  0.53035448740E+02  0.51100000000E-03 0.  1.
         23    2    1    0    0    0  0.80068049013E+01 -0.30207762419E+02 -0.42853543373E+00  0.93746176591E+02  0.88382940366E+02 0.  0.
         11    1    3    3    0    0  0.22002071963E+02  0.83165334175E+01  0.33228112543E+02  0.40710727851E+02  0.51100000000E-03 0. -1.
         22    1    1    0    0    0 -0.80068049013E+01  0.30207762419E+02  0.42853543373E+00  0.31253823409E+02  0.00000000000E+00 0.  1.
</event>
<event>
 4    1  0.8957809E-005  0.9118800E+02  0.7818608E-02  0.1130116E+00
         25   -1    0    0    0    0  0.00000000000E+00  0.00000000000E+00  0.99999998245E-14  0.12500000000E+03  0.12500000000E+03 0.  0.
        -11    1    1    0    0    0  0.34385123017E+02  0.91087995777E+01 -0.17223283699E+02  0.39521493093E+02  0.51100000000E-03 0. -1.
         11    1    1    0    0    0 -0.14091740189E+01  0.31149486377E+02  0.11014785396E+02  0.33069650294E+02  0.51100000000E-03 0.  1.
         22    1    1    0    0    0 -0.32975948998E+02 -0.40258285955E+02  0.62084983033E+01  0.52408856613E+02  0.00000000000E+00 0. -1.
</event>
<event>
 5    1  0.8957809E-005  0.9118800E+02  0.7818608E-02  0.1130116E+00
         25   -1    0    0    0    0  0.00000000000E+00  0.00000000000E+00  0.99999998245E-14  0.12500000000E+03  0.12500000000E+03 0.  0.
        -11    1    3    3    0    0  0.42047061438E+01  0.52917594335E+01  0.40949572163E+02  0.41503611075E+02  0.51100000000E-03 0.  1.
         23    2    1    0    0    0 -0.92875713782E+01  0.28190522774E+02 -0.53032594217E+01  0.94848895263E+02  0.89928993188E+02 0.  0.
         11    1    3    3    0    0 -0.13492277522E+02  0.22898763340E+02 -0.46252831585E+02  0.53345284188E+02  0.51100000000E-03 0. -1.
         22    1    1    0    0    0  0.92875713782E+01 -0.28190522774E+02  0.53032594217E+01  0.30151104737E+02  0.00000000000E+00 0. -1.
</event>
<event>
 5    1  0.8957809E-005  0.9118800E+02  0.7818608E-02  0.1130116E+00
         25   -1    0    0    0    0  0.00000000000E+00  0.00000000000E+00  0.99999998245E-14  0.12500000000E+03  0.12500000000E+03 0.  0.
        -11    1    3    3    0    0 -0.44947086088E+01  0.61184090531E+01  0.40929067982E+02  0.41627225958E+02  0.51100000000E-03 0. -1.
         23    2    1    0    0    0  0.21987693817E+02 -0.20793917842E+02  0.39431715392E+01  0.94481246742E+02  0.89416506785E+02 0.  0.
         11    1    3    3    0    0  0.26482402426E+02 -0.26912326895E+02 -0.36985896443E+02  0.52854020784E+02  0.51100000000E-03 0.  1.
         22    1    1    0    0    0 -0.21987693817E+02  0.20793917842E+02 -0.39431715392E+01  0.30518753258E+02  0.00000000000E+00 0.  1.
</event>
<event>
 5    1  0.8957809E-005  0.9118800E+02  0.7818608E-02  0.1130116E+00
         25   -1    0    0    0    0  0.00000000000E+00  0.00000000000E+00  0.99999998245E-14  0.12500000000E+03  0.12500000000E+03 0.  0.
        -11    1    3    3    0    0 -0.16874568014E+02 -0.51149837622E+02  0.30868219023E+02  0.62079818624E+02  0.51100000000E-03 0.  1.
         23    2    1    0    0    0 -0.81288797448E+01 -0.25674693418E+02  0.95639143683E+01  0.96421388661E+02  0.92088800434E+02 0.  0.
         11    1    3    3    0    0  0.87456882695E+01  0.25475144205E+02 -0.21304304655E+02  0.34341570037E+02  0.51100000000E-03 0. -1.
         22    1    1    0    0    0  0.81288797448E+01  0.25674693418E+02 -0.95639143683E+01  0.28578611339E+02  0.00000000000E+00 0.  1.
</event>
<event>
 5    1  0.8957809E-005  0.9118800E+02  0.7818608E-02  0.1130116E+00
         25   -1    0    0    0    0  0.00000000000E+00  0.00000000000E+00  0.99999998245E-14  0.12500000000E+03  0.12500000000E+03 0.  0.
        -11    1    3    3    0    0  0.23735464193E+02  0.20456863327E+02  0.14865929596E+02  0.34682147867E+02  0.51100000000E-03 0.  1.
         23    2    1    0    0    0 -0.24613349254E+02  0.32245345413E+01 -0.16830986813E+02  0.95008389480E+02  0.90150415251E+02 0.  0.
         11    1    3    3    0    0 -0.48348813447E+02 -0.17232328785E+02 -0.31696916409E+02  0.60326241613E+02  0.51100000000E-03 0. -1.
         22    1    1    0    0    0  0.24613349254E+02 -0.32245345413E+01  0.16830986813E+02  0.29991610520E+02  0.00000000000E+00 0. -1.
</event>
<event>
 5    1  0.8957809E-005  0.9118800E+02  0.7818608E-02  0.1130116E+00
         25   -1    0    0    0    0  0.00000000000E+00  0.00000000000E+00  0.99999998245E-14  0.12500000000E+03  0.12500000000E+03 0.  0.
        -11    1    3    3    0    0 -0.92940021867E+01  0.37520323908E+02  0.18419435441E+02  0.42818556550E+02  0.51100000000E-03 0.  1.
         23    2    1    0    0    0 -0.19082720337E+02  0.52345743698E+01 -0.21962080492E+02  0.95438471559E+02  0.90744795386E+02 0.  0.
         11    1    3    3    0    0 -0.97887181499E+01 -0.32285749538E+02 -0.40381515933E+02  0.52619915009E+02  0.51100000000E-03 0. -1.
         22    1    1    0    0    0  0.19082720337E+02 -0.52345743698E+01  0.21962080492E+02  0.29561528441E+02  0.00000000000E+00 0. -1.
</event>
<event>
 5    1  0.8957809E-005  0.9118800E+02  0.7818608E-02  0.1130116E+00
         25   -1    0    0    0    0  0.00000000000E+00  0.00000000000E+00  0.99999998245E-14  0.12500000000E+03  0.12500000000E+03 0.  0.
        -11    1    3    3    0    0 -0.30033109724E+02  0.52449026926E+01  0.31426344411E+02  0.43784835357E+02  0.51100000000E-03 0. -1.
         23    2    1    0    0    0 -0.18418022525E+02  0.15475566407E+02 -0.17597522320E+02  0.95194136463E+02  0.90407599879E+02 0.  0.
         11    1    3    3    0    0  0.11615087199E+02  0.10230663715E+02 -0.49023866731E+02  0.51409301106E+02  0.51100000000E-03 0.  1.
         22    1    1    0    0    0  0.18418022525E+02 -0.15475566407E+02  0.17597522320E+02  0.29805863537E+02  0.00000000000E+00 0.  1.
</event>
<event>
 5    1  0.8957809E-005  0.9118800E+02  0.7818608E-02  0.1130116E+00
         25   -1    0    0    0    0  0.00000000000E+00  0.00000000000E+00  0.99999998245E-14  0.12500000000E+03  0.12500000000E+03 0.  0.
        -11    1    3    3    0    0 -0.21551778503E+02 -0.17860648342E+02 -0.19676472233E+02  0.34214696778E+02  0.51100000000E-03 0. -1.
         23    2    1    0    0    0 -0.12779911535E+01  0.18075636676E+02  0.24411217728E+02  0.94598199830E+02  0.89579852408E+02 0.  0.
         11    1    3    3    0    0  0.20273787350E+02  0.35936285018E+02  0.44087689961E+02  0.60383503051E+02  0.51100000000E-03 0.  1.
         22    1    1    0    0    0  0.12779911535E+01 -0.18075636676E+02 -0.24411217728E+02  0.30401800170E+02  0.00000000000E+00 0.  1.
</event>
<event>
 5    1  0.8957809E-005  0.9118800E+02  0.7818608E-02  0.1130116E+00
         25   -1    0    0    0    0  0.00000000000E+00  0.00000000000E+00  0.99999998245E-14  0.12500000000E+03  0.12500000000E+03 0.  0.
        -11    1    3    3    0    0  0.21819116430E+02 -0.39935391010E+02  0.42062443444E+02  0.61969011979E+02  0.51100000000E-03 0.  1.
         23    2    1    0    0    0  0.11696230758E+02 -0.21743845416E+02  0.15007074525E+02  0.96106940051E+02  0.91660978681E+02 0.  0.
         11    1    3    3    0    0 -0.10122885672E+02  0.18191545594E+02 -0.27055368919E+02  0.34137928072E+02  0.51100000000E-03 0. -1.
         22    1    1    0    0    0 -0.11696230758E+02  0.21743845416E+02 -0.15007074525E+02  0.28893059949E+02  0.00000000000E+00 0.  1.
</event>
<event>
 5    1  0.8957809E-005  0.9118800E+02  0.7818608E-02  0.1130116E+00
         25   -1    0    0    0    0  0.00000000000E+00  0.00000000000E+00  0.99999998245E-14  0.12500000000E+03  0.12500000000E+03 0.  0.
        -11    1    3    3    0    0  0.37661125273E+02  0.19798636851E+02  0.70555645425E+01  0.43129193932E+02  0.51100000000E-03 0.  1.
         23    2    1    0    0    0 -0.13880095908E+02  0.25741662033E+02 -0.15168450458E+01  0.95715344538E+02  0.91125386882E+02 0.  0.
         11    1    3    3    0    0 -0.51541221181E+02  0.59430251822E+01 -0.85724095882E+01  0.52586150606E+02  0.51100000000E-03 0. -1.
         22    1    1    0    0    0  0.13880095908E+02 -0.25741662033E+02  0.15168450458E+01  0.29284655462E+02  0.00000000000E+00 0. -1.
</event>
<event>
 5    1  0.8957809E-005  0.9118800E+02  0.7818608E-02  0.1130116E+00
         25   -1    0    0    0    0  0.00000000000E+00  0.00000000000E+00  0.99999998245E-14  0.12500000000E+03  0.12500000000E+03 0.  0.
        -11    1    3    3    0    0  0.26190375652E+02 -0.19235275756E+02  0.17198734441E+02  0.36765854768E+02  0.51100000000E-03 0.  1.
         23    2    1    0    0    0  0.15156301431E+01  0.79125486518E+01 -0.28508667281E+02  0.95374847325E+02  0.90657111311E+02 0.  0.
         11    1    3    3    0    0 -0.24674745509E+02  0.27147824408E+02 -0.45707401722E+02  0.58608992556E+02  0.51100000000E-03 0. -1.
         22    1    1    0    0    0 -0.15156301431E+01 -0.79125486518E+01  0.28508667281E+02  0.29625152675E+02  0.00000000000E+00 0. -1.
</event>
<event>
 5    1  0.8957809E-005  0.9118800E+02  0.7818608E-02  0.1130116E+00
         25   -1    0    0    0    0  0.00000000000E+00  0.00000000000E+00  0.99999998245E-14  0.12500000000E+03  0.12500000000E+03 0.  0.
        -11    1    3    3    0    0  0.63444369111E+01  0.35894170332E+02  0.58738075612E+00  0.36455292619E+02  0.51100000000E-03 0. -1.
         23    2    1    0    0    0  0.14455603335E+02 -0.23084455227E+02 -0.80168918151E+01  0.96607622585E+02  0.92341245640E+02 0.  0.
         11    1    3    3    0    0  0.81111664237E+01 -0.58978625559E+02 -0.86042725712E+01  0.60152329966E+02  0.51100000000E-03 0.  1.
         22    1    1    0    0    0 -0.14455603335E+02  0.23084455227E+02  0.80168918151E+01  0.28392377415E+02  0.00000000000E+00 0.  1.
</event>
<event>
 5    1  0.8957809E-005  0.9118800E+02  0.7818608E-02  0.1130116E+00
         25   -1    0    0    0    0  0.00000000000E+00  0.00000000000E+00  0.99999998245E-14  0.12500000000E+03  0.12500000000E+03 0.  0.
        -11    1    3    3    0    0 -0.16442226928E+02  0.27815266562E+02  0.21355954639E+02  0.38731288115E+02  0.51100000000E-03 0. -1.
         23    2    1    0    0    0  0.28084861856E+02 -0.44049701702E+01  0.45143897828E+01  0.96215578124E+02  0.91809011164E+02 0.  0.
         11    1    3    3    0    0  0.44527088784E+02 -0.32220236732E+02 -0.16841564856E+02  0.57484290008E+02  0.51100000000E-03 0.  1.
         22    1    1    0    0    0 -0.28084861856E+02  0.44049701702E+01 -0.45143897828E+01  0.28784421876E+02  0.00000000000E+00 0.  1.
</event>
<event>
 5    1  0.8957809E-005  0.9118800E+02  0.7818608E-02  0.1130116E+00
         25   -1    0    0    0    0  0.00000000000E+00  0.00000000000E+00  0.99999998245E-14  0.12500000000E+03  0.12500000000E+03 0.  0.
        -11    1    3    3    0    0 -0.23258026787E+02 -0.48735647935E+02  0.11993974329E+02  0.55316856474E+02  0.51100000000E-03 0. -1.
         23    2    1    0    0    0 -0.13642425703E+02 -0.10357179964E+02  0.22942793863E+02  0.96368570659E+02  0.92017078114E+02 0.  0.
         11    1    3    3    0    0  0.96156010840E+01  0.38378467972E+02  0.10948819535E+02  0.41051714185E+02  0.51100000000E-03 0.  1.
         22    1    1    0    0    0  0.13642425703E+02  0.10357179964E+02 -0.22942793863E+02  0.28631429341E+02  0.00000000000E+00 0. -1.
</event>
<event>
 5    1  0.8957809E-005  0.9118800E+02  0.7818608E-02  0.1130116E+00
         25   -1    0    0    0    0  0.00000000000E+00  0.00000000000E+00  0.99999998245E-14  0.12500000000E+03  0.12500000000E+03 0.  0.
        -11    1    3    3    0    0 -0.25492825570E+02 -0.22250589847E+02 -0.16514341479E+02  0.37652309076E+02  0.51100000000E-03 0. -1.
         23    2    1    0    0    0  0.27097830398E+01  0.10830825130E+02  0.24911417414E+02  0.97701127960E+02  0.93809818196E+02 0.  0.
         11    1    3    3    0    0  0.28202608610E+02  0.33081414976E+02  0.41425758893E+02  0.60048818883E+02  0.51100000000E-03 0.  1.
         22    1    1    0    0    0 -0.27097830398E+01 -0.10830825130E+02 -0.24911417414E+02  0.27298872040E+02  0.00000000000E+00 0.  1.
</event>
<event>
 5    1  0.8957809E-005  0.9118800E+02  0.7818608E-02  0.1130116E+00
         25   -1    0    0    0    0  0.00000000000E+00  0.00000000000E+00  0.99999998245E-14  0.12500000000E+03  0.12500000000E+03 0.  0.
        -11    1    3    3    0    0 -0.23267256792E+02  0.48756625651E+02 -0.10611604727E+02  0.55056152595E+02  0.51100000000E-03 0. -1.
         23    2    1    0    0    0 -0.26478335649E+02  0.14277321106E+02 -0.17261083633E+02  0.90317307416E+02  0.83392606710E+02 0.  0.
         11    1    3    3    0    0 -0.32110788575E+01 -0.34479304544E+02 -0.66494789060E+01  0.35261154820E+02  0.51100000000E-03 0.  1.
         22    1    1    0    0    0  0.26478335649E+02 -0.14277321106E+02  0.17261083633E+02  0.34682692584E+02  0.00000000000E+00 0. -1.
</event>
<event>
 5    1  0.8957809E-005  0.9118800E+02  0.7818608E-02  0.1130116E+00
         25   -1    0    0    0    0  0.00000000000E+00  0.00000000000E+00  0.99999998245E-14  0.12500000000E+03  0.12500000000E+03 0.  0.
        -11    1    3    3    0    0  0.45566073361E+01 -0.56267358412E+02  0.14218760790E+02  0.58214701337E+02  0.51100000000E-03 0.  1.
         23    2    1    0    0    0 -0.10558203998E+02 -0.22360465589E+02  0.16278447664E+02  0.95395035021E+02  0.90684942275E+02 0.  0.
         11    1    3    3    0    0 -0.15114811334E+02  0.33906892823E+02  0.20596868734E+01  0.37180333684E+02  0.51100000000E-03 0. -1.
         22    1    1    0    0    0  0.10558203998E+02  0.22360465589E+02 -0.16278447664E+02  0.29604964979E+02  0.00000000000E+00 0.  1.
</event>
<event>
 5    1  0.8957809E-005  0.9118800E+02  0.7818608E-02  0.1130116E+00
         25   -1    0    0    0    0  0.00000000000E+00  0.00000000000E+00  0.99999998245E-14  0.12500000000E+03  0.12500000000E+03 0.  0.
        -11    1    3    3    0    0  0.22447164364E+02  0.30466005848E+02 -0.15028375334E+02  0.40717376705E+02  0.51100000000E-03 0.  1.
         23    2    1    0    0    0 -0.25618300738E+02  0.12579819059E+02  0.54566525632E+01  0.95942742087E+02  0.91436784292E+02 0.  0.
         11    1    3    3    0    0 -0.48065465102E+02 -0.17886186789E+02  0.20485027897E+02  0.55225365381E+02  0.51100000000E-03 0. -1.
         22    1    1    0    0    0  0.25618300738E+02 -0.12579819059E+02 -0.54566525632E+01  0.29057257913E+02  0.00000000000E+00 0. -1.
</event>
<event>
 5    1  0.8957809E-005  0.9118800E+02  0.7818608E-02  0.1130116E+00
         25   -1    0    0    0    0  0.00000000000E+00  0.00000000000E+00  0.99999998245E-14  0.12500000000E+03  0.12500000000E+03 0.  0.
        -11    1    3    3    0    0 -0.42545827052E+02 -0.28689564191E+02  0.35518320658E+02  0.62408249420E+02  0.51100000000E-03 0.  1.
         23    2    1    0    0    0 -0.21950280773E+02 -0.12932592951E+02  0.15385619167E+02  0.95237875351E+02  0.90468054239E+02 0.  0.
         11    1    3    3    0    0  0.20595546279E+02  0.15756971240E+02 -0.20132701491E+02  0.32829625931E+02  0.51100000000E-03 0. -1.
         22    1    1    0    0    0  0.21950280773E+02  0.12932592951E+02 -0.15385619167E+02  0.29762124649E+02  0.00000000000E+00 0.  1.
</event>
<event>
 5    1  0.8957809E-005  0.9118800E+02  0.7818608E-02  0.1130116E+00
         25   -1    0    0    0    0  0.00000000000E+00  0.00000000000E+00  0.99999998245E-14  0.12500000000E+03  0.12500000000E+03 0.  0.
        -11    1    3    3    0    0 -0.18499564697E+02 -0.83025575158E+01  0.47651436153E+02  0.51786346878E+02  0.51100000000E-03 0.  1.
         23    2    1    0    0    0 -0.21925272833E+02 -0.13851263497E+02  0.83734337390E+00  0.99052433000E+02  0.95593452966E+02 0.  0.
         11    1    3    3    0    0 -0.34257081359E+01 -0.55487059815E+01 -0.46814092779E+02  0.47266086122E+02  0.51100000000E-03 0. -1.
         22    1    1    0    0    0  0.21925272833E+02  0.13851263497E+02 -0.83734337390E+00  0.25947567000E+02  0.00000000000E+00 0. -1.
</event>
<event>
 5    1  0.8957809E-005  0.9118800E+02  0.7818608E-02  0.1130116E+00
         25   -1    0    0    0    0  0.00000000000E+00  0.00000000000E+00  0.99999998245E-14  0.12500000000E+03  0.12500000000E+03 0.  0.
        -11    1    3    3    0    0  0.36454676070E+02  0.23417823340E+02  0.28687175463E+01  0.43423120547E+02  0.51100000000E-03 0.  1.
         23    2    1    0    0    0 -0.15994747544E+02  0.17650477370E+02  0.14029157411E+02  0.97356039393E+02  0.93348860990E+02 0.  0.
         11    1    3    3    0    0 -0.52449423614E+02 -0.57673459699E+01  0.11160439865E+02  0.53932918846E+02  0.51100000000E-03 0. -1.
         22    1    1    0    0    0  0.15994747544E+02 -0.17650477370E+02 -0.14029157411E+02  0.27643960607E+02  0.00000000000E+00 0. -1.
</event>
<event>
 5    1  0.8957809E-005  0.9118800E+02  0.7818608E-02  0.1130116E+00
         25   -1    0    0    0    0  0.00000000000E+00  0.00000000000E+00  0.99999998245E-14  0.12500000000E+03  0.12500000000E+03 0.  0.
        -11    1    3    3    0    0 -0.20502028300E+02  0.19587024876E+02 -0.27865959340E+02  0.39755457463E+02  0.51100000000E-03 0.  1.
         23    2    1    0    0    0 -0.15722102081E+02 -0.71687876120E+01  0.22286713814E+02  0.96799403867E+02  0.92600491179E+02 0.  0.
         11    1    3    3    0    0  0.47799262191E+01 -0.26755812488E+02  0.50152673154E+02  0.57043946403E+02  0.51100000000E-03 0. -1.
         22    1    1    0    0    0  0.15722102081E+02  0.71687876120E+01 -0.22286713814E+02  0.28200596133E+02  0.00000000000E+00 0. -1.
</event>
<event>
 5    1  0.8957809E-005  0.9118800E+02  0.7818608E-02  0.1130116E+00
         25   -1    0    0    0    0  0.00000000000E+00  0.00000000000E+00  0.99999998245E-14  0.12500000000E+03  0.12500000000E+03 0.  0.
        -11    1    3    3    0    0 -0.18677604893E+02 -0.53127447804E+01 -0.30755318872E+02  0.36372624607E+02  0.51100000000E-03 0.  1.
         23    2    1    0    0    0  0.21547850718E+02  0.22103027671E+02  0.32834125916E+00  0.94129925320E+02  0.88924019983E+02 0.  0.
         11    1    3    3    0    0  0.40225455611E+02  0.27415772451E+02  0.31083660131E+02  0.57757300713E+02  0.51100000000E-03 0. -1.
         22    1    1    0    0    0 -0.21547850718E+02 -0.22103027671E+02 -0.32834125916E+00  0.30870074680E+02  0.00000000000E+00 0. -1.
</event>
<event>
 5    1  0.8957809E-005  0.9118800E+02  0.7818608E-02  0.1130116E+00
         25   -1    0    0    0    0  0.00000000000E+00  0.00000000000E+00  0.99999998245E-14  0.12500000000E+03  0.12500000000E+03 0.  0.
        -11    1    3    3    0    0  0.98326854097E+01 -0.37779708911E+02  0.18799532830E+01  0.39083530193E+02  0.51100000000E-03 0.  1.
         23    2    1    0    0    0  0.33631960915E+02  0.45539464121E+01 -0.10992398167E+02  0.89325358581E+02  0.81892244109E+02 0.  0.
         11    1    3    3    0    0  0.23799275506E+02  0.42333655323E+02 -0.12872351450E+02  0.50241828387E+02  0.51100000000E-03 0. -1.
         22    1    1    0    0    0 -0.33631960915E+02 -0.45539464121E+01  0.10992398167E+02  0.35674641419E+02  0.00000000000E+00 0.  1.
</event>
<event>
 5    1  0.8957809E-005  0.9118800E+02  0.7818608E-02  0.1130116E+00
         25   -1    0    0    0    0  0.00000000000E+00  0.00000000000E+00  0.99999998245E-14  0.12500000000E+03  0.12500000000E+03 0.  0.
        -11    1    3    3    0    0  0.36980936296E+01  0.35205271559E+02 -0.41638777736E+02  0.54652308768E+02  0.51100000000E-03 0.  1.
         23    2    1    0    0    0 -0.11158785843E+02  0.21996585182E+02 -0.51444492903E+00  0.10032951329E+03  0.97249053062E+02 0.  0.
         11    1    3    3    0    0 -0.14856879472E+02 -0.13208686377E+02  0.41124332807E+02  0.45677204518E+02  0.51100000000E-03 0. -1.
         22    1    1    0    0    0  0.11158785843E+02 -0.21996585182E+02  0.51444492903E+00  0.24670486714E+02  0.00000000000E+00 0.  1.
</event>
<event>
 5    1  0.8957809E-005  0.9118800E+02  0.7818608E-02  0.1130116E+00
         25   -1    0    0    0    0  0.00000000000E+00  0.00000000000E+00  0.99999998245E-14  0.12500000000E+03  0.12500000000E+03 0.  0.
        -11    1    3    3    0    0  0.17119338559E+02  0.29978912462E+02  0.13574056215E+02  0.37095308969E+02  0.51100000000E-03 0. -1.
         23    2    1    0    0    0 -0.14418467671E+02 -0.21296179515E+02  0.10023416955E+02  0.97397674747E+02  0.93404596711E+02 0.  0.
         11    1    3    3    0    0 -0.31537806230E+02 -0.51275091977E+02 -0.35506392599E+01  0.60302365778E+02  0.51100000000E-03 0.  1.
         22    1    1    0    0    0  0.14418467671E+02  0.21296179515E+02 -0.10023416955E+02  0.27602325253E+02  0.00000000000E+00 0.  1.
</event>
<event>
 5    1  0.8957809E-005  0.9118800E+02  0.7818608E-02  0.1130116E+00
         25   -1    0    0    0    0  0.00000000000E+00  0.00000000000E+00  0.99999998245E-14  0.12500000000E+03  0.12500000000E+03 0.  0.
        -11    1    3    3    0    0  0.17265083631E+02 -0.50125465585E+01  0.36944226855E+02  0.41086307135E+02  0.51100000000E-03 0. -1.
         23    2    1    0    0    0  0.42139611315E+01  0.29094746563E+02 -0.32847795228E+01  0.95418730208E+02  0.90717597808E+02 0.  0.
         11    1    3    3    0    0 -0.13051122500E+02  0.34107293122E+02 -0.40229006378E+02  0.54332423073E+02  0.51100000000E-03 0.  1.
         22    1    1    0    0    0 -0.42139611315E+01 -0.29094746563E+02  0.32847795228E+01  0.29581269792E+02  0.00000000000E+00 0.  1.
</event>
<event>
 5    1  0.8957809E-005  0.9118800E+02  0.7818608E-02  0.1130116E+00
         25   -1    0    0    0    0  0.00000000000E+00  0.00000000000E+00  0.99999998245E-14  0.12500000000E+03  0.12500000000E+03 0.  0.
        -11    1    3    3    0    0 -0.41933726036E+02  0.15836906196E+02 -0.30500524549E+02  0.54217404725E+02  0.51100000000E-03 0. -1.
         23    2    1    0    0    0 -0.13021717803E+01 -0.55521151469E+01 -0.23685243252E+02  0.10063789045E+03  0.97644624080E+02 0.  0.
         11    1    3    3    0    0  0.40631554255E+02 -0.21389021343E+02  0.68152812966E+01  0.46420485722E+02  0.51100000000E-03 0.  1.
         22    1    1    0    0    0  0.13021717803E+01  0.55521151469E+01  0.23685243252E+02  0.24362109553E+02  0.00000000000E+00 0.  1.
</event>
<event>
 5    1  0.8957809E-005  0.9118800E+02  0.7818608E-02  0.1130116E+00
         25   -1    0    0    0    0  0.00000000000E+00  0.00000000000E+00  0.99999998245E-14  0.12500000000E+03  0.12500000000E+03 0.  0.
        -11    1    3    3    0    0 -0.20646867558E+02  0.16441459468E+02  0.38238408482E+02  0.46462787399E+02  0.51100000000E-03 0.  1.
         23    2    1    0    0    0 -0.23844612819E+02 -0.16778508706E+02  0.19285724165E+01  0.95780087159E+02  0.91214153451E+02 0.  0.
         11    1    3    3    0    0 -0.31977452605E+01 -0.33219968174E+02 -0.36309836066E+02  0.49317299760E+02  0.51100000000E-03 0. -1.
         22    1    1    0    0    0  0.23844612819E+02  0.16778508706E+02 -0.19285724165E+01  0.29219912841E+02  0.00000000000E+00 0.  1.
</event>
<event>
 5    1  0.8957809E-005  0.9118800E+02  0.7818608E-02  0.1130116E+00
         25   -1    0    0    0    0  0.00000000000E+00  0.00000000000E+00  0.99999998245E-14  0.12500000000E+03  0.12500000000E+03 0.  0.
        -11    1    3    3    0    0 -0.98206852188E+01  0.43101094490E+02  0.41457732298E+02  0.60604403899E+02  0.51100000000E-03 0.  1.
         23    2    1    0    0    0 -0.14352469336E+01  0.26163217336E+02  0.10716817622E+02  0.96690565971E+02  0.92453455818E+02 0.  0.
         11    1    3    3    0    0  0.83854382851E+01 -0.16937877154E+02 -0.30740914676E+02  0.36086162072E+02  0.51100000000E-03 0. -1.
         22    1    1    0    0    0  0.14352469336E+01 -0.26163217336E+02 -0.10716817622E+02  0.28309434029E+02  0.00000000000E+00 0.  1.
</event>
<event>
 5    1  0.8957809E-005  0.9118800E+02  0.7818608E-02  0.1130116E+00
         25   -1    0    0    0    0  0.00000000000E+00  0.00000000000E+00  0.99999998245E-14  0.12500000000E+03  0.12500000000E+03 0.  0.
        -11    1    3    3    0    0  0.14820329821E+02 -0.55544363552E+02  0.10595485350E+02  0.58455819287E+02  0.51100000000E-03 0.  1.
         23    2    1    0    0    0  0.13260232942E+02 -0.24244338218E+02 -0.96091444404E+01  0.95743250861E+02  0.91163658961E+02 0.  0.
         11    1    3    3    0    0 -0.15600968795E+01  0.31300025334E+02 -0.20204629791E+02  0.37287431574E+02  0.51100000000E-03 0. -1.
         22    1    1    0    0    0 -0.13260232942E+02  0.24244338218E+02  0.96091444404E+01  0.29256749139E+02  0.00000000000E+00 0.  1.
</event>
<event>
 5    1  0.8957809E-005  0.9118800E+02  0.7818608E-02  0.1130116E+00
         25   -1    0    0    0    0  0.00000000000E+00  0.00000000000E+00  0.99999998245E-14  0.12500000000E+03  0.12500000000E+03 0.  0.
        -11    1    3    3    0    0  0.35315667744E+02 -0.21949104936E+02 -0.17494492348E+01  0.41617546403E+02  0.51100000000E-03 0.  1.
         23    2    1    0    0    0 -0.45129322240E+00  0.14155225420E+01  0.30073817644E+02  0.94889505528E+02  0.89985423165E+02 0.  0.
         11    1    3    3    0    0 -0.35766960967E+02  0.23364627478E+02  0.31823266879E+02  0.53271959126E+02  0.51100000000E-03 0. -1.
         22    1    1    0    0    0  0.45129322240E+00 -0.14155225420E+01 -0.30073817644E+02  0.30110494472E+02  0.00000000000E+00 0. -1.
</event>
<event>
 5    1  0.8957809E-005  0.9118800E+02  0.7818608E-02  0.1130116E+00
         25   -1    0    0    0    0  0.00000000000E+00  0.00000000000E+00  0.99999998245E-14  0.12500000000E+03  0.12500000000E+03 0.  0.
        -11    1    3    3    0    0 -0.17339339285E+02 -0.27236202717E+01 -0.37437597191E+02  0.41347847319E+02  0.51100000000E-03 0. -1.
         23    2    1    0    0    0 -0.10103389508E+02  0.26889588035E+02  0.71856582274E+01  0.95389830996E+02  0.90677768770E+02 0.  0.
         11    1    3    3    0    0  0.72359497780E+01  0.29613208307E+02  0.44623255418E+02  0.54041983678E+02  0.51100000000E-03 0.  1.
         22    1    1    0    0    0  0.10103389508E+02 -0.26889588035E+02 -0.71856582274E+01  0.29610169004E+02  0.00000000000E+00 0.  1.
</event>
<event>
 5    1  0.8957809E-005  0.9118800E+02  0.7818608E-02  0.1130116E+00
         25   -1    0    0    0    0  0.00000000000E+00  0.00000000000E+00  0.99999998245E-14  0.12500000000E+03  0.12500000000E+03 0.  0.
        -11    1    3    3    0    0 -0.36166337203E+02  0.13556695149E+02 -0.86984148257E+01  0.39591038769E+02  0.51100000000E-03 0.  1.
         23    2    1    0    0    0  0.75936703747E+01  0.23169737843E+02 -0.27559713451E+02  0.88202739409E+02  0.80160369587E+02 0.  0.
         11    1    3    3    0    0  0.43760007578E+02  0.96130426936E+01 -0.18861298626E+02  0.48611700640E+02  0.51100000000E-03 0. -1.
         22    1    1    0    0    0 -0.75936703747E+01 -0.23169737843E+02  0.27559713451E+02  0.36797260591E+02  0.00000000000E+00 0. -1.
</event>
<event>
 5    1  0.8957809E-005  0.9118800E+02  0.7818608E-02  0.1130116E+00
         25   -1    0    0    0    0  0.00000000000E+00  0.00000000000E+00  0.99999998245E-14  0.12500000000E+03  0.12500000000E+03 0.  0.
        -11    1    3    3    0    0 -0.47530597097E+02  0.16812373748E+02  0.30340887763E+02  0.58842017657E+02  0.51100000000E-03 0.  1.
         23    2    1    0    0    0 -0.11963066332E+02  0.11981652292E+02  0.24515836276E+02  0.95205685508E+02  0.90423566491E+02 0.  0.
         11    1    3    3    0    0  0.35567530765E+02 -0.48307214555E+01 -0.58250514868E+01  0.36363667851E+02  0.51100000000E-03 0. -1.
         22    1    1    0    0    0  0.11963066332E+02 -0.11981652292E+02 -0.24515836276E+02  0.29794314492E+02  0.00000000000E+00 0.  1.
</event>
<event>
 5    1  0.8957809E-005  0.9118800E+02  0.7818608E-02  0.1130116E+00
         25   -1    0    0    0    0  0.00000000000E+00  0.00000000000E+00  0.99999998245E-14  0.12500000000E+03  0.12500000000E+03 0.  0.
        -11    1    3    3    0    0 -0.30970445200E+01  0.25600956131E+02 -0.29788650165E+02  0.39400054803E+02  0.51100000000E-03 0.  1.
         23    2    1    0    0    0  0.12283513013E+02 -0.24228106931E+02 -0.41151329621E+01  0.97526009087E+02  0.93576184320E+02 0.  0.
         11    1    3    3    0    0  0.15380557533E+02 -0.49829063062E+02  0.25673517203E+02  0.58125954284E+02  0.51100000000E-03 0. -1.
         22    1    1    0    0    0 -0.12283513013E+02  0.24228106931E+02  0.41151329621E+01  0.27473990913E+02  0.00000000000E+00 0. -1.
</event>
<event>
 5    1  0.8957809E-005  0.9118800E+02  0.7818608E-02  0.1130116E+00
         25   -1    0    0    0    0  0.00000000000E+00  0.00000000000E+00  0.99999998245E-14  0.12500000000E+03  0.12500000000E+03 0.  0.
        -11    1    3    3    0    0  0.67121315861E+01  0.47771520911E+02 -0.69439734769E+01  0.48737969679E+02  0.51100000000E-03 0.  1.
         23    2    1    0    0    0 -0.20717996526E+02  0.10950482536E+02 -0.17380324457E+02  0.95824254490E+02  0.91274660353E+02 0.  0.
         11    1    3    3    0    0 -0.27430128112E+02 -0.36821038374E+02 -0.10436350980E+02  0.47086284811E+02  0.51100000000E-03 0. -1.
         22    1    1    0    0    0  0.20717996526E+02 -0.10950482536E+02  0.17380324457E+02  0.29175745510E+02  0.00000000000E+00 0.  1.
</event>
<event>
 5    1  0.8957809E-005  0.9118800E+02  0.7818608E-02  0.1130116E+00
         25   -1    0    0    0    0  0.00000000000E+00  0.00000000000E+00  0.99999998245E-14  0.12500000000E+03  0.12500000000E+03 0.  0.
        -11    1    3    3    0    0 -0.29630677291E+02 -0.29946377885E+01  0.35286246784E+02  0.46174279686E+02  0.51100000000E-03 0. -1.
         23    2    1    0    0    0  0.68286148264E+01  0.24095490679E+02  0.13449912457E+02  0.96572499290E+02  0.92293687880E+02 0.  0.
         11    1    3    3    0    0  0.36459292118E+02  0.27090128468E+02 -0.21836334327E+02  0.50398219604E+02  0.51100000000E-03 0.  1.
         22    1    1    0    0    0 -0.68286148264E+01 -0.24095490679E+02 -0.13449912457E+02  0.28427500710E+02  0.00000000000E+00 0.  1.
</event>
<event>
 5    1  0.8957809E-005  0.9118800E+02  0.7818608E-02  0.1130116E+00
         25   -1    0    0    0    0  0.00000000000E+00  0.00000000000E+00  0.99999998245E-14  0.12500000000E+03  0.12500000000E+03 0.  0.
        -11    1    3    3    0    0 -0.33364927642E+02  0.10190354730E+02  0.62343397292E+01  0.35439084613E+02  0.51100000000E-03 0.  1.
         23    2    1    0    0    0  0.23529708296E+02 -0.12792042812E+02 -0.48187771005E+01  0.97787794200E+02  0.93925228506E+02 0.  0.
         11    1    3    3    0    0  0.56894635938E+02 -0.22982397541E+02 -0.11053116830E+02  0.62348709587E+02  0.51100000000E-03 0. -1.
         22    1    1    0    0    0 -0.23529708296E+02  0.12792042812E+02  0.48187771005E+01  0.27212205800E+02  0.00000000000E+00 0. -1.
</event>
<event>
 5    1  0.8957809E-005  0.9118800E+02  0.7818608E-02  0.1130116E+00
         25   -1    0    0    0    0  0.00000000000E+00  0.00000000000E+00  0.99999998245E-14  0.12500000000E+03  0.12500000000E+03 0.  0.
        -11    1    3    3    0    0 -0.77290343757E+01  0.31434869494E+02  0.92056528817E+01  0.33654613914E+02  0.51100000000E-03 0. -1.
         23    2    1    0    0    0  0.14472031062E+01 -0.29320573976E+02  0.47667289924E+01  0.95259250843E+02  0.90497584005E+02 0.  0.
         11    1    3    3    0    0  0.91762374819E+01 -0.60755443470E+02 -0.44389238893E+01  0.61604636929E+02  0.51100000000E-03 0.  1.
         22    1    1    0    0    0 -0.14472031062E+01  0.29320573976E+02 -0.47667289924E+01  0.29740749157E+02  0.00000000000E+00 0.  1.
</event>
<event>
 5    1  0.8957809E-005  0.9118800E+02  0.7818608E-02  0.1130116E+00
         25   -1    0    0    0    0  0.00000000000E+00  0.00000000000E+00  0.99999998245E-14  0.12500000000E+03  0.12500000000E+03 0.  0.
        -11    1    3    3    0    0  0.23277442525E+02  0.29477599281E+02 -0.88332437100E+01  0.38584898401E+02  0.51100000000E-03 0. -1.
         23    2    1    0    0    0 -0.72251290689E+01 -0.56105490551E+01 -0.32839858014E+02  0.90909869095E+02  0.84276137036E+02 0.  0.
         11    1    3    3    0    0 -0.30502571594E+02 -0.35088148337E+02 -0.24006614304E+02  0.52324970694E+02  0.51100000000E-03 0.  1.
         22    1    1    0    0    0  0.72251290689E+01  0.56105490551E+01  0.32839858014E+02  0.34090130905E+02  0.00000000000E+00 0.  1.
</event>
<event>
 5    1  0.8957809E-005  0.9118800E+02  0.7818608E-02  0.1130116E+00
         25   -1    0    0    0    0  0.00000000000E+00  0.00000000000E+00  0.99999998245E-14  0.12500000000E+03  0.12500000000E+03 0.  0.
        -11    1    3    3    0    0  0.10144954298E+01 -0.54675385623E+02  0.25834968598E+02  0.60480348847E+02  0.51100000000E-03 0. -1.
         23    2    1    0    0    0  0.10697478753E+01 -0.14855926315E+02  0.18960562316E+02  0.10088888575E+03  0.97965409389E+02 0.  0.
         11    1    3    3    0    0  0.55252445493E-01  0.39819459308E+02 -0.68744062816E+01  0.40408536900E+02  0.51100000000E-03 0.  1.
         22    1    1    0    0    0 -0.10697478753E+01  0.14855926315E+02 -0.18960562316E+02  0.24111114253E+02  0.00000000000E+00 0. -1.
</event>
<event>
 5    1  0.8957809E-005  0.9118800E+02  0.7818608E-02  0.1130116E+00
         25   -1    0    0    0    0  0.00000000000E+00  0.00000000000E+00  0.99999998245E-14  0.12500000000E+03  0.12500000000E+03 0.  0.
        -11    1    3    3    0    0 -0.52025068848E+02  0.20657484449E+02  0.15821830423E+02  0.58169319840E+02  0.51100000000E-03 0. -1.
         23    2    1    0    0    0 -0.16178003544E+02  0.23928311139E+02  0.83576297344E+01  0.94931048449E+02  0.90043112519E+02 0.  0.
         11    1    3    3    0    0  0.35847065304E+02  0.32708266897E+01 -0.74642006886E+01  0.36761728609E+02  0.51100000000E-03 0.  1.
         22    1    1    0    0    0  0.16178003544E+02 -0.23928311139E+02 -0.83576297344E+01  0.30068951551E+02  0.00000000000E+00 0. -1.
</event>
<event>
 5    1  0.8957809E-005  0.9118800E+02  0.7818608E-02  0.1130116E+00
         25   -1    0    0    0    0  0.00000000000E+00  0.00000000000E+00  0.99999998245E-14  0.12500000000E+03  0.12500000000E+03 0.  0.
        -11    1    3    3    0    0 -0.37720228732E+02  0.29039429164E+01  0.70807720834E+01  0.38488775943E+02  0.51100000000E-03 0. -1.
         23    2    1    0    0    0 -0.17385581568E+02  0.26427616643E+02 -0.26119806938E+02  0.83976571543E+02  0.73274435417E+02 0.  0.
         11    1    3    3    0    0  0.20334647164E+02  0.23523673727E+02 -0.33200579021E+02  0.45487795600E+02  0.51100000000E-03 0.  1.
         22    1    1    0    0    0  0.17385581568E+02 -0.26427616643E+02  0.26119806938E+02  0.41023428457E+02  0.00000000000E+00 0.  1.
</event>
<event>
 5    1  0.8957809E-005  0.9118800E+02  0.7818608E-02  0.1130116E+00
         25   -1    0    0    0    0  0.00000000000E+00  0.00000000000E+00  0.99999998245E-14  0.12500000000E+03  0.12500000000E+03 0.  0.
        -11    1    3    3    0    0  0.36973471107E+02 -0.29961642445E+00 -0.41982825794E+02  0.55943587636E+02  0.51100000000E-03 0. -1.
         23    2    1    0    0    0  0.10087564914E-01 -0.44885759375E+01 -0.29467740596E+02  0.95192364208E+02  0.90405149477E+02 0.  0.
         11    1    3    3    0    0 -0.36963383542E+02 -0.41889595131E+01  0.12515085198E+02  0.39248776572E+02  0.51100000000E-03 0.  1.
         22    1    1    0    0    0 -0.10087564914E-01  0.44885759375E+01  0.29467740596E+02  0.29807635792E+02  0.00000000000E+00 0. -1.
</event>
<event>
 5    1  0.8957809E-005  0.9118800E+02  0.7818608E-02  0.1130116E+00
         25   -1    0    0    0    0  0.00000000000E+00  0.00000000000E+00  0.99999998245E-14  0.12500000000E+03  0.12500000000E+03 0.  0.
        -11    1    3    3    0    0 -0.25167798710E+02  0.24810156134E+02  0.18691204926E+02  0.39979033019E+02  0.51100000000E-03 0. -1.
         23    2    1    0    0    0  0.78680283187E+01 -0.17092429738E+02  0.25000360464E+02  0.93709825068E+02  0.88331513442E+02 0.  0.
         11    1    3    3    0    0  0.33035827029E+02 -0.41902585872E+02  0.63091555378E+01  0.53730792048E+02  0.51100000000E-03 0.  1.
         22    1    1    0    0    0 -0.78680283187E+01  0.17092429738E+02 -0.25000360464E+02  0.31290174932E+02  0.00000000000E+00 0.  1.
</event>
<event>
 5    1  0.8957809E-005  0.9118800E+02  0.7818608E-02  0.1130116E+00
         25   -1    0    0    0    0  0.00000000000E+00  0.00000000000E+00  0.99999998245E-14  0.12500000000E+03  0.12500000000E+03 0.  0.
        -11    1    3    3    0    0  0.28601533556E+02 -0.33688376391E+01  0.72165915819E+01  0.29689661215E+02  0.51100000000E-03 0.  1.
         23    2    1    0    0    0 -0.30963267642E+02 -0.13634282638E+02  0.83863634312E+01  0.90143885792E+02  0.83132252754E+02 0.  0.
         11    1    3    3    0    0 -0.59564801197E+02 -0.10265444999E+02  0.11697718494E+01  0.60454224576E+02  0.51100000000E-03 0. -1.
         22    1    1    0    0    0  0.30963267642E+02  0.13634282638E+02 -0.83863634312E+01  0.34856114208E+02  0.00000000000E+00 0. -1.
</event>
<event>
 5    1  0.8957809E-005  0.9118800E+02  0.7818608E-02  0.1130116E+00
         25   -1    0    0    0    0  0.00000000000E+00  0.00000000000E+00  0.99999998245E-14  0.12500000000E+03  0.12500000000E+03 0.  0.
        -11    1    3    3    0    0 -0.26059574384E+02 -0.16989934197E+02  0.31849764462E+02  0.44521531618E+02  0.51100000000E-03 0. -1.
         23    2    1    0    0    0 -0.25565461288E+02  0.10814361473E+02 -0.10614506165E+02  0.95281134509E+02  0.90527805824E+02 0.  0.
         11    1    3    3    0    0  0.49411309589E+00  0.27804295670E+02 -0.42464270628E+02  0.50759602891E+02  0.51100000000E-03 0.  1.
         22    1    1    0    0    0  0.25565461288E+02 -0.10814361473E+02  0.10614506165E+02  0.29718865491E+02  0.00000000000E+00 0.  1.
</event>
<event>
 5    1  0.8957809E-005  0.9118800E+02  0.7818608E-02  0.1130116E+00
         25   -1    0    0    0    0  0.00000000000E+00  0.00000000000E+00  0.99999998245E-14  0.12500000000E+03  0.12500000000E+03 0.  0.
        -11    1    3    3    0    0  0.51923131435E+01  0.10223605838E+02  0.40541304245E+02  0.42131693323E+02  0.51100000000E-03 0. -1.
         23    2    1    0    0    0 -0.26455169134E+02 -0.14686812378E+02  0.85779296584E+01  0.93549096850E+02  0.88103769570E+02 0.  0.
         11    1    3    3    0    0 -0.31647482278E+02 -0.24910418216E+02 -0.31963374587E+02  0.51417403527E+02  0.51100000000E-03 0.  1.
         22    1    1    0    0    0  0.26455169134E+02  0.14686812378E+02 -0.85779296584E+01  0.31450903150E+02  0.00000000000E+00 0.  1.
</event>
<event>
 5    1  0.8957809E-005  0.9118800E+02  0.7818608E-02  0.1130116E+00
         25   -1    0    0    0    0  0.00000000000E+00  0.00000000000E+00  0.99999998245E-14  0.12500000000E+03  0.12500000000E+03 0.  0.
        -11    1    3    3    0    0  0.18156547778E+02  0.38230494824E+02  0.61362528381E+01  0.42765459905E+02  0.51100000000E-03 0.  1.
         23    2    1    0    0    0 -0.17091118542E+02  0.49266298042E+01  0.24590412427E+02  0.94650924272E+02  0.89653394069E+02 0.  0.
         11    1    3    3    0    0 -0.35247666320E+02 -0.33303865020E+02  0.18454159588E+02  0.51885464367E+02  0.51100000000E-03 0. -1.
         22    1    1    0    0    0  0.17091118542E+02 -0.49266298042E+01 -0.24590412427E+02  0.30349075728E+02  0.00000000000E+00 0. -1.
</event>
<event>
 5    1  0.8957809E-005  0.9118800E+02  0.7818608E-02  0.1130116E+00
         25   -1    0    0    0    0  0.00000000000E+00  0.00000000000E+00  0.99999998245E-14  0.12500000000E+03  0.12500000000E+03 0.  0.
        -11    1    3    3    0    0 -0.38751057633E+02 -0.46611227966E+02 -0.13365935865E+02  0.62071726913E+02  0.51100000000E-03 0. -1.
         23    2    1    0    0    0 -0.17800156579E+02 -0.22328812997E+02 -0.11557839251E+02  0.94194073423E+02  0.89014146941E+02 0.  0.
         11    1    3    3    0    0  0.20950901053E+02  0.24282414969E+02  0.18080966142E+01  0.32122346510E+02  0.51100000000E-03 0.  1.
         22    1    1    0    0    0  0.17800156579E+02  0.22328812997E+02  0.11557839251E+02  0.30805926577E+02  0.00000000000E+00 0. -1.
</event>
<event>
 5    1  0.8957809E-005  0.9118800E+02  0.7818608E-02  0.1130116E+00
         25   -1    0    0    0    0  0.00000000000E+00  0.00000000000E+00  0.99999998245E-14  0.12500000000E+03  0.12500000000E+03 0.  0.
        -11    1    3    3    0    0  0.37352636908E+02 -0.23077096635E+02 -0.36218489835E+02  0.56917052623E+02  0.51100000000E-03 0.  1.
         23    2    1    0    0    0  0.26095453133E+02  0.56774208244E+01 -0.15195049323E+02  0.94273866085E+02  0.89126127040E+02 0.  0.
         11    1    3    3    0    0 -0.11257183775E+02  0.28754517459E+02  0.21023440511E+02  0.37356813462E+02  0.51100000000E-03 0. -1.
         22    1    1    0    0    0 -0.26095453133E+02 -0.56774208244E+01  0.15195049323E+02  0.30726133915E+02  0.00000000000E+00 0.  1.
</event>
<event>
 5    1  0.8957809E-005  0.9118800E+02  0.7818608E-02  0.1130116E+00
         25   -1    0    0    0    0  0.00000000000E+00  0.00000000000E+00  0.99999998245E-14  0.12500000000E+03  0.12500000000E+03 0.  0.
        -11    1    3    3    0    0 -0.40309865343E+02  0.34819757877E+02 -0.28779205469E+02  0.60543731717E+02  0.51100000000E-03 0. -1.
         23    2    1    0    0    0 -0.10782433639E+02  0.15047906374E+02 -0.21156187157E+02  0.96887998712E+02  0.92720006891E+02 0.  0.
         11    1    3    3    0    0  0.29527431704E+02 -0.19771851503E+02  0.76230183120E+01  0.36344266994E+02  0.51100000000E-03 0.  1.
         22    1    1    0    0    0  0.10782433639E+02 -0.15047906374E+02  0.21156187157E+02  0.28112001288E+02  0.00000000000E+00 0. -1.
</event>
<event>
 5    1  0.8957809E-005  0.9118800E+02  0.7818608E-02  0.1130116E+00
         25   -1    0    0    0    0  0.00000000000E+00  0.00000000000E+00  0.99999998245E-14  0.12500000000E+03  0.12500000000E+03 0.  0.
        -11    1    3    3    0    0  0.42335657934E+02  0.26855613599E+02  0.19099636539E+02  0.53650051544E+02  0.51100000000E-03 0.  1.
         23    2    1    0    0    0  0.38438970088E+02  0.28583279061E+02 -0.38046537471E+01  0.76947594717E+02  0.60099073864E+02 0.  0.
         11    1    3    3    0    0 -0.38966878463E+01  0.17276654615E+01 -0.22904290286E+02  0.23297543173E+02  0.51100000000E-03 0. -1.
         22    1    1    0    0    0 -0.38438970088E+02 -0.28583279061E+02  0.38046537471E+01  0.48052405283E+02  0.00000000000E+00 0.  1.
</event>
<event>
 5    1  0.8957809E-005  0.9118800E+02  0.7818608E-02  0.1130116E+00
         25   -1    0    0    0    0  0.00000000000E+00  0.00000000000E+00  0.99999998245E-14  0.12500000000E+03  0.12500000000E+03 0.  0.
        -11    1    3    3    0    0  0.40051170017E+02 -0.16233540839E+02 -0.19496963435E+02  0.47410501488E+02  0.51100000000E-03 0. -1.
         23    2    1    0    0    0  0.15094231123E+02 -0.14153842543E+02  0.21314725658E+02  0.95293357615E+02  0.90544681808E+02 0.  0.
         11    1    3    3    0    0 -0.24956938894E+02  0.20796982966E+01  0.40811689093E+02  0.47882856127E+02  0.51100000000E-03 0.  1.
         22    1    1    0    0    0 -0.15094231123E+02  0.14153842543E+02 -0.21314725658E+02  0.29706642385E+02  0.00000000000E+00 0. -1.
</event>
<event>
 5    1  0.8957809E-005  0.9118800E+02  0.7818608E-02  0.1130116E+00
         25   -1    0    0    0    0  0.00000000000E+00  0.00000000000E+00  0.99999998245E-14  0.12500000000E+03  0.12500000000E+03 0.  0.
        -11    1    3    3    0    0 -0.15625038955E+02 -0.21762505196E+02 -0.33451383105E+02  0.42857245672E+02  0.51100000000E-03 0.  1.
         23    2    1    0    0    0  0.26971302520E+02 -0.97768328849E+01 -0.39489824252E+01  0.96040854932E+02  0.91570812670E+02 0.  0.
         11    1    3    3    0    0  0.42596341475E+02  0.11985672311E+02  0.29502400680E+02  0.53183609260E+02  0.51100000000E-03 0. -1.
         22    1    1    0    0    0 -0.26971302520E+02  0.97768328849E+01  0.39489824252E+01  0.28959145068E+02  0.00000000000E+00 0.  1.
</event>
<event>
 5    1  0.8957809E-005  0.9118800E+02  0.7818608E-02  0.1130116E+00
         25   -1    0    0    0    0  0.00000000000E+00  0.00000000000E+00  0.99999998245E-14  0.12500000000E+03  0.12500000000E+03 0.  0.
        -11    1    3    3    0    0 -0.35809035449E+02 -0.25323824975E+02  0.31510009317E+02  0.54004294446E+02  0.51100000000E-03 0.  1.
         23    2    1    0    0    0 -0.37875312656E+00 -0.28027658672E+02  0.12413045035E+02  0.94344220910E+02  0.89224745601E+02 0.  0.
         11    1    3    3    0    0  0.35430282322E+02 -0.27038336972E+01 -0.19096964282E+02  0.40339926464E+02  0.51100000000E-03 0. -1.
         22    1    1    0    0    0  0.37875312656E+00  0.28027658672E+02 -0.12413045035E+02  0.30655779090E+02  0.00000000000E+00 0.  1.
</event>
<event>
 5    1  0.8957809E-005  0.9118800E+02  0.7818608E-02  0.1130116E+00
         25   -1    0    0    0    0  0.00000000000E+00  0.00000000000E+00  0.99999998245E-14  0.12500000000E+03  0.12500000000E+03 0.  0.
        -11    1    3    3    0    0 -0.13176873969E+02  0.32813922449E+02 -0.43553390086E+02  0.56100635490E+02  0.51100000000E-03 0.  1.
         23    2    1    0    0    0  0.17023732697E+01  0.28613646225E+02 -0.74376367419E+01  0.95386535742E+02  0.90673226123E+02 0.  0.
         11    1    3    3    0    0  0.14879247239E+02 -0.42002762238E+01  0.36115753344E+02  0.39285900253E+02  0.51100000000E-03 0. -1.
         22    1    1    0    0    0 -0.17023732697E+01 -0.28613646225E+02  0.74376367419E+01  0.29613464258E+02  0.00000000000E+00 0.  1.
</event>
<event>
 5    1  0.8957809E-005  0.9118800E+02  0.7818608E-02  0.1130116E+00
         25   -1    0    0    0    0  0.00000000000E+00  0.00000000000E+00  0.99999998245E-14  0.12500000000E+03  0.12500000000E+03 0.  0.
        -11    1    3    3    0    0  0.12143153989E+02  0.32600382063E+02  0.11508393184E+02  0.36642655654E+02  0.51100000000E-03 0. -1.
         23    2    1    0    0    0 -0.21154802342E+02 -0.10112650002E+02  0.23162561861E+02  0.92041000862E+02  0.85937478527E+02 0.  0.
         11    1    3    3    0    0 -0.33297956331E+02 -0.42713032065E+02  0.11654168678E+02  0.55398345208E+02  0.51100000000E-03 0.  1.
         22    1    1    0    0    0  0.21154802342E+02  0.10112650002E+02 -0.23162561861E+02  0.32958999138E+02  0.00000000000E+00 0.  1.
</event>
<event>
 5    1  0.8957809E-005  0.9118800E+02  0.7818608E-02  0.1130116E+00
         25   -1    0    0    0    0  0.00000000000E+00  0.00000000000E+00  0.99999998245E-14  0.12500000000E+03  0.12500000000E+03 0.  0.
        -11    1    3    3    0    0  0.54135077386E+01 -0.13847364084E+01 -0.54446646761E+02  0.54732631078E+02  0.51100000000E-03 0.  1.
         23    2    1    0    0    0 -0.10257406772E+02 -0.18294276813E+02 -0.21312798651E+02  0.95097987624E+02  0.90274564004E+02 0.  0.
         11    1    3    3    0    0 -0.15670914510E+02 -0.16909540405E+02  0.33133848110E+02  0.40365356547E+02  0.51100000000E-03 0. -1.
         22    1    1    0    0    0  0.10257406772E+02  0.18294276813E+02  0.21312798651E+02  0.29902012376E+02  0.00000000000E+00 0. -1.
</event>
<event>
 5    1  0.8957809E-005  0.9118800E+02  0.7818608E-02  0.1130116E+00
         25   -1    0    0    0    0  0.00000000000E+00  0.00000000000E+00  0.99999998245E-14  0.12500000000E+03  0.12500000000E+03 0.  0.
        -11    1    3    3    0    0 -0.31143050728E+02  0.25731323590E+01  0.19188205203E+02  0.36670121870E+02  0.51100000000E-03 0.  1.
         23    2    1    0    0    0  0.26317980759E+02 -0.76661292848E+01  0.10338463014E+02  0.95703422266E+02  0.91109031202E+02 0.  0.
         11    1    3    3    0    0  0.57461031487E+02 -0.10239261644E+02 -0.88497421890E+01  0.59033300396E+02  0.51100000000E-03 0. -1.
         22    1    1    0    0    0 -0.26317980759E+02  0.76661292848E+01 -0.10338463014E+02  0.29296577734E+02  0.00000000000E+00 0. -1.
</event>
<event>
 5    1  0.8957809E-005  0.9118800E+02  0.7818608E-02  0.1130116E+00
         25   -1    0    0    0    0  0.00000000000E+00  0.00000000000E+00  0.99999998245E-14  0.12500000000E+03  0.12500000000E+03 0.  0.
        -11    1    3    3    0    0  0.28493965709E+00 -0.60749103247E+00  0.22743558047E+02  0.22753453998E+02  0.51100000000E-03 0.  1.
         23    2    1    0    0    0 -0.43366122142E+02 -0.79890536397E+00 -0.13589652664E+02  0.79547415266E+02  0.65282875370E+02 0.  0.
         11    1    3    3    0    0 -0.43651061799E+02 -0.19141433150E+00 -0.36333210711E+02  0.56793961268E+02  0.51100000000E-03 0. -1.
         22    1    1    0    0    0  0.43366122142E+02  0.79890536397E+00  0.13589652664E+02  0.45452584734E+02  0.00000000000E+00 0. -1.
</event>
<event>
 5    1  0.8957809E-005  0.9118800E+02  0.7818608E-02  0.1130116E+00
         25   -1    0    0    0    0  0.00000000000E+00  0.00000000000E+00  0.99999998245E-14  0.12500000000E+03  0.12500000000E+03 0.  0.
        -11    1    3    3    0    0 -0.30750689405E+02  0.31061301805E+02 -0.47028207504E+00  0.43710759937E+02  0.51100000000E-03 0. -1.
         23    2    1    0    0    0 -0.25134131041E+02 -0.15563525067E+02  0.13203490868E+02  0.92622847149E+02  0.86779673813E+02 0.  0.
         11    1    3    3    0    0  0.56165583647E+01 -0.46624826872E+02  0.13673772943E+02  0.48912087212E+02  0.51100000000E-03 0.  1.
         22    1    1    0    0    0  0.25134131041E+02  0.15563525067E+02 -0.13203490868E+02  0.32377152851E+02  0.00000000000E+00 0.  1.
</event>
<event>
 5    1  0.8957809E-005  0.9118800E+02  0.7818608E-02  0.1130116E+00
         25   -1    0    0    0    0  0.00000000000E+00  0.00000000000E+00  0.99999998245E-14  0.12500000000E+03  0.12500000000E+03 0.  0.
        -11    1    3    3    0    0  0.23450416168E+02 -0.32700131287E+02  0.33792055578E+02  0.52546394977E+02  0.51100000000E-03 0. -1.
         23    2    1    0    0    0  0.25229129306E+02  0.54147550546E+01  0.15915300952E+02  0.94682919959E+02  0.89697993231E+02 0.  0.
         11    1    3    3    0    0  0.17787131376E+01  0.38114886342E+02 -0.17876754626E+02  0.42136524981E+02  0.51100000000E-03 0.  1.
         22    1    1    0    0    0 -0.25229129306E+02 -0.54147550546E+01 -0.15915300952E+02  0.30317080041E+02  0.00000000000E+00 0. -1.
</event>
<event>
 5    1  0.8957809E-005  0.9118800E+02  0.7818608E-02  0.1130116E+00
         25   -1    0    0    0    0  0.00000000000E+00  0.00000000000E+00  0.99999998245E-14  0.12500000000E+03  0.12500000000E+03 0.  0.
        -11    1    3    3    0    0 -0.21413351100E+02 -0.31205646853E+01 -0.73407794157E+00  0.21651983742E+02  0.51100000000E-03 0. -1.
         23    2    1    0    0    0  0.23395095053E+02 -0.17779362511E+02  0.33889571961E+02  0.80145353735E+02  0.66417907478E+02 0.  0.
         11    1    3    3    0    0  0.44808446152E+02 -0.14658797826E+02  0.34623649903E+02  0.58493369993E+02  0.51100000000E-03 0.  1.
         22    1    1    0    0    0 -0.23395095053E+02  0.17779362511E+02 -0.33889571961E+02  0.44854646265E+02  0.00000000000E+00 0.  1.
</event>
<event>
 5    1  0.8957809E-005  0.9118800E+02  0.7818608E-02  0.1130116E+00
         25   -1    0    0    0    0  0.00000000000E+00  0.00000000000E+00  0.99999998245E-14  0.12500000000E+03  0.12500000000E+03 0.  0.
        -11    1    3    3    0    0 -0.37200389768E+02 -0.24327949167E+02  0.13159324291E+02  0.46356077548E+02  0.51100000000E-03 0.  1.
         23    2    1    0    0    0 -0.62471487786E+01 -0.13461712092E+02 -0.24534571353E+02  0.96326148641E+02  0.91959432143E+02 0.  0.
         11    1    3    3    0    0  0.30953240989E+02  0.10866237075E+02 -0.37693895644E+02  0.49970071092E+02  0.51100000000E-03 0. -1.
         22    1    1    0    0    0  0.62471487786E+01  0.13461712092E+02  0.24534571353E+02  0.28673851359E+02  0.00000000000E+00 0. -1.
</event>
<event>
 5    1  0.8957809E-005  0.9118800E+02  0.7818608E-02  0.1130116E+00
         25   -1    0    0    0    0  0.00000000000E+00  0.00000000000E+00  0.99999998245E-14  0.12500000000E+03  0.12500000000E+03 0.  0.
        -11    1    3    3    0    0  0.50945730603E+01 -0.37129557897E+02 -0.84834537648E+01  0.38425612973E+02  0.51100000000E-03 0.  1.
         23    2    1    0    0    0 -0.20313478194E+02  0.13926131992E+02 -0.15523794583E+02  0.95887069078E+02  0.91360643986E+02 0.  0.
         11    1    3    3    0    0 -0.25408051254E+02  0.51055689890E+02 -0.70403408180E+01  0.57461456105E+02  0.51100000000E-03 0. -1.
         22    1    1    0    0    0  0.20313478194E+02 -0.13926131992E+02  0.15523794583E+02  0.29112930922E+02  0.00000000000E+00 0.  1.
</event>
<event>
 5    1  0.8957809E-005  0.9118800E+02  0.7818608E-02  0.1130116E+00
         25   -1    0    0    0    0  0.00000000000E+00  0.00000000000E+00  0.99999998245E-14  0.12500000000E+03  0.12500000000E+03 0.  0.
        -11    1    3    3    0    0 -0.46369115144E+01  0.35343612308E+01 -0.40525026910E+02  0.40942282105E+02  0.51100000000E-03 0. -1.
         23    2    1    0    0    0 -0.28826660336E+02 -0.87264645651E+00  0.77662014911E+01  0.95132764715E+02  0.90322705777E+02 0.  0.
         11    1    3    3    0    0 -0.24189748821E+02 -0.44070076873E+01  0.48291228401E+02  0.54190482610E+02  0.51100000000E-03 0.  1.
         22    1    1    0    0    0  0.28826660336E+02  0.87264645651E+00 -0.77662014911E+01  0.29867235285E+02  0.00000000000E+00 0.  1.
</event>
<event>
 5    1  0.8957809E-005  0.9118800E+02  0.7818608E-02  0.1130116E+00
         25   -1    0    0    0    0  0.00000000000E+00  0.00000000000E+00  0.99999998245E-14  0.12500000000E+03  0.12500000000E+03 0.  0.
        -11    1    3    3    0    0  0.49084935491E+01  0.15814307418E+02 -0.49652052417E+02  0.52340347128E+02  0.51100000000E-03 0.  1.
         23    2    1    0    0    0  0.16217855729E+02  0.18673348919E+02 -0.34074152946E+01  0.10003355686E+03  0.96867895682E+02 0.  0.
         11    1    3    3    0    0  0.11309362180E+02  0.28590415015E+01  0.46244637123E+02  0.47693209727E+02  0.51100000000E-03 0. -1.
         22    1    1    0    0    0 -0.16217855729E+02 -0.18673348919E+02  0.34074152946E+01  0.24966443144E+02  0.00000000000E+00 0.  1.
</event>
<event>
 5    1  0.8957809E-005  0.9118800E+02  0.7818608E-02  0.1130116E+00
         25   -1    0    0    0    0  0.00000000000E+00  0.00000000000E+00  0.99999998245E-14  0.12500000000E+03  0.12500000000E+03 0.  0.
        -11    1    3    3    0    0 -0.10149410672E+02 -0.57219640818E+02 -0.26040486575E+01  0.58171117421E+02  0.51100000000E-03 0.  1.
         23    2    1    0    0    0 -0.16456094224E+02 -0.33810164747E+02 -0.13891166085E+02  0.84913907991E+02  0.74856375799E+02 0.  0.
         11    1    3    3    0    0 -0.63066835518E+01  0.23409476071E+02 -0.11287117428E+02  0.26742790569E+02  0.51100000000E-03 0. -1.
         22    1    1    0    0    0  0.16456094224E+02  0.33810164747E+02  0.13891166085E+02  0.40086092009E+02  0.00000000000E+00 0.  1.
</event>
<event>
 5    1  0.8957809E-005  0.9118800E+02  0.7818608E-02  0.1130116E+00
         25   -1    0    0    0    0  0.00000000000E+00  0.00000000000E+00  0.99999998245E-14  0.12500000000E+03  0.12500000000E+03 0.  0.
        -11    1    3    3    0    0  0.42750368075E+02  0.24035187600E+01 -0.42038655894E+02  0.60005161966E+02  0.51100000000E-03 0.  1.
         23    2    1    0    0    0  0.93892914842E+01  0.30007818553E+01 -0.26331852395E+02  0.96883635781E+02  0.92714124843E+02 0.  0.
         11    1    3    3    0    0 -0.33361076591E+02  0.59726309525E+00  0.15706803498E+02  0.36878473815E+02  0.51100000000E-03 0. -1.
         22    1    1    0    0    0 -0.93892914842E+01 -0.30007818553E+01  0.26331852395E+02  0.28116364219E+02  0.00000000000E+00 0.  1.
</event>
<event>
 5    1  0.8957809E-005  0.9118800E+02  0.7818608E-02  0.1130116E+00
         25   -1    0    0    0    0  0.00000000000E+00  0.00000000000E+00  0.99999998245E-14  0.12500000000E+03  0.12500000000E+03 0.  0.
        -11    1    3    3    0    0  0.32162084947E+02 -0.34259423797E+01  0.42198754744E+02  0.53168333542E+02  0.51100000000E-03 0. -1.
         23    2    1    0    0    0 -0.81368001203E+01  0.31103178861E+01  0.26830806772E+02  0.96790537304E+02  0.92588521567E+02 0.  0.
         11    1    3    3    0    0 -0.40298885068E+02  0.65362602658E+01 -0.15367947972E+02  0.43622203762E+02  0.51100000000E-03 0.  1.
         22    1    1    0    0    0  0.81368001203E+01 -0.31103178861E+01 -0.26830806772E+02  0.28209462696E+02  0.00000000000E+00 0. -1.
</event>
<event>
 5    1  0.8957809E-005  0.9118800E+02  0.7818608E-02  0.1130116E+00
         25   -1    0    0    0    0  0.00000000000E+00  0.00000000000E+00  0.99999998245E-14  0.12500000000E+03  0.12500000000E+03 0.  0.
        -11    1    3    3    0    0 -0.25731854261E+02 -0.30420311977E+02 -0.19222640354E+02  0.44238372562E+02  0.51100000000E-03 0.  1.
         23    2    1    0    0    0  0.19595734615E+02 -0.20539253144E+02  0.43587173419E+01  0.96279760592E+02  0.91896355466E+02 0.  0.
         11    1    3    3    0    0  0.45327588876E+02  0.98810588329E+01  0.23581357696E+02  0.52041388030E+02  0.51100000000E-03 0. -1.
         22    1    1    0    0    0 -0.19595734615E+02  0.20539253144E+02 -0.43587173419E+01  0.28720239408E+02  0.00000000000E+00 0. -1.
</event>
<event>
 5    1  0.8957809E-005  0.9118800E+02  0.7818608E-02  0.1130116E+00
         25   -1    0    0    0    0  0.00000000000E+00  0.00000000000E+00  0.99999998245E-14  0.12500000000E+03  0.12500000000E+03 0.  0.
        -11    1    3    3    0    0  0.24579432891E+02 -0.16733527927E+02  0.19383581198E+02  0.35494826362E+02  0.51100000000E-03 0.  1.
         23    2    1    0    0    0 -0.97736205656E+01 -0.59389746965E+00 -0.27495587526E+02  0.95812953103E+02  0.91259181871E+02 0.  0.
         11    1    3    3    0    0 -0.34353053456E+02  0.16139630458E+02 -0.46879168724E+02  0.60318126741E+02  0.51100000000E-03 0. -1.
         22    1    1    0    0    0  0.97736205656E+01  0.59389746965E+00  0.27495587526E+02  0.29187046897E+02  0.00000000000E+00 0. -1.
</event>
<event>
 5    1  0.8957809E-005  0.9118800E+02  0.7818608E-02  0.1130116E+00
         25   -1    0    0    0    0  0.00000000000E+00  0.00000000000E+00  0.99999998245E-14  0.12500000000E+03  0.12500000000E+03 0.  0.
        -11    1    3    3    0    0  0.31943395642E+02 -0.50306173171E+02 -0.12620486856E+02  0.60912792359E+02  0.51100000000E-03 0.  1.
         23    2    1    0    0    0  0.91575099677E+01 -0.27666232117E+02  0.10891268537E+01  0.95837239746E+02  0.91292441836E+02 0.  0.
         11    1    3    3    0    0 -0.22785885675E+02  0.22639941055E+02  0.13709613709E+02  0.34924447386E+02  0.51100000000E-03 0. -1.
         22    1    1    0    0    0 -0.91575099677E+01  0.27666232117E+02 -0.10891268537E+01  0.29162760254E+02  0.00000000000E+00 0.  1.
</event>
<event>
 5    1  0.8957809E-005  0.9118800E+02  0.7818608E-02  0.1130116E+00
         25   -1    0    0    0    0  0.00000000000E+00  0.00000000000E+00  0.99999998245E-14  0.12500000000E+03  0.12500000000E+03 0.  0.
        -11    1    3    3    0    0 -0.27653908635E+02  0.29168009259E+02  0.30594478579E+01  0.40309696704E+02  0.51100000000E-03 0.  1.
         23    2    1    0    0    0  0.24323811898E+02  0.14613493891E+02  0.10388647691E+02  0.94782024723E+02  0.89835996020E+02 0.  0.
         11    1    3    3    0    0  0.51977720533E+02 -0.14554515368E+02  0.73291998328E+01  0.54472328019E+02  0.51100000000E-03 0. -1.
         22    1    1    0    0    0 -0.24323811898E+02 -0.14613493891E+02 -0.10388647691E+02  0.30217975277E+02  0.00000000000E+00 0. -1.
</event>
<event>
 5    1  0.8957809E-005  0.9118800E+02  0.7818608E-02  0.1130116E+00
         25   -1    0    0    0    0  0.00000000000E+00  0.00000000000E+00  0.99999998245E-14  0.12500000000E+03  0.12500000000E+03 0.  0.
        -11    1    3    3    0    0  0.35195452448E+02 -0.30099599306E+02 -0.22055268525E+01  0.46363456518E+02  0.51100000000E-03 0. -1.
         23    2    1    0    0    0  0.17041120721E+02  0.14595154248E+02  0.15476602273E+02  0.97743009322E+02  0.93865607815E+02 0.  0.
         11    1    3    3    0    0 -0.18154331727E+02  0.44694753553E+02  0.17682129125E+02  0.51379552804E+02  0.51100000000E-03 0.  1.
         22    1    1    0    0    0 -0.17041120721E+02 -0.14595154248E+02 -0.15476602273E+02  0.27256990678E+02  0.00000000000E+00 0. -1.
</event>
<event>
 5    1  0.8957809E-005  0.9118800E+02  0.7818608E-02  0.1130116E+00
         25   -1    0    0    0    0  0.00000000000E+00  0.00000000000E+00  0.99999998245E-14  0.12500000000E+03  0.12500000000E+03 0.  0.
        -11    1    3    3    0    0  0.39347172969E+01  0.57279961563E+02 -0.15358418642E+02  0.59433635429E+02  0.51100000000E-03 0. -1.
         23    2    1    0    0    0 -0.22986482410E+01  0.22675213906E+02 -0.19715801656E+02  0.94864274617E+02  0.89950367727E+02 0.  0.
         11    1    3    3    0    0 -0.62333655380E+01 -0.34604747656E+02 -0.43573830141E+01  0.35430639188E+02  0.51100000000E-03 0.  1.
         22    1    1    0    0    0  0.22986482410E+01 -0.22675213906E+02  0.19715801656E+02  0.30135725383E+02  0.00000000000E+00 0. -1.
</event>
<event>
 5    1  0.8957809E-005  0.9118800E+02  0.7818608E-02  0.1130116E+00
         25   -1    0    0    0    0  0.00000000000E+00  0.00000000000E+00  0.99999998245E-14  0.12500000000E+03  0.12500000000E+03 0.  0.
        -11    1    3    3    0    0 -0.67567793190E+01  0.39158316851E+02 -0.21721265772E+02  0.45286214595E+02  0.51100000000E-03 0.  1.
         23    2    1    0    0    0 -0.30556818957E+01 -0.11536799453E+02 -0.26096259318E+02  0.96304186998E+02  0.91929574944E+02 0.  0.
         11    1    3    3    0    0  0.37010974233E+01 -0.50695116304E+02 -0.43749935457E+01  0.51017972402E+02  0.51100000000E-03 0. -1.
         22    1    1    0    0    0  0.30556818957E+01  0.11536799453E+02  0.26096259318E+02  0.28695813002E+02  0.00000000000E+00 0.  1.
</event>
<event>
 5    1  0.8957809E-005  0.9118800E+02  0.7818608E-02  0.1130116E+00
         25   -1    0    0    0    0  0.00000000000E+00  0.00000000000E+00  0.99999998245E-14  0.12500000000E+03  0.12500000000E+03 0.  0.
        -11    1    3    3    0    0  0.17561421407E+01 -0.30008304829E+02 -0.31042232910E+02  0.43211139979E+02  0.51100000000E-03 0.  1.
         23    2    1    0    0    0  0.28618449144E+02  0.42745090760E+01 -0.11395821859E+01  0.96041655662E+02  0.91571905711E+02 0.  0.
         11    1    3    3    0    0  0.26862307003E+02  0.34282813905E+02  0.29902650724E+02  0.52830515684E+02  0.51100000000E-03 0. -1.
         22    1    1    0    0    0 -0.28618449144E+02 -0.42745090760E+01  0.11395821859E+01  0.28958344338E+02  0.00000000000E+00 0. -1.
</event>
<event>
 5    1  0.8957809E-005  0.9118800E+02  0.7818608E-02  0.1130116E+00
         25   -1    0    0    0    0  0.00000000000E+00  0.00000000000E+00  0.99999998245E-14  0.12500000000E+03  0.12500000000E+03 0.  0.
        -11    1    3    3    0    0  0.33897543649E+02  0.13676173580E+02 -0.33133678600E+02  0.49334793473E+02  0.51100000000E-03 0.  1.
         23    2    1    0    0    0  0.23742137199E+02 -0.89522002696E+00  0.12392775995E+02  0.98203145809E+02  0.94476380394E+02 0.  0.
         11    1    3    3    0    0 -0.10155406450E+02 -0.14571393607E+02  0.45526454595E+02  0.48868352336E+02  0.51100000000E-03 0. -1.
         22    1    1    0    0    0 -0.23742137199E+02  0.89522002696E+00 -0.12392775995E+02  0.26796854191E+02  0.00000000000E+00 0.  1.
</event>
<event>
 5    1  0.8957809E-005  0.9118800E+02  0.7818608E-02  0.1130116E+00
         25   -1    0    0    0    0  0.00000000000E+00  0.00000000000E+00  0.99999998245E-14  0.12500000000E+03  0.12500000000E+03 0.  0.
        -11    1    3    3    0    0  0.55827688196E+02 -0.47731347374E+01 -0.12103973044E+02  0.57323814844E+02  0.51100000000E-03 0. -1.
         23    2    1    0    0    0  0.19844370174E+02  0.18629200025E+01 -0.22084955179E+02  0.95250802636E+02  0.90485914147E+02 0.  0.
         11    1    3    3    0    0 -0.35983318022E+02  0.66360547398E+01 -0.99809821351E+01  0.37926987792E+02  0.51100000000E-03 0.  1.
         22    1    1    0    0    0 -0.19844370174E+02 -0.18629200025E+01  0.22084955179E+02  0.29749197364E+02  0.00000000000E+00 0. -1.
</event>
<event>
 5    1  0.8957809E-005  0.9118800E+02  0.7818608E-02  0.1130116E+00
         25   -1    0    0    0    0  0.00000000000E+00  0.00000000000E+00  0.99999998245E-14  0.12500000000E+03  0.12500000000E+03 0.  0.
        -11    1    3    3    0    0 -0.15888936670E+02 -0.16685430891E+02 -0.49403231549E+02  0.54511844587E+02  0.51100000000E-03 0.  1.
         23    2    1    0    0    0 -0.25118863848E+02 -0.10227924047E+02 -0.90488780543E+01  0.96408918429E+02  0.92071871966E+02 0.  0.
         11    1    3    3    0    0 -0.92299271786E+01  0.64575068437E+01  0.40354353495E+02  0.41897073843E+02  0.51100000000E-03 0. -1.
         22    1    1    0    0    0  0.25118863848E+02  0.10227924047E+02  0.90488780543E+01  0.28591081571E+02  0.00000000000E+00 0.  1.
</event>
<event>
 5    1  0.8957809E-005  0.9118800E+02  0.7818608E-02  0.1130116E+00
         25   -1    0    0    0    0  0.00000000000E+00  0.00000000000E+00  0.99999998245E-14  0.12500000000E+03  0.12500000000E+03 0.  0.
        -11    1    3    3    0    0  0.35163531441E+02  0.21022914450E+02  0.50016565592E+01  0.41272914169E+02  0.51100000000E-03 0. -1.
         23    2    1    0    0    0 -0.16977119526E+02  0.26130186571E+02  0.28824830565E+01  0.93705943915E+02  0.88326020961E+02 0.  0.
         11    1    3    3    0    0 -0.52140650967E+02  0.51072721214E+01 -0.21191735027E+01  0.52433029747E+02  0.51100000000E-03 0.  1.
         22    1    1    0    0    0  0.16977119526E+02 -0.26130186571E+02 -0.28824830565E+01  0.31294056085E+02  0.00000000000E+00 0.  1.
</event>
<event>
 5    1  0.8957809E-005  0.9118800E+02  0.7818608E-02  0.1130116E+00
         25   -1    0    0    0    0  0.00000000000E+00  0.00000000000E+00  0.99999998245E-14  0.12500000000E+03  0.12500000000E+03 0.  0.
        -11    1    3    3    0    0  0.23766759687E+02 -0.28906868944E+02 -0.97636237240E+01  0.38675499825E+02  0.51100000000E-03 0. -1.
         23    2    1    0    0    0 -0.62833955701E+00  0.70956519994E+01  0.27898877645E+02  0.96206069012E+02  0.91796063385E+02 0.  0.
         11    1    3    3    0    0 -0.24395099244E+02  0.36002520944E+02  0.37662501369E+02  0.57530569188E+02  0.51100000000E-03 0.  1.
         22    1    1    0    0    0  0.62833955701E+00 -0.70956519994E+01 -0.27898877645E+02  0.28793930988E+02  0.00000000000E+00 0.  1.
</event>
<event>
 5    1  0.8957809E-005  0.9118800E+02  0.7818608E-02  0.1130116E+00
         25   -1    0    0    0    0  0.00000000000E+00  0.00000000000E+00  0.99999998245E-14  0.12500000000E+03  0.12500000000E+03 0.  0.
        -11    1    3    3    0    0  0.93237048285E+01 -0.31489526942E+02  0.11378043074E+02  0.34756030314E+02  0.51100000000E-03 0. -1.
         23    2    1    0    0    0 -0.46763752461E+01  0.27966761748E+02  0.17661462344E+01  0.96590010196E+02  0.92317401117E+02 0.  0.
         11    1    3    3    0    0 -0.14000080075E+02  0.59456288690E+02 -0.96118968399E+01  0.61833979882E+02  0.51100000000E-03 0.  1.
         22    1    1    0    0    0  0.46763752461E+01 -0.27966761748E+02 -0.17661462344E+01  0.28409989804E+02  0.00000000000E+00 0.  1.
</event>
<event>
 5    1  0.8957809E-005  0.9118800E+02  0.7818608E-02  0.1130116E+00
         25   -1    0    0    0    0  0.00000000000E+00  0.00000000000E+00  0.99999998245E-14  0.12500000000E+03  0.12500000000E+03 0.  0.
        -11    1    3    3    0    0  0.28115319249E+01 -0.51072918386E+02  0.13823222695E+02  0.52985178967E+02  0.51100000000E-03 0.  1.
         23    2    1    0    0    0 -0.20509336095E+02 -0.20324109396E+02 -0.46215800406E+01  0.95758568916E+02  0.91184660052E+02 0.  0.
         11    1    3    3    0    0 -0.23320868020E+02  0.30748808990E+02 -0.18444802736E+02  0.42773389949E+02  0.51100000000E-03 0. -1.
         22    1    1    0    0    0  0.20509336095E+02  0.20324109396E+02  0.46215800406E+01  0.29241431084E+02  0.00000000000E+00 0.  1.
</event>
<event>
 5    1  0.8957809E-005  0.9118800E+02  0.7818608E-02  0.1130116E+00
         25   -1    0    0    0    0  0.00000000000E+00  0.00000000000E+00  0.99999998245E-14  0.12500000000E+03  0.12500000000E+03 0.  0.
        -11    1    3    3    0    0 -0.17619914358E+02 -0.74824666596E+01 -0.49006092632E+02  0.52612221058E+02  0.51100000000E-03 0.  1.
         23    2    1    0    0    0  0.97500789749E+01 -0.20438698614E+02 -0.16916490395E+02  0.96733905676E+02  0.92512033915E+02 0.  0.
         11    1    3    3    0    0  0.27369993333E+02 -0.12956231954E+02  0.32089602238E+02  0.44121684618E+02  0.51100000000E-03 0. -1.
         22    1    1    0    0    0 -0.97500789749E+01  0.20438698614E+02  0.16916490395E+02  0.28266094324E+02  0.00000000000E+00 0.  1.
</event>
<event>
 5    1  0.8957809E-005  0.9118800E+02  0.7818608E-02  0.1130116E+00
         25   -1    0    0    0    0  0.00000000000E+00  0.00000000000E+00  0.99999998245E-14  0.12500000000E+03  0.12500000000E+03 0.  0.
        -11    1    3    3    0    0  0.11639805408E+01 -0.29325238612E+02 -0.14483091079E+02  0.32727425774E+02  0.51100000000E-03 0.  1.
         23    2    1    0    0    0 -0.77453756261E+01  0.17050005574E+02  0.24639768098E+02  0.94051466827E+02  0.88813662838E+02 0.  0.
         11    1    3    3    0    0 -0.89093561669E+01  0.46375244186E+02  0.39122859176E+02  0.61324041053E+02  0.51100000000E-03 0. -1.
         22    1    1    0    0    0  0.77453756261E+01 -0.17050005574E+02 -0.24639768098E+02  0.30948533173E+02  0.00000000000E+00 0. -1.
</event>
<event>
 5    1  0.8957809E-005  0.9118800E+02  0.7818608E-02  0.1130116E+00
         25   -1    0    0    0    0  0.00000000000E+00  0.00000000000E+00  0.99999998245E-14  0.12500000000E+03  0.12500000000E+03 0.  0.
        -11    1    3    3    0    0  0.50480775510E+02  0.19237177307E+02  0.31191405943E+02  0.62380136997E+02  0.51100000000E-03 0.  1.
         23    2    1    0    0    0  0.22940708749E+02  0.11421517208E+02  0.15997834750E+02  0.94789771767E+02  0.89846774799E+02 0.  0.
         11    1    3    3    0    0 -0.27540066762E+02 -0.78156600991E+01 -0.15193571193E+02  0.32409634770E+02  0.51100000000E-03 0. -1.
         22    1    1    0    0    0 -0.22940708749E+02 -0.11421517208E+02 -0.15997834750E+02  0.30210228233E+02  0.00000000000E+00 0.  1.
</event>
<event>
 5    1  0.8957809E-005  0.9118800E+02  0.7818608E-02  0.1130116E+00
         25   -1    0    0    0    0  0.00000000000E+00  0.00000000000E+00  0.99999998245E-14  0.12500000000E+03  0.12500000000E+03 0.  0.
        -11    1    3    3    0    0 -0.60788987200E+01  0.79522107223E+01  0.36124740630E+02  0.37485831335E+02  0.51100000000E-03 0.  1.
         23    2    1    0    0    0  0.27465977010E+01 -0.15392351158E+02 -0.20413043745E+02  0.99286956072E+02  0.95899629916E+02 0.  0.
         11    1    3    3    0    0  0.88254964210E+01 -0.23344561880E+02 -0.56537784375E+02  0.61801124737E+02  0.51100000000E-03 0. -1.
         22    1    1    0    0    0 -0.27465977010E+01  0.15392351158E+02  0.20413043745E+02  0.25713043928E+02  0.00000000000E+00 0. -1.
</event>
<event>
 5    1  0.8957809E-005  0.9118800E+02  0.7818608E-02  0.1130116E+00
         25   -1    0    0    0    0  0.00000000000E+00  0.00000000000E+00  0.99999998245E-14  0.12500000000E+03  0.12500000000E+03 0.  0.
        -11    1    3    3    0    0 -0.17979641905E+02  0.41320452255E+02 -0.30027674799E+02  0.54150794562E+02  0.51100000000E-03 0.  1.
         23    2    1    0    0    0  0.77008444515E+01  0.48821178481E+01 -0.24238043217E+02  0.99103652402E+02  0.95660405082E+02 0.  0.
         11    1    3    3    0    0  0.25680486357E+02 -0.36438334407E+02  0.57896315823E+01  0.44952857840E+02  0.51100000000E-03 0. -1.
         22    1    1    0    0    0 -0.77008444515E+01 -0.48821178481E+01  0.24238043217E+02  0.25896347598E+02  0.00000000000E+00 0.  1.
</event>
<event>
 5    1  0.8957809E-005  0.9118800E+02  0.7818608E-02  0.1130116E+00
         25   -1    0    0    0    0  0.00000000000E+00  0.00000000000E+00  0.99999998245E-14  0.12500000000E+03  0.12500000000E+03 0.  0.
        -11    1    3    3    0    0 -0.39156861934E+02 -0.24424841322E+02 -0.22447918197E+02  0.51319993587E+02  0.51100000000E-03 0.  1.
         23    2    1    0    0    0 -0.49219319289E+01 -0.27657848235E+02  0.63798436986E+01  0.96192285955E+02  0.91777292882E+02 0.  0.
         11    1    3    3    0    0  0.34234930005E+02 -0.32330069127E+01  0.28827761895E+02  0.44872292368E+02  0.51100000000E-03 0. -1.
         22    1    1    0    0    0  0.49219319289E+01  0.27657848235E+02 -0.63798436986E+01  0.28807714045E+02  0.00000000000E+00 0.  1.
</event>
<event>
 5    1  0.8957809E-005  0.9118800E+02  0.7818608E-02  0.1130116E+00
         25   -1    0    0    0    0  0.00000000000E+00  0.00000000000E+00  0.99999998245E-14  0.12500000000E+03  0.12500000000E+03 0.  0.
        -11    1    3    3    0    0 -0.12719601568E+02  0.51406543919E+02  0.31919337868E+02  0.61832557378E+02  0.51100000000E-03 0.  1.
         23    2    1    0    0    0 -0.14837469082E+00  0.22125537148E+02  0.17408604760E+02  0.96846475730E+02  0.92664010989E+02 0.  0.
         11    1    3    3    0    0  0.12571226877E+02 -0.29281006771E+02 -0.14510733108E+02  0.35013918352E+02  0.51100000000E-03 0. -1.
         22    1    1    0    0    0  0.14837469082E+00 -0.22125537148E+02 -0.17408604760E+02  0.28153524270E+02  0.00000000000E+00 0.  1.
</event>
<event>
 5    1  0.8957809E-005  0.9118800E+02  0.7818608E-02  0.1130116E+00
         25   -1    0    0    0    0  0.00000000000E+00  0.00000000000E+00  0.99999998245E-14  0.12500000000E+03  0.12500000000E+03 0.  0.
        -11    1    3    3    0    0 -0.13002589051E+02  0.27236839886E+02 -0.21622908812E+02  0.37127657545E+02  0.51100000000E-03 0. -1.
         23    2    1    0    0    0 -0.38093363563E+01 -0.50675180812E+01  0.27579722380E+02  0.96701027059E+02  0.92467598458E+02 0.  0.
         11    1    3    3    0    0  0.91932526945E+01 -0.32304357967E+02  0.49202631192E+02  0.59573369514E+02  0.51100000000E-03 0.  1.
         22    1    1    0    0    0  0.38093363563E+01  0.50675180812E+01 -0.27579722380E+02  0.28298972941E+02  0.00000000000E+00 0.  1.
</event>
<event>
 5    1  0.8957809E-005  0.9118800E+02  0.7818608E-02  0.1130116E+00
         25   -1    0    0    0    0  0.00000000000E+00  0.00000000000E+00  0.99999998245E-14  0.12500000000E+03  0.12500000000E+03 0.  0.
        -11    1    3    3    0    0 -0.45160170117E+02 -0.27874618389E+02 -0.21815071993E+02  0.57378852217E+02  0.51100000000E-03 0. -1.
         23    2    1    0    0    0 -0.11965209777E+02 -0.28210891121E+02 -0.80453945747E+01  0.93318002009E+02  0.87775284120E+02 0.  0.
         11    1    3    3    0    0  0.33194960340E+02 -0.33627273111E+00  0.13769677418E+02  0.35939149792E+02  0.51100000000E-03 0.  1.
         22    1    1    0    0    0  0.11965209777E+02  0.28210891121E+02  0.80453945747E+01  0.31681997991E+02  0.00000000000E+00 0. -1.
</event>
<event>
 5    1  0.8957809E-005  0.9118800E+02  0.7818608E-02  0.1130116E+00
         25   -1    0    0    0    0  0.00000000000E+00  0.00000000000E+00  0.99999998245E-14  0.12500000000E+03  0.12500000000E+03 0.  0.
        -11    1    3    3    0    0 -0.27191681948E+02  0.91386389831E+01  0.47426641511E+02  0.55427327329E+02  0.51100000000E-03 0. -1.
         23    2    1    0    0    0 -0.26908623832E+02  0.87722019297E+01  0.70155588502E+01  0.95841062619E+02  0.91297676064E+02 0.  0.
         11    1    3    3    0    0  0.28305811629E+00 -0.36643705341E+00 -0.40411082661E+02  0.40413735290E+02  0.51100000000E-03 0.  1.
         22    1    1    0    0    0  0.26908623832E+02 -0.87722019297E+01 -0.70155588502E+01  0.29158937381E+02  0.00000000000E+00 0. -1.
</event>
<event>
 5    1  0.8957809E-005  0.9118800E+02  0.7818608E-02  0.1130116E+00
         25   -1    0    0    0    0  0.00000000000E+00  0.00000000000E+00  0.99999998245E-14  0.12500000000E+03  0.12500000000E+03 0.  0.
        -11    1    3    3    0    0  0.16717226443E+02 -0.12541803382E+02  0.27998107682E+02  0.34937895272E+02  0.51100000000E-03 0.  1.
         23    2    1    0    0    0 -0.96961305496E+01  0.28634347729E+02 -0.55600508066E+01  0.94261506503E+02  0.89108790956E+02 0.  0.
         11    1    3    3    0    0 -0.26413356993E+02  0.41176151111E+02 -0.33558158488E+02  0.59323611230E+02  0.51100000000E-03 0. -1.
         22    1    1    0    0    0  0.96961305496E+01 -0.28634347729E+02  0.55600508066E+01  0.30738493497E+02  0.00000000000E+00 0. -1.
</event>
<event>
 5    1  0.8957809E-005  0.9118800E+02  0.7818608E-02  0.1130116E+00
         25   -1    0    0    0    0  0.00000000000E+00  0.00000000000E+00  0.99999998245E-14  0.12500000000E+03  0.12500000000E+03 0.  0.
        -11    1    3    3    0    0  0.46676138882E+01  0.62025336039E+02 -0.48890751179E+01  0.62392563547E+02  0.51100000000E-03 0. -1.
         23    2    1    0    0    0  0.21218714339E+01  0.29658242305E+02 -0.49322691276E+01  0.94859645759E+02  0.89943934981E+02 0.  0.
         11    1    3    3    0    0 -0.25457424544E+01 -0.32367093734E+02 -0.43194009662E-01  0.32467082213E+02  0.51100000000E-03 0.  1.
         22    1    1    0    0    0 -0.21218714339E+01 -0.29658242305E+02  0.49322691276E+01  0.30140354241E+02  0.00000000000E+00 0. -1.
</event>
<event>
 5    1  0.8957809E-005  0.9118800E+02  0.7818608E-02  0.1130116E+00
         25   -1    0    0    0    0  0.00000000000E+00  0.00000000000E+00  0.99999998245E-14  0.12500000000E+03  0.12500000000E+03 0.  0.
        -11    1    3    3    0    0 -0.45063748765E+02  0.20781955701E+02  0.14695954795E+02  0.51755214453E+02  0.51100000000E-03 0.  1.
         23    2    1    0    0    0 -0.19924573860E+02  0.83522985531E+01 -0.19442232836E+02  0.95935417562E+02  0.91426770645E+02 0.  0.
         11    1    3    3    0    0  0.25139174906E+02 -0.12429657148E+02 -0.34138187631E+02  0.44180203109E+02  0.51100000000E-03 0. -1.
         22    1    1    0    0    0  0.19924573860E+02 -0.83522985531E+01  0.19442232836E+02  0.29064582438E+02  0.00000000000E+00 0.  1.
</event>
<event>
 5    1  0.8957809E-005  0.9118800E+02  0.7818608E-02  0.1130116E+00
         25   -1    0    0    0    0  0.00000000000E+00  0.00000000000E+00  0.99999998245E-14  0.12500000000E+03  0.12500000000E+03 0.  0.
        -11    1    3    3    0    0  0.31793658105E+02 -0.44523699781E+01 -0.27351159321E+02  0.42175184772E+02  0.51100000000E-03 0.  1.
         23    2    1    0    0    0 -0.12458336453E+02  0.22461467359E+02 -0.14359344393E+02  0.95573507948E+02  0.90930616334E+02 0.  0.
         11    1    3    3    0    0 -0.44251994558E+02  0.26913837337E+02  0.12991814928E+02  0.53398323176E+02  0.51100000000E-03 0. -1.
         22    1    1    0    0    0  0.12458336453E+02 -0.22461467359E+02  0.14359344393E+02  0.29426492052E+02  0.00000000000E+00 0. -1.
</event>
<event>
 5    1  0.8957809E-005  0.9118800E+02  0.7818608E-02  0.1130116E+00
         25   -1    0    0    0    0  0.00000000000E+00  0.00000000000E+00  0.99999998245E-14  0.12500000000E+03  0.12500000000E+03 0.  0.
        -11    1    3    3    0    0  0.20267075603E+02  0.53404212309E+02  0.16621032002E+02  0.59489687769E+02  0.51100000000E-03 0.  1.
         23    2    1    0    0    0  0.10847727858E+02  0.27246057574E+02 -0.56773084734E+01  0.95129401002E+02  0.90318050524E+02 0.  0.
         11    1    3    3    0    0 -0.94193477446E+01 -0.26158154735E+02 -0.22298340475E+02  0.35639713232E+02  0.51100000000E-03 0. -1.
         22    1    1    0    0    0 -0.10847727858E+02 -0.27246057574E+02  0.56773084734E+01  0.29870598998E+02  0.00000000000E+00 0.  1.
</event>
<event>
 5    1  0.8957809E-005  0.9118800E+02  0.7818608E-02  0.1130116E+00
         25   -1    0    0    0    0  0.00000000000E+00  0.00000000000E+00  0.99999998245E-14  0.12500000000E+03  0.12500000000E+03 0.  0.
        -11    1    3    3    0    0 -0.23077517782E+02 -0.33838941971E+02  0.10359457510E+02  0.42248836444E+02  0.51100000000E-03 0.  1.
         23    2    1    0    0    0 -0.18575709312E+01  0.11039247280E+02  0.27931125299E+02  0.94909082588E+02  0.90012613821E+02 0.  0.
         11    1    3    3    0    0  0.21219946851E+02  0.44878189251E+02  0.17571667789E+02  0.52660246144E+02  0.51100000000E-03 0. -1.
         22    1    1    0    0    0  0.18575709312E+01 -0.11039247280E+02 -0.27931125299E+02  0.30090917412E+02  0.00000000000E+00 0.  1.
</event>
<event>
 5    1  0.8957809E-005  0.9118800E+02  0.7818608E-02  0.1130116E+00
         25   -1    0    0    0    0  0.00000000000E+00  0.00000000000E+00  0.99999998245E-14  0.12500000000E+03  0.12500000000E+03 0.  0.
        -11    1    3    3    0    0  0.52282481968E+02  0.29706465133E+02 -0.11520506058E+02  0.61226252960E+02  0.51100000000E-03 0. -1.
         23    2    1    0    0    0  0.24488647670E+02  0.19216035248E+02  0.18776363116E+01  0.93815462270E+02  0.88480876846E+02 0.  0.
         11    1    3    3    0    0 -0.27793834298E+02 -0.10490429886E+02  0.13398142370E+02  0.32589209309E+02  0.51100000000E-03 0.  1.
         22    1    1    0    0    0 -0.24488647670E+02 -0.19216035248E+02 -0.18776363116E+01  0.31184537730E+02  0.00000000000E+00 0. -1.
</event>
<event>
 5    1  0.8957809E-005  0.9118800E+02  0.7818608E-02  0.1130116E+00
         25   -1    0    0    0    0  0.00000000000E+00  0.00000000000E+00  0.99999998245E-14  0.12500000000E+03  0.12500000000E+03 0.  0.
        -11    1    3    3    0    0 -0.16647643892E+02 -0.11945469430E+01  0.30478445269E+02  0.34749195902E+02  0.51100000000E-03 0.  1.
         23    2    1    0    0    0  0.27788649841E+02  0.18154792518E+01 -0.10468382707E+02  0.95249503174E+02  0.90484119012E+02 0.  0.
         11    1    3    3    0    0  0.44436293733E+02  0.30100261947E+01 -0.40946827977E+02  0.60500307272E+02  0.51100000000E-03 0. -1.
         22    1    1    0    0    0 -0.27788649841E+02 -0.18154792518E+01  0.10468382707E+02  0.29750496826E+02  0.00000000000E+00 0. -1.
</event>
<event>
 5    1  0.8957809E-005  0.9118800E+02  0.7818608E-02  0.1130116E+00
         25   -1    0    0    0    0  0.00000000000E+00  0.00000000000E+00  0.99999998245E-14  0.12500000000E+03  0.12500000000E+03 0.  0.
        -11    1    3    3    0    0 -0.63188348539E+01  0.53488849023E+02  0.16645438075E+02  0.56374242812E+02  0.51100000000E-03 0.  1.
         23    2    1    0    0    0  0.75352901375E+01  0.24780931998E+02 -0.93051973858E+01  0.97477974519E+02  0.93511997251E+02 0.  0.
         11    1    3    3    0    0  0.13854124991E+02 -0.28707917024E+02 -0.25950635461E+02  0.41103731707E+02  0.51100000000E-03 0. -1.
         22    1    1    0    0    0 -0.75352901375E+01 -0.24780931998E+02  0.93051973858E+01  0.27522025481E+02  0.00000000000E+00 0.  1.
</event>
<event>
 5    1  0.8957809E-005  0.9118800E+02  0.7818608E-02  0.1130116E+00
         25   -1    0    0    0    0  0.00000000000E+00  0.00000000000E+00  0.99999998245E-14  0.12500000000E+03  0.12500000000E+03 0.  0.
        -11    1    3    3    0    0  0.57000746651E+02 -0.14167241375E+02  0.78996634925E+01  0.59263821430E+02  0.51100000000E-03 0. -1.
         23    2    1    0    0    0  0.24603628764E+02 -0.87750925442E+01  0.17591900603E+02  0.93506893383E+02  0.88043871711E+02 0.  0.
         11    1    3    3    0    0 -0.32397117886E+02  0.53921488306E+01  0.96922371110E+01  0.34243071954E+02  0.51100000000E-03 0.  1.
         22    1    1    0    0    0 -0.24603628764E+02  0.87750925442E+01 -0.17591900603E+02  0.31493106617E+02  0.00000000000E+00 0. -1.
</event>
<event>
 5    1  0.8957809E-005  0.9118800E+02  0.7818608E-02  0.1130116E+00
         25   -1    0    0    0    0  0.00000000000E+00  0.00000000000E+00  0.99999998245E-14  0.12500000000E+03  0.12500000000E+03 0.  0.
        -11    1    3    3    0    0 -0.53452220901E+01  0.23167455774E+02 -0.36153540146E+02  0.43271016530E+02  0.51100000000E-03 0.  1.
         23    2    1    0    0    0 -0.18749351759E+02 -0.20141540638E+02 -0.93518011232E+01  0.95936689196E+02  0.91428509224E+02 0.  0.
         11    1    3    3    0    0 -0.13404129669E+02 -0.43308996412E+02  0.26801739023E+02  0.52665672665E+02  0.51100000000E-03 0. -1.
         22    1    1    0    0    0  0.18749351759E+02  0.20141540638E+02  0.93518011232E+01  0.29063310804E+02  0.00000000000E+00 0.  1.
</event>
<event>
 5    1  0.8957809E-005  0.9118800E+02  0.7818608E-02  0.1130116E+00
         25   -1    0    0    0    0  0.00000000000E+00  0.00000000000E+00  0.99999998245E-14  0.12500000000E+03  0.12500000000E+03 0.  0.
        -11    1    3    3    0    0 -0.40471328472E+02 -0.26831614459E+02  0.30970063378E+02  0.57593478699E+02  0.51100000000E-03 0.  1.
         23    2    1    0    0    0 -0.37224685325E+01 -0.18064130023E+02  0.21750498615E+02  0.96482395692E+02  0.92171573292E+02 0.  0.
         11    1    3    3    0    0  0.36748859940E+02  0.87674844359E+01 -0.92195647634E+01  0.38888916993E+02  0.51100000000E-03 0. -1.
         22    1    1    0    0    0  0.37224685325E+01  0.18064130023E+02 -0.21750498615E+02  0.28517604308E+02  0.00000000000E+00 0.  1.
</event>
<event>
 5    1  0.8957809E-005  0.9118800E+02  0.7818608E-02  0.1130116E+00
         25   -1    0    0    0    0  0.00000000000E+00  0.00000000000E+00  0.99999998245E-14  0.12500000000E+03  0.12500000000E+03 0.  0.
        -11    1    3    3    0    0 -0.86069798144E+01 -0.76866148202E+00 -0.33726630295E+02  0.34816038450E+02  0.51100000000E-03 0. -1.
         23    2    1    0    0    0 -0.12255353962E+01  0.18043163180E+02  0.23408339997E+02  0.95419464915E+02  0.90718610156E+02 0.  0.
         11    1    3    3    0    0  0.73814444182E+01  0.18811824662E+02  0.57134970292E+02  0.60603426465E+02  0.51100000000E-03 0.  1.
         22    1    1    0    0    0  0.12255353962E+01 -0.18043163180E+02 -0.23408339997E+02  0.29580535085E+02  0.00000000000E+00 0.  1.
</event>
<event>
 5    1  0.8957809E-005  0.9118800E+02  0.7818608E-02  0.1130116E+00
         25   -1    0    0    0    0  0.00000000000E+00  0.00000000000E+00  0.99999998245E-14  0.12500000000E+03  0.12500000000E+03 0.  0.
        -11    1    3    3    0    0 -0.12679871396E+02  0.28039175226E+02  0.22664216878E+02  0.38218336083E+02  0.51100000000E-03 0. -1.
         23    2    1    0    0    0  0.24345161520E+01 -0.13385931209E+02 -0.20807040034E+02  0.10013953061E+03  0.97004549651E+02 0.  0.
         11    1    3    3    0    0  0.15114387548E+02 -0.41425106435E+02 -0.43471256912E+02  0.61921194529E+02  0.51100000000E-03 0.  1.
         22    1    1    0    0    0 -0.24345161520E+01  0.13385931209E+02  0.20807040034E+02  0.24860469388E+02  0.00000000000E+00 0.  1.
</event>
<event>
 5    1  0.8957809E-005  0.9118800E+02  0.7818608E-02  0.1130116E+00
         25   -1    0    0    0    0  0.00000000000E+00  0.00000000000E+00  0.99999998245E-14  0.12500000000E+03  0.12500000000E+03 0.  0.
        -11    1    3    3    0    0  0.11310793963E+02  0.21666125335E+02 -0.50140946803E+02  0.55780548524E+02  0.51100000000E-03 0. -1.
         23    2    1    0    0    0 -0.67341910578E+01 -0.66952251848E+01 -0.26427173089E+02  0.96918496356E+02  0.92761113021E+02 0.  0.
         11    1    3    3    0    0 -0.18044985021E+02 -0.28361350520E+02  0.23713773715E+02  0.41137947831E+02  0.51100000000E-03 0.  1.
         22    1    1    0    0    0  0.67341910578E+01  0.66952251848E+01  0.26427173089E+02  0.28081503644E+02  0.00000000000E+00 0. -1.
</event>
<event>
 5    1  0.8957809E-005  0.9118800E+02  0.7818608E-02  0.1130116E+00
         25   -1    0    0    0    0  0.00000000000E+00  0.00000000000E+00  0.99999998245E-14  0.12500000000E+03  0.12500000000E+03 0.  0.
        -11    1    3    3    0    0 -0.90118864821E+01  0.49780784882E+02  0.27330246142E+02  0.57500286920E+02  0.51100000000E-03 0. -1.
         23    2    1    0    0    0  0.28965445287E+01  0.12504447342E+02 -0.77090716465E+01  0.11002732625E+03  0.10900381444E+03 0.  0.
         11    1    3    3    0    0  0.11908431011E+02 -0.37276337540E+02 -0.35039317789E+02  0.52527039332E+02  0.51100000000E-03 0.  1.
         22    1    1    0    0    0 -0.28965445287E+01 -0.12504447342E+02  0.77090716465E+01  0.14972673748E+02  0.00000000000E+00 0.  1.
</event>
<event>
 5    1  0.8957809E-005  0.9118800E+02  0.7818608E-02  0.1130116E+00
         25   -1    0    0    0    0  0.00000000000E+00  0.00000000000E+00  0.99999998245E-14  0.12500000000E+03  0.12500000000E+03 0.  0.
        -11    1    3    3    0    0  0.27816385582E+02  0.54820250336E+01 -0.37242243347E+02  0.46805860692E+02  0.51100000000E-03 0. -1.
         23    2    1    0    0    0  0.32728813158E+01 -0.26846549282E+02 -0.81202457015E+01  0.96761952073E+02  0.92549921763E+02 0.  0.
         11    1    3    3    0    0 -0.24543504266E+02 -0.32328574316E+02  0.29121997645E+02  0.49956091381E+02  0.51100000000E-03 0.  1.
         22    1    1    0    0    0 -0.32728813158E+01  0.26846549282E+02  0.81202457015E+01  0.28238047927E+02  0.00000000000E+00 0.  1.
</event>
<event>
 5    1  0.8957809E-005  0.9118800E+02  0.7818608E-02  0.1130116E+00
         25   -1    0    0    0    0  0.00000000000E+00  0.00000000000E+00  0.99999998245E-14  0.12500000000E+03  0.12500000000E+03 0.  0.
        -11    1    3    3    0    0 -0.38655936310E+02 -0.17070499421E+02  0.36099917989E+01  0.42411265054E+02  0.51100000000E-03 0.  1.
         23    2    1    0    0    0  0.60452678352E+01 -0.13259752763E+02 -0.25314537213E+02  0.95790547748E+02  0.91228487530E+02 0.  0.
         11    1    3    3    0    0  0.44701204145E+02  0.38107466580E+01 -0.28924529012E+02  0.53379282694E+02  0.51100000000E-03 0. -1.
         22    1    1    0    0    0 -0.60452678352E+01  0.13259752763E+02  0.25314537213E+02  0.29209452252E+02  0.00000000000E+00 0. -1.
</event>
<event>
 5    1  0.8957809E-005  0.9118800E+02  0.7818608E-02  0.1130116E+00
         25   -1    0    0    0    0  0.00000000000E+00  0.00000000000E+00  0.99999998245E-14  0.12500000000E+03  0.12500000000E+03 0.  0.
        -11    1    3    3    0    0  0.10530222323E+02 -0.39901210320E+02 -0.35103937213E+02  0.54178211259E+02  0.51100000000E-03 0.  1.
         23    2    1    0    0    0  0.24612411429E+02 -0.68800396826E+01 -0.13124984033E+02  0.96270730113E+02  0.91884071134E+02 0.  0.
         11    1    3    3    0    0  0.14082189106E+02  0.33021170637E+02  0.21978953180E+02  0.42092518853E+02  0.51100000000E-03 0. -1.
         22    1    1    0    0    0 -0.24612411429E+02  0.68800396826E+01  0.13124984033E+02  0.28729269887E+02  0.00000000000E+00 0.  1.
</event>
<event>
 5    1  0.8957809E-005  0.9118800E+02  0.7818608E-02  0.1130116E+00
         25   -1    0    0    0    0  0.00000000000E+00  0.00000000000E+00  0.99999998245E-14  0.12500000000E+03  0.12500000000E+03 0.  0.
        -11    1    3    3    0    0 -0.82516057100E+01 -0.25505500596E+02 -0.27498450753E+02  0.38402921133E+02  0.51100000000E-03 0. -1.
         23    2    1    0    0    0  0.11104767509E+02  0.25361566311E+02 -0.88953830420E+01  0.95919890876E+02  0.91405539871E+02 0.  0.
         11    1    3    3    0    0  0.19356373219E+02  0.50867066907E+02  0.18603067711E+02  0.57516969743E+02  0.51100000000E-03 0.  1.
         22    1    1    0    0    0 -0.11104767509E+02 -0.25361566311E+02  0.88953830420E+01  0.29080109124E+02  0.00000000000E+00 0.  1.
</event>
<event>
 5    1  0.8957809E-005  0.9118800E+02  0.7818608E-02  0.1130116E+00
         25   -1    0    0    0    0  0.00000000000E+00  0.00000000000E+00  0.99999998245E-14  0.12500000000E+03  0.12500000000E+03 0.  0.
        -11    1    3    3    0    0 -0.37545868537E+02  0.13991744589E+02 -0.42683610396E+02  0.58543588526E+02  0.51100000000E-03 0.  1.
         23    2    1    0    0    0 -0.18396219970E+02 -0.93008463410E+01 -0.20016762990E+02  0.96266788337E+02  0.91878708547E+02 0.  0.
         11    1    3    3    0    0  0.19149648567E+02 -0.23292590930E+02  0.22666847405E+02  0.37723199811E+02  0.51100000000E-03 0. -1.
         22    1    1    0    0    0  0.18396219970E+02  0.93008463410E+01  0.20016762990E+02  0.28733211663E+02  0.00000000000E+00 0.  1.
</event>
<event>
 5    1  0.8957809E-005  0.9118800E+02  0.7818608E-02  0.1130116E+00
         25   -1    0    0    0    0  0.00000000000E+00  0.00000000000E+00  0.99999998245E-14  0.12500000000E+03  0.12500000000E+03 0.  0.
        -11    1    3    3    0    0 -0.29187944022E+02 -0.16950811795E+02  0.14640686510E+02  0.36791518024E+02  0.51100000000E-03 0.  1.
         23    2    1    0    0    0  0.26173189085E+02 -0.10118952853E+02 -0.60637965462E+01  0.96291139656E+02  0.91911832285E+02 0.  0.
         11    1    3    3    0    0  0.55361133107E+02  0.68318589423E+01 -0.20704483056E+02  0.59499621632E+02  0.51100000000E-03 0. -1.
         22    1    1    0    0    0 -0.26173189085E+02  0.10118952853E+02  0.60637965462E+01  0.28708860344E+02  0.00000000000E+00 0. -1.
</event>
<event>
 5    1  0.8957809E-005  0.9118800E+02  0.7818608E-02  0.1130116E+00
         25   -1    0    0    0    0  0.00000000000E+00  0.00000000000E+00  0.99999998245E-14  0.12500000000E+03  0.12500000000E+03 0.  0.
        -11    1    3    3    0    0  0.25105998467E+02 -0.15518401359E+02  0.52297778318E+02  0.60051557490E+02  0.51100000000E-03 0. -1.
         23    2    1    0    0    0  0.15708514787E+02  0.45102942520E+01  0.20661472081E+02  0.98656184415E+02  0.95073898120E+02 0.  0.
         11    1    3    3    0    0 -0.93974836804E+01  0.20028695611E+02 -0.31636306237E+02  0.38604626924E+02  0.51100000000E-03 0.  1.
         22    1    1    0    0    0 -0.15708514787E+02 -0.45102942520E+01 -0.20661472081E+02  0.26343815585E+02  0.00000000000E+00 0. -1.
</event>
<event>
 5    1  0.8957809E-005  0.9118800E+02  0.7818608E-02  0.1130116E+00
         25   -1    0    0    0    0  0.00000000000E+00  0.00000000000E+00  0.99999998245E-14  0.12500000000E+03  0.12500000000E+03 0.  0.
        -11    1    3    3    0    0  0.22422007218E+02 -0.34788793714E+02 -0.42622540958E+02  0.59411173811E+02  0.51100000000E-03 0.  1.
         23    2    1    0    0    0  0.29035706494E+01 -0.69319438075E+01 -0.27240329635E+02  0.96741936973E+02  0.92522884970E+02 0.  0.
         11    1    3    3    0    0 -0.19518436568E+02  0.27856849906E+02  0.15382211323E+02  0.37330763161E+02  0.51100000000E-03 0. -1.
         22    1    1    0    0    0 -0.29035706494E+01  0.69319438075E+01  0.27240329635E+02  0.28258063027E+02  0.00000000000E+00 0.  1.
</event>
<event>
 5    1  0.8957809E-005  0.9118800E+02  0.7818608E-02  0.1130116E+00
         25   -1    0    0    0    0  0.00000000000E+00  0.00000000000E+00  0.99999998245E-14  0.12500000000E+03  0.12500000000E+03 0.  0.
        -11    1    3    3    0    0  0.17467389080E+02 -0.14687281321E+02  0.27824169904E+02  0.35986252166E+02  0.51100000000E-03 0.  1.
         23    2    1    0    0    0 -0.24936440768E+02 -0.12124893553E+02 -0.12523988130E+02  0.94574855784E+02  0.89547272131E+02 0.  0.
         11    1    3    3    0    0 -0.42403829848E+02  0.25623877686E+01 -0.40348158034E+02  0.58588603618E+02  0.51100000000E-03 0. -1.
         22    1    1    0    0    0  0.24936440768E+02  0.12124893553E+02  0.12523988130E+02  0.30425144216E+02  0.00000000000E+00 0. -1.
</event>
<event>
 5    1  0.8957809E-005  0.9118800E+02  0.7818608E-02  0.1130116E+00
         25   -1    0    0    0    0  0.00000000000E+00  0.00000000000E+00  0.99999998245E-14  0.12500000000E+03  0.12500000000E+03 0.  0.
        -11    1    3    3    0    0  0.41106627169E+02 -0.30830540657E+02  0.33217437842E+02  0.61185580094E+02  0.51100000000E-03 0. -1.
         23    2    1    0    0    0  0.15844219133E+02 -0.22123229490E+02  0.12215116668E+02  0.95172401400E+02  0.90377543395E+02 0.  0.
         11    1    3    3    0    0 -0.25262408036E+02  0.87073111670E+01 -0.21002321173E+02  0.33986821306E+02  0.51100000000E-03 0.  1.
         22    1    1    0    0    0 -0.15844219133E+02  0.22123229490E+02 -0.12215116668E+02  0.29827598600E+02  0.00000000000E+00 0. -1.
</event>
<event>
 5    1  0.8957809E-005  0.9118800E+02  0.7818608E-02  0.1130116E+00
         25   -1    0    0    0    0  0.00000000000E+00  0.00000000000E+00  0.99999998245E-14  0.12500000000E+03  0.12500000000E+03 0.  0.
        -11    1    3    3    0    0 -0.87905516827E+01 -0.38660395591E+02  0.31680862809E+02  0.50750143395E+02  0.51100000000E-03 0. -1.
         23    2    1    0    0    0  0.11465112369E+02 -0.12121085050E+02  0.36864023584E+02  0.84536118090E+02  0.74222836934E+02 0.  0.
         11    1    3    3    0    0  0.20255664052E+02  0.26539310541E+02  0.51831607757E+01  0.33785974694E+02  0.51100000000E-03 0.  1.
         22    1    1    0    0    0 -0.11465112369E+02  0.12121085050E+02 -0.36864023584E+02  0.40463881910E+02  0.00000000000E+00 0. -1.
</event>
<event>
 5    1  0.8957809E-005  0.9118800E+02  0.7818608E-02  0.1130116E+00
         25   -1    0    0    0    0  0.00000000000E+00  0.00000000000E+00  0.99999998245E-14  0.12500000000E+03  0.12500000000E+03 0.  0.
        -11    1    3    3    0    0 -0.20963805538E+02  0.10417875268E+02 -0.43445072617E+02  0.49350659598E+02  0.51100000000E-03 0.  1.
         23    2    1    0    0    0 -0.17151802373E+02 -0.21862489724E+02 -0.11495339505E+02  0.94928491692E+02  0.90039563098E+02 0.  0.
         11    1    3    3    0    0  0.38120031646E+01 -0.32280364993E+02  0.31949733112E+02  0.45577832094E+02  0.51100000000E-03 0. -1.
         22    1    1    0    0    0  0.17151802373E+02  0.21862489724E+02  0.11495339505E+02  0.30071508308E+02  0.00000000000E+00 0.  1.
</event>
<event>
 5    1  0.8957809E-005  0.9118800E+02  0.7818608E-02  0.1130116E+00
         25   -1    0    0    0    0  0.00000000000E+00  0.00000000000E+00  0.99999998245E-14  0.12500000000E+03  0.12500000000E+03 0.  0.
        -11    1    3    3    0    0 -0.43309988464E+01 -0.24168484999E+02  0.36242286956E+02  0.43776438666E+02  0.51100000000E-03 0. -1.
         23    2    1    0    0    0 -0.48505427222E+01 -0.21566744335E+02 -0.17017901246E+02  0.97102666996E+02  0.93008960585E+02 0.  0.
         11    1    3    3    0    0 -0.51954387583E+00  0.26017406643E+01 -0.53260188202E+02  0.53326228330E+02  0.51100000000E-03 0.  1.
         22    1    1    0    0    0  0.48505427222E+01  0.21566744335E+02  0.17017901246E+02  0.27897333004E+02  0.00000000000E+00 0. -1.
</event>
<event>
 5    1  0.8957809E-005  0.9118800E+02  0.7818608E-02  0.1130116E+00
         25   -1    0    0    0    0  0.00000000000E+00  0.00000000000E+00  0.99999998245E-14  0.12500000000E+03  0.12500000000E+03 0.  0.
        -11    1    3    3    0    0 -0.20488811391E+02  0.25400842577E+02  0.71760808595E+01  0.33413924232E+02  0.51100000000E-03 0. -1.
         23    2    1    0    0    0  0.21040131956E+02 -0.18363849923E+02 -0.86072112383E+01  0.95776683590E+02  0.91209489076E+02 0.  0.
         11    1    3    3    0    0  0.41528943346E+02 -0.43764692499E+02 -0.15783292098E+02  0.62362759358E+02  0.51100000000E-03 0.  1.
         22    1    1    0    0    0 -0.21040131956E+02  0.18363849923E+02  0.86072112383E+01  0.29223316410E+02  0.00000000000E+00 0.  1.
</event>
<event>
 5    1  0.8957809E-005  0.9118800E+02  0.7818608E-02  0.1130116E+00
         25   -1    0    0    0    0  0.00000000000E+00  0.00000000000E+00  0.99999998245E-14  0.12500000000E+03  0.12500000000E+03 0.  0.
        -11    1    3    3    0    0 -0.79416163565E+01  0.55697293177E+02 -0.16200170345E+02  0.58546590482E+02  0.51100000000E-03 0.  1.
         23    2    1    0    0    0  0.45985496398E+01  0.28709964024E+02  0.55407232887E+01  0.95400873195E+02  0.90692989248E+02 0.  0.
         11    1    3    3    0    0  0.12540165996E+02 -0.26987329153E+02  0.21740893633E+02  0.36854282713E+02  0.51100000000E-03 0. -1.
         22    1    1    0    0    0 -0.45985496398E+01 -0.28709964024E+02 -0.55407232887E+01  0.29599126805E+02  0.00000000000E+00 0.  1.
</event>
<event>
 5    1  0.8957809E-005  0.9118800E+02  0.7818608E-02  0.1130116E+00
         25   -1    0    0    0    0  0.00000000000E+00  0.00000000000E+00  0.99999998245E-14  0.12500000000E+03  0.12500000000E+03 0.  0.
        -11    1    3    3    0    0 -0.58436776339E+01 -0.21044256531E+02 -0.35908880239E+02  0.42029239602E+02  0.51100000000E-03 0.  1.
         23    2    1    0    0    0 -0.40422126680E+01 -0.22884463024E+02  0.17754992549E+02  0.95754865506E+02  0.91179583112E+02 0.  0.
         11    1    3    3    0    0  0.18014649659E+01 -0.18402064934E+01  0.53663872788E+02  0.53725625904E+02  0.51100000000E-03 0. -1.
         22    1    1    0    0    0  0.40422126680E+01  0.22884463024E+02 -0.17754992549E+02  0.29245134494E+02  0.00000000000E+00 0. -1.
</event>
<event>
 5    1  0.8957809E-005  0.9118800E+02  0.7818608E-02  0.1130116E+00
         25   -1    0    0    0    0  0.00000000000E+00  0.00000000000E+00  0.99999998245E-14  0.12500000000E+03  0.12500000000E+03 0.  0.
        -11    1    3    3    0    0 -0.51940202585E+02  0.14754220718E+02 -0.26468517057E+02  0.60133635089E+02  0.51100000000E-03 0.  1.
         23    2    1    0    0    0 -0.30403570339E+02 -0.24788236862E+01 -0.75676161115E+01  0.93570865907E+02  0.88134649694E+02 0.  0.
         11    1    3    3    0    0  0.21536632246E+02 -0.17233044404E+02  0.18900900946E+02  0.33437230818E+02  0.51100000000E-03 0. -1.
         22    1    1    0    0    0  0.30403570339E+02  0.24788236862E+01  0.75676161115E+01  0.31429134093E+02  0.00000000000E+00 0.  1.
</event>
<event>
 5    1  0.8957809E-005  0.9118800E+02  0.7818608E-02  0.1130116E+00
         25   -1    0    0    0    0  0.00000000000E+00  0.00000000000E+00  0.99999998245E-14  0.12500000000E+03  0.12500000000E+03 0.  0.
        -11    1    3    3    0    0 -0.48088926015E+02  0.25264920495E+02 -0.13395811523E+02  0.55949162456E+02  0.51100000000E-03 0.  1.
         23    2    1    0    0    0 -0.24149085049E+02 -0.73235295958E+01 -0.13488992027E+02  0.96385924786E+02  0.92040649696E+02 0.  0.
         11    1    3    3    0    0  0.23939840966E+02 -0.32588450091E+02 -0.93180503651E-01  0.40436762329E+02  0.51100000000E-03 0. -1.
         22    1    1    0    0    0  0.24149085049E+02  0.73235295958E+01  0.13488992027E+02  0.28614075214E+02  0.00000000000E+00 0.  1.
</event>
<event>
 5    1  0.8957809E-005  0.9118800E+02  0.7818608E-02  0.1130116E+00
         25   -1    0    0    0    0  0.00000000000E+00  0.00000000000E+00  0.99999998245E-14  0.12500000000E+03  0.12500000000E+03 0.  0.
        -11    1    3    3    0    0 -0.15460626552E+02  0.20254235115E+02 -0.35202603938E+02  0.43456740993E+02  0.51100000000E-03 0.  1.
         23    2    1    0    0    0  0.81330247608E+01  0.26288449090E+02  0.10744673493E+02  0.95458898873E+02  0.90772929435E+02 0.  0.
         11    1    3    3    0    0  0.23593651313E+02  0.60342139756E+01  0.45947277431E+02  0.52002157880E+02  0.51100000000E-03 0. -1.
         22    1    1    0    0    0 -0.81330247608E+01 -0.26288449090E+02 -0.10744673493E+02  0.29541101127E+02  0.00000000000E+00 0. -1.
</event>
<event>
 5    1  0.8957809E-005  0.9118800E+02  0.7818608E-02  0.1130116E+00
         25   -1    0    0    0    0  0.00000000000E+00  0.00000000000E+00  0.99999998245E-14  0.12500000000E+03  0.12500000000E+03 0.  0.
        -11    1    3    3    0    0 -0.25034745664E+02  0.16515501035E+02  0.21295827682E+02  0.36783318799E+02  0.51100000000E-03 0. -1.
         23    2    1    0    0    0  0.27256384885E+02  0.59465658860E+01 -0.56274363829E+01  0.96540551603E+02  0.92250408675E+02 0.  0.
         11    1    3    3    0    0  0.52291130549E+02 -0.10568935149E+02 -0.26923264065E+02  0.59757232804E+02  0.51100000000E-03 0.  1.
         22    1    1    0    0    0 -0.27256384885E+02 -0.59465658860E+01  0.56274363829E+01  0.28459448397E+02  0.00000000000E+00 0.  1.
</event>
<event>
 5    1  0.8957809E-005  0.9118800E+02  0.7818608E-02  0.1130116E+00
         25   -1    0    0    0    0  0.00000000000E+00  0.00000000000E+00  0.99999998245E-14  0.12500000000E+03  0.12500000000E+03 0.  0.
        -11    1    3    3    0    0  0.74329042467E+01 -0.30682785154E+02  0.17329792869E+02  0.36013929131E+02  0.51100000000E-03 0.  1.
         23    2    1    0    0    0 -0.25846082096E+02  0.12145329372E+02 -0.72122790372E+01  0.95545866942E+02  0.90892611007E+02 0.  0.
         11    1    3    3    0    0 -0.33278986343E+02  0.42828114525E+02 -0.24542071907E+02  0.59531937811E+02  0.51100000000E-03 0. -1.
         22    1    1    0    0    0  0.25846082096E+02 -0.12145329372E+02  0.72122790372E+01  0.29454133058E+02  0.00000000000E+00 0. -1.
</event>
<event>
 5    1  0.8957809E-005  0.9118800E+02  0.7818608E-02  0.1130116E+00
         25   -1    0    0    0    0  0.00000000000E+00  0.00000000000E+00  0.99999998245E-14  0.12500000000E+03  0.12500000000E+03 0.  0.
        -11    1    3    3    0    0  0.21167639696E+02 -0.53479317638E+02 -0.12990115693E+02  0.58964815706E+02  0.51100000000E-03 0.  1.
         23    2    1    0    0    0  0.17857030601E+02 -0.23686186873E+02  0.63844453097E+01  0.94657453429E+02  0.89662496939E+02 0.  0.
         11    1    3    3    0    0 -0.33106090942E+01  0.29793130765E+02  0.19374561003E+02  0.35692637723E+02  0.51100000000E-03 0. -1.
         22    1    1    0    0    0 -0.17857030601E+02  0.23686186873E+02 -0.63844453097E+01  0.30342546571E+02  0.00000000000E+00 0.  1.
</event>
<event>
 5    1  0.8957809E-005  0.9118800E+02  0.7818608E-02  0.1130116E+00
         25   -1    0    0    0    0  0.00000000000E+00  0.00000000000E+00  0.99999998245E-14  0.12500000000E+03  0.12500000000E+03 0.  0.
        -11    1    3    3    0    0 -0.47037679617E+02 -0.89645296292E+01 -0.28553439893E+02  0.55751278238E+02  0.51100000000E-03 0.  1.
         23    2    1    0    0    0 -0.61417951983E+01 -0.50628426567E+01 -0.26988053353E+02  0.96862675184E+02  0.92685860820E+02 0.  0.
         11    1    3    3    0    0  0.40895884418E+02  0.39016869725E+01  0.15653865400E+01  0.41111396946E+02  0.51100000000E-03 0. -1.
         22    1    1    0    0    0  0.61417951983E+01  0.50628426567E+01  0.26988053353E+02  0.28137324816E+02  0.00000000000E+00 0.  1.
</event>
<event>
 5    1  0.8957809E-005  0.9118800E+02  0.7818608E-02  0.1130116E+00
         25   -1    0    0    0    0  0.00000000000E+00  0.00000000000E+00  0.99999998245E-14  0.12500000000E+03  0.12500000000E+03 0.  0.
        -11    1    3    3    0    0 -0.35729060146E+02 -0.69148674362E+01 -0.38517875434E+02  0.52990639350E+02  0.51100000000E-03 0.  1.
         23    2    1    0    0    0 -0.22067776245E+02 -0.21011720968E+02 -0.19838977162E+01  0.94464528551E+02  0.89393132498E+02 0.  0.
         11    1    3    3    0    0  0.13661283900E+02 -0.14096853531E+02  0.36533977718E+02  0.41473889201E+02  0.51100000000E-03 0. -1.
         22    1    1    0    0    0  0.22067776245E+02  0.21011720968E+02  0.19838977162E+01  0.30535471449E+02  0.00000000000E+00 0.  1.
</event>
<event>
 5    1  0.8957809E-005  0.9118800E+02  0.7818608E-02  0.1130116E+00
         25   -1    0    0    0    0  0.00000000000E+00  0.00000000000E+00  0.99999998245E-14  0.12500000000E+03  0.12500000000E+03 0.  0.
        -11    1    3    3    0    0 -0.16706646560E+01  0.11719806351E+02 -0.31588759675E+02  0.33734177319E+02  0.51100000000E-03 0. -1.
         23    2    1    0    0    0  0.25296551576E+02  0.18814743679E+01  0.19950271229E+02  0.92728204426E+02  0.86931301074E+02 0.  0.
         11    1    3    3    0    0  0.26967216232E+02 -0.98383319834E+01  0.51539030904E+02  0.58994027107E+02  0.51100000000E-03 0.  1.
         22    1    1    0    0    0 -0.25296551576E+02 -0.18814743679E+01 -0.19950271229E+02  0.32271795574E+02  0.00000000000E+00 0.  1.
</event>
<event>
 5    1  0.8957809E-005  0.9118800E+02  0.7818608E-02  0.1130116E+00
         25   -1    0    0    0    0  0.00000000000E+00  0.00000000000E+00  0.99999998245E-14  0.12500000000E+03  0.12500000000E+03 0.  0.
        -11    1    3    3    0    0  0.17442740623E+01  0.56750413273E+02  0.24978063149E+02  0.62028667063E+02  0.51100000000E-03 0.  1.
         23    2    1    0    0    0  0.15456529827E+01  0.30687750708E+02  0.76221539088E+01  0.93342073396E+02  0.87809557276E+02 0.  0.
         11    1    3    3    0    0 -0.19862107961E+00 -0.26062662565E+02 -0.17355909240E+02  0.31313406333E+02  0.51100000000E-03 0. -1.
         22    1    1    0    0    0 -0.15456529827E+01 -0.30687750708E+02 -0.76221539088E+01  0.31657926604E+02  0.00000000000E+00 0.  1.
</event>
<event>
 5    1  0.8957809E-005  0.9118800E+02  0.7818608E-02  0.1130116E+00
         25   -1    0    0    0    0  0.00000000000E+00  0.00000000000E+00  0.99999998245E-14  0.12500000000E+03  0.12500000000E+03 0.  0.
        -11    1    3    3    0    0  0.43441186233E+01  0.31470981209E+02 -0.43906773372E+02  0.54195006902E+02  0.51100000000E-03 0. -1.
         23    2    1    0    0    0  0.22798944759E+02  0.51192755388E+01 -0.19128534123E+02  0.94802323237E+02  0.89864235430E+02 0.  0.
         11    1    3    3    0    0  0.18454826136E+02 -0.26351705670E+02  0.24778239249E+02  0.40607316335E+02  0.51100000000E-03 0.  1.
         22    1    1    0    0    0 -0.22798944759E+02 -0.51192755388E+01  0.19128534123E+02  0.30197676763E+02  0.00000000000E+00 0. -1.
</event>
<event>
 5    1  0.8957809E-005  0.9118800E+02  0.7818608E-02  0.1130116E+00
         25   -1    0    0    0    0  0.00000000000E+00  0.00000000000E+00  0.99999998245E-14  0.12500000000E+03  0.12500000000E+03 0.  0.
        -11    1    3    3    0    0 -0.42197455379E+02  0.30667397785E+02 -0.11210081409E+02  0.53355228918E+02  0.51100000000E-03 0. -1.
         23    2    1    0    0    0 -0.12709468160E+02  0.32119497171E+01 -0.25681655092E+02  0.96166085764E+02  0.91741601475E+02 0.  0.
         11    1    3    3    0    0  0.29487987219E+02 -0.27455448068E+02 -0.14471573682E+02  0.42810856847E+02  0.51100000000E-03 0.  1.
         22    1    1    0    0    0  0.12709468160E+02 -0.32119497171E+01  0.25681655092E+02  0.28833914236E+02  0.00000000000E+00 0.  1.
</event>
<event>
 5    1  0.8957809E-005  0.9118800E+02  0.7818608E-02  0.1130116E+00
         25   -1    0    0    0    0  0.00000000000E+00  0.00000000000E+00  0.99999998245E-14  0.12500000000E+03  0.12500000000E+03 0.  0.
        -11    1    3    3    0    0  0.43475310878E+01  0.34087988400E+02  0.20618889404E+02  0.40075311356E+02  0.51100000000E-03 0. -1.
         23    2    1    0    0    0  0.25516359013E+02  0.22549222490E+01 -0.17433478969E+02  0.94014593103E+02  0.88761750071E+02 0.  0.
         11    1    3    3    0    0  0.21168827925E+02 -0.31833066151E+02 -0.38052368373E+02  0.53939281747E+02  0.51100000000E-03 0.  1.
         22    1    1    0    0    0 -0.25516359013E+02 -0.22549222490E+01  0.17433478969E+02  0.30985406897E+02  0.00000000000E+00 0.  1.
</event>
<event>
 5    1  0.8957809E-005  0.9118800E+02  0.7818608E-02  0.1130116E+00
         25   -1    0    0    0    0  0.00000000000E+00  0.00000000000E+00  0.99999998245E-14  0.12500000000E+03  0.12500000000E+03 0.  0.
        -11    1    3    3    0    0  0.26686393951E+02 -0.26119759882E+02  0.13874113682E+02  0.39835869630E+02  0.51100000000E-03 0.  1.
         23    2    1    0    0    0 -0.21150615335E+02 -0.15117634646E+02 -0.13146181455E+02  0.95867312291E+02  0.91333608670E+02 0.  0.
         11    1    3    3    0    0 -0.47837009286E+02  0.11002125236E+02 -0.27020295137E+02  0.56031442661E+02  0.51100000000E-03 0. -1.
         22    1    1    0    0    0  0.21150615335E+02  0.15117634646E+02  0.13146181455E+02  0.29132687709E+02  0.00000000000E+00 0. -1.
</event>
<event>
 5    1  0.8957809E-005  0.9118800E+02  0.7818608E-02  0.1130116E+00
         25   -1    0    0    0    0  0.00000000000E+00  0.00000000000E+00  0.99999998245E-14  0.12500000000E+03  0.12500000000E+03 0.  0.
        -11    1    3    3    0    0  0.35232799046E+02 -0.15298132909E+02 -0.16693912230E+02  0.41881615357E+02  0.51100000000E-03 0.  1.
         23    2    1    0    0    0 -0.12173864248E+02  0.59002572093E+01 -0.26977596374E+02  0.94820425583E+02  0.89889412033E+02 0.  0.
         11    1    3    3    0    0 -0.47406663294E+02  0.21198390119E+02 -0.10283684145E+02  0.52938810226E+02  0.51100000000E-03 0. -1.
         22    1    1    0    0    0  0.12173864248E+02 -0.59002572093E+01  0.26977596374E+02  0.30179574417E+02  0.00000000000E+00 0.  1.
</event>
<event>
 5    1  0.8957809E-005  0.9118800E+02  0.7818608E-02  0.1130116E+00
         25   -1    0    0    0    0  0.00000000000E+00  0.00000000000E+00  0.99999998245E-14  0.12500000000E+03  0.12500000000E+03 0.  0.
        -11    1    3    3    0    0 -0.12057569445E+02  0.49418349735E+02 -0.26318143232E+02  0.57273055924E+02  0.51100000000E-03 0.  1.
         23    2    1    0    0    0 -0.37917742106E+01  0.28743940026E+02  0.48775489866E+01  0.95599623744E+02  0.90966509969E+02 0.  0.
         11    1    3    3    0    0  0.82657952343E+01 -0.20674409708E+02  0.31195692218E+02  0.38326567820E+02  0.51100000000E-03 0. -1.
         22    1    1    0    0    0  0.37917742106E+01 -0.28743940026E+02 -0.48775489866E+01  0.29400376256E+02  0.00000000000E+00 0.  1.
</event>
<event>
 5    1  0.8957809E-005  0.9118800E+02  0.7818608E-02  0.1130116E+00
         25   -1    0    0    0    0  0.00000000000E+00  0.00000000000E+00  0.99999998245E-14  0.12500000000E+03  0.12500000000E+03 0.  0.
        -11    1    3    3    0    0 -0.49878386554E+02  0.25477391035E+02 -0.97717330787E+01  0.56854530750E+02  0.51100000000E-03 0.  1.
         23    2    1    0    0    0 -0.11917702211E+02  0.26851637135E+02 -0.58887828769E+01  0.95038027325E+02  0.90191500881E+02 0.  0.
         11    1    3    3    0    0  0.37960684343E+02  0.13742461004E+01  0.38829502017E+01  0.38183496575E+02  0.51100000000E-03 0. -1.
         22    1    1    0    0    0  0.11917702211E+02 -0.26851637135E+02  0.58887828769E+01  0.29961972675E+02  0.00000000000E+00 0.  1.
</event>
<event>
 5    1  0.8957809E-005  0.9118800E+02  0.7818608E-02  0.1130116E+00
         25   -1    0    0    0    0  0.00000000000E+00  0.00000000000E+00  0.99999998245E-14  0.12500000000E+03  0.12500000000E+03 0.  0.
        -11    1    3    3    0    0 -0.49510986675E+02  0.61091955688E+00 -0.17059043193E+02  0.52371003228E+02  0.51100000000E-03 0.  1.
         23    2    1    0    0    0 -0.18095368339E+02  0.23492244362E+02  0.12230276898E+01  0.95321325885E+02  0.90583284723E+02 0.  0.
         11    1    3    3    0    0  0.31415618336E+02  0.22881324806E+02  0.18282070883E+02  0.42950322656E+02  0.51100000000E-03 0. -1.
         22    1    1    0    0    0  0.18095368339E+02 -0.23492244362E+02 -0.12230276898E+01  0.29678674115E+02  0.00000000000E+00 0.  1.
</event>
<event>
 5    1  0.8957809E-005  0.9118800E+02  0.7818608E-02  0.1130116E+00
         25   -1    0    0    0    0  0.00000000000E+00  0.00000000000E+00  0.99999998245E-14  0.12500000000E+03  0.12500000000E+03 0.  0.
        -11    1    3    3    0    0  0.31347872448E+02 -0.69304493953E+01  0.24421098397E+02  0.40337455088E+02  0.51100000000E-03 0.  1.
         23    2    1    0    0    0 -0.22555538272E+02 -0.13158074084E+02  0.13171124733E+02  0.95753363491E+02  0.91177523946E+02 0.  0.
         11    1    3    3    0    0 -0.53903410719E+02 -0.62276246887E+01 -0.11249973664E+02  0.55415908403E+02  0.51100000000E-03 0. -1.
         22    1    1    0    0    0  0.22555538272E+02  0.13158074084E+02 -0.13171124733E+02  0.29246636509E+02  0.00000000000E+00 0.  1.
</event>
<event>
 5    1  0.8957809E-005  0.9118800E+02  0.7818608E-02  0.1130116E+00
         25   -1    0    0    0    0  0.00000000000E+00  0.00000000000E+00  0.99999998245E-14  0.12500000000E+03  0.12500000000E+03 0.  0.
        -11    1    3    3    0    0 -0.32673839376E+01 -0.43102351571E+02 -0.40061948823E+02  0.58935967393E+02  0.51100000000E-03 0. -1.
         23    2    1    0    0    0 -0.13634458917E+02 -0.25718940601E+02 -0.12050054045E+02  0.93494981700E+02  0.88026958512E+02 0.  0.
         11    1    3    3    0    0 -0.10367074979E+02  0.17383410970E+02  0.28011894778E+02  0.34559014307E+02  0.51100000000E-03 0.  1.
         22    1    1    0    0    0  0.13634458917E+02  0.25718940601E+02  0.12050054045E+02  0.31505018300E+02  0.00000000000E+00 0. -1.
</event>
<event>
 5    1  0.8957809E-005  0.9118800E+02  0.7818608E-02  0.1130116E+00
         25   -1    0    0    0    0  0.00000000000E+00  0.00000000000E+00  0.99999998245E-14  0.12500000000E+03  0.12500000000E+03 0.  0.
        -11    1    3    3    0    0  0.22012455813E+02  0.27790203331E+02  0.30243751371E+02  0.46599657825E+02  0.51100000000E-03 0.  1.
         23    2    1    0    0    0  0.24948419004E+02 -0.14255007858E+02  0.46976768148E+01  0.95884762971E+02  0.91357488706E+02 0.  0.
         11    1    3    3    0    0  0.29359631905E+01 -0.42045211188E+02 -0.25546074557E+02  0.49285105146E+02  0.51100000000E-03 0. -1.
         22    1    1    0    0    0 -0.24948419004E+02  0.14255007858E+02 -0.46976768148E+01  0.29115237029E+02  0.00000000000E+00 0. -1.
</event>
<event>
 5    1  0.8957809E-005  0.9118800E+02  0.7818608E-02  0.1130116E+00
         25   -1    0    0    0    0  0.00000000000E+00  0.00000000000E+00  0.99999998245E-14  0.12500000000E+03  0.12500000000E+03 0.  0.
        -11    1    3    3    0    0  0.21691077984E+02  0.26803533704E+02 -0.21006860755E+02  0.40375988931E+02  0.51100000000E-03 0. -1.
         23    2    1    0    0    0 -0.25039923513E+02  0.95510403654E+01  0.66981338265E+01  0.97376004301E+02  0.93375591432E+02 0.  0.
         11    1    3    3    0    0 -0.46731001497E+02 -0.17252493338E+02  0.27704994581E+02  0.57000015371E+02  0.51100000000E-03 0.  1.
         22    1    1    0    0    0  0.25039923513E+02 -0.95510403654E+01 -0.66981338265E+01  0.27623995699E+02  0.00000000000E+00 0.  1.
</event>
<event>
 5    1  0.8957809E-005  0.9118800E+02  0.7818608E-02  0.1130116E+00
         25   -1    0    0    0    0  0.00000000000E+00  0.00000000000E+00  0.99999998245E-14  0.12500000000E+03  0.12500000000E+03 0.  0.
        -11    1    3    3    0    0  0.22481548773E+02 -0.29259784816E+02  0.73154575125E+01  0.37617428961E+02  0.51100000000E-03 0. -1.
         23    2    1    0    0    0 -0.20933991050E+02  0.31251244999E+01  0.22739388834E+02  0.93934292396E+02  0.88648593327E+02 0.  0.
         11    1    3    3    0    0 -0.43415539822E+02  0.32384909316E+02  0.15423931322E+02  0.56316863435E+02  0.51100000000E-03 0.  1.
         22    1    1    0    0    0  0.20933991050E+02 -0.31251244999E+01 -0.22739388834E+02  0.31065707604E+02  0.00000000000E+00 0.  1.
</event>
<event>
 5    1  0.8957809E-005  0.9118800E+02  0.7818608E-02  0.1130116E+00
         25   -1    0    0    0    0  0.00000000000E+00  0.00000000000E+00  0.99999998245E-14  0.12500000000E+03  0.12500000000E+03 0.  0.
        -11    1    3    3    0    0 -0.86906457365E+01 -0.12474166442E+02  0.57433363196E+02  0.59411474986E+02  0.51100000000E-03 0. -1.
         23    2    1    0    0    0  0.64722065286E+01  0.33320607234E+01  0.27810643829E+02  0.96252408863E+02  0.91859143343E+02 0.  0.
         11    1    3    3    0    0  0.15162852265E+02  0.15806227165E+02 -0.29622719367E+02  0.36840933878E+02  0.51100000000E-03 0.  1.
         22    1    1    0    0    0 -0.64722065286E+01 -0.33320607234E+01 -0.27810643829E+02  0.28747591137E+02  0.00000000000E+00 0. -1.
</event>
<event>
 5    1  0.8957809E-005  0.9118800E+02  0.7818608E-02  0.1130116E+00
         25   -1    0    0    0    0  0.00000000000E+00  0.00000000000E+00  0.99999998245E-14  0.12500000000E+03  0.12500000000E+03 0.  0.
        -11    1    3    3    0    0 -0.44356993721E+02 -0.38981303540E+02 -0.27020682810E+01  0.59113332599E+02  0.51100000000E-03 0.  1.
         23    2    1    0    0    0 -0.23619457116E+02 -0.11571614336E+02  0.11489191508E+02  0.96298387949E+02  0.91921689428E+02 0.  0.
         11    1    3    3    0    0  0.20737536605E+02  0.27409689204E+02  0.14191259789E+02  0.37185055350E+02  0.51100000000E-03 0. -1.
         22    1    1    0    0    0  0.23619457116E+02  0.11571614336E+02 -0.11489191508E+02  0.28701612051E+02  0.00000000000E+00 0.  1.
</event>
<event>
 5    1  0.8957809E-005  0.9118800E+02  0.7818608E-02  0.1130116E+00
         25   -1    0    0    0    0  0.00000000000E+00  0.00000000000E+00  0.99999998245E-14  0.12500000000E+03  0.12500000000E+03 0.  0.
        -11    1    3    3    0    0  0.51966144303E+02 -0.14104652225E+02 -0.23112139542E+02  0.58596863078E+02  0.51100000000E-03 0.  1.
         23    2    1    0    0    0  0.14477500797E+02  0.60911643682E+01 -0.17397788867E+02  0.10156107148E+03  0.98819369913E+02 0.  0.
         11    1    3    3    0    0 -0.37488643506E+02  0.20195816593E+02  0.57143506748E+01  0.42964208403E+02  0.51100000000E-03 0. -1.
         22    1    1    0    0    0 -0.14477500797E+02 -0.60911643682E+01  0.17397788867E+02  0.23438928520E+02  0.00000000000E+00 0.  1.
</event>
<event>
 5    1  0.8957809E-005  0.9118800E+02  0.7818608E-02  0.1130116E+00
         25   -1    0    0    0    0  0.00000000000E+00  0.00000000000E+00  0.99999998245E-14  0.12500000000E+03  0.12500000000E+03 0.  0.
        -11    1    3    3    0    0  0.60560522041E+02  0.11931511611E+02  0.25658701286E+01  0.61778001659E+02  0.51100000000E-03 0.  1.
         23    2    1    0    0    0  0.30159928236E+02 -0.37030054167E+00 -0.13583105267E+01  0.94807229322E+02  0.89871059472E+02 0.  0.
         11    1    3    3    0    0 -0.30400593805E+02 -0.12301812153E+02 -0.39241806553E+01  0.33029227663E+02  0.51100000000E-03 0. -1.
         22    1    1    0    0    0 -0.30159928236E+02  0.37030054167E+00  0.13583105267E+01  0.30192770678E+02  0.00000000000E+00 0.  1.
</event>
<event>
 5    1  0.8957809E-005  0.9118800E+02  0.7818608E-02  0.1130116E+00
         25   -1    0    0    0    0  0.00000000000E+00  0.00000000000E+00  0.99999998245E-14  0.12500000000E+03  0.12500000000E+03 0.  0.
        -11    1    3    3    0    0 -0.22127745574E+02  0.47618611854E+02  0.69044080318E+01  0.52960741778E+02  0.51100000000E-03 0. -1.
         23    2    1    0    0    0 -0.24884438078E+02  0.10564161875E+02 -0.12877790653E+02  0.95055480189E+02  0.90215686259E+02 0.  0.
         11    1    3    3    0    0 -0.27566925039E+01 -0.37054449979E+02 -0.19782198685E+02  0.42094738411E+02  0.51100000000E-03 0.  1.
         22    1    1    0    0    0  0.24884438078E+02 -0.10564161875E+02  0.12877790653E+02  0.29944519811E+02  0.00000000000E+00 0. -1.
</event>
<event>
 5    1  0.8957809E-005  0.9118800E+02  0.7818608E-02  0.1130116E+00
         25   -1    0    0    0    0  0.00000000000E+00  0.00000000000E+00  0.99999998245E-14  0.12500000000E+03  0.12500000000E+03 0.  0.
        -11    1    3    3    0    0 -0.28264885078E+02 -0.64899161811E+01  0.17525847985E+02  0.33884776646E+02  0.51100000000E-03 0.  1.
         23    2    1    0    0    0  0.20098476807E+02 -0.24437673798E+02 -0.92885992927E+01  0.92023845776E+02  0.85912522044E+02 0.  0.
         11    1    3    3    0    0  0.48363361885E+02 -0.17947757616E+02 -0.26814447277E+02  0.58139069130E+02  0.51100000000E-03 0. -1.
         22    1    1    0    0    0 -0.20098476807E+02  0.24437673798E+02  0.92885992927E+01  0.32976154224E+02  0.00000000000E+00 0. -1.
</event>
<event>
 5    1  0.8957809E-005  0.9118800E+02  0.7818608E-02  0.1130116E+00
         25   -1    0    0    0    0  0.00000000000E+00  0.00000000000E+00  0.99999998245E-14  0.12500000000E+03  0.12500000000E+03 0.  0.
        -11    1    3    3    0    0  0.35186403704E+02 -0.41120611074E+02  0.14313443316E+02  0.55980910322E+02  0.51100000000E-03 0.  1.
         23    2    1    0    0    0  0.18126187588E+01 -0.20483943320E+02  0.20798341174E+02  0.95751948504E+02  0.91175584046E+02 0.  0.
         11    1    3    3    0    0 -0.33373784945E+02  0.20636667754E+02  0.64848978583E+01  0.39771038182E+02  0.51100000000E-03 0. -1.
         22    1    1    0    0    0 -0.18126187588E+01  0.20483943320E+02 -0.20798341174E+02  0.29248051496E+02  0.00000000000E+00 0.  1.
</event>
<event>
 5    1  0.8957809E-005  0.9118800E+02  0.7818608E-02  0.1130116E+00
         25   -1    0    0    0    0  0.00000000000E+00  0.00000000000E+00  0.99999998245E-14  0.12500000000E+03  0.12500000000E+03 0.  0.
        -11    1    3    3    0    0 -0.19484315813E+02  0.68891377260E-01  0.37552348124E+02  0.42306289823E+02  0.51100000000E-03 0.  1.
         23    2    1    0    0    0  0.72558298151E+01  0.30610542049E+02  0.79346271627E+01  0.92556038173E+02  0.86683386777E+02 0.  0.
         11    1    3    3    0    0  0.26740145628E+02  0.30541650672E+02 -0.29617720962E+02  0.50249748349E+02  0.51100000000E-03 0. -1.
         22    1    1    0    0    0 -0.72558298151E+01 -0.30610542049E+02 -0.79346271627E+01  0.32443961827E+02  0.00000000000E+00 0.  1.
</event>
<event>
 5    1  0.8957809E-005  0.9118800E+02  0.7818608E-02  0.1130116E+00
         25   -1    0    0    0    0  0.00000000000E+00  0.00000000000E+00  0.99999998245E-14  0.12500000000E+03  0.12500000000E+03 0.  0.
        -11    1    3    3    0    0 -0.25133927558E+02  0.24060526381E+02  0.16738779749E+02  0.38611008689E+02  0.51100000000E-03 0. -1.
         23    2    1    0    0    0  0.12284988336E+01 -0.24430839561E+02  0.19265082645E+02  0.93862907323E+02  0.88547878748E+02 0.  0.
         11    1    3    3    0    0  0.26362426391E+02 -0.48491365942E+02  0.25263028960E+01  0.55251898635E+02  0.51100000000E-03 0.  1.
         22    1    1    0    0    0 -0.12284988336E+01  0.24430839561E+02 -0.19265082645E+02  0.31137092677E+02  0.00000000000E+00 0.  1.
</event>
<event>
 5    1  0.8957809E-005  0.9118800E+02  0.7818608E-02  0.1130116E+00
         25   -1    0    0    0    0  0.00000000000E+00  0.00000000000E+00  0.99999998245E-14  0.12500000000E+03  0.12500000000E+03 0.  0.
        -11    1    3    3    0    0 -0.38401897035E+02  0.35660805034E+02  0.14568936490E+02  0.54393497977E+02  0.51100000000E-03 0.  1.
         23    2    1    0    0    0 -0.69292561551E+00  0.30984546334E+02  0.46866886845E+01  0.93655346417E+02  0.88254385750E+02 0.  0.
         11    1    3    3    0    0  0.37708971419E+02 -0.46762586999E+01 -0.98822478052E+01  0.39261848439E+02  0.51100000000E-03 0. -1.
         22    1    1    0    0    0  0.69292561551E+00 -0.30984546334E+02 -0.46866886845E+01  0.31344653583E+02  0.00000000000E+00 0.  1.
</event>
<event>
 5    1  0.8957809E-005  0.9118800E+02  0.7818608E-02  0.1130116E+00
         25   -1    0    0    0    0  0.00000000000E+00  0.00000000000E+00  0.99999998245E-14  0.12500000000E+03  0.12500000000E+03 0.  0.
        -11    1    3    3    0    0 -0.23642968326E+01  0.45867517585E+02  0.35556912750E+02  0.58083673381E+02  0.51100000000E-03 0. -1.
         23    2    1    0    0    0 -0.74362068045E+01  0.82829074717E+01  0.25281784556E+02  0.97376235627E+02  0.93375901102E+02 0.  0.
         11    1    3    3    0    0 -0.50719099719E+01 -0.37584610113E+02 -0.10275128194E+02  0.39292562245E+02  0.51100000000E-03 0.  1.
         22    1    1    0    0    0  0.74362068045E+01 -0.82829074717E+01 -0.25281784556E+02  0.27623764373E+02  0.00000000000E+00 0. -1.
</event>
<event>
 5    1  0.8957809E-005  0.9118800E+02  0.7818608E-02  0.1130116E+00
         25   -1    0    0    0    0  0.00000000000E+00  0.00000000000E+00  0.99999998245E-14  0.12500000000E+03  0.12500000000E+03 0.  0.
        -11    1    3    3    0    0  0.96588927472E+01 -0.11953161655E+02 -0.58260989452E+02  0.60253756521E+02  0.51100000000E-03 0.  1.
         23    2    1    0    0    0 -0.55028443220E+01 -0.58992026631E+00 -0.31346637079E+02  0.93168553949E+02  0.87562197821E+02 0.  0.
         11    1    3    3    0    0 -0.15161737069E+02  0.11363241389E+02  0.26914352373E+02  0.32914797428E+02  0.51100000000E-03 0. -1.
         22    1    1    0    0    0  0.55028443220E+01  0.58992026631E+00  0.31346637079E+02  0.31831446051E+02  0.00000000000E+00 0.  1.
</event>
<event>
 5    1  0.8957809E-005  0.9118800E+02  0.7818608E-02  0.1130116E+00
         25   -1    0    0    0    0  0.00000000000E+00  0.00000000000E+00  0.99999998245E-14  0.12500000000E+03  0.12500000000E+03 0.  0.
        -11    1    3    3    0    0 -0.41912573262E+01 -0.55273992405E+02 -0.10435949245E+02  0.56406470473E+02  0.51100000000E-03 0.  1.
         23    2    1    0    0    0 -0.68345076080E+01 -0.18541810575E+02 -0.22400797888E+02  0.95128525653E+02  0.90316839035E+02 0.  0.
         11    1    3    3    0    0 -0.26432502818E+01  0.36732181830E+02 -0.11964848644E+02  0.38722055180E+02  0.51100000000E-03 0. -1.
         22    1    1    0    0    0  0.68345076080E+01  0.18541810575E+02  0.22400797888E+02  0.29871474347E+02  0.00000000000E+00 0.  1.
</event>
<event>
 5    1  0.8957809E-005  0.9118800E+02  0.7818608E-02  0.1130116E+00
         25   -1    0    0    0    0  0.00000000000E+00  0.00000000000E+00  0.99999998245E-14  0.12500000000E+03  0.12500000000E+03 0.  0.
        -11    1    3    3    0    0  0.24465366970E+02  0.12234361970E+02  0.21732048421E+02  0.34935880161E+02  0.51100000000E-03 0.  1.
         23    2    1    0    0    0 -0.15780433922E+02 -0.24795319170E+02 -0.39313806064E+01  0.95347248003E+02  0.90619048775E+02 0.  0.
         11    1    3    3    0    0 -0.40245800892E+02 -0.37029681140E+02 -0.25663429028E+02  0.60411367842E+02  0.51100000000E-03 0. -1.
         22    1    1    0    0    0  0.15780433922E+02  0.24795319170E+02  0.39313806064E+01  0.29652751997E+02  0.00000000000E+00 0. -1.
</event>
<event>
 5    1  0.8957809E-005  0.9118800E+02  0.7818608E-02  0.1130116E+00
         25   -1    0    0    0    0  0.00000000000E+00  0.00000000000E+00  0.99999998245E-14  0.12500000000E+03  0.12500000000E+03 0.  0.
        -11    1    3    3    0    0 -0.16191787004E+02  0.17358861022E+02 -0.56540458201E+02  0.61321508757E+02  0.51100000000E-03 0.  1.
         23    2    1    0    0    0 -0.37963515917E+01  0.15154760642E+02 -0.22566277518E+02  0.97553398452E+02  0.93612764156E+02 0.  0.
         11    1    3    3    0    0  0.12395435412E+02 -0.22041003800E+01  0.33974180683E+02  0.36231889695E+02  0.51100000000E-03 0. -1.
         22    1    1    0    0    0  0.37963515917E+01 -0.15154760642E+02  0.22566277518E+02  0.27446601548E+02  0.00000000000E+00 0.  1.
</event>
<event>
 5    1  0.8957809E-005  0.9118800E+02  0.7818608E-02  0.1130116E+00
         25   -1    0    0    0    0  0.00000000000E+00  0.00000000000E+00  0.99999998245E-14  0.12500000000E+03  0.12500000000E+03 0.  0.
        -11    1    3    3    0    0  0.34165744008E+02 -0.15111526473E+02  0.21549967723E+02  0.43128382825E+02  0.51100000000E-03 0. -1.
         23    2    1    0    0    0 -0.48921402918E+01  0.19450082070E+02  0.21927749159E+02  0.95283591866E+02  0.90531198858E+02 0.  0.
         11    1    3    3    0    0 -0.39057884300E+02  0.34561608544E+02  0.37778143639E+00  0.52155209042E+02  0.51100000000E-03 0.  1.
         22    1    1    0    0    0  0.48921402918E+01 -0.19450082070E+02 -0.21927749159E+02  0.29716408134E+02  0.00000000000E+00 0.  1.
</event>
<event>
 5    1  0.8957809E-005  0.9118800E+02  0.7818608E-02  0.1130116E+00
         25   -1    0    0    0    0  0.00000000000E+00  0.00000000000E+00  0.99999998245E-14  0.12500000000E+03  0.12500000000E+03 0.  0.
        -11    1    3    3    0    0  0.13447710770E+01  0.30974014934E+02 -0.15807823819E+02  0.34800650921E+02  0.51100000000E-03 0.  1.
         23    2    1    0    0    0  0.40003754246E+02  0.30294181467E+01 -0.13906280866E+02  0.82539873109E+02  0.70781129386E+02 0.  0.
         11    1    3    3    0    0  0.38658983169E+02 -0.27944596787E+02  0.19015429525E+01  0.47739222188E+02  0.51100000000E-03 0. -1.
         22    1    1    0    0    0 -0.40003754246E+02 -0.30294181467E+01  0.13906280866E+02  0.42460126891E+02  0.00000000000E+00 0. -1.
</event>
<event>
 5    1  0.8957809E-005  0.9118800E+02  0.7818608E-02  0.1130116E+00
         25   -1    0    0    0    0  0.00000000000E+00  0.00000000000E+00  0.99999998245E-14  0.12500000000E+03  0.12500000000E+03 0.  0.
        -11    1    3    3    0    0  0.16497870339E+02 -0.37424460401E+02  0.10368005989E+02  0.42193192703E+02  0.51100000000E-03 0. -1.
         23    2    1    0    0    0 -0.15395384611E+02 -0.83674499322E+01 -0.22536108274E+02  0.96453401922E+02  0.92132244521E+02 0.  0.
         11    1    3    3    0    0 -0.31893254951E+02  0.29057010469E+02 -0.32904114263E+02  0.54260209219E+02  0.51100000000E-03 0.  1.
         22    1    1    0    0    0  0.15395384611E+02  0.83674499322E+01  0.22536108274E+02  0.28546598078E+02  0.00000000000E+00 0.  1.
</event>
<event>
 5    1  0.8957809E-005  0.9118800E+02  0.7818608E-02  0.1130116E+00
         25   -1    0    0    0    0  0.00000000000E+00  0.00000000000E+00  0.99999998245E-14  0.12500000000E+03  0.12500000000E+03 0.  0.
        -11    1    3    3    0    0 -0.54374442738E+02  0.13901493264E+02 -0.65939346024E+01  0.56509393129E+02  0.51100000000E-03 0. -1.
         23    2    1    0    0    0 -0.12659049782E+02  0.18476280502E+02 -0.13216497228E+02  0.98994225995E+02  0.95517309943E+02 0.  0.
         11    1    3    3    0    0  0.41715392955E+02  0.45747872380E+01 -0.66225626260E+01  0.42484832866E+02  0.51100000000E-03 0.  1.
         22    1    1    0    0    0  0.12659049782E+02 -0.18476280502E+02  0.13216497228E+02  0.26005774005E+02  0.00000000000E+00 0. -1.
</event>
<event>
 5    1  0.8957809E-005  0.9118800E+02  0.7818608E-02  0.1130116E+00
         25   -1    0    0    0    0  0.00000000000E+00  0.00000000000E+00  0.99999998245E-14  0.12500000000E+03  0.12500000000E+03 0.  0.
        -11    1    3    3    0    0 -0.31248308785E+00 -0.40531338856E+02  0.37018778844E+02  0.54893324390E+02  0.51100000000E-03 0. -1.
         23    2    1    0    0    0 -0.11653552353E+01 -0.84169308971E+00  0.29705013193E+02  0.95260223456E+02  0.90498927419E+02 0.  0.
         11    1    3    3    0    0 -0.85287214743E+00  0.39689645766E+02 -0.73137656512E+01  0.40366899066E+02  0.51100000000E-03 0.  1.
         22    1    1    0    0    0  0.11653552353E+01  0.84169308971E+00 -0.29705013193E+02  0.29739776544E+02  0.00000000000E+00 0. -1.
</event>
<event>
 5    1  0.8957809E-005  0.9118800E+02  0.7818608E-02  0.1130116E+00
         25   -1    0    0    0    0  0.00000000000E+00  0.00000000000E+00  0.99999998245E-14  0.12500000000E+03  0.12500000000E+03 0.  0.
        -11    1    3    3    0    0 -0.15943995792E+02 -0.59947457604E+01 -0.31123207958E+02  0.35479600511E+02  0.51100000000E-03 0.  1.
         23    2    1    0    0    0  0.21279466066E+01  0.25944419082E+02  0.15415500209E+02  0.94746426906E+02  0.89786450685E+02 0.  0.
         11    1    3    3    0    0  0.18071942398E+02  0.31939164842E+02  0.46538708167E+02  0.59266826395E+02  0.51100000000E-03 0. -1.
         22    1    1    0    0    0 -0.21279466066E+01 -0.25944419082E+02 -0.15415500209E+02  0.30253573094E+02  0.00000000000E+00 0. -1.
</event>
<event>
 5    1  0.8957809E-005  0.9118800E+02  0.7818608E-02  0.1130116E+00
         25   -1    0    0    0    0  0.00000000000E+00  0.00000000000E+00  0.99999998245E-14  0.12500000000E+03  0.12500000000E+03 0.  0.
        -11    1    3    3    0    0 -0.34646759368E+02  0.19591387754E+02 -0.72709897273E+00  0.39808907068E+02  0.51100000000E-03 0.  1.
         23    2    1    0    0    0  0.50938667561E+01 -0.83866026286E+01  0.27353927866E+02  0.95939374544E+02  0.91432180528E+02 0.  0.
         11    1    3    3    0    0  0.39740626124E+02 -0.27977990382E+02  0.28081026839E+02  0.56130467476E+02  0.51100000000E-03 0. -1.
         22    1    1    0    0    0 -0.50938667561E+01  0.83866026286E+01 -0.27353927866E+02  0.29060625456E+02  0.00000000000E+00 0. -1.
</event>
<event>
 5    1  0.8957809E-005  0.9118800E+02  0.7818608E-02  0.1130116E+00
         25   -1    0    0    0    0  0.00000000000E+00  0.00000000000E+00  0.99999998245E-14  0.12500000000E+03  0.12500000000E+03 0.  0.
        -11    1    3    3    0    0  0.25522609021E+02  0.37388388347E+01 -0.11021787371E+02  0.28051065651E+02  0.51100000000E-03 0.  1.
         23    2    1    0    0    0  0.63817348055E+01  0.31664874218E+02  0.29776801935E+02  0.81067680099E+02  0.68131637474E+02 0.  0.
         11    1    3    3    0    0 -0.19140874215E+02  0.27926035383E+02  0.40798589306E+02  0.53016614448E+02  0.51100000000E-03 0. -1.
         22    1    1    0    0    0 -0.63817348055E+01 -0.31664874218E+02 -0.29776801935E+02  0.43932319901E+02  0.00000000000E+00 0. -1.
</event>
<event>
 5    1  0.8957809E-005  0.9118800E+02  0.7818608E-02  0.1130116E+00
         25   -1    0    0    0    0  0.00000000000E+00  0.00000000000E+00  0.99999998245E-14  0.12500000000E+03  0.12500000000E+03 0.  0.
        -11    1    3    3    0    0 -0.46929548352E+02  0.30429131465E+02  0.11143278880E+02  0.57030581399E+02  0.51100000000E-03 0.  1.
         23    2    1    0    0    0 -0.19644149592E+02  0.29318366546E+02 -0.58978479098E+01  0.89219504754E+02  0.81730509532E+02 0.  0.
         11    1    3    3    0    0  0.27285398760E+02 -0.11107649191E+01 -0.17041126790E+02  0.32188923355E+02  0.51100000000E-03 0. -1.
         22    1    1    0    0    0  0.19644149592E+02 -0.29318366546E+02  0.58978479098E+01  0.35780495246E+02  0.00000000000E+00 0.  1.
</event>
<event>
 5    1  0.8957809E-005  0.9118800E+02  0.7818608E-02  0.1130116E+00
         25   -1    0    0    0    0  0.00000000000E+00  0.00000000000E+00  0.99999998245E-14  0.12500000000E+03  0.12500000000E+03 0.  0.
        -11    1    3    3    0    0 -0.53388864834E+00  0.13965461051E+02  0.58992323923E+02  0.60625188013E+02  0.51100000000E-03 0.  1.
         23    2    1    0    0    0 -0.47878392311E+01 -0.29352702082E+01  0.30208159130E+02  0.94274243805E+02  0.89126656794E+02 0.  0.
         11    1    3    3    0    0 -0.42539505828E+01 -0.16900731260E+02 -0.28784164793E+02  0.33649055793E+02  0.51100000000E-03 0. -1.
         22    1    1    0    0    0  0.47878392311E+01  0.29352702082E+01 -0.30208159130E+02  0.30725756195E+02  0.00000000000E+00 0.  1.
</event>
<event>
 5    1  0.8957809E-005  0.9118800E+02  0.7818608E-02  0.1130116E+00
         25   -1    0    0    0    0  0.00000000000E+00  0.00000000000E+00  0.99999998245E-14  0.12500000000E+03  0.12500000000E+03 0.  0.
        -11    1    3    3    0    0 -0.51033267251E+02  0.23166400313E+02 -0.16934722145E+02  0.58547940051E+02  0.51100000000E-03 0.  1.
         23    2    1    0    0    0 -0.21222358139E+02  0.15966832907E+02 -0.23067118983E+02  0.89823015817E+02  0.82648375387E+02 0.  0.
         11    1    3    3    0    0  0.29810909112E+02 -0.71995674057E+01 -0.61323968374E+01  0.31275075766E+02  0.51100000000E-03 0. -1.
         22    1    1    0    0    0  0.21222358139E+02 -0.15966832907E+02  0.23067118983E+02  0.35176984183E+02  0.00000000000E+00 0.  1.
</event>
<event>
 5    1  0.8957809E-005  0.9118800E+02  0.7818608E-02  0.1130116E+00
         25   -1    0    0    0    0  0.00000000000E+00  0.00000000000E+00  0.99999998245E-14  0.12500000000E+03  0.12500000000E+03 0.  0.
        -11    1    3    3    0    0 -0.41080940120E+01 -0.30762406945E+02 -0.21719095567E+00  0.31036257662E+02  0.51100000000E-03 0.  1.
         23    2    1    0    0    0  0.21012219302E+02  0.23816866430E+02 -0.95384800604E+01  0.91837685720E+02  0.85641236738E+02 0.  0.
         11    1    3    3    0    0  0.25120313314E+02  0.54579273375E+02 -0.93212891047E+01  0.60801428059E+02  0.51100000000E-03 0. -1.
         22    1    1    0    0    0 -0.21012219302E+02 -0.23816866430E+02  0.95384800604E+01  0.33162314280E+02  0.00000000000E+00 0. -1.
</event>
<event>
 5    1  0.8957809E-005  0.9118800E+02  0.7818608E-02  0.1130116E+00
         25   -1    0    0    0    0  0.00000000000E+00  0.00000000000E+00  0.99999998245E-14  0.12500000000E+03  0.12500000000E+03 0.  0.
        -11    1    3    3    0    0 -0.89197041398E+01  0.16813726722E+02  0.33271869392E+02  0.38331186015E+02  0.51100000000E-03 0. -1.
         23    2    1    0    0    0  0.19034648210E+02 -0.23388888302E+02  0.64496520724E+01  0.94162426484E+02  0.88969694958E+02 0.  0.
         11    1    3    3    0    0  0.27954352350E+02 -0.40202615024E+02 -0.26822217320E+02  0.55831240469E+02  0.51100000000E-03 0.  1.
         22    1    1    0    0    0 -0.19034648210E+02  0.23388888302E+02 -0.64496520724E+01  0.30837573516E+02  0.00000000000E+00 0. -1.
</event>
<event>
 5    1  0.8957809E-005  0.9118800E+02  0.7818608E-02  0.1130116E+00
         25   -1    0    0    0    0  0.00000000000E+00  0.00000000000E+00  0.99999998245E-14  0.12500000000E+03  0.12500000000E+03 0.  0.
        -11    1    3    3    0    0 -0.14977417958E+02 -0.77606287717E+01  0.39363473070E+02  0.42825616400E+02  0.51100000000E-03 0. -1.
         23    2    1    0    0    0 -0.51041512866E+01 -0.77453960504E+01 -0.19973097268E+02  0.10297800793E+03  0.10059573541E+03 0.  0.
         11    1    3    3    0    0  0.98732666717E+01  0.15232721349E-01 -0.59336570338E+02  0.60152391528E+02  0.51100000000E-03 0.  1.
         22    1    1    0    0    0  0.51041512866E+01  0.77453960504E+01  0.19973097268E+02  0.22021992072E+02  0.00000000000E+00 0.  1.
</event>
<event>
 5    1  0.8957809E-005  0.9118800E+02  0.7818608E-02  0.1130116E+00
         25   -1    0    0    0    0  0.00000000000E+00  0.00000000000E+00  0.99999998245E-14  0.12500000000E+03  0.12500000000E+03 0.  0.
        -11    1    3    3    0    0 -0.95814967452E+01 -0.31143562087E+02 -0.13505357606E+02  0.35272102626E+02  0.51100000000E-03 0.  1.
         23    2    1    0    0    0 -0.17668313662E+01 -0.10596835834E+01  0.33397395443E+02  0.91539117693E+02  0.85204339228E+02 0.  0.
         11    1    3    3    0    0  0.78146653789E+01  0.30083878504E+02  0.46902753048E+02  0.56267015067E+02  0.51100000000E-03 0. -1.
         22    1    1    0    0    0  0.17668313662E+01  0.10596835834E+01 -0.33397395443E+02  0.33460882307E+02  0.00000000000E+00 0. -1.
</event>
<event>
 5    1  0.8957809E-005  0.9118800E+02  0.7818608E-02  0.1130116E+00
         25   -1    0    0    0    0  0.00000000000E+00  0.00000000000E+00  0.99999998245E-14  0.12500000000E+03  0.12500000000E+03 0.  0.
        -11    1    3    3    0    0 -0.46158081239E+02 -0.36657746528E+01  0.22146478923E+02  0.51327116580E+02  0.51100000000E-03 0.  1.
         23    2    1    0    0    0 -0.24949329280E+02  0.95488482662E+01 -0.13663793926E+02  0.94994187243E+02  0.90130720683E+02 0.  0.
         11    1    3    3    0    0  0.21208751959E+02  0.13214622919E+02 -0.35810272849E+02  0.43667070663E+02  0.51100000000E-03 0. -1.
         22    1    1    0    0    0  0.24949329280E+02 -0.95488482662E+01  0.13663793926E+02  0.30005812757E+02  0.00000000000E+00 0.  1.
</event>
<event>
 5    1  0.8957809E-005  0.9118800E+02  0.7818608E-02  0.1130116E+00
         25   -1    0    0    0    0  0.00000000000E+00  0.00000000000E+00  0.99999998245E-14  0.12500000000E+03  0.12500000000E+03 0.  0.
        -11    1    3    3    0    0  0.37393392752E+01  0.12875084385E+02  0.18539881220E+02  0.22879634002E+02  0.51100000000E-03 0.  1.
         23    2    1    0    0    0 -0.20527308782E+02 -0.38428963449E+02  0.10333131933E+02  0.80223563639E+02  0.66564937541E+02 0.  0.
         11    1    3    3    0    0 -0.24266648058E+02 -0.51304047835E+02 -0.82067492870E+01  0.57343929638E+02  0.51100000000E-03 0. -1.
         22    1    1    0    0    0  0.20527308782E+02  0.38428963449E+02 -0.10333131933E+02  0.44776436361E+02  0.00000000000E+00 0. -1.
</event>
<event>
 5    1  0.8957809E-005  0.9118800E+02  0.7818608E-02  0.1130116E+00
         25   -1    0    0    0    0  0.00000000000E+00  0.00000000000E+00  0.99999998245E-14  0.12500000000E+03  0.12500000000E+03 0.  0.
        -11    1    3    3    0    0  0.40144807648E+02 -0.19844352407E+02 -0.80516461844E+01  0.45499812198E+02  0.51100000000E-03 0.  1.
         23    2    1    0    0    0 -0.66647202178E+01 -0.29072271601E+02 -0.10772617437E+02  0.93287782196E+02  0.87732237798E+02 0.  0.
         11    1    3    3    0    0 -0.46809527866E+02 -0.92279191942E+01 -0.27209712525E+01  0.47787969998E+02  0.51100000000E-03 0. -1.
         22    1    1    0    0    0  0.66647202178E+01  0.29072271601E+02  0.10772617437E+02  0.31712217804E+02  0.00000000000E+00 0. -1.
</event>
<event>
 5    1  0.8957809E-005  0.9118800E+02  0.7818608E-02  0.1130116E+00
         25   -1    0    0    0    0  0.00000000000E+00  0.00000000000E+00  0.99999998245E-14  0.12500000000E+03  0.12500000000E+03 0.  0.
        -11    1    3    3    0    0 -0.90784730879E+01  0.40345081171E+02 -0.12423961251E+02  0.43179845550E+02  0.51100000000E-03 0. -1.
         23    2    1    0    0    0  0.28513943661E+02  0.63119351184E+01  0.14718720482E+01  0.95758729245E+02  0.91184879838E+02 0.  0.
         11    1    3    3    0    0  0.37592416749E+02 -0.34033146052E+02  0.13895833299E+02  0.52578883695E+02  0.51100000000E-03 0.  1.
         22    1    1    0    0    0 -0.28513943661E+02 -0.63119351184E+01 -0.14718720482E+01  0.29241270755E+02  0.00000000000E+00 0.  1.
</event>
<event>
 5    1  0.8957809E-005  0.9118800E+02  0.7818608E-02  0.1130116E+00
         25   -1    0    0    0    0  0.00000000000E+00  0.00000000000E+00  0.99999998245E-14  0.12500000000E+03  0.12500000000E+03 0.  0.
        -11    1    3    3    0    0 -0.94258988651E+01  0.36526379737E+02  0.23581550469E+02  0.44487228605E+02  0.51100000000E-03 0. -1.
         23    2    1    0    0    0 -0.21050333991E+02 -0.13768280441E+02  0.10526330258E+02  0.97733065150E+02  0.93852364315E+02 0.  0.
         11    1    3    3    0    0 -0.11624435125E+02 -0.50294660178E+02 -0.13055220212E+02  0.53245836546E+02  0.51100000000E-03 0.  1.
         22    1    1    0    0    0  0.21050333991E+02  0.13768280441E+02 -0.10526330258E+02  0.27266934850E+02  0.00000000000E+00 0. -1.
</event>
<event>
 5    1  0.8957809E-005  0.9118800E+02  0.7818608E-02  0.1130116E+00
         25   -1    0    0    0    0  0.00000000000E+00  0.00000000000E+00  0.99999998245E-14  0.12500000000E+03  0.12500000000E+03 0.  0.
        -11    1    3    3    0    0  0.36810647187E+02 -0.48803377070E+02 -0.80039270821E+01  0.61651084409E+02  0.51100000000E-03 0.  1.
         23    2    1    0    0    0  0.22081454677E+02 -0.23523075667E+02  0.22604291642E+01  0.92657531487E+02  0.86829619784E+02 0.  0.
         11    1    3    3    0    0 -0.14729192510E+02  0.25280301403E+02  0.10264356246E+02  0.31006447078E+02  0.51100000000E-03 0. -1.
         22    1    1    0    0    0 -0.22081454677E+02  0.23523075667E+02 -0.22604291642E+01  0.32342468513E+02  0.00000000000E+00 0.  1.
</event>
<event>
 5    1  0.8957809E-005  0.9118800E+02  0.7818608E-02  0.1130116E+00
         25   -1    0    0    0    0  0.00000000000E+00  0.00000000000E+00  0.99999998245E-14  0.12500000000E+03  0.12500000000E+03 0.  0.
        -11    1    3    3    0    0 -0.51703650367E+02  0.93676138764E+01 -0.17710622458E+02  0.55449849406E+02  0.51100000000E-03 0.  1.
         23    2    1    0    0    0 -0.26208337670E+02 -0.16355453097E+02 -0.58638272757E+01  0.93555409372E+02  0.88112725205E+02 0.  0.
         11    1    3    3    0    0  0.25495312696E+02 -0.25723066973E+02  0.11846795183E+02  0.38105559966E+02  0.51100000000E-03 0. -1.
         22    1    1    0    0    0  0.26208337670E+02  0.16355453097E+02  0.58638272757E+01  0.31444590628E+02  0.00000000000E+00 0.  1.
</event>
<event>
 5    1  0.8957809E-005  0.9118800E+02  0.7818608E-02  0.1130116E+00
         25   -1    0    0    0    0  0.00000000000E+00  0.00000000000E+00  0.99999998245E-14  0.12500000000E+03  0.12500000000E+03 0.  0.
        -11    1    3    3    0    0 -0.16709112398E+02  0.31292889841E+02 -0.26769315217E+02  0.44441372945E+02  0.51100000000E-03 0.  1.
         23    2    1    0    0    0 -0.21258600750E+02  0.97424421575E+01  0.18761245485E+02  0.95019546081E+02  0.90165883349E+02 0.  0.
         11    1    3    3    0    0 -0.45494883520E+01 -0.21550447684E+02  0.45530560702E+02  0.50578173136E+02  0.51100000000E-03 0. -1.
         22    1    1    0    0    0  0.21258600750E+02 -0.97424421575E+01 -0.18761245485E+02  0.29980453919E+02  0.00000000000E+00 0. -1.
</event>
<event>
 5    1  0.8957809E-005  0.9118800E+02  0.7818608E-02  0.1130116E+00
         25   -1    0    0    0    0  0.00000000000E+00  0.00000000000E+00  0.99999998245E-14  0.12500000000E+03  0.12500000000E+03 0.  0.
        -11    1    3    3    0    0  0.19435918321E+02 -0.50551968349E+02  0.10136714346E+02  0.55099994582E+02  0.51100000000E-03 0.  1.
         23    2    1    0    0    0 -0.10024971901E+02 -0.22438345351E+02  0.15149490001E+02  0.96129834587E+02  0.91692195124E+02 0.  0.
         11    1    3    3    0    0 -0.29460890222E+02  0.28113622998E+02  0.50127756550E+01  0.41029840005E+02  0.51100000000E-03 0. -1.
         22    1    1    0    0    0  0.10024971901E+02  0.22438345351E+02 -0.15149490001E+02  0.28870165413E+02  0.00000000000E+00 0.  1.
</event>
<event>
 5    1  0.8957809E-005  0.9118800E+02  0.7818608E-02  0.1130116E+00
         25   -1    0    0    0    0  0.00000000000E+00  0.00000000000E+00  0.99999998245E-14  0.12500000000E+03  0.12500000000E+03 0.  0.
        -11    1    3    3    0    0  0.14095127399E+02 -0.35062544653E+02 -0.12516565037E+02  0.39808529921E+02  0.51100000000E-03 0.  1.
         23    2    1    0    0    0 -0.29121317571E+02 -0.42507995445E+01 -0.12854427888E+02  0.92885256498E+02  0.87156836361E+02 0.  0.
         11    1    3    3    0    0 -0.43216444971E+02  0.30811745108E+02 -0.33786285166E+00  0.53076726577E+02  0.51100000000E-03 0. -1.
         22    1    1    0    0    0  0.29121317571E+02  0.42507995445E+01  0.12854427888E+02  0.32114743502E+02  0.00000000000E+00 0. -1.
</event>
<event>
 5    1  0.8957809E-005  0.9118800E+02  0.7818608E-02  0.1130116E+00
         25   -1    0    0    0    0  0.00000000000E+00  0.00000000000E+00  0.99999998245E-14  0.12500000000E+03  0.12500000000E+03 0.  0.
        -11    1    3    3    0    0 -0.27742535454E+01 -0.50531530112E+02 -0.29554863961E+02  0.58605648210E+02  0.51100000000E-03 0. -1.
         23    2    1    0    0    0 -0.15115184167E+02 -0.15209650319E+02 -0.15359021493E+02  0.98623840377E+02  0.95031363740E+02 0.  0.
         11    1    3    3    0    0 -0.12340930621E+02  0.35321879792E+02  0.14195842468E+02  0.40018192167E+02  0.51100000000E-03 0.  1.
         22    1    1    0    0    0  0.15115184167E+02  0.15209650319E+02  0.15359021493E+02  0.26376159623E+02  0.00000000000E+00 0. -1.
</event>
<event>
 5    1  0.8957809E-005  0.9118800E+02  0.7818608E-02  0.1130116E+00
         25   -1    0    0    0    0  0.00000000000E+00  0.00000000000E+00  0.99999998245E-14  0.12500000000E+03  0.12500000000E+03 0.  0.
        -11    1    3    3    0    0  0.44697394010E+01  0.29397386725E+02  0.23151359370E+02  0.37685147704E+02  0.51100000000E-03 0. -1.
         23    2    1    0    0    0  0.28792911922E+02 -0.11885538616E+02 -0.52877171708E+01  0.93404782672E+02  0.87898780811E+02 0.  0.
         11    1    3    3    0    0  0.24323172521E+02 -0.41282925341E+02 -0.28439076541E+02  0.55719634968E+02  0.51100000000E-03 0.  1.
         22    1    1    0    0    0 -0.28792911922E+02  0.11885538616E+02  0.52877171708E+01  0.31595217328E+02  0.00000000000E+00 0.  1.
</event>
<event>
 5    1  0.8957809E-005  0.9118800E+02  0.7818608E-02  0.1130116E+00
         25   -1    0    0    0    0  0.00000000000E+00  0.00000000000E+00  0.99999998245E-14  0.12500000000E+03  0.12500000000E+03 0.  0.
        -11    1    3    3    0    0 -0.18278626987E+02  0.32412855377E+02  0.25478885808E+02  0.45098503529E+02  0.51100000000E-03 0.  1.
         23    2    1    0    0    0  0.61899937384E+01 -0.12834768109E+02  0.24629607129E+02  0.96545389790E+02  0.92256964222E+02 0.  0.
         11    1    3    3    0    0  0.24468620726E+02 -0.45247623487E+02 -0.84927867904E+00  0.51446886261E+02  0.51100000000E-03 0. -1.
         22    1    1    0    0    0 -0.61899937384E+01  0.12834768109E+02 -0.24629607129E+02  0.28454610210E+02  0.00000000000E+00 0.  1.
</event>
<event>
 5    1  0.8957809E-005  0.9118800E+02  0.7818608E-02  0.1130116E+00
         25   -1    0    0    0    0  0.00000000000E+00  0.00000000000E+00  0.99999998245E-14  0.12500000000E+03  0.12500000000E+03 0.  0.
        -11    1    3    3    0    0 -0.23983127211E+02 -0.22785863454E+02  0.37562751635E+02  0.50053434196E+02  0.51100000000E-03 0.  1.
         23    2    1    0    0    0  0.17011331306E+02 -0.98437946806E+01  0.21305443104E+02  0.96013665420E+02  0.91533689727E+02 0.  0.
         11    1    3    3    0    0  0.40994458517E+02  0.12942068773E+02 -0.16257308531E+02  0.45960231224E+02  0.51100000000E-03 0. -1.
         22    1    1    0    0    0 -0.17011331306E+02  0.98437946806E+01 -0.21305443104E+02  0.28986334580E+02  0.00000000000E+00 0. -1.
</event>
<event>
 5    1  0.8957809E-005  0.9118800E+02  0.7818608E-02  0.1130116E+00
         25   -1    0    0    0    0  0.00000000000E+00  0.00000000000E+00  0.99999998245E-14  0.12500000000E+03  0.12500000000E+03 0.  0.
        -11    1    3    3    0    0 -0.50483863977E+01 -0.41260946822E+02 -0.91471359387E+01  0.42563153479E+02  0.51100000000E-03 0. -1.
         23    2    1    0    0    0 -0.25785429098E+02  0.74791120128E+00  0.14886424404E+02  0.95216559023E+02  0.90438596604E+02 0.  0.
         11    1    3    3    0    0 -0.20737042700E+02  0.42008858024E+02  0.24033560342E+02  0.52653405544E+02  0.51100000000E-03 0.  1.
         22    1    1    0    0    0  0.25785429098E+02 -0.74791120128E+00 -0.14886424404E+02  0.29783440977E+02  0.00000000000E+00 0.  1.
</event>
<event>
 5    1  0.8957809E-005  0.9118800E+02  0.7818608E-02  0.1130116E+00
         25   -1    0    0    0    0  0.00000000000E+00  0.00000000000E+00  0.99999998245E-14  0.12500000000E+03  0.12500000000E+03 0.  0.
        -11    1    3    3    0    0  0.37287413356E+02 -0.96344543343E+00 -0.37170160131E+02  0.52658334823E+02  0.51100000000E-03 0. -1.
         23    2    1    0    0    0  0.25566088681E+02  0.11777130624E+02  0.32836267054E+01  0.96660841570E+02  0.92413258749E+02 0.  0.
         11    1    3    3    0    0 -0.11721324675E+02  0.12740576057E+02  0.40453786836E+02  0.44002506747E+02  0.51100000000E-03 0.  1.
         22    1    1    0    0    0 -0.25566088681E+02 -0.11777130624E+02 -0.32836267054E+01  0.28339158430E+02  0.00000000000E+00 0. -1.
</event>
<event>
 5    1  0.8957809E-005  0.9118800E+02  0.7818608E-02  0.1130116E+00
         25   -1    0    0    0    0  0.00000000000E+00  0.00000000000E+00  0.99999998245E-14  0.12500000000E+03  0.12500000000E+03 0.  0.
        -11    1    3    3    0    0 -0.42691812795E+02  0.10067117534E+02 -0.12389741577E+02  0.45578980153E+02  0.51100000000E-03 0. -1.
         23    2    1    0    0    0 -0.18675092213E+02  0.48094497579E+01  0.26884799862E+02  0.91914015962E+02  0.85752574251E+02 0.  0.
         11    1    3    3    0    0  0.24016720583E+02 -0.52576677765E+01  0.39274541439E+02  0.46335035809E+02  0.51100000000E-03 0.  1.
         22    1    1    0    0    0  0.18675092213E+02 -0.48094497579E+01 -0.26884799862E+02  0.33085984038E+02  0.00000000000E+00 0. -1.
</event>
<event>
 5    1  0.8957809E-005  0.9118800E+02  0.7818608E-02  0.1130116E+00
         25   -1    0    0    0    0  0.00000000000E+00  0.00000000000E+00  0.99999998245E-14  0.12500000000E+03  0.12500000000E+03 0.  0.
        -11    1    3    3    0    0 -0.53149743998E+01 -0.24349849449E+01  0.43496329998E+02  0.43887456387E+02  0.51100000000E-03 0.  1.
         23    2    1    0    0    0  0.97946960384E+01 -0.28061953088E+02  0.16486320010E+01  0.95232110100E+02  0.90460088023E+02 0.  0.
         11    1    3    3    0    0  0.15109670438E+02 -0.25626968143E+02 -0.41847697997E+02  0.51344653713E+02  0.51100000000E-03 0. -1.
         22    1    1    0    0    0 -0.97946960384E+01  0.28061953088E+02 -0.16486320010E+01  0.29767889900E+02  0.00000000000E+00 0.  1.
</event>
<event>
 5    1  0.8957809E-005  0.9118800E+02  0.7818608E-02  0.1130116E+00
         25   -1    0    0    0    0  0.00000000000E+00  0.00000000000E+00  0.99999998245E-14  0.12500000000E+03  0.12500000000E+03 0.  0.
        -11    1    3    3    0    0 -0.27009346696E+02  0.24399612046E+02  0.34619944881E+02  0.50233320225E+02  0.51100000000E-03 0. -1.
         23    2    1    0    0    0  0.12625944180E+02  0.23353347435E+02  0.12190014343E+02  0.95787164593E+02  0.91223851860E+02 0.  0.
         11    1    3    3    0    0  0.39635290877E+02 -0.10462646116E+01 -0.22429930538E+02  0.45553844368E+02  0.51100000000E-03 0.  1.
         22    1    1    0    0    0 -0.12625944180E+02 -0.23353347435E+02 -0.12190014343E+02  0.29212835407E+02  0.00000000000E+00 0.  1.
</event>
<event>
 5    1  0.8957809E-005  0.9118800E+02  0.7818608E-02  0.1130116E+00
         25   -1    0    0    0    0  0.00000000000E+00  0.00000000000E+00  0.99999998245E-14  0.12500000000E+03  0.12500000000E+03 0.  0.
        -11    1    3    3    0    0 -0.20770760801E+02  0.26950999868E+02  0.44565876375E+02  0.56070475613E+02  0.51100000000E-03 0.  1.
         23    2    1    0    0    0 -0.16797302583E+01 -0.34372275409E+01  0.29928061043E+02  0.94828409642E+02  0.89900513962E+02 0.  0.
         11    1    3    3    0    0  0.19091030542E+02 -0.30388227409E+02 -0.14637815332E+02  0.38757934029E+02  0.51100000000E-03 0. -1.
         22    1    1    0    0    0  0.16797302583E+01  0.34372275409E+01 -0.29928061043E+02  0.30171590358E+02  0.00000000000E+00 0. -1.
</event>
<event>
 5    1  0.8957809E-005  0.9118800E+02  0.7818608E-02  0.1130116E+00
         25   -1    0    0    0    0  0.00000000000E+00  0.00000000000E+00  0.99999998245E-14  0.12500000000E+03  0.12500000000E+03 0.  0.
        -11    1    3    3    0    0  0.49481127780E+02 -0.81624344944E+01  0.19542974280E+02  0.53823184476E+02  0.51100000000E-03 0. -1.
         23    2    1    0    0    0  0.48321813180E+02  0.90206497462E+01  0.65241395075E+01  0.75412358927E+02  0.56816280517E+02 0.  0.
         11    1    3    3    0    0 -0.11593145994E+01  0.17183084241E+02 -0.13018834773E+02  0.21589174451E+02  0.51100000000E-03 0.  1.
         22    1    1    0    0    0 -0.48321813180E+02 -0.90206497462E+01 -0.65241395075E+01  0.49587641073E+02  0.00000000000E+00 0. -1.
</event>
<event>
 5    1  0.8957809E-005  0.9118800E+02  0.7818608E-02  0.1130116E+00
         25   -1    0    0    0    0  0.00000000000E+00  0.00000000000E+00  0.99999998245E-14  0.12500000000E+03  0.12500000000E+03 0.  0.
        -11    1    3    3    0    0  0.26471635141E+02  0.13154994026E+02 -0.21023389824E+02  0.36273740568E+02  0.51100000000E-03 0.  1.
         23    2    1    0    0    0 -0.25760243915E+02 -0.23736203349E+01  0.78813159147E+01  0.97956712836E+02  0.94149764785E+02 0.  0.
         11    1    3    3    0    0 -0.52231879056E+02 -0.15528614361E+02  0.28904705739E+02  0.61682972268E+02  0.51100000000E-03 0. -1.
         22    1    1    0    0    0  0.25760243915E+02  0.23736203349E+01 -0.78813159147E+01  0.27043287164E+02  0.00000000000E+00 0. -1.
</event>
<event>
 5    1  0.8957809E-005  0.9118800E+02  0.7818608E-02  0.1130116E+00
         25   -1    0    0    0    0  0.00000000000E+00  0.00000000000E+00  0.99999998245E-14  0.12500000000E+03  0.12500000000E+03 0.  0.
        -11    1    3    3    0    0  0.37405144057E+02  0.12665136571E+01 -0.47495935389E+00  0.37429593177E+02  0.51100000000E-03 0.  1.
         23    2    1    0    0    0 -0.16921172169E+02  0.33597004011E+01 -0.22975764572E+02  0.96268494435E+02  0.91881029645E+02 0.  0.
         11    1    3    3    0    0 -0.54326316226E+02  0.20931867440E+01 -0.22500805218E+02  0.58838901258E+02  0.51100000000E-03 0. -1.
         22    1    1    0    0    0  0.16921172169E+02 -0.33597004011E+01  0.22975764572E+02  0.28731505565E+02  0.00000000000E+00 0. -1.
</event>
<event>
 5    1  0.8957809E-005  0.9118800E+02  0.7818608E-02  0.1130116E+00
         25   -1    0    0    0    0  0.00000000000E+00  0.00000000000E+00  0.99999998245E-14  0.12500000000E+03  0.12500000000E+03 0.  0.
        -11    1    3    3    0    0 -0.27396637183E+02 -0.21367354528E+02 -0.11713430269E+02  0.36665297181E+02  0.51100000000E-03 0. -1.
         23    2    1    0    0    0 -0.33174222997E+01  0.24912213093E+02  0.15466480260E+02  0.95490075169E+02  0.90815850996E+02 0.  0.
         11    1    3    3    0    0  0.24079214884E+02  0.46279567621E+02  0.27179910529E+02  0.58824777987E+02  0.51100000000E-03 0.  1.
         22    1    1    0    0    0  0.33174222997E+01 -0.24912213093E+02 -0.15466480260E+02  0.29509924831E+02  0.00000000000E+00 0.  1.
</event>
<event>
 5    1  0.8957809E-005  0.9118800E+02  0.7818608E-02  0.1130116E+00
         25   -1    0    0    0    0  0.00000000000E+00  0.00000000000E+00  0.99999998245E-14  0.12500000000E+03  0.12500000000E+03 0.  0.
        -11    1    3    3    0    0  0.49393673560E+01  0.35289021918E+02 -0.29290712564E+02  0.46126546160E+02  0.51100000000E-03 0. -1.
         23    2    1    0    0    0 -0.28668286431E+02  0.83369475433E+01 -0.85211654581E+01  0.93951882473E+02  0.88673392955E+02 0.  0.
         11    1    3    3    0    0 -0.33607653787E+02 -0.26952074375E+02  0.20769547106E+02  0.47825336313E+02  0.51100000000E-03 0.  1.
         22    1    1    0    0    0  0.28668286431E+02 -0.83369475433E+01  0.85211654581E+01  0.31048117527E+02  0.00000000000E+00 0. -1.
</event>
<event>
 5    1  0.8957809E-005  0.9118800E+02  0.7818608E-02  0.1130116E+00
         25   -1    0    0    0    0  0.00000000000E+00  0.00000000000E+00  0.99999998245E-14  0.12500000000E+03  0.12500000000E+03 0.  0.
        -11    1    3    3    0    0  0.34482947707E+01  0.23704579551E+02 -0.47166818194E+02  0.52900912727E+02  0.51100000000E-03 0. -1.
         23    2    1    0    0    0  0.23385025929E+02  0.15187482067E+00 -0.16709047872E+02  0.96258483261E+02  0.91867408885E+02 0.  0.
         11    1    3    3    0    0  0.19936731158E+02 -0.23552704731E+02  0.30457770322E+02  0.43357570534E+02  0.51100000000E-03 0.  1.
         22    1    1    0    0    0 -0.23385025929E+02 -0.15187482067E+00  0.16709047872E+02  0.28741516739E+02  0.00000000000E+00 0. -1.
</event>
<event>
 5    1  0.8957809E-005  0.9118800E+02  0.7818608E-02  0.1130116E+00
         25   -1    0    0    0    0  0.00000000000E+00  0.00000000000E+00  0.99999998245E-14  0.12500000000E+03  0.12500000000E+03 0.  0.
        -11    1    3    3    0    0 -0.50423543917E+02 -0.17772473519E+02 -0.14636958253E+02  0.55431355236E+02  0.51100000000E-03 0.  1.
         23    2    1    0    0    0 -0.28506414880E+02  0.12090311407E+02 -0.70668685688E+01  0.93239459221E+02  0.87663360677E+02 0.  0.
         11    1    3    3    0    0  0.21917129037E+02  0.29862784926E+02  0.75700896840E+01  0.37808103984E+02  0.51100000000E-03 0. -1.
         22    1    1    0    0    0  0.28506414880E+02 -0.12090311407E+02  0.70668685688E+01  0.31760540779E+02  0.00000000000E+00 0.  1.
</event>
<event>
 5    1  0.8957809E-005  0.9118800E+02  0.7818608E-02  0.1130116E+00
         25   -1    0    0    0    0  0.00000000000E+00  0.00000000000E+00  0.99999998245E-14  0.12500000000E+03  0.12500000000E+03 0.  0.
        -11    1    3    3    0    0 -0.31271177752E+02  0.18432765471E+02  0.28675932592E+02  0.46259728827E+02  0.51100000000E-03 0. -1.
         23    2    1    0    0    0 -0.16122704880E+02 -0.19497230348E+02 -0.50180255463E+01  0.99207284279E+02  0.95795725739E+02 0.  0.
         11    1    3    3    0    0  0.15148472872E+02 -0.37929995819E+02 -0.33693958138E+02  0.52947555452E+02  0.51100000000E-03 0.  1.
         22    1    1    0    0    0  0.16122704880E+02  0.19497230348E+02  0.50180255463E+01  0.25792715721E+02  0.00000000000E+00 0.  1.
</event>
<event>
 5    1  0.8957809E-005  0.9118800E+02  0.7818608E-02  0.1130116E+00
         25   -1    0    0    0    0  0.00000000000E+00  0.00000000000E+00  0.99999998245E-14  0.12500000000E+03  0.12500000000E+03 0.  0.
        -11    1    3    3    0    0 -0.12053624852E+02  0.34627612792E+02  0.14659345814E+02  0.39487439265E+02  0.51100000000E-03 0. -1.
         23    2    1    0    0    0  0.28692373097E+02  0.22539861823E+01 -0.62094719192E+01  0.95556999657E+02  0.90907919976E+02 0.  0.
         11    1    3    3    0    0  0.40745997950E+02 -0.32373626609E+02 -0.20868817733E+02  0.56069560392E+02  0.51100000000E-03 0.  1.
         22    1    1    0    0    0 -0.28692373097E+02 -0.22539861823E+01  0.62094719192E+01  0.29443000343E+02  0.00000000000E+00 0.  1.
</event>
<event>
 5    1  0.8957809E-005  0.9118800E+02  0.7818608E-02  0.1130116E+00
         25   -1    0    0    0    0  0.00000000000E+00  0.00000000000E+00  0.99999998245E-14  0.12500000000E+03  0.12500000000E+03 0.  0.
        -11    1    3    3    0    0 -0.66302474631E+01  0.38498387071E+02  0.18430159448E+02  0.43194406652E+02  0.51100000000E-03 0. -1.
         23    2    1    0    0    0 -0.26156133222E+02  0.39102199009E+01 -0.14544735516E+02  0.94817514085E+02  0.89885363220E+02 0.  0.
         11    1    3    3    0    0 -0.19525885759E+02 -0.34588167170E+02 -0.32974894963E+02  0.51623107432E+02  0.51100000000E-03 0.  1.
         22    1    1    0    0    0  0.26156133222E+02 -0.39102199009E+01  0.14544735516E+02  0.30182485915E+02  0.00000000000E+00 0. -1.
</event>
<event>
 5    1  0.8957809E-005  0.9118800E+02  0.7818608E-02  0.1130116E+00
         25   -1    0    0    0    0  0.00000000000E+00  0.00000000000E+00  0.99999998245E-14  0.12500000000E+03  0.12500000000E+03 0.  0.
        -11    1    3    3    0    0 -0.48831237298E+02 -0.33717327928E+02  0.75435031846E+01  0.59818495294E+02  0.51100000000E-03 0. -1.
         23    2    1    0    0    0 -0.14843952540E+02 -0.25579398907E+02  0.61415350461E+01  0.94794586111E+02  0.89853472542E+02 0.  0.
         11    1    3    3    0    0  0.33987284758E+02  0.81379290204E+01 -0.14019681384E+01  0.34976090818E+02  0.51100000000E-03 0.  1.
         22    1    1    0    0    0  0.14843952540E+02  0.25579398907E+02 -0.61415350461E+01  0.30205413889E+02  0.00000000000E+00 0. -1.
</event>
<event>
 5    1  0.8957809E-005  0.9118800E+02  0.7818608E-02  0.1130116E+00
         25   -1    0    0    0    0  0.00000000000E+00  0.00000000000E+00  0.99999998245E-14  0.12500000000E+03  0.12500000000E+03 0.  0.
        -11    1    3    3    0    0  0.19329827399E+02  0.27199166042E+02  0.14911193694E+02  0.36548331813E+02  0.51100000000E-03 0. -1.
         23    2    1    0    0    0  0.23800278596E+01 -0.83037795628E+01 -0.28550422852E+02  0.95171424226E+02  0.90376191868E+02 0.  0.
         11    1    3    3    0    0 -0.16949799539E+02 -0.35502945605E+02 -0.43461616547E+02  0.58623092414E+02  0.51100000000E-03 0.  1.
         22    1    1    0    0    0 -0.23800278596E+01  0.83037795628E+01  0.28550422852E+02  0.29828575774E+02  0.00000000000E+00 0.  1.
</event>
<event>
 5    1  0.8957809E-005  0.9118800E+02  0.7818608E-02  0.1130116E+00
         25   -1    0    0    0    0  0.00000000000E+00  0.00000000000E+00  0.99999998245E-14  0.12500000000E+03  0.12500000000E+03 0.  0.
        -11    1    3    3    0    0 -0.19141708003E+02  0.64425472429E+01 -0.41791703833E+02  0.46416138462E+02  0.51100000000E-03 0. -1.
         23    2    1    0    0    0 -0.91832445162E+01  0.28332677849E+02  0.66275564654E+00  0.95208862745E+02  0.90427958542E+02 0.  0.
         11    1    3    3    0    0  0.99584634863E+01  0.21890130606E+02  0.42454459479E+02  0.48792724282E+02  0.51100000000E-03 0.  1.
         22    1    1    0    0    0  0.91832445162E+01 -0.28332677849E+02 -0.66275564654E+00  0.29791137255E+02  0.00000000000E+00 0. -1.
</event>
<event>
 5    1  0.8957809E-005  0.9118800E+02  0.7818608E-02  0.1130116E+00
         25   -1    0    0    0    0  0.00000000000E+00  0.00000000000E+00  0.99999998245E-14  0.12500000000E+03  0.12500000000E+03 0.  0.
        -11    1    3    3    0    0 -0.47510516203E+02  0.83716860643E+01  0.16996637643E+02  0.51148997731E+02  0.51100000000E-03 0.  1.
         23    2    1    0    0    0 -0.19420268037E+02  0.96205101954E+01 -0.18550447620E+02  0.96472467090E+02  0.92158107470E+02 0.  0.
         11    1    3    3    0    0  0.28090248166E+02  0.12488241311E+01 -0.35547085263E+02  0.45323469359E+02  0.51100000000E-03 0. -1.
         22    1    1    0    0    0  0.19420268037E+02 -0.96205101954E+01  0.18550447620E+02  0.28527532910E+02  0.00000000000E+00 0.  1.
</event>
<event>
 5    1  0.8957809E-005  0.9118800E+02  0.7818608E-02  0.1130116E+00
         25   -1    0    0    0    0  0.00000000000E+00  0.00000000000E+00  0.99999998245E-14  0.12500000000E+03  0.12500000000E+03 0.  0.
        -11    1    3    3    0    0 -0.43530661016E+02 -0.24544795556E+02 -0.36766088019E+02  0.62041201357E+02  0.51100000000E-03 0.  1.
         23    2    1    0    0    0 -0.19937834493E+02 -0.10842331478E+02 -0.23325130222E+02  0.92455644175E+02  0.86538494578E+02 0.  0.
         11    1    3    3    0    0  0.23592826523E+02  0.13702464079E+02  0.13440957796E+02  0.30414442818E+02  0.51100000000E-03 0. -1.
         22    1    1    0    0    0  0.19937834493E+02  0.10842331478E+02  0.23325130222E+02  0.32544355825E+02  0.00000000000E+00 0.  1.
</event>
<event>
 5    1  0.8957809E-005  0.9118800E+02  0.7818608E-02  0.1130116E+00
         25   -1    0    0    0    0  0.00000000000E+00  0.00000000000E+00  0.99999998245E-14  0.12500000000E+03  0.12500000000E+03 0.  0.
        -11    1    3    3    0    0 -0.46512643672E+02 -0.83224892801E+01 -0.63935592490E+01  0.47681940495E+02  0.51100000000E-03 0.  1.
         23    2    1    0    0    0 -0.77024012894E+01 -0.30836633208E+02 -0.65404340805E+01  0.92550004450E+02  0.86674685535E+02 0.  0.
         11    1    3    3    0    0  0.38810242383E+02 -0.22514143928E+02 -0.14687483148E+00  0.44868063955E+02  0.51100000000E-03 0. -1.
         22    1    1    0    0    0  0.77024012894E+01  0.30836633208E+02  0.65404340805E+01  0.32449995550E+02  0.00000000000E+00 0.  1.
</event>
<event>
 5    1  0.8957809E-005  0.9118800E+02  0.7818608E-02  0.1130116E+00
         25   -1    0    0    0    0  0.00000000000E+00  0.00000000000E+00  0.99999998245E-14  0.12500000000E+03  0.12500000000E+03 0.  0.
        -11    1    3    3    0    0  0.21963356299E+02 -0.24978015752E+02 -0.18505484579E+02  0.38062360023E+02  0.51100000000E-03 0.  1.
         23    2    1    0    0    0 -0.11842667945E+02 -0.14971900006E+02  0.24672010822E+02  0.93805213707E+02  0.88466397162E+02 0.  0.
         11    1    3    3    0    0 -0.33806024244E+02  0.10006115746E+02  0.43177495401E+02  0.55742853684E+02  0.51100000000E-03 0. -1.
         22    1    1    0    0    0  0.11842667945E+02  0.14971900006E+02 -0.24672010822E+02  0.31194786293E+02  0.00000000000E+00 0. -1.
</event>
<event>
 5    1  0.8957809E-005  0.9118800E+02  0.7818608E-02  0.1130116E+00
         25   -1    0    0    0    0  0.00000000000E+00  0.00000000000E+00  0.99999998245E-14  0.12500000000E+03  0.12500000000E+03 0.  0.
        -11    1    3    3    0    0  0.35511259037E+02  0.37050182217E+02 -0.41539885908E+01  0.51488067959E+02  0.51100000000E-03 0.  1.
         23    2    1    0    0    0  0.10374352552E+02  0.14854493635E+02  0.23760261706E+02  0.95119685270E+02  0.90304602970E+02 0.  0.
         11    1    3    3    0    0 -0.25136906485E+02 -0.22195688582E+02  0.27914250297E+02  0.43631617311E+02  0.51100000000E-03 0. -1.
         22    1    1    0    0    0 -0.10374352552E+02 -0.14854493635E+02 -0.23760261706E+02  0.29880314730E+02  0.00000000000E+00 0. -1.
</event>
<event>
 5    1  0.8957809E-005  0.9118800E+02  0.7818608E-02  0.1130116E+00
         25   -1    0    0    0    0  0.00000000000E+00  0.00000000000E+00  0.99999998245E-14  0.12500000000E+03  0.12500000000E+03 0.  0.
        -11    1    3    3    0    0  0.23776817054E+02 -0.89117200803E+00  0.28108154584E+02  0.36826614984E+02  0.51100000000E-03 0.  1.
         23    2    1    0    0    0 -0.26128815291E+02 -0.10849060302E+02 -0.31250502844E+01  0.96536285604E+02  0.92244628034E+02 0.  0.
         11    1    3    3    0    0 -0.49905632344E+02 -0.99578882938E+01 -0.31233204869E+02  0.59709670620E+02  0.51100000000E-03 0. -1.
         22    1    1    0    0    0  0.26128815291E+02  0.10849060302E+02  0.31250502844E+01  0.28463714396E+02  0.00000000000E+00 0. -1.
</event>
<event>
 5    1  0.8957809E-005  0.9118800E+02  0.7818608E-02  0.1130116E+00
         25   -1    0    0    0    0  0.00000000000E+00  0.00000000000E+00  0.99999998245E-14  0.12500000000E+03  0.12500000000E+03 0.  0.
        -11    1    3    3    0    0  0.43767414188E+02  0.40272770638E+02 -0.57476603813E+01  0.59753813265E+02  0.51100000000E-03 0.  1.
         23    2    1    0    0    0  0.16306554773E+02  0.14919805762E+02 -0.15039523706E+02  0.98266283352E+02  0.94559879642E+02 0.  0.
         11    1    3    3    0    0 -0.27460859415E+02 -0.25352964876E+02 -0.92918633245E+01  0.38512470086E+02  0.51100000000E-03 0. -1.
         22    1    1    0    0    0 -0.16306554773E+02 -0.14919805762E+02  0.15039523706E+02  0.26733716648E+02  0.00000000000E+00 0.  1.
</event>
<event>
 5    1  0.8957809E-005  0.9118800E+02  0.7818608E-02  0.1130116E+00
         25   -1    0    0    0    0  0.00000000000E+00  0.00000000000E+00  0.99999998245E-14  0.12500000000E+03  0.12500000000E+03 0.  0.
        -11    1    3    3    0    0 -0.34797958502E+02  0.13033463120E+02  0.40098713416E+02  0.54668783548E+02  0.51100000000E-03 0.  1.
         23    2    1    0    0    0  0.36004619709E+01  0.15494949002E+02  0.23611718915E+02  0.96529488219E+02  0.92235416488E+02 0.  0.
         11    1    3    3    0    0  0.38398420473E+02  0.24614858820E+01 -0.16486994501E+02  0.41860704670E+02  0.51100000000E-03 0. -1.
         22    1    1    0    0    0 -0.36004619709E+01 -0.15494949002E+02 -0.23611718915E+02  0.28470511781E+02  0.00000000000E+00 0.  1.
</event>
<event>
 5    1  0.8957809E-005  0.9118800E+02  0.7818608E-02  0.1130116E+00
         25   -1    0    0    0    0  0.00000000000E+00  0.00000000000E+00  0.99999998245E-14  0.12500000000E+03  0.12500000000E+03 0.  0.
        -11    1    3    3    0    0  0.65974889974E+01 -0.14538689747E+02 -0.40386625244E+02  0.43427869617E+02  0.51100000000E-03 0.  1.
         23    2    1    0    0    0 -0.25579322572E+02  0.11780379752E+02 -0.92761797254E+01  0.95349930849E+02  0.90622749420E+02 0.  0.
         11    1    3    3    0    0 -0.32176811569E+02  0.26319069499E+02  0.31110445518E+02  0.51922061233E+02  0.51100000000E-03 0. -1.
         22    1    1    0    0    0  0.25579322572E+02 -0.11780379752E+02  0.92761797254E+01  0.29650069151E+02  0.00000000000E+00 0. -1.
</event>
<event>
 5    1  0.8957809E-005  0.9118800E+02  0.7818608E-02  0.1130116E+00
         25   -1    0    0    0    0  0.00000000000E+00  0.00000000000E+00  0.99999998245E-14  0.12500000000E+03  0.12500000000E+03 0.  0.
        -11    1    3    3    0    0  0.35433398327E+02  0.31486141704E+02 -0.56908968660E+01  0.47741901342E+02  0.51100000000E-03 0.  1.
         23    2    1    0    0    0  0.66727986266E+01 -0.38158695564E+01 -0.26209864919E+02  0.97686191751E+02  0.93789913838E+02 0.  0.
         11    1    3    3    0    0 -0.28760599700E+02 -0.35302011260E+02 -0.20518968053E+02  0.49944290408E+02  0.51100000000E-03 0. -1.
         22    1    1    0    0    0 -0.66727986266E+01  0.38158695564E+01  0.26209864919E+02  0.27313808249E+02  0.00000000000E+00 0.  1.
</event>
<event>
 5    1  0.8957809E-005  0.9118800E+02  0.7818608E-02  0.1130116E+00
         25   -1    0    0    0    0  0.00000000000E+00  0.00000000000E+00  0.99999998245E-14  0.12500000000E+03  0.12500000000E+03 0.  0.
        -11    1    3    3    0    0  0.26121023987E+02 -0.65318206477E+01 -0.35528071827E+02  0.44578206145E+02  0.51100000000E-03 0.  1.
         23    2    1    0    0    0 -0.13298622894E+01 -0.27472982920E+02  0.41593355662E+01  0.97182138893E+02  0.93115706104E+02 0.  0.
         11    1    3    3    0    0 -0.27450886276E+02 -0.20941162272E+02  0.39687407394E+02  0.52603932748E+02  0.51100000000E-03 0. -1.
         22    1    1    0    0    0  0.13298622894E+01  0.27472982920E+02 -0.41593355662E+01  0.27817861107E+02  0.00000000000E+00 0. -1.
</event>
<event>
 5    1  0.8957809E-005  0.9118800E+02  0.7818608E-02  0.1130116E+00
         25   -1    0    0    0    0  0.00000000000E+00  0.00000000000E+00  0.99999998245E-14  0.12500000000E+03  0.12500000000E+03 0.  0.
        -11    1    3    3    0    0 -0.44992181191E+02  0.92646795794E+01 -0.21009267428E+02  0.50512572437E+02  0.51100000000E-03 0.  1.
         23    2    1    0    0    0 -0.83934782033E+01  0.27507049528E+02 -0.55601628044E+00  0.96235483592E+02  0.91836108901E+02 0.  0.
         11    1    3    3    0    0  0.36598702988E+02  0.18242369949E+02  0.20453251148E+02  0.45722911155E+02  0.51100000000E-03 0. -1.
         22    1    1    0    0    0  0.83934782033E+01 -0.27507049528E+02  0.55601628044E+00  0.28764516408E+02  0.00000000000E+00 0.  1.
</event>
<event>
 5    1  0.8957809E-005  0.9118800E+02  0.7818608E-02  0.1130116E+00
         25   -1    0    0    0    0  0.00000000000E+00  0.00000000000E+00  0.99999998245E-14  0.12500000000E+03  0.12500000000E+03 0.  0.
        -11    1    3    3    0    0  0.47502503460E+00 -0.14011910769E+02 -0.27849877045E+02  0.31179720073E+02  0.51100000000E-03 0.  1.
         23    2    1    0    0    0 -0.70174443959E+01 -0.19700575622E+01  0.31739888097E+02  0.92433972470E+02  0.86507185352E+02 0.  0.
         11    1    3    3    0    0 -0.74924694305E+01  0.12041853207E+02  0.59589765142E+02  0.61254252397E+02  0.51100000000E-03 0. -1.
         22    1    1    0    0    0  0.70174443959E+01  0.19700575622E+01 -0.31739888097E+02  0.32566027530E+02  0.00000000000E+00 0. -1.
</event>
<event>
 5    1  0.8957809E-005  0.9118800E+02  0.7818608E-02  0.1130116E+00
         25   -1    0    0    0    0  0.00000000000E+00  0.00000000000E+00  0.99999998245E-14  0.12500000000E+03  0.12500000000E+03 0.  0.
        -11    1    3    3    0    0 -0.38444478779E-01 -0.51762659796E+02 -0.21850887380E+02  0.56185725115E+02  0.51100000000E-03 0. -1.
         23    2    1    0    0    0  0.19192007542E+02 -0.18837032167E+02 -0.11899902565E+02  0.95592949563E+02  0.90957338301E+02 0.  0.
         11    1    3    3    0    0  0.19230452020E+02  0.32925627629E+02  0.99509848152E+01  0.39407224449E+02  0.51100000000E-03 0.  1.
         22    1    1    0    0    0 -0.19192007542E+02  0.18837032167E+02  0.11899902565E+02  0.29407050437E+02  0.00000000000E+00 0.  1.
</event>
<event>
 5    1  0.8957809E-005  0.9118800E+02  0.7818608E-02  0.1130116E+00
         25   -1    0    0    0    0  0.00000000000E+00  0.00000000000E+00  0.99999998245E-14  0.12500000000E+03  0.12500000000E+03 0.  0.
        -11    1    3    3    0    0  0.46510704707E+02  0.27743312399E+01  0.41342852630E+02  0.62291042935E+02  0.51100000000E-03 0.  1.
         23    2    1    0    0    0  0.23924299597E+02  0.22734893673E+01  0.16624964325E+02  0.95777914107E+02  0.91211175449E+02 0.  0.
         11    1    3    3    0    0 -0.22586405110E+02 -0.50084187253E+00 -0.24717888305E+02  0.33486871172E+02  0.51100000000E-03 0. -1.
         22    1    1    0    0    0 -0.23924299597E+02 -0.22734893673E+01 -0.16624964325E+02  0.29222085893E+02  0.00000000000E+00 0.  1.
</event>
<event>
 5    1  0.8957809E-005  0.9118800E+02  0.7818608E-02  0.1130116E+00
         25   -1    0    0    0    0  0.00000000000E+00  0.00000000000E+00  0.99999998245E-14  0.12500000000E+03  0.12500000000E+03 0.  0.
        -11    1    3    3    0    0  0.32491952384E+02 -0.37881315046E+02 -0.23110302517E+02  0.54998246172E+02  0.51100000000E-03 0. -1.
         23    2    1    0    0    0  0.24679118082E+02 -0.50000653333E+01 -0.25858835791E+02  0.88906525367E+02  0.81250423640E+02 0.  0.
         11    1    3    3    0    0 -0.78128343026E+01  0.32881249713E+02 -0.27485332743E+01  0.33908279195E+02  0.51100000000E-03 0.  1.
         22    1    1    0    0    0 -0.24679118082E+02  0.50000653333E+01  0.25858835791E+02  0.36093474633E+02  0.00000000000E+00 0. -1.
</event>
<event>
 5    1  0.8957809E-005  0.9118800E+02  0.7818608E-02  0.1130116E+00
         25   -1    0    0    0    0  0.00000000000E+00  0.00000000000E+00  0.99999998245E-14  0.12500000000E+03  0.12500000000E+03 0.  0.
        -11    1    3    3    0    0  0.91309658744E+00 -0.43754715322E+02 -0.28632718881E+02  0.52298579800E+02  0.51100000000E-03 0.  1.
         23    2    1    0    0    0 -0.13644913971E+02 -0.23998628768E+02  0.78790451912E+01  0.96291164894E+02  0.91911866609E+02 0.  0.
         11    1    3    3    0    0 -0.14558010559E+02  0.19756086554E+02  0.36511764072E+02  0.43992585094E+02  0.51100000000E-03 0. -1.
         22    1    1    0    0    0  0.13644913971E+02  0.23998628768E+02 -0.78790451912E+01  0.28708835106E+02  0.00000000000E+00 0. -1.
</event>
<event>
 5    1  0.8957809E-005  0.9118800E+02  0.7818608E-02  0.1130116E+00
         25   -1    0    0    0    0  0.00000000000E+00  0.00000000000E+00  0.99999998245E-14  0.12500000000E+03  0.12500000000E+03 0.  0.
        -11    1    3    3    0    0 -0.18439180298E+02 -0.15519298905E+02  0.25074539397E+02  0.34779081856E+02  0.51100000000E-03 0.  1.
         23    2    1    0    0    0  0.27718748941E+02  0.73058321749E+01 -0.70620400776E+01  0.95477523195E+02  0.90798572670E+02 0.  0.
         11    1    3    3    0    0  0.46157929239E+02  0.22825131080E+02 -0.32136579474E+02  0.60698441339E+02  0.51100000000E-03 0. -1.
         22    1    1    0    0    0 -0.27718748941E+02 -0.73058321749E+01  0.70620400776E+01  0.29522476805E+02  0.00000000000E+00 0. -1.
</event>
<event>
 5    1  0.8957809E-005  0.9118800E+02  0.7818608E-02  0.1130116E+00
         25   -1    0    0    0    0  0.00000000000E+00  0.00000000000E+00  0.99999998245E-14  0.12500000000E+03  0.12500000000E+03 0.  0.
        -11    1    3    3    0    0  0.51699718907E+02 -0.26437018721E+02 -0.15292418792E+02  0.60046939694E+02  0.51100000000E-03 0.  1.
         23    2    1    0    0    0  0.26449310563E+02 -0.10114410625E+02  0.48958322229E+01  0.96262628779E+02  0.91873049338E+02 0.  0.
         11    1    3    3    0    0 -0.25250408344E+02  0.16322608096E+02  0.20188251015E+02  0.36215689084E+02  0.51100000000E-03 0. -1.
         22    1    1    0    0    0 -0.26449310563E+02  0.10114410625E+02 -0.48958322229E+01  0.28737371221E+02  0.00000000000E+00 0.  1.
</event>
<event>
 5    1  0.8957809E-005  0.9118800E+02  0.7818608E-02  0.1130116E+00
         25   -1    0    0    0    0  0.00000000000E+00  0.00000000000E+00  0.99999998245E-14  0.12500000000E+03  0.12500000000E+03 0.  0.
        -11    1    3    3    0    0  0.46264304974E+02 -0.24966192803E+02  0.12602139005E+02  0.54060249773E+02  0.51100000000E-03 0.  1.
         23    2    1    0    0    0  0.20606435476E+02 -0.13253440050E+02 -0.17178321934E+02  0.95077206002E+02  0.90245783838E+02 0.  0.
         11    1    3    3    0    0 -0.25657869498E+02  0.11712752753E+02 -0.29780460939E+02  0.41016956228E+02  0.51100000000E-03 0. -1.
         22    1    1    0    0    0 -0.20606435476E+02  0.13253440050E+02  0.17178321934E+02  0.29922793998E+02  0.00000000000E+00 0.  1.
</event>
<event>
 5    1  0.8957809E-005  0.9118800E+02  0.7818608E-02  0.1130116E+00
         25   -1    0    0    0    0  0.00000000000E+00  0.00000000000E+00  0.99999998245E-14  0.12500000000E+03  0.12500000000E+03 0.  0.
        -11    1    3    3    0    0  0.19271517357E+02  0.12580627745E+02 -0.41650871563E+02  0.47586328687E+02  0.51100000000E-03 0.  1.
         23    2    1    0    0    0 -0.94937794979E+01 -0.19150923642E+02 -0.20619533618E+02  0.95300591047E+02  0.90554667256E+02 0.  0.
         11    1    3    3    0    0 -0.28765296855E+02 -0.31731551387E+02  0.21031337945E+02  0.47714262360E+02  0.51100000000E-03 0. -1.
         22    1    1    0    0    0  0.94937794979E+01  0.19150923642E+02  0.20619533618E+02  0.29699408953E+02  0.00000000000E+00 0.  1.
</event>
<event>
 5    1  0.8957809E-005  0.9118800E+02  0.7818608E-02  0.1130116E+00
         25   -1    0    0    0    0  0.00000000000E+00  0.00000000000E+00  0.99999998245E-14  0.12500000000E+03  0.12500000000E+03 0.  0.
        -11    1    3    3    0    0 -0.35202814795E+02  0.24077326383E+02 -0.44756138720E+02  0.61822874154E+02  0.51100000000E-03 0.  1.
         23    2    1    0    0    0 -0.20900123084E+02  0.15272180597E+02 -0.17793902787E+02  0.93588574985E+02  0.88159762626E+02 0.  0.
         11    1    3    3    0    0  0.14302691712E+02 -0.88051457859E+01  0.26962235933E+02  0.31765700831E+02  0.51100000000E-03 0. -1.
         22    1    1    0    0    0  0.20900123084E+02 -0.15272180597E+02  0.17793902787E+02  0.31411425015E+02  0.00000000000E+00 0.  1.
</event>
<event>
 5    1  0.8957809E-005  0.9118800E+02  0.7818608E-02  0.1130116E+00
         25   -1    0    0    0    0  0.00000000000E+00  0.00000000000E+00  0.99999998245E-14  0.12500000000E+03  0.12500000000E+03 0.  0.
        -11    1    3    3    0    0  0.36776709698E+02  0.38357430590E+02 -0.78614725831E+01  0.53717982176E+02  0.51100000000E-03 0. -1.
         23    2    1    0    0    0  0.24138953970E+02 -0.18252837895E+01 -0.15114570669E+02  0.96461061579E+02  0.92142636140E+02 0.  0.
         11    1    3    3    0    0 -0.12637755728E+02 -0.40182714379E+02 -0.72530980859E+01  0.42743079403E+02  0.51100000000E-03 0.  1.
         22    1    1    0    0    0 -0.24138953970E+02  0.18252837895E+01  0.15114570669E+02  0.28538938421E+02  0.00000000000E+00 0. -1.
</event>
<event>
 5    1  0.8957809E-005  0.9118800E+02  0.7818608E-02  0.1130116E+00
         25   -1    0    0    0    0  0.00000000000E+00  0.00000000000E+00  0.99999998245E-14  0.12500000000E+03  0.12500000000E+03 0.  0.
        -11    1    3    3    0    0  0.28244265582E+00 -0.33843645059E+02 -0.36821637220E+01  0.34044535753E+02  0.51100000000E-03 0.  1.
         23    2    1    0    0    0  0.58783027389E+01  0.26900412124E+02 -0.10722529885E+02  0.95450731605E+02  0.90761681900E+02 0.  0.
         11    1    3    3    0    0  0.55958600831E+01  0.60744057182E+02 -0.70403661635E+01  0.61406195852E+02  0.51100000000E-03 0. -1.
         22    1    1    0    0    0 -0.58783027389E+01 -0.26900412124E+02  0.10722529885E+02  0.29549268395E+02  0.00000000000E+00 0. -1.
</event>
