<event>
 5    1  0.1261010E-009  0.9118800E+02  0.7561462E-02  0.1125453E+00
         25   -1    0    0    0    0  0.00000000000E+00  0.00000000000E+00  0.99999998245E-14  0.12509000000E+03  0.12509000000E+03 0.  0.
        -13    1    3    3    0    0 -0.14023073058E+02  0.12808234084E+02 -0.26690925116E+02  0.32758420077E+02  0.10566000000E+00 0. -1.
         23    2    1    0    0    0  0.68115159325E+01 -0.16205677309E+02  0.24350577276E+02  0.95057162305E+02  0.90188096584E+02 0.  0.
         13    1    3    3    0    0  0.20834588990E+02 -0.29013911393E+02  0.51041502393E+02  0.62298742228E+02  0.10566000000E+00 0.  1.
         22    1    1    0    0    0 -0.68115159325E+01  0.16205677309E+02 -0.24350577276E+02  0.30032837695E+02  0.00000000000E+00 0.  1.
</event>
<event>
 5    1  0.1261010E-009  0.9118800E+02  0.7561462E-02  0.1125453E+00
         25   -1    0    0    0    0  0.00000000000E+00  0.00000000000E+00  0.99999998245E-14  0.12509000000E+03  0.12509000000E+03 0.  0.
        -13    1    3    3    0    0  0.29781694295E+02 -0.19295014453E+02  0.37272653751E+02  0.51463664653E+02  0.10566000000E+00 0. -1.
         23    2    1    0    0    0 -0.23873725004E+01 -0.28310070867E+02  0.88326086178E+01  0.95338115439E+02  0.90576937576E+02 0.  0.
         13    1    3    3    0    0 -0.32169066796E+02 -0.90150564136E+01 -0.28440045133E+02  0.43874450787E+02  0.10566000000E+00 0.  1.
         22    1    1    0    0    0  0.23873725004E+01  0.28310070867E+02 -0.88326086178E+01  0.29751884561E+02  0.00000000000E+00 0. -1.
</event>
<event>
 5    1  0.1261010E-009  0.9118800E+02  0.7561462E-02  0.1125453E+00
         25   -1    0    0    0    0  0.00000000000E+00  0.00000000000E+00  0.99999998245E-14  0.12509000000E+03  0.12509000000E+03 0.  0.
        -13    1    3    3    0    0  0.21583485725E+02 -0.24755020649E+02  0.20024563950E+02  0.38466247917E+02  0.10566000000E+00 0. -1.
         23    2    1    0    0    0  0.34225217087E+01  0.14609709977E+01 -0.28398802153E+02  0.96448420874E+02  0.92097545213E+02 0.  0.
         13    1    3    3    0    0 -0.18160964016E+02  0.26215991647E+02 -0.48423366103E+02  0.57982172957E+02  0.10566000000E+00 0.  1.
         22    1    1    0    0    0 -0.34225217087E+01 -0.14609709977E+01  0.28398802153E+02  0.28641579126E+02  0.00000000000E+00 0.  1.
</event>
<event>
 5    1  0.1261010E-009  0.9118800E+02  0.7561462E-02  0.1125453E+00
         25   -1    0    0    0    0  0.00000000000E+00  0.00000000000E+00  0.99999998245E-14  0.12509000000E+03  0.12509000000E+03 0.  0.
        -13    1    3    3    0    0  0.24325675212E+02  0.14102502572E+02  0.46745292409E+02  0.54550459024E+02  0.10566000000E+00 0.  1.
         23    2    1    0    0    0  0.29856724897E+02 -0.33194031269E+01  0.14234754821E+02  0.91847396259E+02  0.85620520297E+02 0.  0.
         13    1    3    3    0    0  0.55310496853E+01 -0.17421905698E+02 -0.32510537588E+02  0.37296937235E+02  0.10566000000E+00 0. -1.
         22    1    1    0    0    0 -0.29856724897E+02  0.33194031269E+01 -0.14234754821E+02  0.33242603741E+02  0.00000000000E+00 0.  1.
</event>
<event>
 5    1  0.1261010E-009  0.9118800E+02  0.7561462E-02  0.1125453E+00
         25   -1    0    0    0    0  0.00000000000E+00  0.00000000000E+00  0.99999998245E-14  0.12509000000E+03  0.12509000000E+03 0.  0.
        -13    1    3    3    0    0 -0.24817282028E+02  0.14043599261E+02  0.36964513078E+02  0.46685185644E+02  0.10566000000E+00 0.  1.
         23    2    1    0    0    0 -0.13370238527E+02  0.22858868309E+02 -0.10727551090E+02  0.96517784632E+02  0.92191709276E+02 0.  0.
         13    1    3    3    0    0  0.11447043500E+02  0.88152690485E+01 -0.47692064168E+02  0.49832598988E+02  0.10566000000E+00 0. -1.
         22    1    1    0    0    0  0.13370238527E+02 -0.22858868309E+02  0.10727551090E+02  0.28572215368E+02  0.00000000000E+00 0.  1.
</event>
<event>
 5    1  0.1261010E-009  0.9118800E+02  0.7561462E-02  0.1125453E+00
         25   -1    0    0    0    0  0.00000000000E+00  0.00000000000E+00  0.99999998245E-14  0.12509000000E+03  0.12509000000E+03 0.  0.
        -13    1    3    3    0    0 -0.16087062873E+01  0.15547919529E+02 -0.34869578548E+02  0.38212882772E+02  0.10566000000E+00 0.  1.
         23    2    1    0    0    0  0.21520988417E+02 -0.20098943743E+02  0.34616914170E+01  0.95440315524E+02  0.90717969763E+02 0.  0.
         13    1    3    3    0    0  0.23129694705E+02 -0.35646863272E+02  0.38331269965E+02  0.57227432752E+02  0.10566000000E+00 0. -1.
         22    1    1    0    0    0 -0.21520988417E+02  0.20098943743E+02 -0.34616914170E+01  0.29649684476E+02  0.00000000000E+00 0. -1.
</event>
<event>
 5    1  0.1261010E-009  0.9118800E+02  0.7561462E-02  0.1125453E+00
         25   -1    0    0    0    0  0.00000000000E+00  0.00000000000E+00  0.99999998245E-14  0.12509000000E+03  0.12509000000E+03 0.  0.
        -13    1    3    3    0    0  0.12295155300E+02  0.22203747303E+01  0.30664228890E+02  0.33112037165E+02  0.10566000000E+00 0. -1.
         23    2    1    0    0    0  0.36170039076E+00 -0.85304609748E+01 -0.28978537167E+02  0.94879816155E+02  0.89941782869E+02 0.  0.
         13    1    3    3    0    0 -0.11933454910E+02 -0.10750835705E+02 -0.59642766056E+02  0.61767778990E+02  0.10566000000E+00 0.  1.
         22    1    1    0    0    0 -0.36170039076E+00  0.85304609748E+01  0.28978537167E+02  0.30210183845E+02  0.00000000000E+00 0.  1.
</event>
<event>
 5    1  0.1261010E-009  0.9118800E+02  0.7561462E-02  0.1125453E+00
         25   -1    0    0    0    0  0.00000000000E+00  0.00000000000E+00  0.99999998245E-14  0.12509000000E+03  0.12509000000E+03 0.  0.
        -13    1    3    3    0    0 -0.32839166233E+02 -0.24442635689E+02  0.53905129391E+01  0.41290702005E+02  0.10566000000E+00 0.  1.
         23    2    1    0    0    0  0.20881617447E+02 -0.17953944919E+02 -0.67253724906E+01  0.96741865661E+02  0.92495253127E+02 0.  0.
         13    1    3    3    0    0  0.53720783680E+02  0.64886907695E+01 -0.12115885430E+02  0.55451163656E+02  0.10566000000E+00 0. -1.
         22    1    1    0    0    0 -0.20881617447E+02  0.17953944919E+02  0.67253724906E+01  0.28348134339E+02  0.00000000000E+00 0. -1.
</event>
<event>
 5    1  0.1261010E-009  0.9118800E+02  0.7561462E-02  0.1125453E+00
         25   -1    0    0    0    0  0.00000000000E+00  0.00000000000E+00  0.99999998245E-14  0.12509000000E+03  0.12509000000E+03 0.  0.
        -13    1    3    3    0    0  0.35300760666E+02 -0.84281452807E+01 -0.62455091305E+01  0.36826551356E+02  0.10566000000E+00 0.  1.
         23    2    1    0    0    0 -0.81961788681E+01  0.21212605523E+02  0.19234377793E+02  0.95305553217E+02  0.90531956810E+02 0.  0.
         13    1    3    3    0    0 -0.43496939534E+02  0.29640750803E+02  0.25479886923E+02  0.58479001861E+02  0.10566000000E+00 0. -1.
         22    1    1    0    0    0  0.81961788681E+01 -0.21212605523E+02 -0.19234377793E+02  0.29784446783E+02  0.00000000000E+00 0. -1.
</event>
<event>
 5    1  0.1261010E-009  0.9118800E+02  0.7561462E-02  0.1125453E+00
         25   -1    0    0    0    0  0.00000000000E+00  0.00000000000E+00  0.99999998245E-14  0.12509000000E+03  0.12509000000E+03 0.  0.
        -13    1    3    3    0    0 -0.43143991220E+02 -0.11766046878E+02  0.39327347943E+02  0.59552458369E+02  0.10566000000E+00 0.  1.
         23    2    1    0    0    0 -0.21203671472E+02 -0.19220186934E+02  0.16621219342E+02  0.91995042649E+02  0.85835957907E+02 0.  0.
         13    1    3    3    0    0  0.21940319749E+02 -0.74541400562E+01 -0.22706128601E+02  0.32442584279E+02  0.10566000000E+00 0. -1.
         22    1    1    0    0    0  0.21203671472E+02  0.19220186934E+02 -0.16621219342E+02  0.33094957351E+02  0.00000000000E+00 0.  1.
</event>
<event>
 5    1  0.1261010E-009  0.9118800E+02  0.7561462E-02  0.1125453E+00
         25   -1    0    0    0    0  0.00000000000E+00  0.00000000000E+00  0.99999998245E-14  0.12509000000E+03  0.12509000000E+03 0.  0.
        -13    1    3    3    0    0 -0.54522878955E+02 -0.14946430622E+02  0.86850747553E+01  0.57197743010E+02  0.10566000000E+00 0.  1.
         23    2    1    0    0    0 -0.18914963694E+02 -0.23450362959E+02 -0.56122038362E+00  0.94956790036E+02  0.90048773623E+02 0.  0.
         13    1    3    3    0    0  0.35607915261E+02 -0.85039323369E+01 -0.92462951389E+01  0.37759047026E+02  0.10566000000E+00 0. -1.
         22    1    1    0    0    0  0.18914963694E+02  0.23450362959E+02  0.56122038362E+00  0.30133209964E+02  0.00000000000E+00 0.  1.
</event>
<event>
 5    1  0.1261010E-009  0.9118800E+02  0.7561462E-02  0.1125453E+00
         25   -1    0    0    0    0  0.00000000000E+00  0.00000000000E+00  0.99999998245E-14  0.12509000000E+03  0.12509000000E+03 0.  0.
        -13    1    3    3    0    0  0.77632527306E+01 -0.53893025388E+02 -0.21951036176E+02  0.58707626690E+02  0.10566000000E+00 0.  1.
         23    2    1    0    0    0  0.66604870756E+01 -0.28070754563E+02  0.47301696686E+01  0.95854681378E+02  0.91287546177E+02 0.  0.
         13    1    3    3    0    0 -0.11027656551E+01  0.25822270824E+02  0.26681205844E+02  0.37147054687E+02  0.10566000000E+00 0. -1.
         22    1    1    0    0    0 -0.66604870756E+01  0.28070754563E+02 -0.47301696686E+01  0.29235318622E+02  0.00000000000E+00 0.  1.
</event>
<event>
 5    1  0.1261010E-009  0.9118800E+02  0.7561462E-02  0.1125453E+00
         25   -1    0    0    0    0  0.00000000000E+00  0.00000000000E+00  0.99999998245E-14  0.12509000000E+03  0.12509000000E+03 0.  0.
        -13    1    3    3    0    0 -0.45036061452E+02  0.16588411087E+02  0.31890520747E+01  0.48099931712E+02  0.10566000000E+00 0. -1.
         23    2    1    0    0    0 -0.26527923086E+02  0.36820221566E+01  0.31136795517E+02  0.84019474980E+02  0.73297231533E+02 0.  0.
         13    1    3    3    0    0  0.18508138367E+02 -0.12906388930E+02  0.27947743442E+02  0.35919543268E+02  0.10566000000E+00 0.  1.
         22    1    1    0    0    0  0.26527923086E+02 -0.36820221566E+01 -0.31136795517E+02  0.41070525020E+02  0.00000000000E+00 0. -1.
</event>
<event>
 5    1  0.1261010E-009  0.9118800E+02  0.7561462E-02  0.1125453E+00
         25   -1    0    0    0    0  0.00000000000E+00  0.00000000000E+00  0.99999998245E-14  0.12509000000E+03  0.12509000000E+03 0.  0.
        -13    1    3    3    0    0 -0.46825255901E+01  0.49241008652E+02 -0.33601456335E+02  0.59796923088E+02  0.10566000000E+00 0.  1.
         23    2    1    0    0    0 -0.13789038823E+02  0.17422567671E+02 -0.18508460108E+02  0.96172072144E+02  0.91721431024E+02 0.  0.
         13    1    3    3    0    0 -0.91065132329E+01 -0.31818440981E+02  0.15092996227E+02  0.36375149056E+02  0.10566000000E+00 0. -1.
         22    1    1    0    0    0  0.13789038823E+02 -0.17422567671E+02  0.18508460108E+02  0.28917927856E+02  0.00000000000E+00 0.  1.
</event>
<event>
 5    1  0.1261010E-009  0.9118800E+02  0.7561462E-02  0.1125453E+00
         25   -1    0    0    0    0  0.00000000000E+00  0.00000000000E+00  0.99999998245E-14  0.12509000000E+03  0.12509000000E+03 0.  0.
        -13    1    3    3    0    0  0.58547552070E+02  0.13488778608E+02 -0.12446015785E+02  0.61356967613E+02  0.10566000000E+00 0. -1.
         23    2    1    0    0    0  0.24382386951E+02  0.13815388350E+02 -0.87927635415E+01  0.95718611892E+02  0.91100901330E+02 0.  0.
         13    1    3    3    0    0 -0.34165165119E+02  0.32660974216E+00  0.36532522439E+01  0.34361644278E+02  0.10566000000E+00 0.  1.
         22    1    1    0    0    0 -0.24382386951E+02 -0.13815388350E+02  0.87927635415E+01  0.29371388108E+02  0.00000000000E+00 0. -1.
</event>
<event>
 5    1  0.1261010E-009  0.9118800E+02  0.7561462E-02  0.1125453E+00
         25   -1    0    0    0    0  0.00000000000E+00  0.00000000000E+00  0.99999998245E-14  0.12509000000E+03  0.12509000000E+03 0.  0.
        -13    1    3    3    0    0  0.97232244935E+00 -0.35489876201E+02  0.17391881676E+02  0.39534357665E+02  0.10566000000E+00 0.  1.
         23    2    1    0    0    0  0.30872993802E+02  0.71500956779E+01  0.65304058095E+01  0.92733983333E+02  0.86906155423E+02 0.  0.
         13    1    3    3    0    0  0.29900671352E+02  0.42639971879E+02 -0.10861475867E+02  0.53199625668E+02  0.10566000000E+00 0. -1.
         22    1    1    0    0    0 -0.30872993802E+02 -0.71500956779E+01 -0.65304058095E+01  0.32356016667E+02  0.00000000000E+00 0. -1.
</event>
<event>
 5    1  0.1261010E-009  0.9118800E+02  0.7561462E-02  0.1125453E+00
         25   -1    0    0    0    0  0.00000000000E+00  0.00000000000E+00  0.99999998245E-14  0.12509000000E+03  0.12509000000E+03 0.  0.
        -13    1    3    3    0    0  0.58096282881E+01 -0.57171349276E+02 -0.22525192149E+02  0.61722851556E+02  0.10566000000E+00 0.  1.
         23    2    1    0    0    0 -0.33594821985E+01 -0.25182669867E+02 -0.14032526605E+02  0.96066478759E+02  0.91577309177E+02 0.  0.
         13    1    3    3    0    0 -0.91691104866E+01  0.31988679408E+02  0.84926655441E+01  0.34343627203E+02  0.10566000000E+00 0. -1.
         22    1    1    0    0    0  0.33594821985E+01  0.25182669867E+02  0.14032526605E+02  0.29023521241E+02  0.00000000000E+00 0.  1.
</event>
<event>
 5    1  0.1261010E-009  0.9118800E+02  0.7561462E-02  0.1125453E+00
         25   -1    0    0    0    0  0.00000000000E+00  0.00000000000E+00  0.99999998245E-14  0.12509000000E+03  0.12509000000E+03 0.  0.
        -13    1    3    3    0    0 -0.29942387334E+02 -0.59773205053E+01 -0.30998896045E+02  0.43511120874E+02  0.10566000000E+00 0.  1.
         23    2    1    0    0    0  0.18360337609E+02 -0.13760952010E+02 -0.22086596281E+02  0.93242181666E+02  0.87634587403E+02 0.  0.
         13    1    3    3    0    0  0.48302724943E+02 -0.77836315045E+01  0.89122997645E+01  0.49731060792E+02  0.10566000000E+00 0. -1.
         22    1    1    0    0    0 -0.18360337609E+02  0.13760952010E+02  0.22086596281E+02  0.31847818334E+02  0.00000000000E+00 0. -1.
</event>
<event>
 5    1  0.1261010E-009  0.9118800E+02  0.7561462E-02  0.1125453E+00
         25   -1    0    0    0    0  0.00000000000E+00  0.00000000000E+00  0.99999998245E-14  0.12509000000E+03  0.12509000000E+03 0.  0.
        -13    1    3    3    0    0  0.18107050956E+02  0.41296957053E+02 -0.42648292100E+02  0.62066028866E+02  0.10566000000E+00 0. -1.
         23    2    1    0    0    0  0.39724093247E+01  0.18552681200E+02 -0.22968582553E+02  0.95298427365E+02  0.90522110328E+02 0.  0.
         13    1    3    3    0    0 -0.14134641632E+02 -0.22744275853E+02  0.19679709547E+02  0.33232398499E+02  0.10566000000E+00 0.  1.
         22    1    1    0    0    0 -0.39724093247E+01 -0.18552681200E+02  0.22968582553E+02  0.29791572635E+02  0.00000000000E+00 0. -1.
</event>
<event>
 5    1  0.1261010E-009  0.9118800E+02  0.7561462E-02  0.1125453E+00
         25   -1    0    0    0    0  0.00000000000E+00  0.00000000000E+00  0.99999998245E-14  0.12509000000E+03  0.12509000000E+03 0.  0.
        -13    1    3    3    0    0  0.28492977531E+02  0.32120316983E+02 -0.16118737258E+02  0.45862723278E+02  0.10566000000E+00 0.  1.
         23    2    1    0    0    0 -0.17764360285E+02  0.16154415694E+02 -0.18382064692E+02  0.94850324984E+02  0.89900757530E+02 0.  0.
         13    1    3    3    0    0 -0.46257337816E+02 -0.15965901289E+02 -0.22633274334E+01  0.48987601705E+02  0.10566000000E+00 0. -1.
         22    1    1    0    0    0  0.17764360285E+02 -0.16154415694E+02  0.18382064692E+02  0.30239675016E+02  0.00000000000E+00 0. -1.
</event>
<event>
 5    1  0.1261010E-009  0.9118800E+02  0.7561462E-02  0.1125453E+00
         25   -1    0    0    0    0  0.00000000000E+00  0.00000000000E+00  0.99999998245E-14  0.12509000000E+03  0.12509000000E+03 0.  0.
        -13    1    3    3    0    0 -0.36232213879E+02  0.30643286583E+01  0.49821791143E+02  0.61679700627E+02  0.10566000000E+00 0. -1.
         23    2    1    0    0    0 -0.22324899497E+02 -0.29868141768E+01  0.20773940645E+02  0.94448870674E+02  0.89340418429E+02 0.  0.
         13    1    3    3    0    0  0.13907314382E+02 -0.60511428351E+01 -0.29047850498E+02  0.32769170046E+02  0.10566000000E+00 0.  1.
         22    1    1    0    0    0  0.22324899497E+02  0.29868141768E+01 -0.20773940645E+02  0.30641129326E+02  0.00000000000E+00 0. -1.
</event>
<event>
 5    1  0.1261010E-009  0.9118800E+02  0.7561462E-02  0.1125453E+00
         25   -1    0    0    0    0  0.00000000000E+00  0.00000000000E+00  0.99999998245E-14  0.12509000000E+03  0.12509000000E+03 0.  0.
        -13    1    3    3    0    0  0.33598213957E+02 -0.38988022309E+02  0.11405095570E+02  0.52716157235E+02  0.10566000000E+00 0. -1.
         23    2    1    0    0    0  0.40380912990E+01 -0.63569347845E+01  0.25146339845E+02  0.98840138881E+02  0.95290701777E+02 0.  0.
         13    1    3    3    0    0 -0.29560122658E+02  0.32631087524E+02  0.13741244275E+02  0.46123981645E+02  0.10566000000E+00 0.  1.
         22    1    1    0    0    0 -0.40380912990E+01  0.63569347845E+01 -0.25146339845E+02  0.26249861119E+02  0.00000000000E+00 0. -1.
</event>
<event>
 5    1  0.1261010E-009  0.9118800E+02  0.7561462E-02  0.1125453E+00
         25   -1    0    0    0    0  0.00000000000E+00  0.00000000000E+00  0.99999998245E-14  0.12509000000E+03  0.12509000000E+03 0.  0.
        -13    1    3    3    0    0 -0.45962145516E+02  0.32037972881E+02 -0.15226691686E+02  0.58058710203E+02  0.10566000000E+00 0.  1.
         23    2    1    0    0    0 -0.11564736758E+02  0.16417538650E+02 -0.20721218796E+02  0.96234365888E+02  0.91806348135E+02 0.  0.
         13    1    3    3    0    0  0.34397408758E+02 -0.15620434230E+02 -0.54945271100E+01  0.38175655685E+02  0.10566000000E+00 0. -1.
         22    1    1    0    0    0  0.11564736758E+02 -0.16417538650E+02  0.20721218796E+02  0.28855634112E+02  0.00000000000E+00 0.  1.
</event>
<event>
 5    1  0.1261010E-009  0.9118800E+02  0.7561462E-02  0.1125453E+00
         25   -1    0    0    0    0  0.00000000000E+00  0.00000000000E+00  0.99999998245E-14  0.12509000000E+03  0.12509000000E+03 0.  0.
        -13    1    3    3    0    0 -0.16857786749E+02  0.20442305700E+02  0.51401930821E+02  0.57829425836E+02  0.10566000000E+00 0. -1.
         23    2    1    0    0    0 -0.39874188221E+01 -0.62044962228E+01  0.29597769155E+02  0.94587160441E+02  0.89533835498E+02 0.  0.
         13    1    3    3    0    0  0.12870367927E+02 -0.26646801923E+02 -0.21804161666E+02  0.36757734605E+02  0.10566000000E+00 0.  1.
         22    1    1    0    0    0  0.39874188221E+01  0.62044962228E+01 -0.29597769155E+02  0.30502839559E+02  0.00000000000E+00 0. -1.
</event>
<event>
 5    1  0.1261010E-009  0.9118800E+02  0.7561462E-02  0.1125453E+00
         25   -1    0    0    0    0  0.00000000000E+00  0.00000000000E+00  0.99999998245E-14  0.12509000000E+03  0.12509000000E+03 0.  0.
        -13    1    3    3    0    0 -0.65883751998E+00 -0.30882567231E+02  0.12519595381E+02  0.33330443414E+02  0.10566000000E+00 0. -1.
         23    2    1    0    0    0  0.30597615107E+02  0.95579714914E+01 -0.13048107061E+02  0.90480435323E+02  0.83599564646E+02 0.  0.
         13    1    3    3    0    0  0.31256452627E+02  0.40440538722E+02 -0.25567702442E+02  0.57149991909E+02  0.10566000000E+00 0.  1.
         22    1    1    0    0    0 -0.30597615107E+02 -0.95579714914E+01  0.13048107061E+02  0.34609564677E+02  0.00000000000E+00 0.  1.
</event>
<event>
 5    1  0.1261010E-009  0.9118800E+02  0.7561462E-02  0.1125453E+00
         25   -1    0    0    0    0  0.00000000000E+00  0.00000000000E+00  0.99999998245E-14  0.12509000000E+03  0.12509000000E+03 0.  0.
        -13    1    3    3    0    0 -0.47815145765E+01  0.37531638461E+02  0.12870083260E+02  0.39964196156E+02  0.10566000000E+00 0. -1.
         23    2    1    0    0    0  0.40883204661E+00 -0.14602733810E+02  0.27142778298E+02  0.94265701272E+02  0.89083584595E+02 0.  0.
         13    1    3    3    0    0  0.51903466231E+01 -0.52134372271E+02  0.14272695038E+02  0.54301505116E+02  0.10566000000E+00 0.  1.
         22    1    1    0    0    0 -0.40883204661E+00  0.14602733810E+02 -0.27142778298E+02  0.30824298728E+02  0.00000000000E+00 0.  1.
</event>
<event>
 5    1  0.1261010E-009  0.9118800E+02  0.7561462E-02  0.1125453E+00
         25   -1    0    0    0    0  0.00000000000E+00  0.00000000000E+00  0.99999998245E-14  0.12509000000E+03  0.12509000000E+03 0.  0.
        -13    1    3    3    0    0  0.32866271012E+02  0.12692541132E+02 -0.26390255809E+02  0.44019872061E+02  0.10566000000E+00 0.  1.
         23    2    1    0    0    0  0.28127330764E+01 -0.26803051661E+02 -0.11000507337E+02  0.95981131809E+02  0.91460655234E+02 0.  0.
         13    1    3    3    0    0 -0.30053537936E+02 -0.39495592793E+02  0.15389748471E+02  0.51961259747E+02  0.10566000000E+00 0. -1.
         22    1    1    0    0    0 -0.28127330764E+01  0.26803051661E+02  0.11000507337E+02  0.29108868191E+02  0.00000000000E+00 0. -1.
</event>
<event>
 5    1  0.1261010E-009  0.9118800E+02  0.7561462E-02  0.1125453E+00
         25   -1    0    0    0    0  0.00000000000E+00  0.00000000000E+00  0.99999998245E-14  0.12509000000E+03  0.12509000000E+03 0.  0.
        -13    1    3    3    0    0  0.38341744056E+00  0.89072023523E+01 -0.57772716528E+02  0.58456677991E+02  0.10566000000E+00 0.  1.
         23    2    1    0    0    0  0.12291102097E+02  0.13432210981E+02 -0.21416076003E+02  0.96980503491E+02  0.92817424352E+02 0.  0.
         13    1    3    3    0    0  0.11907684656E+02  0.45250086290E+01  0.36356640524E+02  0.38523825501E+02  0.10566000000E+00 0. -1.
         22    1    1    0    0    0 -0.12291102097E+02 -0.13432210981E+02  0.21416076003E+02  0.28109496509E+02  0.00000000000E+00 0.  1.
</event>
<event>
 5    1  0.1261010E-009  0.9118800E+02  0.7561462E-02  0.1125453E+00
         25   -1    0    0    0    0  0.00000000000E+00  0.00000000000E+00  0.99999998245E-14  0.12509000000E+03  0.12509000000E+03 0.  0.
        -13    1    3    3    0    0 -0.36639477908E+01  0.30725930661E+02  0.23346107554E+02  0.38762858903E+02  0.10566000000E+00 0.  1.
         23    2    1    0    0    0  0.29951509184E+02 -0.11812494758E+01 -0.71894116315E+01  0.94265076767E+02  0.89082707668E+02 0.  0.
         13    1    3    3    0    0  0.33615456975E+02 -0.31907180137E+02 -0.30535519185E+02  0.55502217864E+02  0.10566000000E+00 0. -1.
         22    1    1    0    0    0 -0.29951509184E+02  0.11812494758E+01  0.71894116315E+01  0.30824923233E+02  0.00000000000E+00 0. -1.
</event>
<event>
 5    1  0.1261010E-009  0.9118800E+02  0.7561462E-02  0.1125453E+00
         25   -1    0    0    0    0  0.00000000000E+00  0.00000000000E+00  0.99999998245E-14  0.12509000000E+03  0.12509000000E+03 0.  0.
        -13    1    3    3    0    0 -0.35485536638E+02 -0.47765945785E+02 -0.44893268088E+01  0.59673898033E+02  0.10566000000E+00 0.  1.
         23    2    1    0    0    0 -0.82004329518E+01 -0.21493122147E+01 -0.86346121630E+01  0.11298945576E+03  0.11233963656E+03 0.  0.
         13    1    3    3    0    0  0.27285103686E+02  0.45616633571E+02 -0.41452853542E+01  0.53315557731E+02  0.10566000000E+00 0. -1.
         22    1    1    0    0    0  0.82004329518E+01  0.21493122147E+01  0.86346121630E+01  0.12100544236E+02  0.00000000000E+00 0.  1.
</event>
<event>
 5    1  0.1261010E-009  0.9118800E+02  0.7561462E-02  0.1125453E+00
         25   -1    0    0    0    0  0.00000000000E+00  0.00000000000E+00  0.99999998245E-14  0.12509000000E+03  0.12509000000E+03 0.  0.
        -13    1    3    3    0    0 -0.36057202275E+02 -0.46247630637E+01  0.75002340737E+00  0.36360472611E+02  0.10566000000E+00 0. -1.
         23    2    1    0    0    0  0.17922286852E+02 -0.14888185436E+01  0.23900941075E+02  0.95178799239E+02  0.90356648309E+02 0.  0.
         13    1    3    3    0    0  0.53979489127E+02  0.31359445201E+01  0.23150917668E+02  0.58818326629E+02  0.10566000000E+00 0.  1.
         22    1    1    0    0    0 -0.17922286852E+02  0.14888185436E+01 -0.23900941075E+02  0.29911200761E+02  0.00000000000E+00 0.  1.
</event>
<event>
 5    1  0.1261010E-009  0.9118800E+02  0.7561462E-02  0.1125453E+00
         25   -1    0    0    0    0  0.00000000000E+00  0.00000000000E+00  0.99999998245E-14  0.12509000000E+03  0.12509000000E+03 0.  0.
        -13    1    3    3    0    0 -0.15176392839E+02  0.27441635642E+02 -0.14120988776E+02  0.34391565163E+02  0.10566000000E+00 0.  1.
         23    2    1    0    0    0  0.22204612108E+02 -0.13956611754E+02  0.12313882337E+02  0.96116503340E+02  0.91645614765E+02 0.  0.
         13    1    3    3    0    0  0.37381004946E+02 -0.41398247396E+02  0.26434871112E+02  0.61724938177E+02  0.10566000000E+00 0. -1.
         22    1    1    0    0    0 -0.22204612108E+02  0.13956611754E+02 -0.12313882337E+02  0.28973496660E+02  0.00000000000E+00 0. -1.
</event>
<event>
 5    1  0.1261010E-009  0.9118800E+02  0.7561462E-02  0.1125453E+00
         25   -1    0    0    0    0  0.00000000000E+00  0.00000000000E+00  0.99999998245E-14  0.12509000000E+03  0.12509000000E+03 0.  0.
        -13    1    3    3    0    0 -0.28650139184E+02  0.96254338758E+01  0.45649152675E+02  0.54747929244E+02  0.10566000000E+00 0. -1.
         23    2    1    0    0    0  0.61209400216E+01  0.12918328928E+02  0.27471157261E+02  0.94122055117E+02  0.88881649676E+02 0.  0.
         13    1    3    3    0    0  0.34771079206E+02  0.32928950520E+01 -0.18177995414E+02  0.39374125873E+02  0.10566000000E+00 0.  1.
         22    1    1    0    0    0 -0.61209400216E+01 -0.12918328928E+02 -0.27471157261E+02  0.30967944883E+02  0.00000000000E+00 0. -1.
</event>
<event>
 5    1  0.1261010E-009  0.9118800E+02  0.7561462E-02  0.1125453E+00
         25   -1    0    0    0    0  0.00000000000E+00  0.00000000000E+00  0.99999998245E-14  0.12509000000E+03  0.12509000000E+03 0.  0.
        -13    1    3    3    0    0 -0.24869333810E+01 -0.25005163206E+02  0.27278467474E+02  0.37088663718E+02  0.10566000000E+00 0. -1.
         23    2    1    0    0    0 -0.14263617205E+02  0.24290600765E+02 -0.39883255721E+01  0.96640205586E+02  0.92357666350E+02 0.  0.
         13    1    3    3    0    0 -0.11776683824E+02  0.49295763972E+02 -0.31266793046E+02  0.59551541868E+02  0.10566000000E+00 0.  1.
         22    1    1    0    0    0  0.14263617205E+02 -0.24290600765E+02  0.39883255721E+01  0.28449794414E+02  0.00000000000E+00 0.  1.
</event>
<event>
 5    1  0.1261010E-009  0.9118800E+02  0.7561462E-02  0.1125453E+00
         25   -1    0    0    0    0  0.00000000000E+00  0.00000000000E+00  0.99999998245E-14  0.12509000000E+03  0.12509000000E+03 0.  0.
        -13    1    3    3    0    0 -0.25687321065E+02 -0.40477894467E+02 -0.22946332565E+02  0.53149259131E+02  0.10566000000E+00 0. -1.
         23    2    1    0    0    0 -0.68534534139E+01 -0.28392609619E+02  0.11059963378E+02  0.93858078916E+02  0.88509355908E+02 0.  0.
         13    1    3    3    0    0  0.18833867651E+02  0.12085284848E+02  0.34006295942E+02  0.40708819785E+02  0.10566000000E+00 0.  1.
         22    1    1    0    0    0  0.68534534139E+01  0.28392609619E+02 -0.11059963378E+02  0.31231921084E+02  0.00000000000E+00 0. -1.
</event>
<event>
 5    1  0.1261010E-009  0.9118800E+02  0.7561462E-02  0.1125453E+00
         25   -1    0    0    0    0  0.00000000000E+00  0.00000000000E+00  0.99999998245E-14  0.12509000000E+03  0.12509000000E+03 0.  0.
        -13    1    3    3    0    0 -0.44690413026E+02 -0.53863188624E+01 -0.37789560766E+02  0.58773357180E+02  0.10566000000E+00 0.  1.
         23    2    1    0    0    0 -0.10460149582E+02  0.17543707732E+00 -0.28581087555E+02  0.94654427502E+02  0.89627766749E+02 0.  0.
         13    1    3    3    0    0  0.34230263444E+02  0.55617559397E+01  0.92084732107E+01  0.35881070322E+02  0.10566000000E+00 0. -1.
         22    1    1    0    0    0  0.10460149582E+02 -0.17543707732E+00  0.28581087555E+02  0.30435572498E+02  0.00000000000E+00 0.  1.
</event>
<event>
 5    1  0.1261010E-009  0.9118800E+02  0.7561462E-02  0.1125453E+00
         25   -1    0    0    0    0  0.00000000000E+00  0.00000000000E+00  0.99999998245E-14  0.12509000000E+03  0.12509000000E+03 0.  0.
        -13    1    3    3    0    0 -0.46280201190E+02 -0.18172842897E+02  0.35526356568E+02  0.61108447993E+02  0.10566000000E+00 0.  1.
         23    2    1    0    0    0 -0.16857408543E+02 -0.16654574878E+02  0.17258122160E+02  0.95774647919E+02  0.91177811535E+02 0.  0.
         13    1    3    3    0    0  0.29422792646E+02  0.15182680194E+01 -0.18268234408E+02  0.34666199926E+02  0.10566000000E+00 0. -1.
         22    1    1    0    0    0  0.16857408543E+02  0.16654574878E+02 -0.17258122160E+02  0.29315352081E+02  0.00000000000E+00 0.  1.
</event>
<event>
 5    1  0.1261010E-009  0.9118800E+02  0.7561462E-02  0.1125453E+00
         25   -1    0    0    0    0  0.00000000000E+00  0.00000000000E+00  0.99999998245E-14  0.12509000000E+03  0.12509000000E+03 0.  0.
        -13    1    3    3    0    0  0.44256401374E+01 -0.44273023321E+02  0.37768347020E+02  0.58362197399E+02  0.10566000000E+00 0. -1.
         23    2    1    0    0    0 -0.73326521214E+01 -0.10608366977E+02  0.26263225920E+02  0.95831458122E+02  0.91255718139E+02 0.  0.
         13    1    3    3    0    0 -0.11758292259E+02  0.33664656344E+02 -0.11505121100E+02  0.37469260723E+02  0.10566000000E+00 0.  1.
         22    1    1    0    0    0  0.73326521214E+01  0.10608366977E+02 -0.26263225920E+02  0.29258541878E+02  0.00000000000E+00 0. -1.
</event>
<event>
 5    1  0.1261010E-009  0.9118800E+02  0.7561462E-02  0.1125453E+00
         25   -1    0    0    0    0  0.00000000000E+00  0.00000000000E+00  0.99999998245E-14  0.12509000000E+03  0.12509000000E+03 0.  0.
        -13    1    3    3    0    0  0.30276634108E+02 -0.40555100304E+02 -0.20356422012E+02  0.54550763650E+02  0.10566000000E+00 0.  1.
         23    2    1    0    0    0  0.16513732859E+02 -0.20872732354E+02  0.12852141993E+02  0.95534088871E+02  0.90847180769E+02 0.  0.
         13    1    3    3    0    0 -0.13762901249E+02  0.19682367950E+02  0.33208564004E+02  0.40983325221E+02  0.10566000000E+00 0. -1.
         22    1    1    0    0    0 -0.16513732859E+02  0.20872732354E+02 -0.12852141993E+02  0.29555911129E+02  0.00000000000E+00 0.  1.
</event>
<event>
 5    1  0.1261010E-009  0.9118800E+02  0.7561462E-02  0.1125453E+00
         25   -1    0    0    0    0  0.00000000000E+00  0.00000000000E+00  0.99999998245E-14  0.12509000000E+03  0.12509000000E+03 0.  0.
        -13    1    3    3    0    0  0.29576601928E+01  0.22227008642E+01 -0.31075411420E+02  0.31295055710E+02  0.10566000000E+00 0.  1.
         23    2    1    0    0    0 -0.95989407251E+01  0.15504357545E+02  0.27185081325E+02  0.92355409540E+02  0.86359529056E+02 0.  0.
         13    1    3    3    0    0 -0.12556600918E+02  0.13281656681E+02  0.58260492745E+02  0.61060353829E+02  0.10566000000E+00 0. -1.
         22    1    1    0    0    0  0.95989407251E+01 -0.15504357545E+02 -0.27185081325E+02  0.32734590460E+02  0.00000000000E+00 0. -1.
</event>
<event>
 5    1  0.1261010E-009  0.9118800E+02  0.7561462E-02  0.1125453E+00
         25   -1    0    0    0    0  0.00000000000E+00  0.00000000000E+00  0.99999998245E-14  0.12509000000E+03  0.12509000000E+03 0.  0.
        -13    1    3    3    0    0 -0.50477796573E+02 -0.21539723330E+02 -0.49334117798E+01  0.55102788894E+02  0.10566000000E+00 0.  1.
         23    2    1    0    0    0 -0.13371730527E+02 -0.22376724750E+02  0.12583141861E+02  0.96144249934E+02  0.91683479146E+02 0.  0.
         13    1    3    3    0    0  0.37106066046E+02 -0.83700141959E+00  0.17516553641E+02  0.41041461040E+02  0.10566000000E+00 0. -1.
         22    1    1    0    0    0  0.13371730527E+02  0.22376724750E+02 -0.12583141861E+02  0.28945750066E+02  0.00000000000E+00 0.  1.
</event>
<event>
 5    1  0.1261010E-009  0.9118800E+02  0.7561462E-02  0.1125453E+00
         25   -1    0    0    0    0  0.00000000000E+00  0.00000000000E+00  0.99999998245E-14  0.12509000000E+03  0.12509000000E+03 0.  0.
        -13    1    3    3    0    0 -0.16068217449E+02  0.35293132405E+02 -0.11132198440E+02  0.40345133698E+02  0.10566000000E+00 0. -1.
         23    2    1    0    0    0 -0.92558306316E+01 -0.16451950178E+02 -0.24441965247E+02  0.94207209801E+02  0.89001413742E+02 0.  0.
         13    1    3    3    0    0  0.68123868170E+01 -0.51745082583E+02 -0.13309766806E+02  0.53862076103E+02  0.10566000000E+00 0.  1.
         22    1    1    0    0    0  0.92558306316E+01  0.16451950178E+02  0.24441965247E+02  0.30882790199E+02  0.00000000000E+00 0.  1.
</event>
<event>
 5    1  0.1261010E-009  0.9118800E+02  0.7561462E-02  0.1125453E+00
         25   -1    0    0    0    0  0.00000000000E+00  0.00000000000E+00  0.99999998245E-14  0.12509000000E+03  0.12509000000E+03 0.  0.
        -13    1    3    3    0    0 -0.18195791201E+02 -0.43437786623E+02 -0.42319341117E+00  0.47096904154E+02  0.10566000000E+00 0.  1.
         23    2    1    0    0    0 -0.18538191105E+02 -0.39823225901E+01  0.24758614908E+02  0.93904868369E+02  0.88575458614E+02 0.  0.
         13    1    3    3    0    0 -0.34239990397E+00  0.39455464033E+02  0.25181808319E+02  0.46807964216E+02  0.10566000000E+00 0. -1.
         22    1    1    0    0    0  0.18538191105E+02  0.39823225901E+01 -0.24758614908E+02  0.31185131631E+02  0.00000000000E+00 0. -1.
</event>
<event>
 5    1  0.1261010E-009  0.9118800E+02  0.7561462E-02  0.1125453E+00
         25   -1    0    0    0    0  0.00000000000E+00  0.00000000000E+00  0.99999998245E-14  0.12509000000E+03  0.12509000000E+03 0.  0.
        -13    1    3    3    0    0 -0.11176976520E+02 -0.46059303871E+02 -0.37797283544E+02  0.60622026398E+02  0.10566000000E+00 0.  1.
         23    2    1    0    0    0 -0.15258679213E+02 -0.16917352382E+02 -0.17301718820E+02  0.96482770546E+02  0.92144188288E+02 0.  0.
         13    1    3    3    0    0 -0.40817026927E+01  0.29141951489E+02  0.20495564725E+02  0.35860744148E+02  0.10566000000E+00 0. -1.
         22    1    1    0    0    0  0.15258679213E+02  0.16917352382E+02  0.17301718820E+02  0.28607229454E+02  0.00000000000E+00 0.  1.
</event>
<event>
 5    1  0.1261010E-009  0.9118800E+02  0.7561462E-02  0.1125453E+00
         25   -1    0    0    0    0  0.00000000000E+00  0.00000000000E+00  0.99999998245E-14  0.12509000000E+03  0.12509000000E+03 0.  0.
        -13    1    3    3    0    0  0.24444433152E+02  0.10951725772E+01 -0.13686309070E+02  0.28036689089E+02  0.10566000000E+00 0. -1.
         23    2    1    0    0    0 -0.27725934789E+02 -0.11357748431E+02  0.17807532329E+02  0.90235529455E+02  0.83232305381E+02 0.  0.
         13    1    3    3    0    0 -0.52170367941E+02 -0.12452921008E+02  0.31493841399E+02  0.62198840366E+02  0.10566000000E+00 0.  1.
         22    1    1    0    0    0  0.27725934789E+02  0.11357748431E+02 -0.17807532329E+02  0.34854470545E+02  0.00000000000E+00 0.  1.
</event>
<event>
 5    1  0.1261010E-009  0.9118800E+02  0.7561462E-02  0.1125453E+00
         25   -1    0    0    0    0  0.00000000000E+00  0.00000000000E+00  0.99999998245E-14  0.12509000000E+03  0.12509000000E+03 0.  0.
        -13    1    3    3    0    0  0.51792751581E+01  0.27430872065E+02 -0.32618902581E+02  0.42933455521E+02  0.10566000000E+00 0. -1.
         23    2    1    0    0    0  0.27505569906E+02  0.82869709028E+01  0.99629444705E+01  0.94684564217E+02  0.89669817530E+02 0.  0.
         13    1    3    3    0    0  0.22326294748E+02 -0.19143901162E+02  0.42581847051E+02  0.51751108696E+02  0.10566000000E+00 0.  1.
         22    1    1    0    0    0 -0.27505569906E+02 -0.82869709028E+01 -0.99629444705E+01  0.30405435783E+02  0.00000000000E+00 0.  1.
</event>
<event>
 5    1  0.1261010E-009  0.9118800E+02  0.7561462E-02  0.1125453E+00
         25   -1    0    0    0    0  0.00000000000E+00  0.00000000000E+00  0.99999998245E-14  0.12509000000E+03  0.12509000000E+03 0.  0.
        -13    1    3    3    0    0  0.67518113197E+01 -0.16231402141E+01  0.41910663172E+02  0.42482189112E+02  0.10566000000E+00 0.  1.
         23    2    1    0    0    0 -0.24625161399E+02 -0.13709737803E+02 -0.86617077051E+00  0.96892380662E+02  0.92698585178E+02 0.  0.
         13    1    3    3    0    0 -0.31376972719E+02 -0.12086597589E+02 -0.42776833942E+02  0.54410191549E+02  0.10566000000E+00 0. -1.
         22    1    1    0    0    0  0.24625161399E+02  0.13709737803E+02  0.86617077051E+00  0.28197619338E+02  0.00000000000E+00 0. -1.
</event>
<event>
 5    1  0.1261010E-009  0.9118800E+02  0.7561462E-02  0.1125453E+00
         25   -1    0    0    0    0  0.00000000000E+00  0.00000000000E+00  0.99999998245E-14  0.12509000000E+03  0.12509000000E+03 0.  0.
        -13    1    3    3    0    0  0.13223107502E+02 -0.20040715946E+02  0.47498145523E+02  0.53221855095E+02  0.10566000000E+00 0.  1.
         23    2    1    0    0    0  0.29260732804E+02 -0.54119088797E+01  0.16501258222E+02  0.91063969305E+02  0.84468193663E+02 0.  0.
         13    1    3    3    0    0  0.16037625302E+02  0.14628807067E+02 -0.30996887300E+02  0.37842114210E+02  0.10566000000E+00 0. -1.
         22    1    1    0    0    0 -0.29260732804E+02  0.54119088797E+01 -0.16501258222E+02  0.34026030695E+02  0.00000000000E+00 0.  1.
</event>
<event>
 5    1  0.1261010E-009  0.9118800E+02  0.7561462E-02  0.1125453E+00
         25   -1    0    0    0    0  0.00000000000E+00  0.00000000000E+00  0.99999998245E-14  0.12509000000E+03  0.12509000000E+03 0.  0.
        -13    1    3    3    0    0  0.15821490149E+02 -0.49942588291E+02 -0.17918160978E+02  0.55368342333E+02  0.10566000000E+00 0. -1.
         23    2    1    0    0    0 -0.11851109594E+02 -0.27481982456E+02 -0.22136076833E+00  0.95160797556E+02  0.90331723290E+02 0.  0.
         13    1    3    3    0    0 -0.27672599743E+02  0.22460605835E+02  0.17696800210E+02  0.39792455224E+02  0.10566000000E+00 0.  1.
         22    1    1    0    0    0  0.11851109594E+02  0.27481982456E+02  0.22136076833E+00  0.29929202444E+02  0.00000000000E+00 0. -1.
</event>
<event>
 5    1  0.1261010E-009  0.9118800E+02  0.7561462E-02  0.1125453E+00
         25   -1    0    0    0    0  0.00000000000E+00  0.00000000000E+00  0.99999998245E-14  0.12509000000E+03  0.12509000000E+03 0.  0.
        -13    1    3    3    0    0 -0.33668249313E+02  0.89032801186E+01  0.24188612992E+02  0.42401881694E+02  0.10566000000E+00 0.  1.
         23    2    1    0    0    0  0.30306036777E+01  0.27878412286E+02 -0.92589262193E+01  0.95558353500E+02  0.90880585268E+02 0.  0.
         13    1    3    3    0    0  0.36698852991E+02  0.18975132168E+02 -0.33447539211E+02  0.53156471806E+02  0.10566000000E+00 0. -1.
         22    1    1    0    0    0 -0.30306036777E+01 -0.27878412286E+02  0.92589262193E+01  0.29531646500E+02  0.00000000000E+00 0.  1.
</event>
<event>
 5    1  0.1261010E-009  0.9118800E+02  0.7561462E-02  0.1125453E+00
         25   -1    0    0    0    0  0.00000000000E+00  0.00000000000E+00  0.99999998245E-14  0.12509000000E+03  0.12509000000E+03 0.  0.
        -13    1    3    3    0    0 -0.47397572252E+02 -0.31464427531E+02 -0.23813088534E+02  0.61673449756E+02  0.10566000000E+00 0.  1.
         23    2    1    0    0    0 -0.26146786270E+02 -0.85227076830E+01 -0.11472723253E+02  0.95292108173E+02  0.90513377589E+02 0.  0.
         13    1    3    3    0    0  0.21250785982E+02  0.22941719848E+02  0.12340365281E+02  0.33618658417E+02  0.10566000000E+00 0. -1.
         22    1    1    0    0    0  0.26146786270E+02  0.85227076830E+01  0.11472723253E+02  0.29797891827E+02  0.00000000000E+00 0.  1.
</event>
<event>
 5    1  0.1261010E-009  0.9118800E+02  0.7561462E-02  0.1125453E+00
         25   -1    0    0    0    0  0.00000000000E+00  0.00000000000E+00  0.99999998245E-14  0.12509000000E+03  0.12509000000E+03 0.  0.
        -13    1    3    3    0    0 -0.67344261874E+01  0.33326874622E+02  0.13828775111E+02  0.36705302795E+02  0.10566000000E+00 0.  1.
         23    2    1    0    0    0  0.31823854708E+02 -0.11983097009E+01 -0.69788266100E+01  0.92487888174E+02  0.86551208908E+02 0.  0.
         13    1    3    3    0    0  0.38558280896E+02 -0.34525184323E+02 -0.20807601721E+02  0.55782585379E+02  0.10566000000E+00 0. -1.
         22    1    1    0    0    0 -0.31823854708E+02  0.11983097009E+01  0.69788266100E+01  0.32602111826E+02  0.00000000000E+00 0. -1.
</event>
<event>
 5    1  0.1261010E-009  0.9118800E+02  0.7561462E-02  0.1125453E+00
         25   -1    0    0    0    0  0.00000000000E+00  0.00000000000E+00  0.99999998245E-14  0.12509000000E+03  0.12509000000E+03 0.  0.
        -13    1    3    3    0    0 -0.12503920553E+02 -0.26255824307E+02  0.52547989709E+02  0.60058460900E+02  0.10566000000E+00 0.  1.
         23    2    1    0    0    0 -0.13969887276E+02 -0.30662790492E+01  0.26592665740E+02  0.94895138039E+02  0.89963089845E+02 0.  0.
         13    1    3    3    0    0 -0.14659667232E+01  0.23189545258E+02 -0.25955323969E+02  0.34836677139E+02  0.10566000000E+00 0. -1.
         22    1    1    0    0    0  0.13969887276E+02  0.30662790492E+01 -0.26592665740E+02  0.30194861961E+02  0.00000000000E+00 0.  1.
</event>
<event>
 5    1  0.1261010E-009  0.9118800E+02  0.7561462E-02  0.1125453E+00
         25   -1    0    0    0    0  0.00000000000E+00  0.00000000000E+00  0.99999998245E-14  0.12509000000E+03  0.12509000000E+03 0.  0.
        -13    1    3    3    0    0 -0.20643051917E+02 -0.23284480114E+02 -0.35670578540E+02  0.47336074447E+02  0.10566000000E+00 0.  1.
         23    2    1    0    0    0 -0.54141959615E+01  0.20277648084E+02 -0.20073157206E+02  0.96048165176E+02  0.91552290325E+02 0.  0.
         13    1    3    3    0    0  0.15228855956E+02  0.43562128198E+02  0.15597421334E+02  0.48712090729E+02  0.10566000000E+00 0. -1.
         22    1    1    0    0    0  0.54141959615E+01 -0.20277648084E+02  0.20073157206E+02  0.29041834824E+02  0.00000000000E+00 0. -1.
</event>
<event>
 5    1  0.1261010E-009  0.9118800E+02  0.7561462E-02  0.1125453E+00
         25   -1    0    0    0    0  0.00000000000E+00  0.00000000000E+00  0.99999998245E-14  0.12509000000E+03  0.12509000000E+03 0.  0.
        -13    1    3    3    0    0 -0.16084255271E+02 -0.38071232954E+02 -0.38763889837E+02  0.56663677657E+02  0.10566000000E+00 0. -1.
         23    2    1    0    0    0 -0.18987072228E+02 -0.25108887008E+01 -0.21489699556E+02  0.96304228152E+02  0.91901489102E+02 0.  0.
         13    1    3    3    0    0 -0.29028169570E+01  0.35560344253E+02  0.17274190281E+02  0.39640550495E+02  0.10566000000E+00 0.  1.
         22    1    1    0    0    0  0.18987072228E+02  0.25108887008E+01  0.21489699556E+02  0.28785771848E+02  0.00000000000E+00 0. -1.
</event>
<event>
 5    1  0.1261010E-009  0.9118800E+02  0.7561462E-02  0.1125453E+00
         25   -1    0    0    0    0  0.00000000000E+00  0.00000000000E+00  0.99999998245E-14  0.12509000000E+03  0.12509000000E+03 0.  0.
        -13    1    3    3    0    0 -0.13919118713E+02  0.96724282129E+01 -0.45861199595E+02  0.48893338254E+02  0.10566000000E+00 0.  1.
         23    2    1    0    0    0  0.86451544896E+01  0.25062189560E+02 -0.40432821495E+02  0.76740593636E+02  0.59594073663E+02 0.  0.
         13    1    3    3    0    0  0.22564273203E+02  0.15389761347E+02  0.54283780996E+01  0.27847255382E+02  0.10566000000E+00 0. -1.
         22    1    1    0    0    0 -0.86451544896E+01 -0.25062189560E+02  0.40432821495E+02  0.48349406364E+02  0.00000000000E+00 0.  1.
</event>
<event>
 5    1  0.1261010E-009  0.9118800E+02  0.7561462E-02  0.1125453E+00
         25   -1    0    0    0    0  0.00000000000E+00  0.00000000000E+00  0.99999998245E-14  0.12509000000E+03  0.12509000000E+03 0.  0.
        -13    1    3    3    0    0  0.24450039328E+02  0.52946968643E+01  0.29511784800E+02  0.38688432950E+02  0.10566000000E+00 0. -1.
         23    2    1    0    0    0  0.29443607092E+01 -0.26756812317E+02 -0.12215133879E+02  0.95529794300E+02  0.90841267263E+02 0.  0.
         13    1    3    3    0    0 -0.21505678619E+02 -0.32051509181E+02 -0.41726918679E+02  0.56841361350E+02  0.10566000000E+00 0.  1.
         22    1    1    0    0    0 -0.29443607092E+01  0.26756812317E+02  0.12215133879E+02  0.29560205700E+02  0.00000000000E+00 0.  1.
</event>
<event>
 5    1  0.1261010E-009  0.9118800E+02  0.7561462E-02  0.1125453E+00
         25   -1    0    0    0    0  0.00000000000E+00  0.00000000000E+00  0.99999998245E-14  0.12509000000E+03  0.12509000000E+03 0.  0.
        -13    1    3    3    0    0 -0.26732312734E+02  0.42454748370E+02 -0.83130866112E+01  0.50854112678E+02  0.10566000000E+00 0.  1.
         23    2    1    0    0    0 -0.27442875297E+02 -0.28899238153E+01  0.22023691264E+01  0.97407632074E+02  0.93391291309E+02 0.  0.
         13    1    3    3    0    0 -0.71056256249E+00 -0.45344672185E+02  0.10515455738E+02  0.46553519396E+02  0.10566000000E+00 0. -1.
         22    1    1    0    0    0  0.27442875297E+02  0.28899238153E+01 -0.22023691264E+01  0.27682367926E+02  0.00000000000E+00 0. -1.
</event>
<event>
 5    1  0.1261010E-009  0.9118800E+02  0.7561462E-02  0.1125453E+00
         25   -1    0    0    0    0  0.00000000000E+00  0.00000000000E+00  0.99999998245E-14  0.12509000000E+03  0.12509000000E+03 0.  0.
        -13    1    3    3    0    0 -0.25120439175E+02  0.42833451002E+01 -0.20429375611E+02  0.32661201164E+02  0.10566000000E+00 0. -1.
         23    2    1    0    0    0  0.18279550272E+02  0.67796792559E+01  0.23561742856E+02  0.94507950765E+02  0.89423101168E+02 0.  0.
         13    1    3    3    0    0  0.43399989447E+02  0.24963341557E+01  0.43991118467E+02  0.61846749601E+02  0.10566000000E+00 0.  1.
         22    1    1    0    0    0 -0.18279550272E+02 -0.67796792559E+01 -0.23561742856E+02  0.30582049235E+02  0.00000000000E+00 0.  1.
</event>
<event>
 5    1  0.1261010E-009  0.9118800E+02  0.7561462E-02  0.1125453E+00
         25   -1    0    0    0    0  0.00000000000E+00  0.00000000000E+00  0.99999998245E-14  0.12509000000E+03  0.12509000000E+03 0.  0.
        -13    1    3    3    0    0 -0.15449739352E+02  0.20552565707E+02  0.27233516310E+02  0.37453677761E+02  0.10566000000E+00 0. -1.
         23    2    1    0    0    0 -0.14497357526E+02 -0.16543553614E+02 -0.18499557449E+02  0.96348111279E+02  0.91961200404E+02 0.  0.
         13    1    3    3    0    0  0.95238182583E+00 -0.37096119322E+02 -0.45733073760E+02  0.58894433518E+02  0.10566000000E+00 0.  1.
         22    1    1    0    0    0  0.14497357526E+02  0.16543553614E+02  0.18499557449E+02  0.28741888721E+02  0.00000000000E+00 0.  1.
</event>
<event>
 5    1  0.1261010E-009  0.9118800E+02  0.7561462E-02  0.1125453E+00
         25   -1    0    0    0    0  0.00000000000E+00  0.00000000000E+00  0.99999998245E-14  0.12509000000E+03  0.12509000000E+03 0.  0.
        -13    1    3    3    0    0  0.19398121966E+02  0.39525395529E+02 -0.78005204559E+01  0.44714687866E+02  0.10566000000E+00 0.  1.
         23    2    1    0    0    0 -0.21963513744E+02  0.14224259029E+01 -0.98220616106E+01  0.10098829621E+03  0.98070096590E+02 0.  0.
         13    1    3    3    0    0 -0.41361635710E+02 -0.38102969627E+02 -0.20215411547E+01  0.56273608341E+02  0.10566000000E+00 0. -1.
         22    1    1    0    0    0  0.21963513744E+02 -0.14224259029E+01  0.98220616106E+01  0.24101703793E+02  0.00000000000E+00 0.  1.
</event>
<event>
 5    1  0.1261010E-009  0.9118800E+02  0.7561462E-02  0.1125453E+00
         25   -1    0    0    0    0  0.00000000000E+00  0.00000000000E+00  0.99999998245E-14  0.12509000000E+03  0.12509000000E+03 0.  0.
        -13    1    3    3    0    0  0.21364226156E+02 -0.11413966872E+02  0.36210170873E+02  0.43564853238E+02  0.10566000000E+00 0. -1.
         23    2    1    0    0    0  0.24385810491E+02 -0.78090012945E+01 -0.15281480697E+02  0.95271014323E+02  0.90484221074E+02 0.  0.
         13    1    3    3    0    0  0.30215843350E+01  0.36049655773E+01 -0.51491651570E+02  0.51706161085E+02  0.10566000000E+00 0.  1.
         22    1    1    0    0    0 -0.24385810491E+02  0.78090012945E+01  0.15281480697E+02  0.29818985677E+02  0.00000000000E+00 0.  1.
</event>
<event>
 5    1  0.1261010E-009  0.9118800E+02  0.7561462E-02  0.1125453E+00
         25   -1    0    0    0    0  0.00000000000E+00  0.00000000000E+00  0.99999998245E-14  0.12509000000E+03  0.12509000000E+03 0.  0.
        -13    1    3    3    0    0  0.27116435493E+02 -0.20873291619E+02 -0.55323067794E+01  0.34664289394E+02  0.10566000000E+00 0. -1.
         23    2    1    0    0    0 -0.17007926494E+02  0.66793934933E+01  0.24342248626E+02  0.94652704962E+02  0.89625362634E+02 0.  0.
         13    1    3    3    0    0 -0.44124361987E+02  0.27552685112E+02  0.29874555405E+02  0.59988415568E+02  0.10566000000E+00 0.  1.
         22    1    1    0    0    0  0.17007926494E+02 -0.66793934933E+01 -0.24342248626E+02  0.30437295038E+02  0.00000000000E+00 0.  1.
</event>
<event>
 5    1  0.1261010E-009  0.9118800E+02  0.7561462E-02  0.1125453E+00
         25   -1    0    0    0    0  0.00000000000E+00  0.00000000000E+00  0.99999998245E-14  0.12509000000E+03  0.12509000000E+03 0.  0.
        -13    1    3    3    0    0  0.21699625144E+01  0.37994566465E+02  0.12930267908E+02  0.40193268223E+02  0.10566000000E+00 0.  1.
         23    2    1    0    0    0  0.20587776871E+02  0.27706726961E+00 -0.22114833649E+02  0.94874123542E+02  0.89933865300E+02 0.  0.
         13    1    3    3    0    0  0.18417814357E+02 -0.37717499196E+02 -0.35045101558E+02  0.54680855320E+02  0.10566000000E+00 0. -1.
         22    1    1    0    0    0 -0.20587776871E+02 -0.27706726961E+00  0.22114833649E+02  0.30215876458E+02  0.00000000000E+00 0. -1.
</event>
<event>
 5    1  0.1261010E-009  0.9118800E+02  0.7561462E-02  0.1125453E+00
         25   -1    0    0    0    0  0.00000000000E+00  0.00000000000E+00  0.99999998245E-14  0.12509000000E+03  0.12509000000E+03 0.  0.
        -13    1    3    3    0    0  0.22881646432E+02  0.55820987026E+02 -0.11774731754E+02  0.61467127864E+02  0.10566000000E+00 0.  1.
         23    2    1    0    0    0  0.15169160058E+02  0.23775777026E+02 -0.12030556043E+02  0.94428537727E+02  0.89311944713E+02 0.  0.
         13    1    3    3    0    0 -0.77124863745E+01 -0.32045210000E+02 -0.25582428871E+00  0.32961409862E+02  0.10566000000E+00 0. -1.
         22    1    1    0    0    0 -0.15169160058E+02 -0.23775777026E+02  0.12030556043E+02  0.30661462273E+02  0.00000000000E+00 0.  1.
</event>
<event>
 5    1  0.1261010E-009  0.9118800E+02  0.7561462E-02  0.1125453E+00
         25   -1    0    0    0    0  0.00000000000E+00  0.00000000000E+00  0.99999998245E-14  0.12509000000E+03  0.12509000000E+03 0.  0.
        -13    1    3    3    0    0  0.46248735042E+00 -0.88472361666E+01 -0.36504987149E+02  0.37564780488E+02  0.10566000000E+00 0. -1.
         23    2    1    0    0    0  0.31514430763E+02  0.14013709036E+02 -0.92215178689E-01  0.90600119007E+02  0.83778455902E+02 0.  0.
         13    1    3    3    0    0  0.31051943412E+02  0.22860945203E+02  0.36412771970E+02  0.53035338519E+02  0.10566000000E+00 0.  1.
         22    1    1    0    0    0 -0.31514430763E+02 -0.14013709036E+02  0.92215178689E-01  0.34489880993E+02  0.00000000000E+00 0.  1.
</event>
<event>
 5    1  0.1261010E-009  0.9118800E+02  0.7561462E-02  0.1125453E+00
         25   -1    0    0    0    0  0.00000000000E+00  0.00000000000E+00  0.99999998245E-14  0.12509000000E+03  0.12509000000E+03 0.  0.
        -13    1    3    3    0    0 -0.45180549135E+02 -0.21708968706E+02 -0.33778425007E+02  0.60444639980E+02  0.10566000000E+00 0. -1.
         23    2    1    0    0    0 -0.25437687441E+02  0.35710605541E+00 -0.14000572905E+02  0.96051757822E+02  0.91557198908E+02 0.  0.
         13    1    3    3    0    0  0.19742861693E+02  0.22066074761E+02  0.19777852101E+02  0.35607117842E+02  0.10566000000E+00 0.  1.
         22    1    1    0    0    0  0.25437687441E+02 -0.35710605541E+00  0.14000572905E+02  0.29038242178E+02  0.00000000000E+00 0. -1.
</event>
<event>
 5    1  0.1261010E-009  0.9118800E+02  0.7561462E-02  0.1125453E+00
         25   -1    0    0    0    0  0.00000000000E+00  0.00000000000E+00  0.99999998245E-14  0.12509000000E+03  0.12509000000E+03 0.  0.
        -13    1    3    3    0    0 -0.30905184309E+02 -0.90623180725E+01  0.38788772260E+02  0.50416624673E+02  0.10566000000E+00 0. -1.
         23    2    1    0    0    0  0.94199794568E+01 -0.19323353411E+02  0.18586688834E+02  0.96671819168E+02  0.92400474130E+02 0.  0.
         13    1    3    3    0    0  0.40325163766E+02 -0.10261035339E+02 -0.20202083426E+02  0.46255194494E+02  0.10566000000E+00 0.  1.
         22    1    1    0    0    0 -0.94199794568E+01  0.19323353411E+02 -0.18586688834E+02  0.28418180832E+02  0.00000000000E+00 0.  1.
</event>
<event>
 5    1  0.1261010E-009  0.9118800E+02  0.7561462E-02  0.1125453E+00
         25   -1    0    0    0    0  0.00000000000E+00  0.00000000000E+00  0.99999998245E-14  0.12509000000E+03  0.12509000000E+03 0.  0.
        -13    1    3    3    0    0  0.11414933850E+02  0.20555366471E+02 -0.27417024288E+02  0.36118252870E+02  0.10566000000E+00 0. -1.
         23    2    1    0    0    0 -0.23065218136E+02 -0.22635689030E+01  0.16655552529E+02  0.96549932343E+02  0.92235318472E+02 0.  0.
         13    1    3    3    0    0 -0.34480151986E+02 -0.22818935374E+02  0.44072576817E+02  0.60431679473E+02  0.10566000000E+00 0.  1.
         22    1    1    0    0    0  0.23065218136E+02  0.22635689030E+01 -0.16655552529E+02  0.28540067657E+02  0.00000000000E+00 0.  1.
</event>
<event>
 5    1  0.1261010E-009  0.9118800E+02  0.7561462E-02  0.1125453E+00
         25   -1    0    0    0    0  0.00000000000E+00  0.00000000000E+00  0.99999998245E-14  0.12509000000E+03  0.12509000000E+03 0.  0.
        -13    1    3    3    0    0 -0.11362700127E+02  0.21069891746E+02 -0.11107611200E+02  0.26390177775E+02  0.10566000000E+00 0. -1.
         23    2    1    0    0    0  0.37292887572E+02  0.13603774467E+02 -0.25781547329E+02  0.77755970741E+02  0.61688578036E+02 0.  0.
         13    1    3    3    0    0  0.48655587699E+02 -0.74661172793E+01 -0.14673936129E+02  0.51365792967E+02  0.10566000000E+00 0.  1.
         22    1    1    0    0    0 -0.37292887572E+02 -0.13603774467E+02  0.25781547329E+02  0.47334029259E+02  0.00000000000E+00 0.  1.
</event>
<event>
 5    1  0.1261010E-009  0.9118800E+02  0.7561462E-02  0.1125453E+00
         25   -1    0    0    0    0  0.00000000000E+00  0.00000000000E+00  0.99999998245E-14  0.12509000000E+03  0.12509000000E+03 0.  0.
        -13    1    3    3    0    0  0.16300957980E+02 -0.10094649154E+02  0.56306583633E+02  0.59481641681E+02  0.10566000000E+00 0.  1.
         23    2    1    0    0    0  0.14694958330E+02 -0.16293082216E+02  0.23372580877E+02  0.93032491281E+02  0.87334761514E+02 0.  0.
         13    1    3    3    0    0 -0.16059996501E+01 -0.61984330619E+01 -0.32934002756E+02  0.33550849600E+02  0.10566000000E+00 0. -1.
         22    1    1    0    0    0 -0.14694958330E+02  0.16293082216E+02 -0.23372580877E+02  0.32057508719E+02  0.00000000000E+00 0.  1.
</event>
<event>
 5    1  0.1261010E-009  0.9118800E+02  0.7561462E-02  0.1125453E+00
         25   -1    0    0    0    0  0.00000000000E+00  0.00000000000E+00  0.99999998245E-14  0.12509000000E+03  0.12509000000E+03 0.  0.
        -13    1    3    3    0    0 -0.45860114314E+02  0.32500850117E+02  0.61671817895E+01  0.56546446736E+02  0.10566000000E+00 0.  1.
         23    2    1    0    0    0 -0.98171171373E+01  0.18259527548E+02  0.18590979855E+02  0.97243803363E+02  0.93171597740E+02 0.  0.
         13    1    3    3    0    0  0.36042997177E+02 -0.14241322569E+02  0.12423798066E+02  0.40697356627E+02  0.10566000000E+00 0. -1.
         22    1    1    0    0    0  0.98171171373E+01 -0.18259527548E+02 -0.18590979855E+02  0.27846196637E+02  0.00000000000E+00 0.  1.
</event>
<event>
 5    1  0.1261010E-009  0.9118800E+02  0.7561462E-02  0.1125453E+00
         25   -1    0    0    0    0  0.00000000000E+00  0.00000000000E+00  0.99999998245E-14  0.12509000000E+03  0.12509000000E+03 0.  0.
        -13    1    3    3    0    0 -0.16475728942E+02 -0.10809296394E+01 -0.41924415387E+02  0.45058693086E+02  0.10566000000E+00 0. -1.
         23    2    1    0    0    0  0.21561351270E+02 -0.15259983168E+02 -0.94797211421E+01  0.97025359119E+02  0.92877856588E+02 0.  0.
         13    1    3    3    0    0  0.38037080211E+02 -0.14179053528E+02  0.32444694245E+02  0.51966666033E+02  0.10566000000E+00 0.  1.
         22    1    1    0    0    0 -0.21561351270E+02  0.15259983168E+02  0.94797211421E+01  0.28064640881E+02  0.00000000000E+00 0.  1.
</event>
<event>
 5    1  0.1261010E-009  0.9118800E+02  0.7561462E-02  0.1125453E+00
         25   -1    0    0    0    0  0.00000000000E+00  0.00000000000E+00  0.99999998245E-14  0.12509000000E+03  0.12509000000E+03 0.  0.
        -13    1    3    3    0    0 -0.14525281994E+01  0.13272504606E+02 -0.37521385599E+02  0.39826307361E+02  0.10566000000E+00 0.  1.
         23    2    1    0    0    0 -0.26793690441E+02  0.40883595338E+01  0.11403574517E+02  0.95684931680E+02  0.91054643527E+02 0.  0.
         13    1    3    3    0    0 -0.25341162241E+02 -0.91841450718E+01  0.48924960117E+02  0.55858624320E+02  0.10566000000E+00 0. -1.
         22    1    1    0    0    0  0.26793690441E+02 -0.40883595338E+01 -0.11403574517E+02  0.29405068320E+02  0.00000000000E+00 0. -1.
</event>
<event>
 5    1  0.1261010E-009  0.9118800E+02  0.7561462E-02  0.1125453E+00
         25   -1    0    0    0    0  0.00000000000E+00  0.00000000000E+00  0.99999998245E-14  0.12509000000E+03  0.12509000000E+03 0.  0.
        -13    1    3    3    0    0  0.16160838537E+02  0.28382339882E+02 -0.68038226524E+01  0.33362150502E+02  0.10566000000E+00 0.  1.
         23    2    1    0    0    0 -0.11062416038E+02 -0.26868709718E+02  0.35392350596E+01  0.95818327767E+02  0.91237717753E+02 0.  0.
         13    1    3    3    0    0 -0.27223254574E+02 -0.55251049601E+02  0.10343057712E+02  0.62456177264E+02  0.10566000000E+00 0. -1.
         22    1    1    0    0    0  0.11062416038E+02  0.26868709718E+02 -0.35392350596E+01  0.29271672233E+02  0.00000000000E+00 0. -1.
</event>
<event>
 5    1  0.1261010E-009  0.9118800E+02  0.7561462E-02  0.1125453E+00
         25   -1    0    0    0    0  0.00000000000E+00  0.00000000000E+00  0.99999998245E-14  0.12509000000E+03  0.12509000000E+03 0.  0.
        -13    1    3    3    0    0 -0.31728121783E+02  0.41036581573E+02  0.14599824182E+01  0.51892364099E+02  0.10566000000E+00 0.  1.
         23    2    1    0    0    0 -0.14624121153E+02  0.71595153868E+01  0.24042082788E+02  0.96053035199E+02  0.91558944108E+02 0.  0.
         13    1    3    3    0    0  0.17104000630E+02 -0.33877066186E+02  0.22582100370E+02  0.44160671100E+02  0.10566000000E+00 0. -1.
         22    1    1    0    0    0  0.14624121153E+02 -0.71595153868E+01 -0.24042082788E+02  0.29036964801E+02  0.00000000000E+00 0.  1.
</event>
<event>
 5    1  0.1261010E-009  0.9118800E+02  0.7561462E-02  0.1125453E+00
         25   -1    0    0    0    0  0.00000000000E+00  0.00000000000E+00  0.99999998245E-14  0.12509000000E+03  0.12509000000E+03 0.  0.
        -13    1    3    3    0    0  0.28174362413E+02  0.41612629963E+02 -0.31409828484E+02  0.59262080281E+02  0.10566000000E+00 0.  1.
         23    2    1    0    0    0 -0.12768537663E+01  0.20158907030E+02 -0.17829347947E+02  0.98147514287E+02  0.94377100105E+02 0.  0.
         13    1    3    3    0    0 -0.29451216180E+02 -0.21453722933E+02  0.13580480537E+02  0.38885434006E+02  0.10566000000E+00 0. -1.
         22    1    1    0    0    0  0.12768537663E+01 -0.20158907030E+02  0.17829347947E+02  0.26942485713E+02  0.00000000000E+00 0.  1.
</event>
<event>
 5    1  0.1261010E-009  0.9118800E+02  0.7561462E-02  0.1125453E+00
         25   -1    0    0    0    0  0.00000000000E+00  0.00000000000E+00  0.99999998245E-14  0.12509000000E+03  0.12509000000E+03 0.  0.
        -13    1    3    3    0    0 -0.14221647059E+02  0.18816082252E+02  0.31471368493E+02  0.39328849401E+02  0.10566000000E+00 0.  1.
         23    2    1    0    0    0  0.22682383205E+02 -0.16791207857E+02  0.77958079120E+01  0.95811854735E+02  0.91228842575E+02 0.  0.
         13    1    3    3    0    0  0.36904030264E+02 -0.35607290110E+02 -0.23675560581E+02  0.56483005334E+02  0.10566000000E+00 0. -1.
         22    1    1    0    0    0 -0.22682383205E+02  0.16791207857E+02 -0.77958079120E+01  0.29278145265E+02  0.00000000000E+00 0. -1.
</event>
<event>
 5    1  0.1261010E-009  0.9118800E+02  0.7561462E-02  0.1125453E+00
         25   -1    0    0    0    0  0.00000000000E+00  0.00000000000E+00  0.99999998245E-14  0.12509000000E+03  0.12509000000E+03 0.  0.
        -13    1    3    3    0    0  0.33409354674E+02  0.21853515043E+00 -0.80736508136E+01  0.34371903334E+02  0.10566000000E+00 0. -1.
         23    2    1    0    0    0 -0.28237876788E+02  0.39177849897E+01 -0.44508873139E+01  0.96236280610E+02  0.91808956987E+02 0.  0.
         13    1    3    3    0    0 -0.61647231462E+02  0.36992498392E+01  0.36227634997E+01  0.61864377276E+02  0.10566000000E+00 0.  1.
         22    1    1    0    0    0  0.28237876788E+02 -0.39177849897E+01  0.44508873139E+01  0.28853719390E+02  0.00000000000E+00 0.  1.
</event>
<event>
 5    1  0.1261010E-009  0.9118800E+02  0.7561462E-02  0.1125453E+00
         25   -1    0    0    0    0  0.00000000000E+00  0.00000000000E+00  0.99999998245E-14  0.12509000000E+03  0.12509000000E+03 0.  0.
        -13    1    3    3    0    0 -0.11810106845E+02 -0.71568897896E+01  0.42325191005E+02  0.44521148377E+02  0.10566000000E+00 0.  1.
         23    2    1    0    0    0  0.21281716034E+02 -0.16510660162E+02  0.12021615338E+01  0.98127831529E+02  0.94351008431E+02 0.  0.
         13    1    3    3    0    0  0.33091822879E+02 -0.93537703720E+01 -0.41123029471E+02  0.53606683152E+02  0.10566000000E+00 0. -1.
         22    1    1    0    0    0 -0.21281716034E+02  0.16510660162E+02 -0.12021615338E+01  0.26962168471E+02  0.00000000000E+00 0. -1.
</event>
<event>
 5    1  0.1261010E-009  0.9118800E+02  0.7561462E-02  0.1125453E+00
         25   -1    0    0    0    0  0.00000000000E+00  0.00000000000E+00  0.99999998245E-14  0.12509000000E+03  0.12509000000E+03 0.  0.
        -13    1    3    3    0    0  0.34627767110E+02  0.10145175415E+02 -0.14438948388E+02  0.38865167359E+02  0.10566000000E+00 0.  1.
         23    2    1    0    0    0 -0.24996066665E+01 -0.29232922030E+02  0.26778143167E+01  0.95628458062E+02  0.90977027528E+02 0.  0.
         13    1    3    3    0    0 -0.37127373776E+02 -0.39378097445E+02  0.17116762705E+02  0.56763290703E+02  0.10566000000E+00 0. -1.
         22    1    1    0    0    0  0.24996066665E+01  0.29232922030E+02 -0.26778143167E+01  0.29461541938E+02  0.00000000000E+00 0. -1.
</event>
<event>
 5    1  0.1261010E-009  0.9118800E+02  0.7561462E-02  0.1125453E+00
         25   -1    0    0    0    0  0.00000000000E+00  0.00000000000E+00  0.99999998245E-14  0.12509000000E+03  0.12509000000E+03 0.  0.
        -13    1    3    3    0    0  0.26699278496E+02 -0.85336696987E+00 -0.23511144648E+02  0.35586019643E+02  0.10566000000E+00 0. -1.
         23    2    1    0    0    0 -0.28872366135E+02 -0.66046629194E+01 -0.21679568175E+01  0.95392607264E+02  0.90652161504E+02 0.  0.
         13    1    3    3    0    0 -0.55571644631E+02 -0.57512959496E+01  0.21343187830E+02  0.59806587621E+02  0.10566000000E+00 0.  1.
         22    1    1    0    0    0  0.28872366135E+02  0.66046629194E+01  0.21679568175E+01  0.29697392736E+02  0.00000000000E+00 0.  1.
</event>
<event>
 5    1  0.1261010E-009  0.9118800E+02  0.7561462E-02  0.1125453E+00
         25   -1    0    0    0    0  0.00000000000E+00  0.00000000000E+00  0.99999998245E-14  0.12509000000E+03  0.12509000000E+03 0.  0.
        -13    1    3    3    0    0 -0.20816407876E+02  0.41550165755E+02  0.41297179249E+02  0.62170791286E+02  0.10566000000E+00 0. -1.
         23    2    1    0    0    0 -0.59276972541E+01  0.22554463413E+02  0.19536255762E+02  0.94667858330E+02  0.89646509676E+02 0.  0.
         13    1    3    3    0    0  0.14888710622E+02 -0.18995702343E+02 -0.21760923486E+02  0.32497067045E+02  0.10566000000E+00 0.  1.
         22    1    1    0    0    0  0.59276972541E+01 -0.22554463413E+02 -0.19536255762E+02  0.30422141670E+02  0.00000000000E+00 0. -1.
</event>
<event>
 5    1  0.1261010E-009  0.9118800E+02  0.7561462E-02  0.1125453E+00
         25   -1    0    0    0    0  0.00000000000E+00  0.00000000000E+00  0.99999998245E-14  0.12509000000E+03  0.12509000000E+03 0.  0.
        -13    1    3    3    0    0 -0.21146672994E+02  0.60240301589E+01  0.28238521737E+02  0.35789607318E+02  0.10566000000E+00 0. -1.
         23    2    1    0    0    0  0.18961658982E+02 -0.17098977036E+02 -0.11767022843E+02  0.96976260412E+02  0.92811705781E+02 0.  0.
         13    1    3    3    0    0  0.40108331976E+02 -0.23123007195E+02 -0.40005544580E+02  0.61186653094E+02  0.10566000000E+00 0.  1.
         22    1    1    0    0    0 -0.18961658982E+02  0.17098977036E+02  0.11767022843E+02  0.28113739588E+02  0.00000000000E+00 0.  1.
</event>
<event>
 5    1  0.1261010E-009  0.9118800E+02  0.7561462E-02  0.1125453E+00
         25   -1    0    0    0    0  0.00000000000E+00  0.00000000000E+00  0.99999998245E-14  0.12509000000E+03  0.12509000000E+03 0.  0.
        -13    1    3    3    0    0 -0.29790975020E+02 -0.15406410084E+01 -0.23468604281E+02  0.37956057729E+02  0.10566000000E+00 0. -1.
         23    2    1    0    0    0  0.23927378851E+02 -0.15366664447E+02 -0.85204746667E+01  0.95404105648E+02  0.90668026620E+02 0.  0.
         13    1    3    3    0    0  0.53718353872E+02 -0.13826023438E+02  0.14948129614E+02  0.57448047920E+02  0.10566000000E+00 0.  1.
         22    1    1    0    0    0 -0.23927378851E+02  0.15366664447E+02  0.85204746667E+01  0.29685894352E+02  0.00000000000E+00 0.  1.
</event>
<event>
 5    1  0.1261010E-009  0.9118800E+02  0.7561462E-02  0.1125453E+00
         25   -1    0    0    0    0  0.00000000000E+00  0.00000000000E+00  0.99999998245E-14  0.12509000000E+03  0.12509000000E+03 0.  0.
        -13    1    3    3    0    0 -0.11562870510E+02 -0.28531506366E+02 -0.35918954099E+02  0.47306756997E+02  0.10566000000E+00 0.  1.
         23    2    1    0    0    0 -0.47469318692E+00  0.18271948332E+02 -0.20057009719E+02  0.97953805198E+02  0.94120002574E+02 0.  0.
         13    1    3    3    0    0  0.11088177323E+02  0.46803454698E+02  0.15861944380E+02  0.50647048202E+02  0.10566000000E+00 0. -1.
         22    1    1    0    0    0  0.47469318692E+00 -0.18271948332E+02  0.20057009719E+02  0.27136194802E+02  0.00000000000E+00 0.  1.
</event>
<event>
 5    1  0.1261010E-009  0.9118800E+02  0.7561462E-02  0.1125453E+00
         25   -1    0    0    0    0  0.00000000000E+00  0.00000000000E+00  0.99999998245E-14  0.12509000000E+03  0.12509000000E+03 0.  0.
        -13    1    3    3    0    0  0.52681532199E+02 -0.31686522392E+02  0.10023009945E+02  0.62288453412E+02  0.10566000000E+00 0. -1.
         23    2    1    0    0    0  0.24933847108E+02 -0.15785195636E+02  0.81738689579E+00  0.95568190195E+02  0.90894123698E+02 0.  0.
         13    1    3    3    0    0 -0.27747685091E+02  0.15901326756E+02 -0.92056230495E+01  0.33279736782E+02  0.10566000000E+00 0.  1.
         22    1    1    0    0    0 -0.24933847108E+02  0.15785195636E+02 -0.81738689579E+00  0.29521809805E+02  0.00000000000E+00 0. -1.
</event>
<event>
 5    1  0.1261010E-009  0.9118800E+02  0.7561462E-02  0.1125453E+00
         25   -1    0    0    0    0  0.00000000000E+00  0.00000000000E+00  0.99999998245E-14  0.12509000000E+03  0.12509000000E+03 0.  0.
        -13    1    3    3    0    0  0.34997934131E+02 -0.52951523918E+01 -0.53108280390E+01  0.35792598269E+02  0.10566000000E+00 0. -1.
         23    2    1    0    0    0 -0.16215923217E+02  0.10454502892E+02  0.21913458089E+02  0.95893211787E+02  0.91340328579E+02 0.  0.
         13    1    3    3    0    0 -0.51213857349E+02  0.15749655284E+02  0.27224286128E+02  0.60100613519E+02  0.10566000000E+00 0.  1.
         22    1    1    0    0    0  0.16215923217E+02 -0.10454502892E+02 -0.21913458089E+02  0.29196788213E+02  0.00000000000E+00 0.  1.
</event>
<event>
 5    1  0.1261010E-009  0.9118800E+02  0.7561462E-02  0.1125453E+00
         25   -1    0    0    0    0  0.00000000000E+00  0.00000000000E+00  0.99999998245E-14  0.12509000000E+03  0.12509000000E+03 0.  0.
        -13    1    3    3    0    0 -0.49513946677E+02 -0.33583535137E+01 -0.26678647164E+02  0.56344217382E+02  0.10566000000E+00 0.  1.
         23    2    1    0    0    0 -0.27508136645E+02 -0.45105344589E+01  0.67746081782E+01  0.96403107196E+02  0.92035978064E+02 0.  0.
         13    1    3    3    0    0  0.22005810032E+02 -0.11521809453E+01  0.33453255342E+02  0.40058889814E+02  0.10566000000E+00 0. -1.
         22    1    1    0    0    0  0.27508136645E+02  0.45105344589E+01 -0.67746081782E+01  0.28686892804E+02  0.00000000000E+00 0.  1.
</event>
<event>
 5    1  0.1261010E-009  0.9118800E+02  0.7561462E-02  0.1125453E+00
         25   -1    0    0    0    0  0.00000000000E+00  0.00000000000E+00  0.99999998245E-14  0.12509000000E+03  0.12509000000E+03 0.  0.
        -13    1    3    3    0    0  0.52623585398E+02 -0.18537605018E+02  0.21322744658E+02  0.59729014253E+02  0.10566000000E+00 0. -1.
         23    2    1    0    0    0  0.30242692416E+02  0.34108454329E+01  0.10159642067E+02  0.93004603975E+02  0.87294809253E+02 0.  0.
         13    1    3    3    0    0 -0.22380892982E+02  0.21948450451E+02 -0.11163102590E+02  0.33275589722E+02  0.10566000000E+00 0.  1.
         22    1    1    0    0    0 -0.30242692416E+02 -0.34108454329E+01 -0.10159642067E+02  0.32085396025E+02  0.00000000000E+00 0. -1.
</event>
<event>
 5    1  0.1261010E-009  0.9118800E+02  0.7561462E-02  0.1125453E+00
         25   -1    0    0    0    0  0.00000000000E+00  0.00000000000E+00  0.99999998245E-14  0.12509000000E+03  0.12509000000E+03 0.  0.
        -13    1    3    3    0    0 -0.90149115137E+01  0.21159449856E+02 -0.56832363444E+02  0.61310028923E+02  0.10566000000E+00 0. -1.
         23    2    1    0    0    0 -0.20711267396E+01  0.22964553842E+01 -0.30480326405E+02  0.94453199073E+02  0.89346478632E+02 0.  0.
         13    1    3    3    0    0  0.69437847741E+01 -0.18862994472E+02  0.26352037039E+02  0.33143170150E+02  0.10566000000E+00 0.  1.
         22    1    1    0    0    0  0.20711267396E+01 -0.22964553842E+01  0.30480326405E+02  0.30636800927E+02  0.00000000000E+00 0. -1.
</event>
<event>
 5    1  0.1261010E-009  0.9118800E+02  0.7561462E-02  0.1125453E+00
         25   -1    0    0    0    0  0.00000000000E+00  0.00000000000E+00  0.99999998245E-14  0.12509000000E+03  0.12509000000E+03 0.  0.
        -13    1    3    3    0    0  0.14946544019E+02  0.12683037937E+02 -0.32618183506E+02  0.38055429161E+02  0.10566000000E+00 0. -1.
         23    2    1    0    0    0 -0.16809248872E+02 -0.25435870891E+02 -0.73707678300E+01  0.93723415965E+02  0.88318832114E+02 0.  0.
         13    1    3    3    0    0 -0.31755792891E+02 -0.38118908828E+02  0.25247415676E+02  0.55667986803E+02  0.10566000000E+00 0.  1.
         22    1    1    0    0    0  0.16809248872E+02  0.25435870891E+02  0.73707678300E+01  0.31366584035E+02  0.00000000000E+00 0.  1.
</event>
<event>
 5    1  0.1261010E-009  0.9118800E+02  0.7561462E-02  0.1125453E+00
         25   -1    0    0    0    0  0.00000000000E+00  0.00000000000E+00  0.99999998245E-14  0.12509000000E+03  0.12509000000E+03 0.  0.
        -13    1    3    3    0    0 -0.14193051425E+01  0.23658753800E+02  0.27398173536E+02  0.36227367219E+02  0.10566000000E+00 0.  1.
         23    2    1    0    0    0  0.69501014367E+01 -0.51011577580E+01 -0.26134539715E+02  0.97570191015E+02  0.93608772496E+02 0.  0.
         13    1    3    3    0    0  0.83694065792E+01 -0.28759911558E+02 -0.53532713251E+02  0.61342823797E+02  0.10566000000E+00 0. -1.
         22    1    1    0    0    0 -0.69501014367E+01  0.51011577580E+01  0.26134539715E+02  0.27519808985E+02  0.00000000000E+00 0. -1.
</event>
<event>
 5    1  0.1261010E-009  0.9118800E+02  0.7561462E-02  0.1125453E+00
         25   -1    0    0    0    0  0.00000000000E+00  0.00000000000E+00  0.99999998245E-14  0.12509000000E+03  0.12509000000E+03 0.  0.
        -13    1    3    3    0    0 -0.84946732000E+01 -0.28529283229E+02  0.52686615431E+02  0.60514213900E+02  0.10566000000E+00 0.  1.
         23    2    1    0    0    0  0.69748335780E+01 -0.15519549127E+02  0.26565486014E+02  0.93542737746E+02  0.88062557476E+02 0.  0.
         13    1    3    3    0    0  0.15469506778E+02  0.13009734102E+02 -0.26121129417E+02  0.33028523846E+02  0.10566000000E+00 0. -1.
         22    1    1    0    0    0 -0.69748335780E+01  0.15519549127E+02 -0.26565486014E+02  0.31547262254E+02  0.00000000000E+00 0.  1.
</event>
<event>
 5    1  0.1261010E-009  0.9118800E+02  0.7561462E-02  0.1125453E+00
         25   -1    0    0    0    0  0.00000000000E+00  0.00000000000E+00  0.99999998245E-14  0.12509000000E+03  0.12509000000E+03 0.  0.
        -13    1    3    3    0    0  0.13232739503E+02 -0.94920830449E+01  0.28100018322E+02  0.32478103840E+02  0.10566000000E+00 0.  1.
         23    2    1    0    0    0  0.75818763131E+01  0.23109814093E+02 -0.21851048130E+02  0.92394179775E+02  0.86415668695E+02 0.  0.
         13    1    3    3    0    0 -0.56508631897E+01  0.32601897138E+02 -0.49951066452E+02  0.59916075935E+02  0.10566000000E+00 0. -1.
         22    1    1    0    0    0 -0.75818763131E+01 -0.23109814093E+02  0.21851048130E+02  0.32695820225E+02  0.00000000000E+00 0. -1.
</event>
<event>
 5    1  0.1261010E-009  0.9118800E+02  0.7561462E-02  0.1125453E+00
         25   -1    0    0    0    0  0.00000000000E+00  0.00000000000E+00  0.99999998245E-14  0.12509000000E+03  0.12509000000E+03 0.  0.
        -13    1    3    3    0    0  0.42061140772E+01  0.29473159047E+02  0.38912403585E+02  0.48995355052E+02  0.10566000000E+00 0. -1.
         23    2    1    0    0    0  0.20548326053E+02 -0.95611709948E+01  0.17710734308E+02  0.96326832509E+02  0.91932251452E+02 0.  0.
         13    1    3    3    0    0  0.16342211976E+02 -0.39034330042E+02 -0.21201669277E+02  0.47331477457E+02  0.10566000000E+00 0.  1.
         22    1    1    0    0    0 -0.20548326053E+02  0.95611709948E+01 -0.17710734308E+02  0.28763167491E+02  0.00000000000E+00 0.  1.
</event>
<event>
 5    1  0.1261010E-009  0.9118800E+02  0.7561462E-02  0.1125453E+00
         25   -1    0    0    0    0  0.00000000000E+00  0.00000000000E+00  0.99999998245E-14  0.12509000000E+03  0.12509000000E+03 0.  0.
        -13    1    3    3    0    0 -0.30003047246E+02 -0.23270120096E+02  0.48978360454E+02  0.61972351013E+02  0.10566000000E+00 0.  1.
         23    2    1    0    0    0 -0.18276683746E+02 -0.13415435761E+02  0.19530377135E+02  0.95165984287E+02  0.90338905510E+02 0.  0.
         13    1    3    3    0    0  0.11726363500E+02  0.98546843348E+01 -0.29447983320E+02  0.33193633273E+02  0.10566000000E+00 0. -1.
         22    1    1    0    0    0  0.18276683746E+02  0.13415435761E+02 -0.19530377135E+02  0.29924015713E+02  0.00000000000E+00 0.  1.
</event>
<event>
 5    1  0.1261010E-009  0.9118800E+02  0.7561462E-02  0.1125453E+00
         25   -1    0    0    0    0  0.00000000000E+00  0.00000000000E+00  0.99999998245E-14  0.12509000000E+03  0.12509000000E+03 0.  0.
        -13    1    3    3    0    0  0.21748045290E+02  0.79195956357E+01 -0.31386614458E+02  0.38997797375E+02  0.10566000000E+00 0. -1.
         23    2    1    0    0    0 -0.16164963838E+02  0.25538835382E+02  0.50396479932E+01  0.94447933809E+02  0.89339106669E+02 0.  0.
         13    1    3    3    0    0 -0.37913009128E+02  0.17619239747E+02  0.36426262451E+02  0.55450136434E+02  0.10566000000E+00 0.  1.
         22    1    1    0    0    0  0.16164963838E+02 -0.25538835382E+02 -0.50396479932E+01  0.30642066191E+02  0.00000000000E+00 0.  1.
</event>
<event>
 5    1  0.1261010E-009  0.9118800E+02  0.7561462E-02  0.1125453E+00
         25   -1    0    0    0    0  0.00000000000E+00  0.00000000000E+00  0.99999998245E-14  0.12509000000E+03  0.12509000000E+03 0.  0.
        -13    1    3    3    0    0 -0.23694252451E+02  0.49796631822E+02 -0.16192364062E+02  0.57474567924E+02  0.10566000000E+00 0.  1.
         23    2    1    0    0    0 -0.94072319354E+01  0.50219615476E+01 -0.17619054143E+02  0.10449516620E+03  0.10244555910E+03 0.  0.
         13    1    3    3    0    0  0.14287020515E+02 -0.44774670275E+02 -0.14266900806E+01  0.47020598274E+02  0.10566000000E+00 0. -1.
         22    1    1    0    0    0  0.94072319354E+01 -0.50219615476E+01  0.17619054143E+02  0.20594833802E+02  0.00000000000E+00 0.  1.
</event>
<event>
 5    1  0.1261010E-009  0.9118800E+02  0.7561462E-02  0.1125453E+00
         25   -1    0    0    0    0  0.00000000000E+00  0.00000000000E+00  0.99999998245E-14  0.12509000000E+03  0.12509000000E+03 0.  0.
        -13    1    3    3    0    0  0.17755559691E+02  0.14511264419E+02  0.38275426356E+02  0.44619010766E+02  0.10566000000E+00 0.  1.
         23    2    1    0    0    0 -0.18559383869E+02 -0.14804268823E+02  0.16877344405E+02  0.95961631368E+02  0.91433980750E+02 0.  0.
         13    1    3    3    0    0 -0.36314943560E+02 -0.29315533242E+02 -0.21398081952E+02  0.51342620602E+02  0.10566000000E+00 0. -1.
         22    1    1    0    0    0  0.18559383869E+02  0.14804268823E+02 -0.16877344405E+02  0.29128368632E+02  0.00000000000E+00 0.  1.
</event>
<event>
 5    1  0.1261010E-009  0.9118800E+02  0.7561462E-02  0.1125453E+00
         25   -1    0    0    0    0  0.00000000000E+00  0.00000000000E+00  0.99999998245E-14  0.12509000000E+03  0.12509000000E+03 0.  0.
        -13    1    3    3    0    0 -0.23663560390E+02 -0.91999110060E+01 -0.42283492499E+02  0.49320455744E+02  0.10566000000E+00 0.  1.
         23    2    1    0    0    0  0.65124524139E+01 -0.26436312419E+02 -0.12322455724E+02  0.95204659683E+02  0.90392442492E+02 0.  0.
         13    1    3    3    0    0  0.30176012804E+02 -0.17236401413E+02  0.29961036775E+02  0.45884203939E+02  0.10566000000E+00 0. -1.
         22    1    1    0    0    0 -0.65124524139E+01  0.26436312419E+02  0.12322455724E+02  0.29885340317E+02  0.00000000000E+00 0. -1.
</event>
<event>
 5    1  0.1261010E-009  0.9118800E+02  0.7561462E-02  0.1125453E+00
         25   -1    0    0    0    0  0.00000000000E+00  0.00000000000E+00  0.99999998245E-14  0.12509000000E+03  0.12509000000E+03 0.  0.
        -13    1    3    3    0    0 -0.50211287860E+02  0.28199167186E+02 -0.79005115205E+01  0.58127409239E+02  0.10566000000E+00 0.  1.
         23    2    1    0    0    0 -0.21285071057E+02  0.14286497358E+02  0.12916142254E+02  0.96384861307E+02  0.92011175961E+02 0.  0.
         13    1    3    3    0    0  0.28926216803E+02 -0.13912669828E+02  0.20816653775E+02  0.38257452068E+02  0.10566000000E+00 0. -1.
         22    1    1    0    0    0  0.21285071057E+02 -0.14286497358E+02 -0.12916142254E+02  0.28705138693E+02  0.00000000000E+00 0.  1.
</event>
<event>
 5    1  0.1261010E-009  0.9118800E+02  0.7561462E-02  0.1125453E+00
         25   -1    0    0    0    0  0.00000000000E+00  0.00000000000E+00  0.99999998245E-14  0.12509000000E+03  0.12509000000E+03 0.  0.
        -13    1    3    3    0    0 -0.28707201047E+02  0.35351251870E+02 -0.13363017756E+01  0.45558876931E+02  0.10566000000E+00 0.  1.
         23    2    1    0    0    0  0.19619989352E+02  0.20594205966E+02  0.39836077125E+01  0.96368328184E+02  0.91988696289E+02 0.  0.
         13    1    3    3    0    0  0.48327190399E+02 -0.14757045904E+02  0.53199094880E+01  0.50809451253E+02  0.10566000000E+00 0. -1.
         22    1    1    0    0    0 -0.19619989352E+02 -0.20594205966E+02 -0.39836077125E+01  0.28721671816E+02  0.00000000000E+00 0.  1.
</event>
<event>
 5    1  0.1261010E-009  0.9118800E+02  0.7561462E-02  0.1125453E+00
         25   -1    0    0    0    0  0.00000000000E+00  0.00000000000E+00  0.99999998245E-14  0.12509000000E+03  0.12509000000E+03 0.  0.
        -13    1    3    3    0    0  0.13616539507E+02  0.51323344888E+02 -0.10827893555E+02  0.54191792012E+02  0.10566000000E+00 0.  1.
         23    2    1    0    0    0  0.22545660391E+02  0.22110328765E+02  0.10905862502E+02  0.91681748363E+02  0.85378168787E+02 0.  0.
         13    1    3    3    0    0  0.89291208836E+01 -0.29213016123E+02  0.21733756057E+02  0.37489956350E+02  0.10566000000E+00 0. -1.
         22    1    1    0    0    0 -0.22545660391E+02 -0.22110328765E+02 -0.10905862502E+02  0.33408251637E+02  0.00000000000E+00 0.  1.
</event>
<event>
 5    1  0.1261010E-009  0.9118800E+02  0.7561462E-02  0.1125453E+00
         25   -1    0    0    0    0  0.00000000000E+00  0.00000000000E+00  0.99999998245E-14  0.12509000000E+03  0.12509000000E+03 0.  0.
        -13    1    3    3    0    0 -0.21132972334E+02  0.29828623227E+02 -0.16027857133E+02  0.39915569038E+02  0.10566000000E+00 0. -1.
         23    2    1    0    0    0 -0.43404231679E+01 -0.23588979230E+02 -0.16612681587E+02  0.95913632784E+02  0.91368290725E+02 0.  0.
         13    1    3    3    0    0  0.16792549166E+02 -0.53417602457E+02 -0.58482445434E+00  0.55998063747E+02  0.10566000000E+00 0.  1.
         22    1    1    0    0    0  0.43404231679E+01  0.23588979230E+02  0.16612681587E+02  0.29176367216E+02  0.00000000000E+00 0.  1.
</event>
<event>
 5    1  0.1261010E-009  0.9118800E+02  0.7561462E-02  0.1125453E+00
         25   -1    0    0    0    0  0.00000000000E+00  0.00000000000E+00  0.99999998245E-14  0.12509000000E+03  0.12509000000E+03 0.  0.
        -13    1    3    3    0    0  0.12447236167E+02 -0.53395251002E+02  0.52448558809E+01  0.55077274760E+02  0.10566000000E+00 0. -1.
         23    2    1    0    0    0 -0.15785809955E+02 -0.24591785499E+02 -0.77637127869E+00  0.95857304908E+02  0.91291141092E+02 0.  0.
         13    1    3    3    0    0 -0.28233046122E+02  0.28803465503E+02 -0.60212271596E+01  0.40780030148E+02  0.10566000000E+00 0.  1.
         22    1    1    0    0    0  0.15785809955E+02  0.24591785499E+02  0.77637127869E+00  0.29232695092E+02  0.00000000000E+00 0.  1.
</event>
<event>
 5    1  0.1261010E-009  0.9118800E+02  0.7561462E-02  0.1125453E+00
         25   -1    0    0    0    0  0.00000000000E+00  0.00000000000E+00  0.99999998245E-14  0.12509000000E+03  0.12509000000E+03 0.  0.
        -13    1    3    3    0    0 -0.14825781906E+02  0.28775684725E+02  0.21192263372E+02  0.38690658193E+02  0.10566000000E+00 0. -1.
         23    2    1    0    0    0 -0.12110214251E+02  0.61331486932E+01 -0.28586238045E+02  0.93444371429E+02  0.87922720295E+02 0.  0.
         13    1    3    3    0    0  0.27155676548E+01 -0.22642536032E+02 -0.49778501418E+02  0.54753713235E+02  0.10566000000E+00 0.  1.
         22    1    1    0    0    0  0.12110214251E+02 -0.61331486932E+01  0.28586238045E+02  0.31645628571E+02  0.00000000000E+00 0.  1.
</event>
<event>
 5    1  0.1261010E-009  0.9118800E+02  0.7561462E-02  0.1125453E+00
         25   -1    0    0    0    0  0.00000000000E+00  0.00000000000E+00  0.99999998245E-14  0.12509000000E+03  0.12509000000E+03 0.  0.
        -13    1    3    3    0    0  0.21694464062E+01  0.35273905470E+02 -0.27941200611E+02  0.45051934037E+02  0.10566000000E+00 0. -1.
         23    2    1    0    0    0 -0.18252285829E+02  0.22659426057E+02  0.13555439508E+02  0.92991005196E+02  0.87275320566E+02 0.  0.
         13    1    3    3    0    0 -0.20421732235E+02 -0.12614479413E+02  0.41496640120E+02  0.47939071159E+02  0.10566000000E+00 0.  1.
         22    1    1    0    0    0  0.18252285829E+02 -0.22659426057E+02 -0.13555439508E+02  0.32098994804E+02  0.00000000000E+00 0.  1.
</event>
<event>
 5    1  0.1261010E-009  0.9118800E+02  0.7561462E-02  0.1125453E+00
         25   -1    0    0    0    0  0.00000000000E+00  0.00000000000E+00  0.99999998245E-14  0.12509000000E+03  0.12509000000E+03 0.  0.
        -13    1    3    3    0    0  0.92879546700E+01  0.41104142495E+02  0.35728547513E+02  0.55248139368E+02  0.10566000000E+00 0.  1.
         23    2    1    0    0    0 -0.12133218020E+02  0.23827085749E+02  0.27359204979E+01  0.98211937276E+02  0.94462449511E+02 0.  0.
         13    1    3    3    0    0 -0.21421172690E+02 -0.17277056746E+02 -0.32992627016E+02  0.42963797908E+02  0.10566000000E+00 0. -1.
         22    1    1    0    0    0  0.12133218020E+02 -0.23827085749E+02 -0.27359204979E+01  0.26878062724E+02  0.00000000000E+00 0.  1.
</event>
<event>
 5    1  0.1261010E-009  0.9118800E+02  0.7561462E-02  0.1125453E+00
         25   -1    0    0    0    0  0.00000000000E+00  0.00000000000E+00  0.99999998245E-14  0.12509000000E+03  0.12509000000E+03 0.  0.
        -13    1    3    3    0    0  0.38857531586E+02  0.61426301956E+01 -0.37512504178E+02  0.54358428973E+02  0.10566000000E+00 0.  1.
         23    2    1    0    0    0  0.16496410714E+02  0.23390220564E+02 -0.76419511024E+01  0.95465121922E+02  0.90752168583E+02 0.  0.
         13    1    3    3    0    0 -0.22361120872E+02  0.17247590368E+02  0.29870553075E+02  0.41106692949E+02  0.10566000000E+00 0. -1.
         22    1    1    0    0    0 -0.16496410714E+02 -0.23390220564E+02  0.76419511024E+01  0.29624878078E+02  0.00000000000E+00 0.  1.
</event>
<event>
 5    1  0.1261010E-009  0.9118800E+02  0.7561462E-02  0.1125453E+00
         25   -1    0    0    0    0  0.00000000000E+00  0.00000000000E+00  0.99999998245E-14  0.12509000000E+03  0.12509000000E+03 0.  0.
        -13    1    3    3    0    0 -0.13457227759E+02 -0.12424893924E+02  0.49091928295E+02  0.52397552956E+02  0.10566000000E+00 0.  1.
         23    2    1    0    0    0 -0.39079100957E+01 -0.27942328349E+02  0.10661574791E+02  0.94928523711E+02  0.90009499288E+02 0.  0.
         13    1    3    3    0    0  0.95493176635E+01 -0.15517434425E+02 -0.38430353503E+02  0.42530970755E+02  0.10566000000E+00 0. -1.
         22    1    1    0    0    0  0.39079100957E+01  0.27942328349E+02 -0.10661574791E+02  0.30161476289E+02  0.00000000000E+00 0.  1.
</event>
<event>
 5    1  0.1261010E-009  0.9118800E+02  0.7561462E-02  0.1125453E+00
         25   -1    0    0    0    0  0.00000000000E+00  0.00000000000E+00  0.99999998245E-14  0.12509000000E+03  0.12509000000E+03 0.  0.
        -13    1    3    3    0    0 -0.44221308963E+02  0.16062913810E+02 -0.35627166503E+02  0.59015654902E+02  0.10566000000E+00 0. -1.
         23    2    1    0    0    0 -0.22049297683E+02 -0.73723245501E+01 -0.17209518699E+02  0.96164401796E+02  0.91710969581E+02 0.  0.
         13    1    3    3    0    0  0.22172011280E+02 -0.23435238360E+02  0.18417647804E+02  0.37148746895E+02  0.10566000000E+00 0.  1.
         22    1    1    0    0    0  0.22049297683E+02  0.73723245501E+01  0.17209518699E+02  0.28925598204E+02  0.00000000000E+00 0. -1.
</event>
<event>
 5    1  0.1261010E-009  0.9118800E+02  0.7561462E-02  0.1125453E+00
         25   -1    0    0    0    0  0.00000000000E+00  0.00000000000E+00  0.99999998245E-14  0.12509000000E+03  0.12509000000E+03 0.  0.
        -13    1    3    3    0    0  0.17692388407E+02  0.20390830861E+02 -0.51123784602E+02  0.57814004418E+02  0.10566000000E+00 0. -1.
         23    2    1    0    0    0  0.10959332705E+02 -0.50036527428E+01 -0.33603169445E+02  0.89392429903E+02  0.81955414788E+02 0.  0.
         13    1    3    3    0    0 -0.67330557023E+01 -0.25394483604E+02  0.17520615157E+02  0.31578425485E+02  0.10566000000E+00 0.  1.
         22    1    1    0    0    0 -0.10959332705E+02  0.50036527428E+01  0.33603169445E+02  0.35697570097E+02  0.00000000000E+00 0. -1.
</event>
<event>
 5    1  0.1261010E-009  0.9118800E+02  0.7561462E-02  0.1125453E+00
         25   -1    0    0    0    0  0.00000000000E+00  0.00000000000E+00  0.99999998245E-14  0.12509000000E+03  0.12509000000E+03 0.  0.
        -13    1    3    3    0    0 -0.48598624299E+02 -0.26241053120E+02  0.77273327773E+01  0.55768647003E+02  0.10566000000E+00 0.  1.
         23    2    1    0    0    0 -0.23621018732E+02 -0.16030648667E+02 -0.16572195720E+02  0.92081336083E+02  0.85961622607E+02 0.  0.
         13    1    3    3    0    0  0.24977605568E+02  0.10210404453E+02 -0.24299528498E+02  0.36312689080E+02  0.10566000000E+00 0. -1.
         22    1    1    0    0    0  0.23621018732E+02  0.16030648667E+02  0.16572195720E+02  0.33008663917E+02  0.00000000000E+00 0.  1.
</event>
<event>
 5    1  0.1261010E-009  0.9118800E+02  0.7561462E-02  0.1125453E+00
         25   -1    0    0    0    0  0.00000000000E+00  0.00000000000E+00  0.99999998245E-14  0.12509000000E+03  0.12509000000E+03 0.  0.
        -13    1    3    3    0    0  0.52422333541E+02 -0.11899851329E+01  0.70589745936E+01  0.52908953920E+02  0.10566000000E+00 0.  1.
         23    2    1    0    0    0  0.14555106012E+02 -0.24803293787E+01  0.25940123933E+02  0.95242166335E+02  0.90444331352E+02 0.  0.
         13    1    3    3    0    0 -0.37867227529E+02 -0.12903442457E+01  0.18881149339E+02  0.42333212416E+02  0.10566000000E+00 0. -1.
         22    1    1    0    0    0 -0.14555106012E+02  0.24803293787E+01 -0.25940123933E+02  0.29847833665E+02  0.00000000000E+00 0.  1.
</event>
<event>
 5    1  0.1261010E-009  0.9118800E+02  0.7561462E-02  0.1125453E+00
         25   -1    0    0    0    0  0.00000000000E+00  0.00000000000E+00  0.99999998245E-14  0.12509000000E+03  0.12509000000E+03 0.  0.
        -13    1    3    3    0    0  0.22691046176E+01 -0.10955305774E+02  0.53168014381E+02  0.54332462466E+02  0.10566000000E+00 0. -1.
         23    2    1    0    0    0 -0.21167368966E+02 -0.60492413411E+01  0.19281153632E+02  0.95825452931E+02  0.91247486071E+02 0.  0.
         13    1    3    3    0    0 -0.23436473584E+02  0.49060644324E+01 -0.33886860749E+02  0.41492990465E+02  0.10566000000E+00 0.  1.
         22    1    1    0    0    0  0.21167368966E+02  0.60492413411E+01 -0.19281153632E+02  0.29264547069E+02  0.00000000000E+00 0. -1.
</event>
<event>
 5    1  0.1261010E-009  0.9118800E+02  0.7561462E-02  0.1125453E+00
         25   -1    0    0    0    0  0.00000000000E+00  0.00000000000E+00  0.99999998245E-14  0.12509000000E+03  0.12509000000E+03 0.  0.
        -13    1    3    3    0    0  0.23977864780E+02  0.23952799945E+02 -0.15947686910E+02  0.37456835243E+02  0.10566000000E+00 0.  1.
         23    2    1    0    0    0 -0.27567856801E+02  0.20635655936E+02 -0.45130491233E+01  0.90359831027E+02  0.83418909285E+02 0.  0.
         13    1    3    3    0    0 -0.51545721580E+02 -0.33171440081E+01  0.11434637787E+02  0.52902995784E+02  0.10566000000E+00 0. -1.
         22    1    1    0    0    0  0.27567856801E+02 -0.20635655936E+02  0.45130491233E+01  0.34730168973E+02  0.00000000000E+00 0. -1.
</event>
<event>
 5    1  0.1261010E-009  0.9118800E+02  0.7561462E-02  0.1125453E+00
         25   -1    0    0    0    0  0.00000000000E+00  0.00000000000E+00  0.99999998245E-14  0.12509000000E+03  0.12509000000E+03 0.  0.
        -13    1    3    3    0    0 -0.16943731013E+02  0.25928360388E+02  0.17836645735E+02  0.35742509539E+02  0.10566000000E+00 0. -1.
         23    2    1    0    0    0  0.21136717000E+02 -0.76117329888E+01 -0.16675850302E+02  0.97111735795E+02  0.92994117885E+02 0.  0.
         13    1    3    3    0    0  0.38080448013E+02 -0.33540093377E+02 -0.34512496036E+02  0.61369226256E+02  0.10566000000E+00 0.  1.
         22    1    1    0    0    0 -0.21136717000E+02  0.76117329888E+01  0.16675850302E+02  0.27978264205E+02  0.00000000000E+00 0.  1.
</event>
<event>
 5    1  0.1261010E-009  0.9118800E+02  0.7561462E-02  0.1125453E+00
         25   -1    0    0    0    0  0.00000000000E+00  0.00000000000E+00  0.99999998245E-14  0.12509000000E+03  0.12509000000E+03 0.  0.
        -13    1    3    3    0    0 -0.19504600194E+02  0.14369557053E+02 -0.31064010372E+02  0.39394130312E+02  0.10566000000E+00 0.  1.
         23    2    1    0    0    0 -0.23393587132E+02 -0.12624269558E+02  0.16198373031E+02  0.93960923726E+02  0.88654587010E+02 0.  0.
         13    1    3    3    0    0 -0.38889869385E+01 -0.26993826612E+02  0.47262383403E+02  0.54566793414E+02  0.10566000000E+00 0. -1.
         22    1    1    0    0    0  0.23393587132E+02  0.12624269558E+02 -0.16198373031E+02  0.31129076274E+02  0.00000000000E+00 0. -1.
</event>
<event>
 5    1  0.1261010E-009  0.9118800E+02  0.7561462E-02  0.1125453E+00
         25   -1    0    0    0    0  0.00000000000E+00  0.00000000000E+00  0.99999998245E-14  0.12509000000E+03  0.12509000000E+03 0.  0.
        -13    1    3    3    0    0 -0.53180744627E+02 -0.44502942211E+01  0.48300963159E+01  0.53584864581E+02  0.10566000000E+00 0. -1.
         23    2    1    0    0    0 -0.21342983966E+02  0.17813364675E+02 -0.10531986259E+02  0.95361870894E+02  0.90609738771E+02 0.  0.
         13    1    3    3    0    0  0.31837760661E+02  0.22263658896E+02 -0.15362082575E+02  0.41777006312E+02  0.10566000000E+00 0.  1.
         22    1    1    0    0    0  0.21342983966E+02 -0.17813364675E+02  0.10531986259E+02  0.29728129106E+02  0.00000000000E+00 0. -1.
</event>
<event>
 5    1  0.1261010E-009  0.9118800E+02  0.7561462E-02  0.1125453E+00
         25   -1    0    0    0    0  0.00000000000E+00  0.00000000000E+00  0.99999998245E-14  0.12509000000E+03  0.12509000000E+03 0.  0.
        -13    1    3    3    0    0  0.13630195554E+02 -0.25799365340E+02  0.23517005717E+02  0.37475995046E+02  0.10566000000E+00 0.  1.
         23    2    1    0    0    0  0.85579115169E+01  0.16638973443E+02 -0.19464417107E+02  0.98090799640E+02  0.94301898995E+02 0.  0.
         13    1    3    3    0    0 -0.50722840370E+01  0.42438338783E+02 -0.42981422823E+02  0.60614804594E+02  0.10566000000E+00 0. -1.
         22    1    1    0    0    0 -0.85579115169E+01 -0.16638973443E+02  0.19464417107E+02  0.26999200360E+02  0.00000000000E+00 0. -1.
</event>
<event>
 5    1  0.1261010E-009  0.9118800E+02  0.7561462E-02  0.1125453E+00
         25   -1    0    0    0    0  0.00000000000E+00  0.00000000000E+00  0.99999998245E-14  0.12509000000E+03  0.12509000000E+03 0.  0.
        -13    1    3    3    0    0  0.22736075558E+02 -0.97993972788E+01 -0.49904462519E+02  0.55708382333E+02  0.10566000000E+00 0.  1.
         23    2    1    0    0    0 -0.70433751115E+01  0.44981436905E+01 -0.29253503273E+02  0.94666162580E+02  0.89644143446E+02 0.  0.
         13    1    3    3    0    0 -0.29779450670E+02  0.14297540969E+02  0.20650959246E+02  0.38957780247E+02  0.10566000000E+00 0. -1.
         22    1    1    0    0    0  0.70433751115E+01 -0.44981436905E+01  0.29253503273E+02  0.30423837420E+02  0.00000000000E+00 0.  1.
</event>
<event>
 5    1  0.1261010E-009  0.9118800E+02  0.7561462E-02  0.1125453E+00
         25   -1    0    0    0    0  0.00000000000E+00  0.00000000000E+00  0.99999998245E-14  0.12509000000E+03  0.12509000000E+03 0.  0.
        -13    1    3    3    0    0 -0.11004928237E+02 -0.35063979320E+02  0.41911717403E+02  0.55742213007E+02  0.10566000000E+00 0.  1.
         23    2    1    0    0    0 -0.16906725814E+02 -0.24363218352E+02  0.45044877945E+01  0.95095097158E+02  0.90240696512E+02 0.  0.
         13    1    3    3    0    0 -0.59017975772E+01  0.10700760968E+02 -0.37407229608E+02  0.39352884150E+02  0.10566000000E+00 0. -1.
         22    1    1    0    0    0  0.16906725814E+02  0.24363218352E+02 -0.45044877945E+01  0.29994902842E+02  0.00000000000E+00 0.  1.
</event>
<event>
 5    1  0.1261010E-009  0.9118800E+02  0.7561462E-02  0.1125453E+00
         25   -1    0    0    0    0  0.00000000000E+00  0.00000000000E+00  0.99999998245E-14  0.12509000000E+03  0.12509000000E+03 0.  0.
        -13    1    3    3    0    0 -0.59619647381E+02 -0.78097966841E+00 -0.28308241557E+01  0.59692017997E+02  0.10566000000E+00 0. -1.
         23    2    1    0    0    0 -0.27159863740E+02 -0.13610568156E+02  0.75687162985E-02  0.94710634944E+02  0.89706178997E+02 0.  0.
         13    1    3    3    0    0  0.32459783641E+02 -0.12829588487E+02  0.28383928720E+01  0.35018616947E+02  0.10566000000E+00 0.  1.
         22    1    1    0    0    0  0.27159863740E+02  0.13610568156E+02 -0.75687162985E-02  0.30379365056E+02  0.00000000000E+00 0. -1.
</event>
<event>
 5    1  0.1261010E-009  0.9118800E+02  0.7561462E-02  0.1125453E+00
         25   -1    0    0    0    0  0.00000000000E+00  0.00000000000E+00  0.99999998245E-14  0.12509000000E+03  0.12509000000E+03 0.  0.
        -13    1    3    3    0    0  0.82193322687E+01 -0.35011617295E+02  0.44580173726E+02  0.57278039614E+02  0.10566000000E+00 0.  1.
         23    2    1    0    0    0  0.13866906088E+02 -0.25259105357E+02  0.85449597349E+01  0.95034554158E+02  0.90156733854E+02 0.  0.
         13    1    3    3    0    0  0.56475738195E+01  0.97525119378E+01 -0.36035213991E+02  0.37756514544E+02  0.10566000000E+00 0. -1.
         22    1    1    0    0    0 -0.13866906088E+02  0.25259105357E+02 -0.85449597349E+01  0.30055445842E+02  0.00000000000E+00 0.  1.
</event>
<event>
 5    1  0.1261010E-009  0.9118800E+02  0.7561462E-02  0.1125453E+00
         25   -1    0    0    0    0  0.00000000000E+00  0.00000000000E+00  0.99999998245E-14  0.12509000000E+03  0.12509000000E+03 0.  0.
        -13    1    3    3    0    0 -0.31511703375E+01 -0.37548678977E+01  0.53389069196E+02  0.53613736869E+02  0.10566000000E+00 0.  1.
         23    2    1    0    0    0  0.13380305842E+02 -0.18901209485E+02  0.16975184470E+02  0.96376846356E+02  0.92000278919E+02 0.  0.
         13    1    3    3    0    0  0.16531476179E+02 -0.15146341587E+02 -0.36413884726E+02  0.42763109487E+02  0.10566000000E+00 0. -1.
         22    1    1    0    0    0 -0.13380305842E+02  0.18901209485E+02 -0.16975184470E+02  0.28713153644E+02  0.00000000000E+00 0.  1.
</event>
<event>
 5    1  0.1261010E-009  0.9118800E+02  0.7561462E-02  0.1125453E+00
         25   -1    0    0    0    0  0.00000000000E+00  0.00000000000E+00  0.99999998245E-14  0.12509000000E+03  0.12509000000E+03 0.  0.
        -13    1    3    3    0    0 -0.16806964078E+02  0.19335544298E+02  0.49460350174E+02  0.55701658128E+02  0.10566000000E+00 0.  1.
         23    2    1    0    0    0 -0.15597161043E+02 -0.10252591416E+02  0.23472540310E+02  0.95100881775E+02  0.90248714685E+02 0.  0.
         13    1    3    3    0    0  0.12098030358E+01 -0.29588135714E+02 -0.25987809864E+02  0.39399223647E+02  0.10566000000E+00 0. -1.
         22    1    1    0    0    0  0.15597161043E+02  0.10252591416E+02 -0.23472540310E+02  0.29989118225E+02  0.00000000000E+00 0.  1.
</event>
<event>
 5    1  0.1261010E-009  0.9118800E+02  0.7561462E-02  0.1125453E+00
         25   -1    0    0    0    0  0.00000000000E+00  0.00000000000E+00  0.99999998245E-14  0.12509000000E+03  0.12509000000E+03 0.  0.
        -13    1    3    3    0    0  0.31744001214E+01 -0.59063331657E+02  0.32479450391E+01  0.59237777420E+02  0.10566000000E+00 0. -1.
         23    2    1    0    0    0  0.11563587296E+02 -0.33605151140E+02 -0.85698630093E+01  0.88532301956E+02  0.80631899415E+02 0.  0.
         13    1    3    3    0    0  0.83891871743E+01  0.25458180517E+02 -0.11817808048E+02  0.29294524536E+02  0.10566000000E+00 0.  1.
         22    1    1    0    0    0 -0.11563587296E+02  0.33605151140E+02  0.85698630093E+01  0.36557698044E+02  0.00000000000E+00 0. -1.
</event>
<event>
 5    1  0.1261010E-009  0.9118800E+02  0.7561462E-02  0.1125453E+00
         25   -1    0    0    0    0  0.00000000000E+00  0.00000000000E+00  0.99999998245E-14  0.12509000000E+03  0.12509000000E+03 0.  0.
        -13    1    3    3    0    0 -0.11560107359E+00  0.18152124663E+02  0.47481623590E+02  0.50833342761E+02  0.10566000000E+00 0.  1.
         23    2    1    0    0    0  0.18561344491E+02  0.21339563760E+02  0.63729526080E+01  0.96098363004E+02  0.91620851100E+02 0.  0.
         13    1    3    3    0    0  0.18676945565E+02  0.31874390963E+01 -0.41108670982E+02  0.45265020243E+02  0.10566000000E+00 0. -1.
         22    1    1    0    0    0 -0.18561344491E+02 -0.21339563760E+02 -0.63729526080E+01  0.28991636996E+02  0.00000000000E+00 0.  1.
</event>
<event>
 5    1  0.1261010E-009  0.9118800E+02  0.7561462E-02  0.1125453E+00
         25   -1    0    0    0    0  0.00000000000E+00  0.00000000000E+00  0.99999998245E-14  0.12509000000E+03  0.12509000000E+03 0.  0.
        -13    1    3    3    0    0  0.31007346635E+02 -0.48792614307E+02 -0.15702832664E+02  0.59906300787E+02  0.10566000000E+00 0. -1.
         23    2    1    0    0    0  0.50080818498E+01 -0.30612024566E+02 -0.35963569875E+01  0.93863237193E+02  0.88516645784E+02 0.  0.
         13    1    3    3    0    0 -0.25999264785E+02  0.18180589741E+02  0.12106475677E+02  0.33956936405E+02  0.10566000000E+00 0.  1.
         22    1    1    0    0    0 -0.50080818498E+01  0.30612024566E+02  0.35963569875E+01  0.31226762807E+02  0.00000000000E+00 0. -1.
</event>
<event>
 5    1  0.1261010E-009  0.9118800E+02  0.7561462E-02  0.1125453E+00
         25   -1    0    0    0    0  0.00000000000E+00  0.00000000000E+00  0.99999998245E-14  0.12509000000E+03  0.12509000000E+03 0.  0.
        -13    1    3    3    0    0  0.12769783105E+02 -0.13048817043E+02 -0.53164060104E+02  0.56211808702E+02  0.10566000000E+00 0.  1.
         23    2    1    0    0    0  0.22139729381E+02 -0.12541060838E+02 -0.14913644942E+02  0.95596566333E+02  0.90933167025E+02 0.  0.
         13    1    3    3    0    0  0.93699462758E+01  0.50775620486E+00  0.38250415162E+02  0.39384757631E+02  0.10566000000E+00 0. -1.
         22    1    1    0    0    0 -0.22139729381E+02  0.12541060838E+02  0.14913644942E+02  0.29493433667E+02  0.00000000000E+00 0.  1.
</event>
<event>
 5    1  0.1261010E-009  0.9118800E+02  0.7561462E-02  0.1125453E+00
         25   -1    0    0    0    0  0.00000000000E+00  0.00000000000E+00  0.99999998245E-14  0.12509000000E+03  0.12509000000E+03 0.  0.
        -13    1    3    3    0    0  0.43559331221E+02  0.13330255476E+02 -0.30252777138E+02  0.54684117768E+02  0.10566000000E+00 0. -1.
         23    2    1    0    0    0  0.17444427525E+02  0.13200527540E+02  0.86718699171E+01  0.10155782401E+03  0.98793867778E+02 0.  0.
         13    1    3    3    0    0 -0.26114903695E+02 -0.12972793534E+00  0.38924647055E+02  0.46873706241E+02  0.10566000000E+00 0.  1.
         22    1    1    0    0    0 -0.17444427525E+02 -0.13200527540E+02 -0.86718699171E+01  0.23532175991E+02  0.00000000000E+00 0.  1.
</event>
<event>
 5    1  0.1261010E-009  0.9118800E+02  0.7561462E-02  0.1125453E+00
         25   -1    0    0    0    0  0.00000000000E+00  0.00000000000E+00  0.99999998245E-14  0.12509000000E+03  0.12509000000E+03 0.  0.
        -13    1    3    3    0    0  0.18686903710E+02 -0.24637953809E+02  0.25030150817E+02  0.39783774986E+02  0.10566000000E+00 0.  1.
         23    2    1    0    0    0  0.51977502408E+01 -0.10726594751E+02 -0.27146167424E+02  0.95442220179E+02  0.90720596032E+02 0.  0.
         13    1    3    3    0    0 -0.13489153469E+02  0.13911359058E+02 -0.52176318241E+02  0.55658445193E+02  0.10566000000E+00 0. -1.
         22    1    1    0    0    0 -0.51977502408E+01  0.10726594751E+02  0.27146167424E+02  0.29647779821E+02  0.00000000000E+00 0. -1.
</event>
<event>
 5    1  0.1261010E-009  0.9118800E+02  0.7561462E-02  0.1125453E+00
         25   -1    0    0    0    0  0.00000000000E+00  0.00000000000E+00  0.99999998245E-14  0.12509000000E+03  0.12509000000E+03 0.  0.
        -13    1    3    3    0    0  0.27162726266E+02 -0.20246717355E+02  0.16652033054E+00  0.33878933793E+02  0.10566000000E+00 0. -1.
         23    2    1    0    0    0 -0.28100843426E+02  0.73184773397E+01  0.41138012377E+01  0.95761841646E+02  0.91160240472E+02 0.  0.
         13    1    3    3    0    0 -0.55263569692E+02  0.27565194695E+02  0.39472809071E+01  0.61882907853E+02  0.10566000000E+00 0.  1.
         22    1    1    0    0    0  0.28100843426E+02 -0.73184773397E+01 -0.41138012377E+01  0.29328158354E+02  0.00000000000E+00 0.  1.
</event>
<event>
 5    1  0.1261010E-009  0.9118800E+02  0.7561462E-02  0.1125453E+00
         25   -1    0    0    0    0  0.00000000000E+00  0.00000000000E+00  0.99999998245E-14  0.12509000000E+03  0.12509000000E+03 0.  0.
        -13    1    3    3    0    0 -0.41898526998E+02 -0.29642140333E+02 -0.33952652042E+02  0.61538092210E+02  0.10566000000E+00 0. -1.
         23    2    1    0    0    0 -0.22871517283E+02 -0.11982293953E+02 -0.84670614487E+01  0.97916983959E+02  0.94071052650E+02 0.  0.
         13    1    3    3    0    0  0.19027009715E+02  0.17659846381E+02  0.25485590594E+02  0.36378891748E+02  0.10566000000E+00 0.  1.
         22    1    1    0    0    0  0.22871517283E+02  0.11982293953E+02  0.84670614487E+01  0.27173016041E+02  0.00000000000E+00 0. -1.
</event>
<event>
 5    1  0.1261010E-009  0.9118800E+02  0.7561462E-02  0.1125453E+00
         25   -1    0    0    0    0  0.00000000000E+00  0.00000000000E+00  0.99999998245E-14  0.12509000000E+03  0.12509000000E+03 0.  0.
        -13    1    3    3    0    0  0.13602236638E+02 -0.37669633727E+02  0.16125989446E+02  0.43175002563E+02  0.10566000000E+00 0.  1.
         23    2    1    0    0    0 -0.26255524217E+02 -0.52035804339E+01  0.14591114818E+02  0.94605078598E+02  0.89558865914E+02 0.  0.
         13    1    3    3    0    0 -0.39857760855E+02  0.32466053293E+02 -0.15348746285E+01  0.51430076035E+02  0.10566000000E+00 0. -1.
         22    1    1    0    0    0  0.26255524217E+02  0.52035804339E+01 -0.14591114818E+02  0.30484921402E+02  0.00000000000E+00 0.  1.
</event>
<event>
 5    1  0.1261010E-009  0.9118800E+02  0.7561462E-02  0.1125453E+00
         25   -1    0    0    0    0  0.00000000000E+00  0.00000000000E+00  0.99999998245E-14  0.12509000000E+03  0.12509000000E+03 0.  0.
        -13    1    3    3    0    0  0.35084296833E+02 -0.31743816174E+02 -0.32997758912E+02  0.57683975303E+02  0.10566000000E+00 0. -1.
         23    2    1    0    0    0  0.13571709599E+02 -0.23716342114E+02 -0.14637570055E+00  0.97764597706E+02  0.93868199908E+02 0.  0.
         13    1    3    3    0    0 -0.21512587234E+02  0.80274740596E+01  0.32851383211E+02  0.40080622403E+02  0.10566000000E+00 0.  1.
         22    1    1    0    0    0 -0.13571709599E+02  0.23716342114E+02  0.14637570055E+00  0.27325402294E+02  0.00000000000E+00 0. -1.
</event>
<event>
 5    1  0.1261010E-009  0.9118800E+02  0.7561462E-02  0.1125453E+00
         25   -1    0    0    0    0  0.00000000000E+00  0.00000000000E+00  0.99999998245E-14  0.12509000000E+03  0.12509000000E+03 0.  0.
        -13    1    3    3    0    0  0.30799291463E+02  0.24409636324E+02  0.43337174094E+02  0.58502551420E+02  0.10566000000E+00 0.  1.
         23    2    1    0    0    0  0.17376292260E+02 -0.40354839930E+01  0.23100099327E+02  0.95903783173E+02  0.91354804878E+02 0.  0.
         13    1    3    3    0    0 -0.13422999204E+02 -0.28445120317E+02 -0.20237074767E+02  0.37401231753E+02  0.10566000000E+00 0. -1.
         22    1    1    0    0    0 -0.17376292260E+02  0.40354839930E+01 -0.23100099327E+02  0.29186216827E+02  0.00000000000E+00 0.  1.
</event>
<event>
 5    1  0.1261010E-009  0.9118800E+02  0.7561462E-02  0.1125453E+00
         25   -1    0    0    0    0  0.00000000000E+00  0.00000000000E+00  0.99999998245E-14  0.12509000000E+03  0.12509000000E+03 0.  0.
        -13    1    3    3    0    0  0.19764023208E+02  0.15047425162E+02  0.26842592831E+02  0.36572907614E+02  0.10566000000E+00 0.  1.
         23    2    1    0    0    0 -0.36807811078E+01  0.13323007028E+02 -0.26686359828E+02  0.95036506580E+02  0.90159442746E+02 0.  0.
         13    1    3    3    0    0 -0.23444804316E+02 -0.17244181336E+01 -0.53528952659E+02  0.58463598967E+02  0.10566000000E+00 0. -1.
         22    1    1    0    0    0  0.36807811078E+01 -0.13323007028E+02  0.26686359828E+02  0.30053493420E+02  0.00000000000E+00 0. -1.
</event>
<event>
 5    1  0.1261010E-009  0.9118800E+02  0.7561462E-02  0.1125453E+00
         25   -1    0    0    0    0  0.00000000000E+00  0.00000000000E+00  0.99999998245E-14  0.12509000000E+03  0.12509000000E+03 0.  0.
        -13    1    3    3    0    0 -0.94294731128E+01 -0.55680312611E+02  0.14169438997E+02  0.58223675092E+02  0.10566000000E+00 0.  1.
         23    2    1    0    0    0 -0.18573314484E+02 -0.35029997961E+02 -0.99718273644E+00  0.85428139965E+02  0.75663095075E+02 0.  0.
         13    1    3    3    0    0 -0.91438413709E+01  0.20650314650E+02 -0.15166621734E+02  0.27204464873E+02  0.10566000000E+00 0. -1.
         22    1    1    0    0    0  0.18573314484E+02  0.35029997961E+02  0.99718273644E+00  0.39661860035E+02  0.00000000000E+00 0.  1.
</event>
<event>
 5    1  0.1261010E-009  0.9118800E+02  0.7561462E-02  0.1125453E+00
         25   -1    0    0    0    0  0.00000000000E+00  0.00000000000E+00  0.99999998245E-14  0.12509000000E+03  0.12509000000E+03 0.  0.
        -13    1    3    3    0    0  0.27940513151E+02 -0.45709470123E+02 -0.88465355644E+01  0.54298253099E+02  0.10566000000E+00 0.  1.
         23    2    1    0    0    0  0.19344754364E+01 -0.22422583578E+02  0.16283328994E+02  0.97311208582E+02  0.93262050498E+02 0.  0.
         13    1    3    3    0    0 -0.26006037714E+02  0.23286886546E+02  0.25129864559E+02  0.43012955483E+02  0.10566000000E+00 0. -1.
         22    1    1    0    0    0 -0.19344754364E+01  0.22422583578E+02 -0.16283328994E+02  0.27778791418E+02  0.00000000000E+00 0.  1.
</event>
<event>
 5    1  0.1261010E-009  0.9118800E+02  0.7561462E-02  0.1125453E+00
         25   -1    0    0    0    0  0.00000000000E+00  0.00000000000E+00  0.99999998245E-14  0.12509000000E+03  0.12509000000E+03 0.  0.
        -13    1    3    3    0    0  0.19798528650E+02  0.18564330380E+02  0.27573864539E+02  0.38690376953E+02  0.10566000000E+00 0. -1.
         23    2    1    0    0    0 -0.16017441418E+02  0.29982130349E+02 -0.76955129457E+01  0.90237346022E+02  0.83235035458E+02 0.  0.
         13    1    3    3    0    0 -0.35815970067E+02  0.11417799969E+02 -0.35269377484E+02  0.51546969069E+02  0.10566000000E+00 0.  1.
         22    1    1    0    0    0  0.16017441418E+02 -0.29982130349E+02  0.76955129457E+01  0.34852653978E+02  0.00000000000E+00 0.  1.
</event>
<event>
 5    1  0.1261010E-009  0.9118800E+02  0.7561462E-02  0.1125453E+00
         25   -1    0    0    0    0  0.00000000000E+00  0.00000000000E+00  0.99999998245E-14  0.12509000000E+03  0.12509000000E+03 0.  0.
        -13    1    3    3    0    0  0.34233325285E+01 -0.42210616295E+02 -0.48352412901E+01  0.42624477193E+02  0.10566000000E+00 0.  1.
         23    2    1    0    0    0 -0.19451163171E+02  0.34087385789E-01  0.20411376637E+02  0.96894730771E+02  0.92701756425E+02 0.  0.
         13    1    3    3    0    0 -0.22874495700E+02  0.42244703681E+02  0.25246617927E+02  0.54270253578E+02  0.10566000000E+00 0. -1.
         22    1    1    0    0    0  0.19451163171E+02 -0.34087385789E-01 -0.20411376637E+02  0.28195269229E+02  0.00000000000E+00 0. -1.
</event>
<event>
 5    1  0.1261010E-009  0.9118800E+02  0.7561462E-02  0.1125453E+00
         25   -1    0    0    0    0  0.00000000000E+00  0.00000000000E+00  0.99999998245E-14  0.12509000000E+03  0.12509000000E+03 0.  0.
        -13    1    3    3    0    0 -0.36096688288E+02  0.12576474431E+01  0.15302533330E+01  0.36151146894E+02  0.10566000000E+00 0. -1.
         23    2    1    0    0    0  0.14105059781E+02 -0.27616105625E+02  0.87823543980E+00  0.94067857927E+02  0.88805341034E+02 0.  0.
         13    1    3    3    0    0  0.50201748070E+02 -0.28873753068E+02 -0.65201789319E+00  0.57916711033E+02  0.10566000000E+00 0.  1.
         22    1    1    0    0    0 -0.14105059781E+02  0.27616105625E+02 -0.87823543980E+00  0.31022142073E+02  0.00000000000E+00 0.  1.
</event>
<event>
 5    1  0.1261010E-009  0.9118800E+02  0.7561462E-02  0.1125453E+00
         25   -1    0    0    0    0  0.00000000000E+00  0.00000000000E+00  0.99999998245E-14  0.12509000000E+03  0.12509000000E+03 0.  0.
        -13    1    3    3    0    0  0.10648421237E+02  0.34480340047E+02 -0.45689457174E+02  0.58222164040E+02  0.10566000000E+00 0.  1.
         23    2    1    0    0    0 -0.49836108352E+01  0.25905071077E+02 -0.12498842054E+02  0.95898731834E+02  0.91347887936E+02 0.  0.
         13    1    3    3    0    0 -0.15632032073E+02 -0.85752689708E+01  0.33190615120E+02  0.37676567794E+02  0.10566000000E+00 0. -1.
         22    1    1    0    0    0  0.49836108352E+01 -0.25905071077E+02  0.12498842054E+02  0.29191268166E+02  0.00000000000E+00 0.  1.
</event>
<event>
 5    1  0.1261010E-009  0.9118800E+02  0.7561462E-02  0.1125453E+00
         25   -1    0    0    0    0  0.00000000000E+00  0.00000000000E+00  0.99999998245E-14  0.12509000000E+03  0.12509000000E+03 0.  0.
        -13    1    3    3    0    0 -0.16742735008E+02  0.50577607673E+02 -0.29640240847E+02  0.60966946905E+02  0.10566000000E+00 0.  1.
         23    2    1    0    0    0 -0.54815763165E+01  0.28914037758E+02 -0.26321250430E+02  0.85607377461E+02  0.75958841441E+02 0.  0.
         13    1    3    3    0    0  0.11261158692E+02 -0.21663569915E+02  0.33189904165E+01  0.24640430555E+02  0.10566000000E+00 0. -1.
         22    1    1    0    0    0  0.54815763165E+01 -0.28914037758E+02  0.26321250430E+02  0.39482622539E+02  0.00000000000E+00 0.  1.
</event>
<event>
 5    1  0.1261010E-009  0.9118800E+02  0.7561462E-02  0.1125453E+00
         25   -1    0    0    0    0  0.00000000000E+00  0.00000000000E+00  0.99999998245E-14  0.12509000000E+03  0.12509000000E+03 0.  0.
        -13    1    3    3    0    0  0.28998500199E+02 -0.62647169609E+00  0.49701000105E+02  0.57545686685E+02  0.10566000000E+00 0.  1.
         23    2    1    0    0    0  0.17772324060E+02 -0.17791832412E+02  0.25372400434E+02  0.89366569218E+02  0.81915933658E+02 0.  0.
         13    1    3    3    0    0 -0.11226176139E+02 -0.17165360716E+02 -0.24328599671E+02  0.31820882533E+02  0.10566000000E+00 0. -1.
         22    1    1    0    0    0 -0.17772324060E+02  0.17791832412E+02 -0.25372400434E+02  0.35723430782E+02  0.00000000000E+00 0.  1.
</event>
<event>
 5    1  0.1261010E-009  0.9118800E+02  0.7561462E-02  0.1125453E+00
         25   -1    0    0    0    0  0.00000000000E+00  0.00000000000E+00  0.99999998245E-14  0.12509000000E+03  0.12509000000E+03 0.  0.
        -13    1    3    3    0    0  0.21332503000E+02 -0.33384718594E+01 -0.26709900116E+02  0.34346047907E+02  0.10566000000E+00 0. -1.
         23    2    1    0    0    0 -0.86047518075E+01 -0.16587711429E+02  0.23979930373E+02  0.94688832509E+02  0.89675771628E+02 0.  0.
         13    1    3    3    0    0 -0.29937254808E+02 -0.13249239570E+02  0.50689830488E+02  0.60342784602E+02  0.10566000000E+00 0.  1.
         22    1    1    0    0    0  0.86047518075E+01  0.16587711429E+02 -0.23979930373E+02  0.30401167491E+02  0.00000000000E+00 0.  1.
</event>
<event>
 5    1  0.1261010E-009  0.9118800E+02  0.7561462E-02  0.1125453E+00
         25   -1    0    0    0    0  0.00000000000E+00  0.00000000000E+00  0.99999998245E-14  0.12509000000E+03  0.12509000000E+03 0.  0.
        -13    1    3    3    0    0  0.17808978434E+02 -0.38294981980E+02  0.38163668285E+02  0.56922246080E+02  0.10566000000E+00 0.  1.
         23    2    1    0    0    0 -0.49876133325E+01 -0.87464655976E+01  0.27602914544E+02  0.95708069523E+02  0.91086424528E+02 0.  0.
         13    1    3    3    0    0 -0.22796591766E+02  0.29548516382E+02 -0.10560753741E+02  0.38785823443E+02  0.10566000000E+00 0. -1.
         22    1    1    0    0    0  0.49876133325E+01  0.87464655976E+01 -0.27602914544E+02  0.29381930477E+02  0.00000000000E+00 0.  1.
</event>
<event>
 5    1  0.1261010E-009  0.9118800E+02  0.7561462E-02  0.1125453E+00
         25   -1    0    0    0    0  0.00000000000E+00  0.00000000000E+00  0.99999998245E-14  0.12509000000E+03  0.12509000000E+03 0.  0.
        -13    1    3    3    0    0 -0.23165505741E+02 -0.35346137122E+02 -0.98919396269E+01  0.43403360461E+02  0.10566000000E+00 0.  1.
         23    2    1    0    0    0 -0.12264804976E+02  0.14907031076E+02 -0.21578920040E+02  0.96136678832E+02  0.91673148795E+02 0.  0.
         13    1    3    3    0    0  0.10900700765E+02  0.50253168198E+02 -0.11686980413E+02  0.52733318370E+02  0.10566000000E+00 0. -1.
         22    1    1    0    0    0  0.12264804976E+02 -0.14907031076E+02  0.21578920040E+02  0.28953321168E+02  0.00000000000E+00 0. -1.
</event>
<event>
 5    1  0.1261010E-009  0.9118800E+02  0.7561462E-02  0.1125453E+00
         25   -1    0    0    0    0  0.00000000000E+00  0.00000000000E+00  0.99999998245E-14  0.12509000000E+03  0.12509000000E+03 0.  0.
        -13    1    3    3    0    0  0.41806069272E+02 -0.21806907105E+02  0.88148869167E+01  0.47968760885E+02  0.10566000000E+00 0.  1.
         23    2    1    0    0    0 -0.37887724489E+01 -0.21569690743E+02  0.20558480016E+02  0.95052399297E+02  0.90181490097E+02 0.  0.
         13    1    3    3    0    0 -0.45594841721E+02  0.23721636155E+00  0.11743593099E+02  0.47083638412E+02  0.10566000000E+00 0. -1.
         22    1    1    0    0    0  0.37887724489E+01  0.21569690743E+02 -0.20558480016E+02  0.30037600703E+02  0.00000000000E+00 0. -1.
</event>
<event>
 5    1  0.1261010E-009  0.9118800E+02  0.7561462E-02  0.1125453E+00
         25   -1    0    0    0    0  0.00000000000E+00  0.00000000000E+00  0.99999998245E-14  0.12509000000E+03  0.12509000000E+03 0.  0.
        -13    1    3    3    0    0  0.35413316948E+02  0.25823836030E+01 -0.45044390812E+02  0.57356604066E+02  0.10566000000E+00 0.  1.
         23    2    1    0    0    0  0.10710747341E+01 -0.46253836787E+01 -0.28580973859E+02  0.96117367362E+02  0.91646794088E+02 0.  0.
         13    1    3    3    0    0 -0.34342242214E+02 -0.72077672818E+01  0.16463416953E+02  0.38760763296E+02  0.10566000000E+00 0. -1.
         22    1    1    0    0    0 -0.10710747341E+01  0.46253836787E+01  0.28580973859E+02  0.28972632638E+02  0.00000000000E+00 0.  1.
</event>
<event>
 5    1  0.1261010E-009  0.9118800E+02  0.7561462E-02  0.1125453E+00
         25   -1    0    0    0    0  0.00000000000E+00  0.00000000000E+00  0.99999998245E-14  0.12509000000E+03  0.12509000000E+03 0.  0.
        -13    1    3    3    0    0 -0.14403157605E+02  0.47191804016E+02  0.58928220520E+01  0.49691587126E+02  0.10566000000E+00 0. -1.
         23    2    1    0    0    0 -0.54895172316E+01  0.87028918790E+01  0.28206610577E+02  0.95065210130E+02  0.90199258148E+02 0.  0.
         13    1    3    3    0    0  0.89136403737E+01 -0.38488912137E+02  0.22313788525E+02  0.45373623005E+02  0.10566000000E+00 0.  1.
         22    1    1    0    0    0  0.54895172316E+01 -0.87028918790E+01 -0.28206610577E+02  0.30024789870E+02  0.00000000000E+00 0. -1.
</event>
<event>
 5    1  0.1261010E-009  0.9118800E+02  0.7561462E-02  0.1125453E+00
         25   -1    0    0    0    0  0.00000000000E+00  0.00000000000E+00  0.99999998245E-14  0.12509000000E+03  0.12509000000E+03 0.  0.
        -13    1    3    3    0    0 -0.29884024452E+02  0.46548921879E+01 -0.26890720609E+02  0.40470297227E+02  0.10566000000E+00 0.  1.
         23    2    1    0    0    0 -0.52182962343E+01  0.21437187376E+02  0.19512335314E+02  0.95636394999E+02  0.90987939864E+02 0.  0.
         13    1    3    3    0    0  0.24665728218E+02  0.16782295188E+02  0.46403055923E+02  0.55166097771E+02  0.10566000000E+00 0. -1.
         22    1    1    0    0    0  0.52182962343E+01 -0.21437187376E+02 -0.19512335314E+02  0.29453605001E+02  0.00000000000E+00 0. -1.
</event>
<event>
 5    1  0.1261010E-009  0.9118800E+02  0.7561462E-02  0.1125453E+00
         25   -1    0    0    0    0  0.00000000000E+00  0.00000000000E+00  0.99999998245E-14  0.12509000000E+03  0.12509000000E+03 0.  0.
        -13    1    3    3    0    0  0.28709980723E+02 -0.19992025816E+02 -0.20403427005E+01  0.35044518141E+02  0.10566000000E+00 0. -1.
         23    2    1    0    0    0 -0.25972205434E+02  0.16336719115E+01  0.13369054385E+02  0.95833275060E+02  0.91258208697E+02 0.  0.
         13    1    3    3    0    0 -0.54682186158E+02  0.21625697728E+02  0.15409397086E+02  0.60788756919E+02  0.10566000000E+00 0.  1.
         22    1    1    0    0    0  0.25972205434E+02 -0.16336719115E+01 -0.13369054385E+02  0.29256724940E+02  0.00000000000E+00 0.  1.
</event>
<event>
 5    1  0.1261010E-009  0.9118800E+02  0.7561462E-02  0.1125453E+00
         25   -1    0    0    0    0  0.00000000000E+00  0.00000000000E+00  0.99999998245E-14  0.12509000000E+03  0.12509000000E+03 0.  0.
        -13    1    3    3    0    0  0.97158000931E+01 -0.36336690027E+02  0.15551376607E+02  0.40701453193E+02  0.10566000000E+00 0. -1.
         23    2    1    0    0    0 -0.15097400712E+01  0.10073298587E+02 -0.21605474189E+02  0.10120387067E+03  0.98344680912E+02 0.  0.
         13    1    3    3    0    0 -0.11225540164E+02  0.46409988615E+02 -0.37156850797E+02  0.60502417475E+02  0.10566000000E+00 0.  1.
         22    1    1    0    0    0  0.15097400712E+01 -0.10073298587E+02  0.21605474189E+02  0.23886129332E+02  0.00000000000E+00 0.  1.
</event>
<event>
 5    1  0.1261010E-009  0.9118800E+02  0.7561462E-02  0.1125453E+00
         25   -1    0    0    0    0  0.00000000000E+00  0.00000000000E+00  0.99999998245E-14  0.12509000000E+03  0.12509000000E+03 0.  0.
        -13    1    3    3    0    0 -0.24082998296E+01  0.13546178211E+02 -0.35391594087E+02  0.37972028497E+02  0.10566000000E+00 0. -1.
         23    2    1    0    0    0  0.12351059889E+01 -0.30779404890E+02 -0.86883171517E+00  0.94273573849E+02  0.89094638478E+02 0.  0.
         13    1    3    3    0    0  0.36434058185E+01 -0.44325583101E+02  0.34522762371E+02  0.56301545351E+02  0.10566000000E+00 0.  1.
         22    1    1    0    0    0 -0.12351059889E+01  0.30779404890E+02  0.86883171517E+00  0.30816426151E+02  0.00000000000E+00 0.  1.
</event>
<event>
 5    1  0.1261010E-009  0.9118800E+02  0.7561462E-02  0.1125453E+00
         25   -1    0    0    0    0  0.00000000000E+00  0.00000000000E+00  0.99999998245E-14  0.12509000000E+03  0.12509000000E+03 0.  0.
        -13    1    3    3    0    0 -0.83788898867E+01 -0.41256297726E+02  0.43552283217E-01  0.42098704951E+02  0.10566000000E+00 0. -1.
         23    2    1    0    0    0  0.18008593994E+02  0.22319127835E+01  0.21194341808E+02  0.97188548120E+02  0.93097383791E+02 0.  0.
         13    1    3    3    0    0  0.26387483881E+02  0.43488210509E+02  0.21150789524E+02  0.55089843169E+02  0.10566000000E+00 0.  1.
         22    1    1    0    0    0 -0.18008593994E+02 -0.22319127835E+01 -0.21194341808E+02  0.27901451880E+02  0.00000000000E+00 0.  1.
</event>
<event>
 5    1  0.1261010E-009  0.9118800E+02  0.7561462E-02  0.1125453E+00
         25   -1    0    0    0    0  0.00000000000E+00  0.00000000000E+00  0.99999998245E-14  0.12509000000E+03  0.12509000000E+03 0.  0.
        -13    1    3    3    0    0 -0.36482168145E+02  0.29796920371E+02  0.15388774789E+02  0.49554319788E+02  0.10566000000E+00 0. -1.
         23    2    1    0    0    0 -0.23516128992E+01  0.24726924318E+02 -0.15455241012E+02  0.95835678197E+02  0.91261502679E+02 0.  0.
         13    1    3    3    0    0  0.34130555246E+02 -0.50699960533E+01 -0.30844015801E+02  0.46281358408E+02  0.10566000000E+00 0.  1.
         22    1    1    0    0    0  0.23516128992E+01 -0.24726924318E+02  0.15455241012E+02  0.29254321803E+02  0.00000000000E+00 0. -1.
</event>
<event>
 5    1  0.1261010E-009  0.9118800E+02  0.7561462E-02  0.1125453E+00
         25   -1    0    0    0    0  0.00000000000E+00  0.00000000000E+00  0.99999998245E-14  0.12509000000E+03  0.12509000000E+03 0.  0.
        -13    1    3    3    0    0  0.24028968501E+02  0.93789457873E+01 -0.49836020505E+02  0.56115916237E+02  0.10566000000E+00 0. -1.
         23    2    1    0    0    0  0.22747668092E+02 -0.10431754455E+02 -0.15874386724E+02  0.95454311068E+02  0.90737266010E+02 0.  0.
         13    1    3    3    0    0 -0.12813004094E+01 -0.19810700242E+02  0.33961633780E+02  0.39338394831E+02  0.10566000000E+00 0.  1.
         22    1    1    0    0    0 -0.22747668092E+02  0.10431754455E+02  0.15874386724E+02  0.29635688932E+02  0.00000000000E+00 0. -1.
</event>
<event>
 5    1  0.1261010E-009  0.9118800E+02  0.7561462E-02  0.1125453E+00
         25   -1    0    0    0    0  0.00000000000E+00  0.00000000000E+00  0.99999998245E-14  0.12509000000E+03  0.12509000000E+03 0.  0.
        -13    1    3    3    0    0  0.19759779783E+02  0.35917037276E+02 -0.30855614988E+02  0.51308504208E+02  0.10566000000E+00 0.  1.
         23    2    1    0    0    0  0.28615408013E+02  0.53860981668E+01  0.51101459050E+00  0.95967624323E+02  0.91442179288E+02 0.  0.
         13    1    3    3    0    0  0.88556282299E+01 -0.30530939109E+02  0.31366629578E+02  0.44659120114E+02  0.10566000000E+00 0. -1.
         22    1    1    0    0    0 -0.28615408013E+02 -0.53860981668E+01 -0.51101459050E+00  0.29122375677E+02  0.00000000000E+00 0. -1.
</event>
<event>
 5    1  0.1261010E-009  0.9118800E+02  0.7561462E-02  0.1125453E+00
         25   -1    0    0    0    0  0.00000000000E+00  0.00000000000E+00  0.99999998245E-14  0.12509000000E+03  0.12509000000E+03 0.  0.
        -13    1    3    3    0    0 -0.21357248811E+02  0.12114422843E+02  0.56830627863E+02  0.61908179952E+02  0.10566000000E+00 0. -1.
         23    2    1    0    0    0 -0.11710305829E+02 -0.12494301006E+00  0.29169496190E+02  0.93657431200E+02  0.88225325376E+02 0.  0.
         13    1    3    3    0    0  0.96469429814E+01 -0.12239365853E+02 -0.27661131673E+02  0.31749251248E+02  0.10566000000E+00 0.  1.
         22    1    1    0    0    0  0.11710305829E+02  0.12494301006E+00 -0.29169496190E+02  0.31432568800E+02  0.00000000000E+00 0. -1.
</event>
<event>
 5    1  0.1261010E-009  0.9118800E+02  0.7561462E-02  0.1125453E+00
         25   -1    0    0    0    0  0.00000000000E+00  0.00000000000E+00  0.99999998245E-14  0.12509000000E+03  0.12509000000E+03 0.  0.
        -13    1    3    3    0    0 -0.32057651891E+02 -0.42680225766E+02 -0.32594229968E+02  0.62543502520E+02  0.10566000000E+00 0.  1.
         23    2    1    0    0    0 -0.15033159645E+02 -0.20390693812E+02 -0.15234552307E+02  0.95528743819E+02  0.90839820721E+02 0.  0.
         13    1    3    3    0    0  0.17024492246E+02  0.22289531954E+02  0.17359677662E+02  0.32985241299E+02  0.10566000000E+00 0. -1.
         22    1    1    0    0    0  0.15033159645E+02  0.20390693812E+02  0.15234552307E+02  0.29561256181E+02  0.00000000000E+00 0.  1.
</event>
<event>
 5    1  0.1261010E-009  0.9118800E+02  0.7561462E-02  0.1125453E+00
         25   -1    0    0    0    0  0.00000000000E+00  0.00000000000E+00  0.99999998245E-14  0.12509000000E+03  0.12509000000E+03 0.  0.
        -13    1    3    3    0    0  0.14162160177E+02  0.58004582322E+01 -0.34209697027E+02  0.37477014707E+02  0.10566000000E+00 0.  1.
         23    2    1    0    0    0  0.18848135407E+02  0.47090732211E+01  0.23053549874E+02  0.94942135387E+02  0.90028414021E+02 0.  0.
         13    1    3    3    0    0  0.46859752295E+01 -0.10913850112E+01  0.57263246901E+02  0.57465120681E+02  0.10566000000E+00 0. -1.
         22    1    1    0    0    0 -0.18848135407E+02 -0.47090732211E+01 -0.23053549874E+02  0.30147864613E+02  0.00000000000E+00 0. -1.
</event>
<event>
 5    1  0.1261010E-009  0.9118800E+02  0.7561462E-02  0.1125453E+00
         25   -1    0    0    0    0  0.00000000000E+00  0.00000000000E+00  0.99999998245E-14  0.12509000000E+03  0.12509000000E+03 0.  0.
        -13    1    3    3    0    0  0.39248268222E+02 -0.12346421074E+02 -0.21389880306E+01  0.41200086232E+02  0.10566000000E+00 0.  1.
         23    2    1    0    0    0 -0.10886682109E+02  0.20728265980E+02 -0.42257302772E+01  0.10129845414E+03  0.98464913333E+02 0.  0.
         13    1    3    3    0    0 -0.50134950330E+02  0.33074687054E+02 -0.20867422466E+01  0.60098367911E+02  0.10566000000E+00 0. -1.
         22    1    1    0    0    0  0.10886682109E+02 -0.20728265980E+02  0.42257302772E+01  0.23791545857E+02  0.00000000000E+00 0. -1.
</event>
<event>
 5    1  0.1261010E-009  0.9118800E+02  0.7561462E-02  0.1125453E+00
         25   -1    0    0    0    0  0.00000000000E+00  0.00000000000E+00  0.99999998245E-14  0.12509000000E+03  0.12509000000E+03 0.  0.
        -13    1    3    3    0    0 -0.51231153859E+02 -0.37953195883E+01  0.19638913066E+01  0.51409178262E+02  0.10566000000E+00 0.  1.
         23    2    1    0    0    0 -0.13546395949E+02 -0.19481602901E+02 -0.16478126606E+02  0.96201137938E+02  0.91761062490E+02 0.  0.
         13    1    3    3    0    0  0.37684757910E+02 -0.15686283313E+02 -0.18442017913E+02  0.44791959676E+02  0.10566000000E+00 0. -1.
         22    1    1    0    0    0  0.13546395949E+02  0.19481602901E+02  0.16478126606E+02  0.28888862062E+02  0.00000000000E+00 0.  1.
</event>
<event>
 5    1  0.1261010E-009  0.9118800E+02  0.7561462E-02  0.1125453E+00
         25   -1    0    0    0    0  0.00000000000E+00  0.00000000000E+00  0.99999998245E-14  0.12509000000E+03  0.12509000000E+03 0.  0.
        -13    1    3    3    0    0 -0.31155817511E+02  0.14604614961E+02  0.51173826364E+02  0.61666452888E+02  0.10566000000E+00 0. -1.
         23    2    1    0    0    0 -0.19268141069E+02  0.10305771537E+02  0.19373956801E+02  0.95886911304E+02  0.91331699700E+02 0.  0.
         13    1    3    3    0    0  0.11887676442E+02 -0.42988434238E+01 -0.31799869563E+02  0.34220458417E+02  0.10566000000E+00 0.  1.
         22    1    1    0    0    0  0.19268141069E+02 -0.10305771537E+02 -0.19373956801E+02  0.29203088696E+02  0.00000000000E+00 0. -1.
</event>
<event>
 5    1  0.1261010E-009  0.9118800E+02  0.7561462E-02  0.1125453E+00
         25   -1    0    0    0    0  0.00000000000E+00  0.00000000000E+00  0.99999998245E-14  0.12509000000E+03  0.12509000000E+03 0.  0.
        -13    1    3    3    0    0 -0.36393166868E+00 -0.43415037423E+02 -0.38744438798E+01  0.43589223440E+02  0.10566000000E+00 0.  1.
         23    2    1    0    0    0  0.26601324502E+02 -0.20075564093E+01 -0.15341831008E+02  0.94316106410E+02  0.89154334733E+02 0.  0.
         13    1    3    3    0    0  0.26965256170E+02  0.41407481014E+02 -0.11467387129E+02  0.50726882970E+02  0.10566000000E+00 0. -1.
         22    1    1    0    0    0 -0.26601324502E+02  0.20075564093E+01  0.15341831008E+02  0.30773893590E+02  0.00000000000E+00 0.  1.
</event>
<event>
 5    1  0.1261010E-009  0.9118800E+02  0.7561462E-02  0.1125453E+00
         25   -1    0    0    0    0  0.00000000000E+00  0.00000000000E+00  0.99999998245E-14  0.12509000000E+03  0.12509000000E+03 0.  0.
        -13    1    3    3    0    0 -0.29558299494E+02  0.36261900948E+02  0.38514381445E+01  0.46941061654E+02  0.10566000000E+00 0.  1.
         23    2    1    0    0    0  0.82625235508E+01  0.18990547519E+02 -0.21175816924E+02  0.95470320513E+02  0.90759333878E+02 0.  0.
         13    1    3    3    0    0  0.37820823045E+02 -0.17271353429E+02 -0.25027255069E+02  0.48529258859E+02  0.10566000000E+00 0. -1.
         22    1    1    0    0    0 -0.82625235508E+01 -0.18990547519E+02  0.21175816924E+02  0.29619679487E+02  0.00000000000E+00 0. -1.
</event>
<event>
 5    1  0.1261010E-009  0.9118800E+02  0.7561462E-02  0.1125453E+00
         25   -1    0    0    0    0  0.00000000000E+00  0.00000000000E+00  0.99999998245E-14  0.12509000000E+03  0.12509000000E+03 0.  0.
        -13    1    3    3    0    0 -0.27191809905E+02  0.19149103007E+02 -0.28770046432E+02  0.43975099859E+02  0.10566000000E+00 0.  1.
         23    2    1    0    0    0  0.15732424540E+02  0.16336704045E+02  0.84779017103E+01  0.10087694777E+03  0.97927966856E+02 0.  0.
         13    1    3    3    0    0  0.42924234445E+02 -0.28123989617E+01  0.37247948142E+02  0.56901847909E+02  0.10566000000E+00 0. -1.
         22    1    1    0    0    0 -0.15732424540E+02 -0.16336704045E+02 -0.84779017103E+01  0.24213052232E+02  0.00000000000E+00 0. -1.
</event>
<event>
 5    1  0.1261010E-009  0.9118800E+02  0.7561462E-02  0.1125453E+00
         25   -1    0    0    0    0  0.00000000000E+00  0.00000000000E+00  0.99999998245E-14  0.12509000000E+03  0.12509000000E+03 0.  0.
        -13    1    3    3    0    0 -0.49539997823E+02 -0.16249295885E+02  0.29284933278E+02  0.59798574249E+02  0.10566000000E+00 0.  1.
         23    2    1    0    0    0 -0.26561859732E+02  0.97186994582E+00  0.37083336578E+01  0.98252923741E+02  0.94516709430E+02 0.  0.
         13    1    3    3    0    0  0.22978138091E+02  0.17221165831E+02 -0.25576599620E+02  0.38454349492E+02  0.10566000000E+00 0. -1.
         22    1    1    0    0    0  0.26561859732E+02 -0.97186994582E+00 -0.37083336578E+01  0.26837076259E+02  0.00000000000E+00 0.  1.
</event>
<event>
 5    1  0.1261010E-009  0.9118800E+02  0.7561462E-02  0.1125453E+00
         25   -1    0    0    0    0  0.00000000000E+00  0.00000000000E+00  0.99999998245E-14  0.12509000000E+03  0.12509000000E+03 0.  0.
        -13    1    3    3    0    0  0.25943064656E+02  0.36854380688E+02 -0.20795722692E+02  0.49636289405E+02  0.10566000000E+00 0. -1.
         23    2    1    0    0    0  0.25489918336E+02 -0.84624862797E+01 -0.11365302181E+02  0.95926329029E+02  0.91385671177E+02 0.  0.
         13    1    3    3    0    0 -0.45314631942E+00 -0.45316866968E+02  0.94304205104E+01  0.46290039624E+02  0.10566000000E+00 0.  1.
         22    1    1    0    0    0 -0.25489918336E+02  0.84624862797E+01  0.11365302181E+02  0.29163670971E+02  0.00000000000E+00 0. -1.
</event>
<event>
 5    1  0.1261010E-009  0.9118800E+02  0.7561462E-02  0.1125453E+00
         25   -1    0    0    0    0  0.00000000000E+00  0.00000000000E+00  0.99999998245E-14  0.12509000000E+03  0.12509000000E+03 0.  0.
        -13    1    3    3    0    0  0.46211991323E+02 -0.24162703980E+02  0.38134694835E+01  0.52287074112E+02  0.10566000000E+00 0.  1.
         23    2    1    0    0    0  0.11054273182E+02 -0.28194959522E+02 -0.13791928650E+02  0.91812830741E+02  0.85570005812E+02 0.  0.
         13    1    3    3    0    0 -0.35157718141E+02 -0.40322555419E+01 -0.17605398133E+02  0.39525756629E+02  0.10566000000E+00 0. -1.
         22    1    1    0    0    0 -0.11054273182E+02  0.28194959522E+02  0.13791928650E+02  0.33277169259E+02  0.00000000000E+00 0.  1.
</event>
<event>
 5    1  0.1261010E-009  0.9118800E+02  0.7561462E-02  0.1125453E+00
         25   -1    0    0    0    0  0.00000000000E+00  0.00000000000E+00  0.99999998245E-14  0.12509000000E+03  0.12509000000E+03 0.  0.
        -13    1    3    3    0    0  0.31975942622E+02  0.24903161875E+02 -0.83235838561E+00  0.40538035996E+02  0.10566000000E+00 0. -1.
         23    2    1    0    0    0  0.10225669672E+02 -0.23341314388E+02  0.14674291391E+02  0.95683944409E+02  0.91053287212E+02 0.  0.
         13    1    3    3    0    0 -0.21750272949E+02 -0.48244476263E+02  0.15506649777E+02  0.55145908412E+02  0.10566000000E+00 0.  1.
         22    1    1    0    0    0 -0.10225669672E+02  0.23341314388E+02 -0.14674291391E+02  0.29406055591E+02  0.00000000000E+00 0.  1.
</event>
<event>
 5    1  0.1261010E-009  0.9118800E+02  0.7561462E-02  0.1125453E+00
         25   -1    0    0    0    0  0.00000000000E+00  0.00000000000E+00  0.99999998245E-14  0.12509000000E+03  0.12509000000E+03 0.  0.
        -13    1    3    3    0    0  0.62705391939E+01 -0.32632604261E+02  0.41594842988E+02  0.53238601126E+02  0.10566000000E+00 0.  1.
         23    2    1    0    0    0 -0.14186679077E+02  0.45292622491E+00  0.26622792304E+02  0.94919814792E+02  0.89997395322E+02 0.  0.
         13    1    3    3    0    0 -0.20457218271E+02  0.33085530486E+02 -0.14972050684E+02  0.41681213666E+02  0.10566000000E+00 0. -1.
         22    1    1    0    0    0  0.14186679077E+02 -0.45292622491E+00 -0.26622792304E+02  0.30170185208E+02  0.00000000000E+00 0.  1.
</event>
<event>
 5    1  0.1261010E-009  0.9118800E+02  0.7561462E-02  0.1125453E+00
         25   -1    0    0    0    0  0.00000000000E+00  0.00000000000E+00  0.99999998245E-14  0.12509000000E+03  0.12509000000E+03 0.  0.
        -13    1    3    3    0    0  0.38072333745E+02  0.25290045766E+00 -0.37976310341E+02  0.53775253291E+02  0.10566000000E+00 0.  1.
         23    2    1    0    0    0  0.40212682138E+01  0.19568481482E+02 -0.19890089384E+02  0.96899368200E+02  0.92708013873E+02 0.  0.
         13    1    3    3    0    0 -0.34051065531E+02  0.19315581025E+02  0.18086220957E+02  0.43124114909E+02  0.10566000000E+00 0. -1.
         22    1    1    0    0    0 -0.40212682138E+01 -0.19568481482E+02  0.19890089384E+02  0.28190631800E+02  0.00000000000E+00 0.  1.
</event>
<event>
 5    1  0.1261010E-009  0.9118800E+02  0.7561462E-02  0.1125453E+00
         25   -1    0    0    0    0  0.00000000000E+00  0.00000000000E+00  0.99999998245E-14  0.12509000000E+03  0.12509000000E+03 0.  0.
        -13    1    3    3    0    0  0.26327626038E+02 -0.90811989757E+01  0.28621061087E+02  0.39934801482E+02  0.10566000000E+00 0.  1.
         23    2    1    0    0    0  0.81473828637E+01  0.25378838277E+02 -0.11678674727E+02  0.95989197207E+02  0.91471685550E+02 0.  0.
         13    1    3    3    0    0 -0.18180243174E+02  0.34460037253E+02 -0.40299735815E+02  0.56054395725E+02  0.10566000000E+00 0. -1.
         22    1    1    0    0    0 -0.81473828637E+01 -0.25378838277E+02  0.11678674727E+02  0.29100802793E+02  0.00000000000E+00 0. -1.
</event>
<event>
 5    1  0.1261010E-009  0.9118800E+02  0.7561462E-02  0.1125453E+00
         25   -1    0    0    0    0  0.00000000000E+00  0.00000000000E+00  0.99999998245E-14  0.12509000000E+03  0.12509000000E+03 0.  0.
        -13    1    3    3    0    0 -0.57138472338E+01 -0.59137013349E+02 -0.68564581355E+01  0.59806827204E+02  0.10566000000E+00 0.  1.
         23    2    1    0    0    0  0.81069768662E+01 -0.28010480480E+02  0.42338249235E+01  0.95624166157E+02  0.90971126128E+02 0.  0.
         13    1    3    3    0    0  0.13820824100E+02  0.31126532869E+02  0.11090283059E+02  0.35817338952E+02  0.10566000000E+00 0. -1.
         22    1    1    0    0    0 -0.81069768662E+01  0.28010480480E+02 -0.42338249235E+01  0.29465833843E+02  0.00000000000E+00 0.  1.
</event>
<event>
 5    1  0.1261010E-009  0.9118800E+02  0.7561462E-02  0.1125453E+00
         25   -1    0    0    0    0  0.00000000000E+00  0.00000000000E+00  0.99999998245E-14  0.12509000000E+03  0.12509000000E+03 0.  0.
        -13    1    3    3    0    0 -0.24536011053E+02  0.83356430129E+00  0.36460622422E+02  0.43955646046E+02  0.10566000000E+00 0. -1.
         23    2    1    0    0    0 -0.10678000104E+02  0.22457271119E+02 -0.10983670432E+02  0.97905634484E+02  0.94055959595E+02 0.  0.
         13    1    3    3    0    0  0.13858010950E+02  0.21623706818E+02 -0.47444292854E+02  0.53949988438E+02  0.10566000000E+00 0.  1.
         22    1    1    0    0    0  0.10678000104E+02 -0.22457271119E+02  0.10983670432E+02  0.27184365516E+02  0.00000000000E+00 0.  1.
</event>
<event>
 5    1  0.1261010E-009  0.9118800E+02  0.7561462E-02  0.1125453E+00
         25   -1    0    0    0    0  0.00000000000E+00  0.00000000000E+00  0.99999998245E-14  0.12509000000E+03  0.12509000000E+03 0.  0.
        -13    1    3    3    0    0 -0.33842868318E+01  0.48404586017E+02  0.23073893340E+02  0.53729629282E+02  0.10566000000E+00 0. -1.
         23    2    1    0    0    0  0.18552546662E+02  0.14683001652E+02  0.20058807269E+02  0.94071565574E+02  0.88810563422E+02 0.  0.
         13    1    3    3    0    0  0.21936833494E+02 -0.33721584364E+02 -0.30150860713E+01  0.40341936292E+02  0.10566000000E+00 0.  1.
         22    1    1    0    0    0 -0.18552546662E+02 -0.14683001652E+02 -0.20058807269E+02  0.31018434426E+02  0.00000000000E+00 0.  1.
</event>
<event>
 5    1  0.1261010E-009  0.9118800E+02  0.7561462E-02  0.1125453E+00
         25   -1    0    0    0    0  0.00000000000E+00  0.00000000000E+00  0.99999998245E-14  0.12509000000E+03  0.12509000000E+03 0.  0.
        -13    1    3    3    0    0 -0.44256657921E+02  0.26571004476E+02  0.64312896015E+01  0.52019637630E+02  0.10566000000E+00 0.  1.
         23    2    1    0    0    0 -0.19486816678E+02 -0.91835837460E+01 -0.13289813214E+02  0.99778078502E+02  0.96514100418E+02 0.  0.
         13    1    3    3    0    0  0.24769841243E+02 -0.35754588222E+02 -0.19721102816E+02  0.47758440871E+02  0.10566000000E+00 0. -1.
         22    1    1    0    0    0  0.19486816678E+02  0.91835837460E+01  0.13289813214E+02  0.25311921498E+02  0.00000000000E+00 0.  1.
</event>
<event>
 5    1  0.1261010E-009  0.9118800E+02  0.7561462E-02  0.1125453E+00
         25   -1    0    0    0    0  0.00000000000E+00  0.00000000000E+00  0.99999998245E-14  0.12509000000E+03  0.12509000000E+03 0.  0.
        -13    1    3    3    0    0 -0.18116977070E+02 -0.29611422411E+02 -0.29615890738E+02  0.45630837639E+02  0.10566000000E+00 0.  1.
         23    2    1    0    0    0  0.13170750076E+02  0.75067019540E+01  0.88208471358E+01  0.10755071336E+03  0.10611092954E+03 0.  0.
         13    1    3    3    0    0  0.31287727146E+02  0.37118124365E+02  0.38436737874E+02  0.61919875717E+02  0.10566000000E+00 0. -1.
         22    1    1    0    0    0 -0.13170750076E+02 -0.75067019540E+01 -0.88208471358E+01  0.17539286644E+02  0.00000000000E+00 0. -1.
</event>
<event>
 5    1  0.1261010E-009  0.9118800E+02  0.7561462E-02  0.1125453E+00
         25   -1    0    0    0    0  0.00000000000E+00  0.00000000000E+00  0.99999998245E-14  0.12509000000E+03  0.12509000000E+03 0.  0.
        -13    1    3    3    0    0 -0.20282536260E+02 -0.98955928176E+00 -0.27507615008E+02  0.34191235020E+02  0.10566000000E+00 0. -1.
         23    2    1    0    0    0  0.21798570153E+02 -0.32310993806E+01  0.18308179449E+02  0.96440268785E+02  0.92086472105E+02 0.  0.
         13    1    3    3    0    0  0.42081106413E+02 -0.22415400988E+01  0.45815794458E+02  0.62249033766E+02  0.10566000000E+00 0.  1.
         22    1    1    0    0    0 -0.21798570153E+02  0.32310993806E+01 -0.18308179449E+02  0.28649731215E+02  0.00000000000E+00 0.  1.
</event>
<event>
 5    1  0.1261010E-009  0.9118800E+02  0.7561462E-02  0.1125453E+00
         25   -1    0    0    0    0  0.00000000000E+00  0.00000000000E+00  0.99999998245E-14  0.12509000000E+03  0.12509000000E+03 0.  0.
        -13    1    3    3    0    0  0.29184263632E+02  0.45810527803E+01 -0.31049413392E+02  0.42857724209E+02  0.10566000000E+00 0. -1.
         23    2    1    0    0    0  0.13102536882E+02 -0.23725589608E+02  0.10830314422E+02  0.95903088798E+02  0.91353854082E+02 0.  0.
         13    1    3    3    0    0 -0.16081726751E+02 -0.28306642389E+02  0.41879727814E+02  0.53045364590E+02  0.10566000000E+00 0.  1.
         22    1    1    0    0    0 -0.13102536882E+02  0.23725589608E+02 -0.10830314422E+02  0.29186911202E+02  0.00000000000E+00 0.  1.
</event>
<event>
 5    1  0.1261010E-009  0.9118800E+02  0.7561462E-02  0.1125453E+00
         25   -1    0    0    0    0  0.00000000000E+00  0.00000000000E+00  0.99999998245E-14  0.12509000000E+03  0.12509000000E+03 0.  0.
        -13    1    3    3    0    0 -0.12518312491E+02 -0.27389111615E+02  0.29390734916E+02  0.42079663088E+02  0.10566000000E+00 0.  1.
         23    2    1    0    0    0  0.15057486656E+02 -0.18812902217E+02 -0.16204751466E+02  0.96051281635E+02  0.91556548316E+02 0.  0.
         13    1    3    3    0    0  0.27575799147E+02  0.85762093986E+01 -0.45595486381E+02  0.53971618547E+02  0.10566000000E+00 0. -1.
         22    1    1    0    0    0 -0.15057486656E+02  0.18812902217E+02  0.16204751466E+02  0.29038718365E+02  0.00000000000E+00 0. -1.
</event>
<event>
 5    1  0.1261010E-009  0.9118800E+02  0.7561462E-02  0.1125453E+00
         25   -1    0    0    0    0  0.00000000000E+00  0.00000000000E+00  0.99999998245E-14  0.12509000000E+03  0.12509000000E+03 0.  0.
        -13    1    3    3    0    0  0.16613987123E+02  0.16645012546E+02  0.52814721126E+02  0.57814245151E+02  0.10566000000E+00 0.  1.
         23    2    1    0    0    0  0.22998983582E+02  0.31961570323E+01  0.17897491211E+02  0.95772959610E+02  0.91175495256E+02 0.  0.
         13    1    3    3    0    0  0.63849964588E+01 -0.13448855514E+02 -0.34917229915E+02  0.37958714459E+02  0.10566000000E+00 0. -1.
         22    1    1    0    0    0 -0.22998983582E+02 -0.31961570323E+01 -0.17897491211E+02  0.29317040390E+02  0.00000000000E+00 0.  1.
</event>
<event>
 5    1  0.1261010E-009  0.9118800E+02  0.7561462E-02  0.1125453E+00
         25   -1    0    0    0    0  0.00000000000E+00  0.00000000000E+00  0.99999998245E-14  0.12509000000E+03  0.12509000000E+03 0.  0.
        -13    1    3    3    0    0 -0.31716877159E+02  0.23916842183E+02 -0.32335079756E+02  0.51220544546E+02  0.10566000000E+00 0. -1.
         23    2    1    0    0    0 -0.24293394646E+02 -0.13042220307E+02 -0.69935410561E+01  0.96643943147E+02  0.92362728395E+02 0.  0.
         13    1    3    3    0    0  0.74234825129E+01 -0.36959062490E+02  0.25341538700E+02  0.45423398601E+02  0.10566000000E+00 0.  1.
         22    1    1    0    0    0  0.24293394646E+02  0.13042220307E+02  0.69935410561E+01  0.28446056853E+02  0.00000000000E+00 0. -1.
</event>
<event>
 5    1  0.1261010E-009  0.9118800E+02  0.7561462E-02  0.1125453E+00
         25   -1    0    0    0    0  0.00000000000E+00  0.00000000000E+00  0.99999998245E-14  0.12509000000E+03  0.12509000000E+03 0.  0.
        -13    1    3    3    0    0  0.33371828784E+02 -0.49324839914E+02 -0.31773688758E+01  0.59638289932E+02  0.10566000000E+00 0. -1.
         23    2    1    0    0    0  0.17460488566E+02 -0.18376444328E+02 -0.14064524692E+02  0.96100808533E+02  0.91624189921E+02 0.  0.
         13    1    3    3    0    0 -0.15911340218E+02  0.30948395587E+02 -0.10887155816E+02  0.36462518601E+02  0.10566000000E+00 0.  1.
         22    1    1    0    0    0 -0.17460488566E+02  0.18376444328E+02  0.14064524692E+02  0.28989191467E+02  0.00000000000E+00 0. -1.
</event>
<event>
 5    1  0.1261010E-009  0.9118800E+02  0.7561462E-02  0.1125453E+00
         25   -1    0    0    0    0  0.00000000000E+00  0.00000000000E+00  0.99999998245E-14  0.12509000000E+03  0.12509000000E+03 0.  0.
        -13    1    3    3    0    0  0.37383165713E+02  0.32920769151E+02  0.84024548632E+01  0.50516240280E+02  0.10566000000E+00 0. -1.
         23    2    1    0    0    0  0.26982377425E+02 -0.10848679576E+02  0.22831635879E+01  0.95918860563E+02  0.91375447664E+02 0.  0.
         13    1    3    3    0    0 -0.10400788287E+02 -0.43769448727E+02 -0.61192912753E+01  0.45402620284E+02  0.10566000000E+00 0.  1.
         22    1    1    0    0    0 -0.26982377425E+02  0.10848679576E+02 -0.22831635879E+01  0.29171139437E+02  0.00000000000E+00 0.  1.
</event>
<event>
 5    1  0.1261010E-009  0.9118800E+02  0.7561462E-02  0.1125453E+00
         25   -1    0    0    0    0  0.00000000000E+00  0.00000000000E+00  0.99999998245E-14  0.12509000000E+03  0.12509000000E+03 0.  0.
        -13    1    3    3    0    0 -0.40447788383E+02  0.13225601300E+02 -0.32572283162E+00  0.42556519762E+02  0.10566000000E+00 0.  1.
         23    2    1    0    0    0  0.48815748961E+01 -0.60355446819E+01  0.25686893381E+02  0.98255804192E+02  0.94520521544E+02 0.  0.
         13    1    3    3    0    0  0.45329363279E+02 -0.19261145982E+02  0.26012616213E+02  0.55699284431E+02  0.10566000000E+00 0. -1.
         22    1    1    0    0    0 -0.48815748961E+01  0.60355446819E+01 -0.25686893381E+02  0.26834195808E+02  0.00000000000E+00 0. -1.
</event>
<event>
 5    1  0.1261010E-009  0.9118800E+02  0.7561462E-02  0.1125453E+00
         25   -1    0    0    0    0  0.00000000000E+00  0.00000000000E+00  0.99999998245E-14  0.12509000000E+03  0.12509000000E+03 0.  0.
        -13    1    3    3    0    0 -0.13227247571E+02 -0.37780624894E+02  0.48688014195E+01  0.40324336163E+02  0.10566000000E+00 0. -1.
         23    2    1    0    0    0  0.24252819483E+02 -0.41010089631E+00 -0.14669287920E+02  0.96742946472E+02  0.92496714798E+02 0.  0.
         13    1    3    3    0    0  0.37480067054E+02  0.37370523997E+02 -0.19538089340E+02  0.56418610310E+02  0.10566000000E+00 0.  1.
         22    1    1    0    0    0 -0.24252819483E+02  0.41010089631E+00  0.14669287920E+02  0.28347053528E+02  0.00000000000E+00 0.  1.
</event>
<event>
 5    1  0.1261010E-009  0.9118800E+02  0.7561462E-02  0.1125453E+00
         25   -1    0    0    0    0  0.00000000000E+00  0.00000000000E+00  0.99999998245E-14  0.12509000000E+03  0.12509000000E+03 0.  0.
        -13    1    3    3    0    0 -0.11771417426E+02 -0.41999808953E+02 -0.10819112823E+02  0.44940122236E+02  0.10566000000E+00 0.  1.
         23    2    1    0    0    0  0.22720754154E+02 -0.58433090478E+01 -0.18128139941E+02  0.95441958115E+02  0.90720234684E+02 0.  0.
         13    1    3    3    0    0  0.34492171580E+02  0.36156499905E+02 -0.73090271177E+01  0.50501835879E+02  0.10566000000E+00 0. -1.
         22    1    1    0    0    0 -0.22720754154E+02  0.58433090478E+01  0.18128139941E+02  0.29648041885E+02  0.00000000000E+00 0.  1.
</event>
<event>
 5    1  0.1261010E-009  0.9118800E+02  0.7561462E-02  0.1125453E+00
         25   -1    0    0    0    0  0.00000000000E+00  0.00000000000E+00  0.99999998245E-14  0.12509000000E+03  0.12509000000E+03 0.  0.
        -13    1    3    3    0    0 -0.19534668492E+01  0.17839075119E+02 -0.59369073423E+02  0.62022146665E+02  0.10566000000E+00 0. -1.
         23    2    1    0    0    0  0.12450221297E+01  0.13238951303E+02 -0.25706969671E+02  0.96147501812E+02  0.91687915797E+02 0.  0.
         13    1    3    3    0    0  0.31984889788E+01 -0.46001238160E+01  0.33662103751E+02  0.34125355147E+02  0.10566000000E+00 0.  1.
         22    1    1    0    0    0 -0.12450221297E+01 -0.13238951303E+02  0.25706969671E+02  0.28942498188E+02  0.00000000000E+00 0. -1.
</event>
<event>
 5    1  0.1261010E-009  0.9118800E+02  0.7561462E-02  0.1125453E+00
         25   -1    0    0    0    0  0.00000000000E+00  0.00000000000E+00  0.99999998245E-14  0.12509000000E+03  0.12509000000E+03 0.  0.
        -13    1    3    3    0    0 -0.40102987008E+02  0.30578727415E+00  0.13458343650E+01  0.40126867645E+02  0.10566000000E+00 0. -1.
         23    2    1    0    0    0  0.11428327196E+02  0.21724358356E+02  0.13260874669E+02  0.97190085924E+02  0.93099450033E+02 0.  0.
         13    1    3    3    0    0  0.51531314205E+02  0.21418571082E+02  0.11915040304E+02  0.57063218279E+02  0.10566000000E+00 0.  1.
         22    1    1    0    0    0 -0.11428327196E+02 -0.21724358356E+02 -0.13260874669E+02  0.27899914076E+02  0.00000000000E+00 0.  1.
</event>
<event>
 5    1  0.1261010E-009  0.9118800E+02  0.7561462E-02  0.1125453E+00
         25   -1    0    0    0    0  0.00000000000E+00  0.00000000000E+00  0.99999998245E-14  0.12509000000E+03  0.12509000000E+03 0.  0.
        -13    1    3    3    0    0  0.28221698258E+02 -0.28929902385E+02  0.28344336876E+02  0.49364117550E+02  0.10566000000E+00 0. -1.
         23    2    1    0    0    0  0.18402395535E+02  0.14419584331E+02  0.19416421415E+02  0.94699705591E+02  0.89690937361E+02 0.  0.
         13    1    3    3    0    0 -0.98193027223E+01  0.43349486716E+02 -0.89279154612E+01  0.45335588040E+02  0.10566000000E+00 0.  1.
         22    1    1    0    0    0 -0.18402395535E+02 -0.14419584331E+02 -0.19416421415E+02  0.30390294409E+02  0.00000000000E+00 0. -1.
</event>
<event>
 5    1  0.1261010E-009  0.9118800E+02  0.7561462E-02  0.1125453E+00
         25   -1    0    0    0    0  0.00000000000E+00  0.00000000000E+00  0.99999998245E-14  0.12509000000E+03  0.12509000000E+03 0.  0.
        -13    1    3    3    0    0  0.16324570659E+02  0.35086482782E+02 -0.18317539585E+02  0.42814673906E+02  0.10566000000E+00 0. -1.
         23    2    1    0    0    0  0.24998260528E+02 -0.46905914762E+01  0.15122355085E+02  0.95499455884E+02  0.90799481127E+02 0.  0.
         13    1    3    3    0    0  0.86736898684E+01 -0.39777074258E+02  0.33439894670E+02  0.52684781977E+02  0.10566000000E+00 0.  1.
         22    1    1    0    0    0 -0.24998260528E+02  0.46905914762E+01 -0.15122355085E+02  0.29590544116E+02  0.00000000000E+00 0.  1.
</event>
<event>
 5    1  0.1261010E-009  0.9118800E+02  0.7561462E-02  0.1125453E+00
         25   -1    0    0    0    0  0.00000000000E+00  0.00000000000E+00  0.99999998245E-14  0.12509000000E+03  0.12509000000E+03 0.  0.
        -13    1    3    3    0    0 -0.30281221377E+02 -0.51064586377E+02 -0.10231124757E+02  0.60243102740E+02  0.10566000000E+00 0.  1.
         23    2    1    0    0    0 -0.20027228846E+02 -0.18108037759E+02 -0.13482655711E+02  0.94910985242E+02  0.89985122037E+02 0.  0.
         13    1    3    3    0    0  0.10253992531E+02  0.32956548618E+02 -0.32515309535E+01  0.34667882502E+02  0.10566000000E+00 0. -1.
         22    1    1    0    0    0  0.20027228846E+02  0.18108037759E+02  0.13482655711E+02  0.30179014758E+02  0.00000000000E+00 0.  1.
</event>
<event>
 5    1  0.1261010E-009  0.9118800E+02  0.7561462E-02  0.1125453E+00
         25   -1    0    0    0    0  0.00000000000E+00  0.00000000000E+00  0.99999998245E-14  0.12509000000E+03  0.12509000000E+03 0.  0.
        -13    1    3    3    0    0 -0.15320217541E+02  0.31509610850E+02 -0.60077724900E+01  0.35548124222E+02  0.10566000000E+00 0.  1.
         23    2    1    0    0    0 -0.96479225271E+01 -0.27956179565E+02 -0.89536313717E+00  0.95502298837E+02  0.90803397641E+02 0.  0.
         13    1    3    3    0    0  0.56722950136E+01 -0.59465790414E+02  0.51124093528E+01  0.59954174615E+02  0.10566000000E+00 0. -1.
         22    1    1    0    0    0  0.96479225271E+01  0.27956179565E+02  0.89536313717E+00  0.29587701163E+02  0.00000000000E+00 0. -1.
</event>
<event>
 5    1  0.1261010E-009  0.9118800E+02  0.7561462E-02  0.1125453E+00
         25   -1    0    0    0    0  0.00000000000E+00  0.00000000000E+00  0.99999998245E-14  0.12509000000E+03  0.12509000000E+03 0.  0.
        -13    1    3    3    0    0 -0.79444214835E+00 -0.34501511452E+02  0.20667920893E+01  0.34572651393E+02  0.10566000000E+00 0.  1.
         23    2    1    0    0    0  0.17000695600E+02  0.22080606714E+02  0.12063717614E+02  0.94723733742E+02  0.89724442643E+02 0.  0.
         13    1    3    3    0    0  0.17795137749E+02  0.56582118166E+02  0.99969255251E+01  0.60151082348E+02  0.10566000000E+00 0. -1.
         22    1    1    0    0    0 -0.17000695600E+02 -0.22080606714E+02 -0.12063717614E+02  0.30366266258E+02  0.00000000000E+00 0. -1.
</event>
<event>
 5    1  0.1261010E-009  0.9118800E+02  0.7561462E-02  0.1125453E+00
         25   -1    0    0    0    0  0.00000000000E+00  0.00000000000E+00  0.99999998245E-14  0.12509000000E+03  0.12509000000E+03 0.  0.
        -13    1    3    3    0    0 -0.35274292285E+02  0.66920509773E+01 -0.13764410511E+02  0.38451650202E+02  0.10566000000E+00 0.  1.
         23    2    1    0    0    0  0.43142787651E+01 -0.25434395610E+02  0.13182974555E+02  0.96119112899E+02  0.91649176565E+02 0.  0.
         13    1    3    3    0    0  0.39588571050E+02 -0.32126446587E+02  0.26947385065E+02  0.57667462698E+02  0.10566000000E+00 0. -1.
         22    1    1    0    0    0 -0.43142787651E+01  0.25434395610E+02 -0.13182974555E+02  0.28970887101E+02  0.00000000000E+00 0. -1.
</event>
<event>
 5    1  0.1261010E-009  0.9118800E+02  0.7561462E-02  0.1125453E+00
         25   -1    0    0    0    0  0.00000000000E+00  0.00000000000E+00  0.99999998245E-14  0.12509000000E+03  0.12509000000E+03 0.  0.
        -13    1    3    3    0    0  0.44496565816E+02  0.18607462556E+02 -0.22844210001E+01  0.48284695045E+02  0.10566000000E+00 0. -1.
         23    2    1    0    0    0  0.55834868353E+01  0.83865329927E+01 -0.27524395961E+02  0.95779564420E+02  0.91184556404E+02 0.  0.
         13    1    3    3    0    0 -0.38913078981E+02 -0.10220929564E+02 -0.25239974961E+02  0.47494869375E+02  0.10566000000E+00 0.  1.
         22    1    1    0    0    0 -0.55834868353E+01 -0.83865329927E+01  0.27524395961E+02  0.29310435580E+02  0.00000000000E+00 0.  1.
</event>
<event>
 5    1  0.1261010E-009  0.9118800E+02  0.7561462E-02  0.1125453E+00
         25   -1    0    0    0    0  0.00000000000E+00  0.00000000000E+00  0.99999998245E-14  0.12509000000E+03  0.12509000000E+03 0.  0.
        -13    1    3    3    0    0  0.28356250676E+02 -0.14190167028E+02 -0.17141558342E+02  0.36045554221E+02  0.10566000000E+00 0. -1.
         23    2    1    0    0    0 -0.21888254251E+02 -0.54733424080E+01  0.16500375787E+02  0.97137977669E+02  0.93029410152E+02 0.  0.
         13    1    3    3    0    0 -0.50244504927E+02  0.87168246198E+01  0.33641934129E+02  0.61092423448E+02  0.10566000000E+00 0.  1.
         22    1    1    0    0    0  0.21888254251E+02  0.54733424080E+01 -0.16500375787E+02  0.27952022331E+02  0.00000000000E+00 0.  1.
</event>
<event>
 5    1  0.1261010E-009  0.9118800E+02  0.7561462E-02  0.1125453E+00
         25   -1    0    0    0    0  0.00000000000E+00  0.00000000000E+00  0.99999998245E-14  0.12509000000E+03  0.12509000000E+03 0.  0.
        -13    1    3    3    0    0 -0.20370520683E+02  0.25548170210E+02 -0.20140976858E+02  0.38384075172E+02  0.10566000000E+00 0.  1.
         23    2    1    0    0    0  0.23910749354E+01  0.27385416219E+02  0.24332858435E+02  0.88378063788E+02  0.80392262677E+02 0.  0.
         13    1    3    3    0    0  0.22761595619E+02  0.18372460088E+01  0.44473835293E+02  0.49993988616E+02  0.10566000000E+00 0. -1.
         22    1    1    0    0    0 -0.23910749354E+01 -0.27385416219E+02 -0.24332858435E+02  0.36711936212E+02  0.00000000000E+00 0. -1.
</event>
<event>
 5    1  0.1261010E-009  0.9118800E+02  0.7561462E-02  0.1125453E+00
         25   -1    0    0    0    0  0.00000000000E+00  0.00000000000E+00  0.99999998245E-14  0.12509000000E+03  0.12509000000E+03 0.  0.
        -13    1    3    3    0    0 -0.35109009894E+02 -0.19022520973E+02 -0.27868223012E+02  0.48694433951E+02  0.10566000000E+00 0.  1.
         23    2    1    0    0    0  0.75270241781E+00  0.15226579356E+00 -0.35085419898E+02  0.89996176680E+02  0.82871800884E+02 0.  0.
         13    1    3    3    0    0  0.35861712312E+02  0.19174786767E+02 -0.72171968859E+01  0.41301742729E+02  0.10566000000E+00 0. -1.
         22    1    1    0    0    0 -0.75270241781E+00 -0.15226579356E+00  0.35085419898E+02  0.35093823320E+02  0.00000000000E+00 0.  1.
</event>
<event>
 5    1  0.1261010E-009  0.9118800E+02  0.7561462E-02  0.1125453E+00
         25   -1    0    0    0    0  0.00000000000E+00  0.00000000000E+00  0.99999998245E-14  0.12509000000E+03  0.12509000000E+03 0.  0.
        -13    1    3    3    0    0  0.11792822862E+02  0.40168764304E+02 -0.73782715070E+01  0.42509414854E+02  0.10566000000E+00 0.  1.
         23    2    1    0    0    0 -0.18999735652E+02 -0.80667625829E+00 -0.22193327193E+02  0.95863565846E+02  0.91299719624E+02 0.  0.
         13    1    3    3    0    0 -0.30792558514E+02 -0.40975440562E+02 -0.14815055686E+02  0.53354150993E+02  0.10566000000E+00 0. -1.
         22    1    1    0    0    0  0.18999735652E+02  0.80667625829E+00  0.22193327193E+02  0.29226434154E+02  0.00000000000E+00 0.  1.
</event>
<event>
 5    1  0.1261010E-009  0.9118800E+02  0.7561462E-02  0.1125453E+00
         25   -1    0    0    0    0  0.00000000000E+00  0.00000000000E+00  0.99999998245E-14  0.12509000000E+03  0.12509000000E+03 0.  0.
        -13    1    3    3    0    0 -0.42627851544E+02 -0.41740791379E+02  0.13598553306E+02  0.61191169365E+02  0.10566000000E+00 0.  1.
         23    2    1    0    0    0 -0.21601477473E+02 -0.95576854180E+01  0.85710044428E+01  0.99961623675E+02  0.96751697200E+02 0.  0.
         13    1    3    3    0    0  0.21026374071E+02  0.32183105961E+02 -0.50275488629E+01  0.38770454310E+02  0.10566000000E+00 0. -1.
         22    1    1    0    0    0  0.21601477473E+02  0.95576854180E+01 -0.85710044428E+01  0.25128376325E+02  0.00000000000E+00 0.  1.
</event>
<event>
 5    1  0.1261010E-009  0.9118800E+02  0.7561462E-02  0.1125453E+00
         25   -1    0    0    0    0  0.00000000000E+00  0.00000000000E+00  0.99999998245E-14  0.12509000000E+03  0.12509000000E+03 0.  0.
        -13    1    3    3    0    0  0.27687682439E+02 -0.10991637054E+02 -0.16349065345E+02  0.33981273456E+02  0.10566000000E+00 0. -1.
         23    2    1    0    0    0 -0.15043293187E+02  0.42991074996E+01  0.25144757758E+02  0.95475107836E+02  0.90765931815E+02 0.  0.
         13    1    3    3    0    0 -0.42730975626E+02  0.15290744554E+02  0.41493823103E+02  0.61493834380E+02  0.10566000000E+00 0.  1.
         22    1    1    0    0    0  0.15043293187E+02 -0.42991074996E+01 -0.25144757758E+02  0.29614892164E+02  0.00000000000E+00 0.  1.
</event>
<event>
 5    1  0.1261010E-009  0.9118800E+02  0.7561462E-02  0.1125453E+00
         25   -1    0    0    0    0  0.00000000000E+00  0.00000000000E+00  0.99999998245E-14  0.12509000000E+03  0.12509000000E+03 0.  0.
        -13    1    3    3    0    0 -0.11974143445E+02 -0.38325761367E+01  0.43606631122E+02  0.45383016569E+02  0.10566000000E+00 0.  1.
         23    2    1    0    0    0  0.19950778406E+02  0.18934930014E+02  0.17594190460E+02  0.92438496641E+02  0.86479795269E+02 0.  0.
         13    1    3    3    0    0  0.31924921852E+02  0.22767506151E+02 -0.26012440662E+02  0.47055480072E+02  0.10566000000E+00 0. -1.
         22    1    1    0    0    0 -0.19950778406E+02 -0.18934930014E+02 -0.17594190460E+02  0.32651503359E+02  0.00000000000E+00 0.  1.
</event>
<event>
 5    1  0.1261010E-009  0.9118800E+02  0.7561462E-02  0.1125453E+00
         25   -1    0    0    0    0  0.00000000000E+00  0.00000000000E+00  0.99999998245E-14  0.12509000000E+03  0.12509000000E+03 0.  0.
        -13    1    3    3    0    0 -0.53691126095E+02  0.16788884824E+02  0.14318175676E+02  0.58048471071E+02  0.10566000000E+00 0.  1.
         23    2    1    0    0    0 -0.23293186313E+02 -0.72461332729E+01  0.14325179634E+02  0.96800607155E+02  0.92574660669E+02 0.  0.
         13    1    3    3    0    0  0.30397939782E+02 -0.24035018097E+02  0.70039586234E-02  0.38752136083E+02  0.10566000000E+00 0. -1.
         22    1    1    0    0    0  0.23293186313E+02  0.72461332729E+01 -0.14325179634E+02  0.28289392845E+02  0.00000000000E+00 0.  1.
</event>
<event>
 5    1  0.1261010E-009  0.9118800E+02  0.7561462E-02  0.1125453E+00
         25   -1    0    0    0    0  0.00000000000E+00  0.00000000000E+00  0.99999998245E-14  0.12509000000E+03  0.12509000000E+03 0.  0.
        -13    1    3    3    0    0 -0.22937670686E+02 -0.16385748187E+02 -0.48640487795E+02  0.56218659688E+02  0.10566000000E+00 0. -1.
         23    2    1    0    0    0 -0.25035542154E+02  0.31621817623E+01 -0.13534412940E+02  0.96455089522E+02  0.92106602351E+02 0.  0.
         13    1    3    3    0    0 -0.20978714683E+01  0.19547929949E+02  0.35106074855E+02  0.40236429834E+02  0.10566000000E+00 0.  1.
         22    1    1    0    0    0  0.25035542154E+02 -0.31621817623E+01  0.13534412940E+02  0.28634910478E+02  0.00000000000E+00 0. -1.
</event>
<event>
 5    1  0.1261010E-009  0.9118800E+02  0.7561462E-02  0.1125453E+00
         25   -1    0    0    0    0  0.00000000000E+00  0.00000000000E+00  0.99999998245E-14  0.12509000000E+03  0.12509000000E+03 0.  0.
        -13    1    3    3    0    0  0.57250405577E+02 -0.80468524996E+01 -0.19379899631E+02  0.60975014946E+02  0.10566000000E+00 0.  1.
         23    2    1    0    0    0  0.21246470584E+02 -0.96394591776E+01 -0.29166718949E+00  0.10175726001E+03  0.99046066101E+02 0.  0.
         13    1    3    3    0    0 -0.36003934993E+02 -0.15926066780E+01  0.19088232441E+02  0.40782245068E+02  0.10566000000E+00 0. -1.
         22    1    1    0    0    0 -0.21246470584E+02  0.96394591776E+01  0.29166718949E+00  0.23332739987E+02  0.00000000000E+00 0.  1.
</event>
<event>
 5    1  0.1261010E-009  0.9118800E+02  0.7561462E-02  0.1125453E+00
         25   -1    0    0    0    0  0.00000000000E+00  0.00000000000E+00  0.99999998245E-14  0.12509000000E+03  0.12509000000E+03 0.  0.
        -13    1    3    3    0    0 -0.64382507941E+01  0.31972001250E+02  0.41563763219E+02  0.52831974354E+02  0.10566000000E+00 0.  1.
         23    2    1    0    0    0 -0.14046404925E+02 -0.52115711105E+01  0.28357551928E+02  0.93018007294E+02  0.87314013565E+02 0.  0.
         13    1    3    3    0    0 -0.76081541312E+01 -0.37183572360E+02 -0.13206211291E+02  0.40186032940E+02  0.10566000000E+00 0. -1.
         22    1    1    0    0    0  0.14046404925E+02  0.52115711105E+01 -0.28357551928E+02  0.32071992706E+02  0.00000000000E+00 0.  1.
</event>
<event>
 5    1  0.1261010E-009  0.9118800E+02  0.7561462E-02  0.1125453E+00
         25   -1    0    0    0    0  0.00000000000E+00  0.00000000000E+00  0.99999998245E-14  0.12509000000E+03  0.12509000000E+03 0.  0.
        -13    1    3    3    0    0 -0.30668955250E+02  0.13978279072E+02 -0.17651379561E+02  0.38046806257E+02  0.10566000000E+00 0. -1.
         23    2    1    0    0    0 -0.19734000381E+01 -0.24906370456E+02  0.14605300457E+02  0.96149778881E+02  0.91691022354E+02 0.  0.
         13    1    3    3    0    0  0.28695555212E+02 -0.38884649528E+02  0.32256680018E+02  0.58102972623E+02  0.10566000000E+00 0.  1.
         22    1    1    0    0    0  0.19734000381E+01  0.24906370456E+02 -0.14605300457E+02  0.28940221119E+02  0.00000000000E+00 0.  1.
</event>
<event>
 5    1  0.1261010E-009  0.9118800E+02  0.7561462E-02  0.1125453E+00
         25   -1    0    0    0    0  0.00000000000E+00  0.00000000000E+00  0.99999998245E-14  0.12509000000E+03  0.12509000000E+03 0.  0.
        -13    1    3    3    0    0  0.31779048195E+02 -0.10879580327E+02 -0.33319072391E+02  0.47312206895E+02  0.10566000000E+00 0.  1.
         23    2    1    0    0    0  0.12172276747E+02 -0.14644078118E+02  0.15807940450E+02  0.10034117525E+03  0.97241180188E+02 0.  0.
         13    1    3    3    0    0 -0.19606771448E+02 -0.37644977910E+01  0.49127012841E+02  0.53028968356E+02  0.10566000000E+00 0. -1.
         22    1    1    0    0    0 -0.12172276747E+02  0.14644078118E+02 -0.15807940450E+02  0.24748824749E+02  0.00000000000E+00 0.  1.
</event>
<event>
 5    1  0.1261010E-009  0.9118800E+02  0.7561462E-02  0.1125453E+00
         25   -1    0    0    0    0  0.00000000000E+00  0.00000000000E+00  0.99999998245E-14  0.12509000000E+03  0.12509000000E+03 0.  0.
        -13    1    3    3    0    0 -0.52716527125E+01  0.16036345104E+01  0.60472568331E+02  0.60723180505E+02  0.10566000000E+00 0. -1.
         23    2    1    0    0    0  0.67986559617E+01 -0.46053051763E+01  0.27780367618E+02  0.96121406944E+02  0.91652307604E+02 0.  0.
         13    1    3    3    0    0  0.12070308674E+02 -0.62089396867E+01 -0.32692200713E+02  0.35398226439E+02  0.10566000000E+00 0.  1.
         22    1    1    0    0    0 -0.67986559617E+01  0.46053051763E+01 -0.27780367618E+02  0.28968593056E+02  0.00000000000E+00 0. -1.
</event>
<event>
 5    1  0.1261010E-009  0.9118800E+02  0.7561462E-02  0.1125453E+00
         25   -1    0    0    0    0  0.00000000000E+00  0.00000000000E+00  0.99999998245E-14  0.12509000000E+03  0.12509000000E+03 0.  0.
        -13    1    3    3    0    0 -0.98653212062E+01 -0.23655415138E+01  0.60819309450E+02  0.61659710632E+02  0.10566000000E+00 0.  1.
         23    2    1    0    0    0  0.20596916106E+01  0.19824424229E+01  0.29475088576E+02  0.95476603470E+02  0.90767993016E+02 0.  0.
         13    1    3    3    0    0  0.11925012817E+02  0.43479839367E+01 -0.31344220874E+02  0.33816892838E+02  0.10566000000E+00 0. -1.
         22    1    1    0    0    0 -0.20596916106E+01 -0.19824424229E+01 -0.29475088576E+02  0.29613396530E+02  0.00000000000E+00 0.  1.
</event>
<event>
 5    1  0.1261010E-009  0.9118800E+02  0.7561462E-02  0.1125453E+00
         25   -1    0    0    0    0  0.00000000000E+00  0.00000000000E+00  0.99999998245E-14  0.12509000000E+03  0.12509000000E+03 0.  0.
        -13    1    3    3    0    0  0.22964931530E+02 -0.18318721651E+02 -0.21062460266E+02  0.36146950627E+02  0.10566000000E+00 0.  1.
         23    2    1    0    0    0 -0.17136765960E+02 -0.26110130713E+00  0.21665562843E+02  0.97465128330E+02  0.93468271117E+02 0.  0.
         13    1    3    3    0    0 -0.40101697489E+02  0.18057620344E+02  0.42728023110E+02  0.61318177704E+02  0.10566000000E+00 0. -1.
         22    1    1    0    0    0  0.17136765960E+02  0.26110130713E+00 -0.21665562843E+02  0.27624871670E+02  0.00000000000E+00 0. -1.
</event>
<event>
 5    1  0.1261010E-009  0.9118800E+02  0.7561462E-02  0.1125453E+00
         25   -1    0    0    0    0  0.00000000000E+00  0.00000000000E+00  0.99999998245E-14  0.12509000000E+03  0.12509000000E+03 0.  0.
        -13    1    3    3    0    0 -0.30116461366E+02  0.19187832493E+02 -0.18039627655E+01  0.35755273831E+02  0.10566000000E+00 0.  1.
         23    2    1    0    0    0  0.11431772552E+02 -0.24499203021E+02 -0.92799996970E+01  0.96506529834E+02  0.92176436978E+02 0.  0.
         13    1    3    3    0    0  0.41548233918E+02 -0.43687035514E+02 -0.74760369315E+01  0.60751256003E+02  0.10566000000E+00 0. -1.
         22    1    1    0    0    0 -0.11431772552E+02  0.24499203021E+02  0.92799996970E+01  0.28583470166E+02  0.00000000000E+00 0. -1.
</event>
<event>
 5    1  0.1261010E-009  0.9118800E+02  0.7561462E-02  0.1125453E+00
         25   -1    0    0    0    0  0.00000000000E+00  0.00000000000E+00  0.99999998245E-14  0.12509000000E+03  0.12509000000E+03 0.  0.
        -13    1    3    3    0    0  0.20800632540E+02  0.26032896659E+01  0.33645592587E+02  0.39641903281E+02  0.10566000000E+00 0. -1.
         23    2    1    0    0    0 -0.11086209825E+02 -0.30244397428E+02  0.89499727209E+01  0.91657536200E+02  0.85342687481E+02 0.  0.
         13    1    3    3    0    0 -0.31886842365E+02 -0.32847687093E+02 -0.24695619866E+02  0.52015632919E+02  0.10566000000E+00 0.  1.
         22    1    1    0    0    0  0.11086209825E+02  0.30244397428E+02 -0.89499727209E+01  0.33432463800E+02  0.00000000000E+00 0.  1.
</event>
<event>
 5    1  0.1261010E-009  0.9118800E+02  0.7561462E-02  0.1125453E+00
         25   -1    0    0    0    0  0.00000000000E+00  0.00000000000E+00  0.99999998245E-14  0.12509000000E+03  0.12509000000E+03 0.  0.
        -13    1    3    3    0    0 -0.24989930164E+02 -0.84985083019E+01 -0.40320540242E+02  0.48192098755E+02  0.10566000000E+00 0. -1.
         23    2    1    0    0    0 -0.58293178741E+00  0.24438461333E+02 -0.13779149285E+02  0.97028582417E+02  0.92882197697E+02 0.  0.
         13    1    3    3    0    0  0.24406998376E+02  0.32936969635E+02  0.26541390957E+02  0.48836483662E+02  0.10566000000E+00 0.  1.
         22    1    1    0    0    0  0.58293178741E+00 -0.24438461333E+02  0.13779149285E+02  0.28061417583E+02  0.00000000000E+00 0.  1.
</event>
<event>
 5    1  0.1261010E-009  0.9118800E+02  0.7561462E-02  0.1125453E+00
         25   -1    0    0    0    0  0.00000000000E+00  0.00000000000E+00  0.99999998245E-14  0.12509000000E+03  0.12509000000E+03 0.  0.
        -13    1    3    3    0    0  0.39696776801E+02 -0.26037574120E+02 -0.19042894421E+02  0.51151073756E+02  0.10566000000E+00 0.  1.
         23    2    1    0    0    0  0.22633650634E+02  0.14359950460E+02 -0.12586920657E+02  0.95477149920E+02  0.90768746091E+02 0.  0.
         13    1    3    3    0    0 -0.17063126167E+02  0.40397524580E+02  0.64559737633E+01  0.44326076164E+02  0.10566000000E+00 0. -1.
         22    1    1    0    0    0 -0.22633650634E+02 -0.14359950460E+02  0.12586920657E+02  0.29612850080E+02  0.00000000000E+00 0. -1.
</event>
<event>
 5    1  0.1261010E-009  0.9118800E+02  0.7561462E-02  0.1125453E+00
         25   -1    0    0    0    0  0.00000000000E+00  0.00000000000E+00  0.99999998245E-14  0.12509000000E+03  0.12509000000E+03 0.  0.
        -13    1    3    3    0    0 -0.32692103716E+02 -0.45560335938E+01 -0.33309259794E+02  0.46894019230E+02  0.10566000000E+00 0.  1.
         23    2    1    0    0    0  0.15259210276E+02 -0.51084010334E+01 -0.24693023578E+02  0.95616542911E+02  0.90960643168E+02 0.  0.
         13    1    3    3    0    0  0.47951313992E+02 -0.55236743965E+00  0.86162362161E+01  0.48722523681E+02  0.10566000000E+00 0. -1.
         22    1    1    0    0    0 -0.15259210276E+02  0.51084010334E+01  0.24693023578E+02  0.29473457089E+02  0.00000000000E+00 0.  1.
</event>
<event>
 5    1  0.1261010E-009  0.9118800E+02  0.7561462E-02  0.1125453E+00
         25   -1    0    0    0    0  0.00000000000E+00  0.00000000000E+00  0.99999998245E-14  0.12509000000E+03  0.12509000000E+03 0.  0.
        -13    1    3    3    0    0 -0.11322482993E+02  0.32475009333E+02  0.42310456639E+01  0.34651663217E+02  0.10566000000E+00 0.  1.
         23    2    1    0    0    0  0.21517858517E+02 -0.18793699417E+02 -0.45292042266E+01  0.96163626846E+02  0.91709912574E+02 0.  0.
         13    1    3    3    0    0  0.32840341509E+02 -0.51268708750E+02 -0.87602498905E+01  0.61511963629E+02  0.10566000000E+00 0. -1.
         22    1    1    0    0    0 -0.21517858517E+02  0.18793699417E+02  0.45292042266E+01  0.28926373154E+02  0.00000000000E+00 0. -1.
</event>
<event>
 5    1  0.1261010E-009  0.9118800E+02  0.7561462E-02  0.1125453E+00
         25   -1    0    0    0    0  0.00000000000E+00  0.00000000000E+00  0.99999998245E-14  0.12509000000E+03  0.12509000000E+03 0.  0.
        -13    1    3    3    0    0  0.56175058671E+02  0.18666143639E+02  0.13892864045E+02  0.60803659186E+02  0.10566000000E+00 0.  1.
         23    2    1    0    0    0  0.41242976525E+02  0.54587043885E+01  0.33561808029E+01  0.83352193208E+02  0.72149453198E+02 0.  0.
         13    1    3    3    0    0 -0.14932082146E+02 -0.13207439250E+02 -0.10536683242E+02  0.22548534022E+02  0.10566000000E+00 0. -1.
         22    1    1    0    0    0 -0.41242976525E+02 -0.54587043885E+01 -0.33561808029E+01  0.41737806792E+02  0.00000000000E+00 0.  1.
</event>
<event>
 5    1  0.1261010E-009  0.9118800E+02  0.7561462E-02  0.1125453E+00
         25   -1    0    0    0    0  0.00000000000E+00  0.00000000000E+00  0.99999998245E-14  0.12509000000E+03  0.12509000000E+03 0.  0.
        -13    1    3    3    0    0 -0.16066495614E+02 -0.26210180806E+02 -0.31245637490E+02  0.43833855470E+02  0.10566000000E+00 0. -1.
         23    2    1    0    0    0 -0.51114506940E+01  0.22354325535E+02 -0.19507359305E+02  0.94983856684E+02  0.90086365035E+02 0.  0.
         13    1    3    3    0    0  0.10955044920E+02  0.48564506341E+02  0.11738278185E+02  0.51150001213E+02  0.10566000000E+00 0.  1.
         22    1    1    0    0    0  0.51114506940E+01 -0.22354325535E+02  0.19507359305E+02  0.30106143316E+02  0.00000000000E+00 0.  1.
</event>
<event>
 5    1  0.1261010E-009  0.9118800E+02  0.7561462E-02  0.1125453E+00
         25   -1    0    0    0    0  0.00000000000E+00  0.00000000000E+00  0.99999998245E-14  0.12509000000E+03  0.12509000000E+03 0.  0.
        -13    1    3    3    0    0  0.31360657117E+02  0.21043789858E+02 -0.46098158126E+02  0.59593483310E+02  0.10566000000E+00 0.  1.
         23    2    1    0    0    0  0.21049276805E+02 -0.21346760848E+01 -0.20765606007E+02  0.95444776290E+02  0.90724120454E+02 0.  0.
         13    1    3    3    0    0 -0.10311380312E+02 -0.23178465943E+02  0.25332552119E+02  0.35851292980E+02  0.10566000000E+00 0. -1.
         22    1    1    0    0    0 -0.21049276805E+02  0.21346760848E+01  0.20765606007E+02  0.29645223710E+02  0.00000000000E+00 0.  1.
</event>
<event>
 5    1  0.1261010E-009  0.9118800E+02  0.7561462E-02  0.1125453E+00
         25   -1    0    0    0    0  0.00000000000E+00  0.00000000000E+00  0.99999998245E-14  0.12509000000E+03  0.12509000000E+03 0.  0.
        -13    1    3    3    0    0 -0.27739195006E+02  0.89540479352E+01  0.18922682980E+02  0.34752223083E+02  0.10566000000E+00 0.  1.
         23    2    1    0    0    0  0.13876549919E+02  0.13576943307E+02 -0.23668027047E+02  0.94478441211E+02  0.89381812032E+02 0.  0.
         13    1    3    3    0    0  0.41615744925E+02  0.46228953718E+01 -0.42590710027E+02  0.59726218128E+02  0.10566000000E+00 0. -1.
         22    1    1    0    0    0 -0.13876549919E+02 -0.13576943307E+02  0.23668027047E+02  0.30611558789E+02  0.00000000000E+00 0. -1.
</event>
<event>
 5    1  0.1261010E-009  0.9118800E+02  0.7561462E-02  0.1125453E+00
         25   -1    0    0    0    0  0.00000000000E+00  0.00000000000E+00  0.99999998245E-14  0.12509000000E+03  0.12509000000E+03 0.  0.
        -13    1    3    3    0    0 -0.30236415869E+01 -0.20679083671E+02 -0.38450481158E+02  0.43763198869E+02  0.10566000000E+00 0.  1.
         23    2    1    0    0    0  0.27735460031E+02 -0.39013385512E+01  0.16730013321E+01  0.97031576682E+02  0.92886230165E+02 0.  0.
         13    1    3    3    0    0  0.30759101618E+02  0.16777745119E+02  0.40123482490E+02  0.53268377813E+02  0.10566000000E+00 0. -1.
         22    1    1    0    0    0 -0.27735460031E+02  0.39013385512E+01 -0.16730013321E+01  0.28058423318E+02  0.00000000000E+00 0. -1.
</event>
<event>
 5    1  0.1261010E-009  0.9118800E+02  0.7561462E-02  0.1125453E+00
         25   -1    0    0    0    0  0.00000000000E+00  0.00000000000E+00  0.99999998245E-14  0.12509000000E+03  0.12509000000E+03 0.  0.
        -13    1    3    3    0    0 -0.22500476907E+02 -0.26269405326E+02  0.51484861517E+02  0.62024634193E+02  0.10566000000E+00 0. -1.
         23    2    1    0    0    0 -0.84400199647E+01 -0.17589911525E+02  0.23256074938E+02  0.94734045954E+02  0.89738818339E+02 0.  0.
         13    1    3    3    0    0  0.14060456942E+02  0.86794938011E+01 -0.28228786579E+02  0.32709411762E+02  0.10566000000E+00 0.  1.
         22    1    1    0    0    0  0.84400199647E+01  0.17589911525E+02 -0.23256074938E+02  0.30355954046E+02  0.00000000000E+00 0. -1.
</event>
<event>
 5    1  0.1261010E-009  0.9118800E+02  0.7561462E-02  0.1125453E+00
         25   -1    0    0    0    0  0.00000000000E+00  0.00000000000E+00  0.99999998245E-14  0.12509000000E+03  0.12509000000E+03 0.  0.
        -13    1    3    3    0    0  0.22743803248E+02 -0.52822736526E+02 -0.72605962272E+01  0.57967659103E+02  0.10566000000E+00 0.  1.
         23    2    1    0    0    0 -0.12938380402E+01 -0.26558421006E+02  0.88762056118E+01  0.97057683484E+02  0.92921381576E+02 0.  0.
         13    1    3    3    0    0 -0.24037641288E+02  0.26264315520E+02  0.16136801839E+02  0.39090024380E+02  0.10566000000E+00 0. -1.
         22    1    1    0    0    0  0.12938380402E+01  0.26558421006E+02 -0.88762056118E+01  0.28032316516E+02  0.00000000000E+00 0.  1.
</event>
<event>
 5    1  0.1261010E-009  0.9118800E+02  0.7561462E-02  0.1125453E+00
         25   -1    0    0    0    0  0.00000000000E+00  0.00000000000E+00  0.99999998245E-14  0.12509000000E+03  0.12509000000E+03 0.  0.
        -13    1    3    3    0    0 -0.59827498425E+01 -0.40737648709E+02  0.21422650471E+02  0.46414334372E+02  0.10566000000E+00 0.  1.
         23    2    1    0    0    0  0.60191252914E+01  0.76267125722E+01  0.26845988667E+02  0.96539978609E+02  0.92221818179E+02 0.  0.
         13    1    3    3    0    0  0.12001875134E+02  0.48364361281E+02  0.54233381966E+01  0.50125644236E+02  0.10566000000E+00 0. -1.
         22    1    1    0    0    0 -0.60191252914E+01 -0.76267125722E+01 -0.26845988667E+02  0.28550021391E+02  0.00000000000E+00 0.  1.
</event>
<event>
 5    1  0.1261010E-009  0.9118800E+02  0.7561462E-02  0.1125453E+00
         25   -1    0    0    0    0  0.00000000000E+00  0.00000000000E+00  0.99999998245E-14  0.12509000000E+03  0.12509000000E+03 0.  0.
        -13    1    3    3    0    0 -0.10049727179E+02  0.40985845566E+02  0.35377323266E+02  0.55067256320E+02  0.10566000000E+00 0. -1.
         23    2    1    0    0    0 -0.19763170464E+02  0.25842342842E+02  0.26057416817E+01  0.92452606108E+02  0.86500201711E+02 0.  0.
         13    1    3    3    0    0 -0.97134432847E+01 -0.15143502724E+02 -0.32771581584E+02  0.37385349788E+02  0.10566000000E+00 0.  1.
         22    1    1    0    0    0  0.19763170464E+02 -0.25842342842E+02 -0.26057416817E+01  0.32637393892E+02  0.00000000000E+00 0. -1.
</event>
<event>
 5    1  0.1261010E-009  0.9118800E+02  0.7561462E-02  0.1125453E+00
         25   -1    0    0    0    0  0.00000000000E+00  0.00000000000E+00  0.99999998245E-14  0.12509000000E+03  0.12509000000E+03 0.  0.
        -13    1    3    3    0    0 -0.40979466989E+02  0.24543556648E+02 -0.14050020091E+02  0.49790733237E+02  0.10566000000E+00 0.  1.
         23    2    1    0    0    0 -0.21755356089E+02  0.11640091951E+01  0.20116602900E+02  0.95436532273E+02  0.90712752930E+02 0.  0.
         13    1    3    3    0    0  0.19224110900E+02 -0.23379547453E+02  0.34166622991E+02  0.45645799036E+02  0.10566000000E+00 0. -1.
         22    1    1    0    0    0  0.21755356089E+02 -0.11640091951E+01 -0.20116602900E+02  0.29653467727E+02  0.00000000000E+00 0. -1.
</event>
<event>
 5    1  0.1261010E-009  0.9118800E+02  0.7561462E-02  0.1125453E+00
         25   -1    0    0    0    0  0.00000000000E+00  0.00000000000E+00  0.99999998245E-14  0.12509000000E+03  0.12509000000E+03 0.  0.
        -13    1    3    3    0    0 -0.16994463954E+02 -0.12358280970E+02  0.35729585975E+02  0.41450613887E+02  0.10566000000E+00 0. -1.
         23    2    1    0    0    0 -0.27046266622E+02  0.88222881928E+01 -0.11677182087E+02  0.94337928709E+02  0.89184947746E+02 0.  0.
         13    1    3    3    0    0 -0.10051802668E+02  0.21180569163E+02 -0.47406768063E+02  0.52887314822E+02  0.10566000000E+00 0.  1.
         22    1    1    0    0    0  0.27046266622E+02 -0.88222881928E+01  0.11677182087E+02  0.30752071291E+02  0.00000000000E+00 0.  1.
</event>
<event>
 5    1  0.1261010E-009  0.9118800E+02  0.7561462E-02  0.1125453E+00
         25   -1    0    0    0    0  0.00000000000E+00  0.00000000000E+00  0.99999998245E-14  0.12509000000E+03  0.12509000000E+03 0.  0.
        -13    1    3    3    0    0 -0.99182091587E+01  0.45421960057E+02  0.17590960909E+02  0.49708936803E+02  0.10566000000E+00 0.  1.
         23    2    1    0    0    0 -0.28169939908E+02  0.49943828087E+01  0.34057018494E+01  0.96278749087E+02  0.91866802201E+02 0.  0.
         13    1    3    3    0    0 -0.18251730750E+02 -0.40427577249E+02 -0.14185259060E+02  0.46569812284E+02  0.10566000000E+00 0. -1.
         22    1    1    0    0    0  0.28169939908E+02 -0.49943828087E+01 -0.34057018494E+01  0.28811250913E+02  0.00000000000E+00 0.  1.
</event>
<event>
 5    1  0.1261010E-009  0.9118800E+02  0.7561462E-02  0.1125453E+00
         25   -1    0    0    0    0  0.00000000000E+00  0.00000000000E+00  0.99999998245E-14  0.12509000000E+03  0.12509000000E+03 0.  0.
        -13    1    3    3    0    0  0.51247489546E+02 -0.30654200027E+02 -0.11289980794E+02  0.60773843012E+02  0.10566000000E+00 0.  1.
         23    2    1    0    0    0  0.17968610390E+02 -0.21778502158E+02 -0.96390488944E+01  0.95255701296E+02  0.90463049088E+02 0.  0.
         13    1    3    3    0    0 -0.33278879156E+02  0.88756978692E+01  0.16509318992E+01  0.34481858284E+02  0.10566000000E+00 0. -1.
         22    1    1    0    0    0 -0.17968610390E+02  0.21778502158E+02  0.96390488944E+01  0.29834298704E+02  0.00000000000E+00 0.  1.
</event>
<event>
 5    1  0.1261010E-009  0.9118800E+02  0.7561462E-02  0.1125453E+00
         25   -1    0    0    0    0  0.00000000000E+00  0.00000000000E+00  0.99999998245E-14  0.12509000000E+03  0.12509000000E+03 0.  0.
        -13    1    3    3    0    0  0.31276435658E+02  0.25359657265E+02 -0.69667945527E+01  0.40864104473E+02  0.10566000000E+00 0. -1.
         23    2    1    0    0    0 -0.17880508729E+02  0.29230025878E+02 -0.67098934962E+01  0.90173962482E+02  0.83139724763E+02 0.  0.
         13    1    3    3    0    0 -0.49156944386E+02  0.38703686136E+01  0.25690105650E+00  0.49309858008E+02  0.10566000000E+00 0.  1.
         22    1    1    0    0    0  0.17880508729E+02 -0.29230025878E+02  0.67098934962E+01  0.34916037518E+02  0.00000000000E+00 0.  1.
</event>
<event>
 5    1  0.1261010E-009  0.9118800E+02  0.7561462E-02  0.1125453E+00
         25   -1    0    0    0    0  0.00000000000E+00  0.00000000000E+00  0.99999998245E-14  0.12509000000E+03  0.12509000000E+03 0.  0.
        -13    1    3    3    0    0 -0.45527980007E+02 -0.12370374595E+02  0.10274292568E+02  0.48284525295E+02  0.10566000000E+00 0. -1.
         23    2    1    0    0    0 -0.10718461978E+02 -0.19201634899E+02 -0.20334789196E+02  0.95138508191E+02  0.90300852040E+02 0.  0.
         13    1    3    3    0    0  0.34809518029E+02 -0.68312603040E+01 -0.30609081764E+02  0.46853982896E+02  0.10566000000E+00 0.  1.
         22    1    1    0    0    0  0.10718461978E+02  0.19201634899E+02  0.20334789196E+02  0.29951491809E+02  0.00000000000E+00 0. -1.
</event>
<event>
 5    1  0.1261010E-009  0.9118800E+02  0.7561462E-02  0.1125453E+00
         25   -1    0    0    0    0  0.00000000000E+00  0.00000000000E+00  0.99999998245E-14  0.12509000000E+03  0.12509000000E+03 0.  0.
        -13    1    3    3    0    0  0.19253195563E+02  0.25197040837E+02  0.17251797732E+02  0.36100029022E+02  0.10566000000E+00 0.  1.
         23    2    1    0    0    0 -0.91215683448E+01 -0.15328970146E+02  0.32626128124E+02  0.87906071064E+02  0.79654458498E+02 0.  0.
         13    1    3    3    0    0 -0.28374763908E+02 -0.40526010983E+02  0.15374330392E+02  0.51806042042E+02  0.10566000000E+00 0. -1.
         22    1    1    0    0    0  0.91215683448E+01  0.15328970146E+02 -0.32626128124E+02  0.37183928936E+02  0.00000000000E+00 0. -1.
</event>
<event>
 5    1  0.1261010E-009  0.9118800E+02  0.7561462E-02  0.1125453E+00
         25   -1    0    0    0    0  0.00000000000E+00  0.00000000000E+00  0.99999998245E-14  0.12509000000E+03  0.12509000000E+03 0.  0.
        -13    1    3    3    0    0  0.11629466306E+02 -0.22846683551E+02  0.54753146403E+02  0.60457701254E+02  0.10566000000E+00 0. -1.
         23    2    1    0    0    0  0.12412603087E+02 -0.17616494012E+02  0.19748989102E+02  0.95859260234E+02  0.91293820303E+02 0.  0.
         13    1    3    3    0    0  0.78313678180E+00  0.52301895392E+01 -0.35004157301E+02  0.35401558980E+02  0.10566000000E+00 0.  1.
         22    1    1    0    0    0 -0.12412603087E+02  0.17616494012E+02 -0.19748989102E+02  0.29230739766E+02  0.00000000000E+00 0. -1.
</event>
<event>
 5    1  0.1261010E-009  0.9118800E+02  0.7561462E-02  0.1125453E+00
         25   -1    0    0    0    0  0.00000000000E+00  0.00000000000E+00  0.99999998245E-14  0.12509000000E+03  0.12509000000E+03 0.  0.
        -13    1    3    3    0    0  0.10045042738E+02 -0.96404583360E+01  0.32422062137E+02  0.35285161156E+02  0.10566000000E+00 0.  1.
         23    2    1    0    0    0 -0.58992705136E+01 -0.93966004897E+01 -0.26518105527E+02  0.96344436619E+02  0.91956201821E+02 0.  0.
         13    1    3    3    0    0 -0.15944313252E+02  0.24385784628E+00 -0.58940167664E+02  0.61059275463E+02  0.10566000000E+00 0. -1.
         22    1    1    0    0    0  0.58992705136E+01  0.93966004897E+01  0.26518105527E+02  0.28745563381E+02  0.00000000000E+00 0. -1.
</event>
<event>
 5    1  0.1261010E-009  0.9118800E+02  0.7561462E-02  0.1125453E+00
         25   -1    0    0    0    0  0.00000000000E+00  0.00000000000E+00  0.99999998245E-14  0.12509000000E+03  0.12509000000E+03 0.  0.
        -13    1    3    3    0    0  0.29056189814E+02 -0.34213861469E+02  0.85123083593E+01  0.45687208721E+02  0.10566000000E+00 0.  1.
         23    2    1    0    0    0 -0.37300144787E+01  0.11494696390E+01  0.27352509388E+02  0.97460413353E+02  0.93461960779E+02 0.  0.
         13    1    3    3    0    0 -0.32786204293E+02  0.35363331108E+02  0.18840201029E+02  0.51773204631E+02  0.10566000000E+00 0. -1.
         22    1    1    0    0    0  0.37300144787E+01 -0.11494696390E+01 -0.27352509388E+02  0.27629586647E+02  0.00000000000E+00 0. -1.
</event>
<event>
 5    1  0.1261010E-009  0.9118800E+02  0.7561462E-02  0.1125453E+00
         25   -1    0    0    0    0  0.00000000000E+00  0.00000000000E+00  0.99999998245E-14  0.12509000000E+03  0.12509000000E+03 0.  0.
        -13    1    3    3    0    0 -0.11971097848E+02 -0.33188539816E+01  0.41421658405E+02  0.43244501667E+02  0.10566000000E+00 0. -1.
         23    2    1    0    0    0 -0.24806035893E+02  0.15194689621E+02 -0.56750645960E+01  0.95451775229E+02  0.90733770046E+02 0.  0.
         13    1    3    3    0    0 -0.12834938045E+02  0.18513543602E+02 -0.47096723001E+02  0.52207273562E+02  0.10566000000E+00 0.  1.
         22    1    1    0    0    0  0.24806035893E+02 -0.15194689621E+02  0.56750645960E+01  0.29638224771E+02  0.00000000000E+00 0. -1.
</event>
<event>
 5    1  0.1261010E-009  0.9118800E+02  0.7561462E-02  0.1125453E+00
         25   -1    0    0    0    0  0.00000000000E+00  0.00000000000E+00  0.99999998245E-14  0.12509000000E+03  0.12509000000E+03 0.  0.
        -13    1    3    3    0    0  0.23026713039E+02 -0.11477943478E+02 -0.22061155965E+02  0.33892159365E+02  0.10566000000E+00 0. -1.
         23    2    1    0    0    0 -0.89847761744E+01  0.17168924111E+02  0.22234066421E+02  0.95596748777E+02  0.90933418000E+02 0.  0.
         13    1    3    3    0    0 -0.32011489213E+02  0.28646867589E+02  0.44295222387E+02  0.61704589413E+02  0.10566000000E+00 0.  1.
         22    1    1    0    0    0  0.89847761744E+01 -0.17168924111E+02 -0.22234066421E+02  0.29493251223E+02  0.00000000000E+00 0.  1.
</event>
<event>
 5    1  0.1261010E-009  0.9118800E+02  0.7561462E-02  0.1125453E+00
         25   -1    0    0    0    0  0.00000000000E+00  0.00000000000E+00  0.99999998245E-14  0.12509000000E+03  0.12509000000E+03 0.  0.
        -13    1    3    3    0    0 -0.17910248607E+02 -0.28704658898E+02  0.10517933715E+02  0.35431236802E+02  0.10566000000E+00 0.  1.
         23    2    1    0    0    0  0.20433409721E+02  0.71131077673E+01 -0.19569986080E+02  0.95916297970E+02  0.91371939490E+02 0.  0.
         13    1    3    3    0    0  0.38343658329E+02  0.35817766665E+02 -0.30087919796E+02  0.60485061169E+02  0.10566000000E+00 0. -1.
         22    1    1    0    0    0 -0.20433409721E+02 -0.71131077673E+01  0.19569986080E+02  0.29173702030E+02  0.00000000000E+00 0. -1.
</event>
<event>
 5    1  0.1261010E-009  0.9118800E+02  0.7561462E-02  0.1125453E+00
         25   -1    0    0    0    0  0.00000000000E+00  0.00000000000E+00  0.99999998245E-14  0.12509000000E+03  0.12509000000E+03 0.  0.
        -13    1    3    3    0    0  0.42530674764E+02  0.13561318140E+01 -0.97379612904E+01  0.43652450601E+02  0.10566000000E+00 0.  1.
         23    2    1    0    0    0  0.84399154921E+01  0.31029256771E+02 -0.15814217313E+02  0.89255150782E+02  0.81745614699E+02 0.  0.
         13    1    3    3    0    0 -0.34090759272E+02  0.29673124957E+02 -0.60762560231E+01  0.45602700180E+02  0.10566000000E+00 0. -1.
         22    1    1    0    0    0 -0.84399154921E+01 -0.31029256771E+02  0.15814217313E+02  0.35834849218E+02  0.00000000000E+00 0. -1.
</event>
<event>
 5    1  0.1261010E-009  0.9118800E+02  0.7561462E-02  0.1125453E+00
         25   -1    0    0    0    0  0.00000000000E+00  0.00000000000E+00  0.99999998245E-14  0.12509000000E+03  0.12509000000E+03 0.  0.
        -13    1    3    3    0    0  0.34865395301E+02 -0.23437622709E+02 -0.44097668943E+02  0.60905939924E+02  0.10566000000E+00 0. -1.
         23    2    1    0    0    0  0.22318944302E+02 -0.11220211854E+02 -0.12212198320E+02  0.97284133413E+02  0.93225728194E+02 0.  0.
         13    1    3    3    0    0 -0.12546450999E+02  0.12217410855E+02  0.31885470623E+02  0.36378193490E+02  0.10566000000E+00 0.  1.
         22    1    1    0    0    0 -0.22318944302E+02  0.11220211854E+02  0.12212198320E+02  0.27805866587E+02  0.00000000000E+00 0. -1.
</event>
<event>
 5    1  0.1261010E-009  0.9118800E+02  0.7561462E-02  0.1125453E+00
         25   -1    0    0    0    0  0.00000000000E+00  0.00000000000E+00  0.99999998245E-14  0.12509000000E+03  0.12509000000E+03 0.  0.
        -13    1    3    3    0    0 -0.17237850102E+02  0.24314571440E+02  0.87132800395E+01  0.31052765956E+02  0.10566000000E+00 0.  1.
         23    2    1    0    0    0 -0.74035141622E+01 -0.33571802380E+02  0.80923656104E+01  0.89771954780E+02  0.82532657457E+02 0.  0.
         13    1    3    3    0    0  0.98343359396E+01 -0.57886373820E+02 -0.62091442908E+00  0.58719188824E+02  0.10566000000E+00 0. -1.
         22    1    1    0    0    0  0.74035141622E+01  0.33571802380E+02 -0.80923656104E+01  0.35318045220E+02  0.00000000000E+00 0. -1.
</event>
<event>
 5    1  0.1261010E-009  0.9118800E+02  0.7561462E-02  0.1125453E+00
         25   -1    0    0    0    0  0.00000000000E+00  0.00000000000E+00  0.99999998245E-14  0.12509000000E+03  0.12509000000E+03 0.  0.
        -13    1    3    3    0    0  0.46460228147E+02 -0.21754270440E+02  0.26683442379E+02  0.57825758474E+02  0.10566000000E+00 0.  1.
         23    2    1    0    0    0  0.10396160099E+02 -0.19371628201E+02  0.21502059372E+02  0.94338110933E+02  0.89185203331E+02 0.  0.
         13    1    3    3    0    0 -0.36064068048E+02  0.23826422391E+01 -0.51813830068E+01  0.36512352459E+02  0.10566000000E+00 0. -1.
         22    1    1    0    0    0 -0.10396160099E+02  0.19371628201E+02 -0.21502059372E+02  0.30751889067E+02  0.00000000000E+00 0.  1.
</event>
<event>
 5    1  0.1261010E-009  0.9118800E+02  0.7561462E-02  0.1125453E+00
         25   -1    0    0    0    0  0.00000000000E+00  0.00000000000E+00  0.99999998245E-14  0.12509000000E+03  0.12509000000E+03 0.  0.
        -13    1    3    3    0    0 -0.30435592036E+02 -0.85847927400E+01 -0.50688385805E+02  0.59744016843E+02  0.10566000000E+00 0. -1.
         23    2    1    0    0    0 -0.20773538649E+02 -0.11886433946E+02 -0.15047256169E+02  0.96819040727E+02  0.92599565383E+02 0.  0.
         13    1    3    3    0    0  0.96620533864E+01 -0.33016412060E+01  0.35641129636E+02  0.37075023884E+02  0.10566000000E+00 0.  1.
         22    1    1    0    0    0  0.20773538649E+02  0.11886433946E+02  0.15047256169E+02  0.28270959273E+02  0.00000000000E+00 0. -1.
</event>
<event>
 5    1  0.1261010E-009  0.9118800E+02  0.7561462E-02  0.1125453E+00
         25   -1    0    0    0    0  0.00000000000E+00  0.00000000000E+00  0.99999998245E-14  0.12509000000E+03  0.12509000000E+03 0.  0.
        -13    1    3    3    0    0 -0.43660162750E+02 -0.20428200353E+02  0.19757065241E+02  0.52094855523E+02  0.10566000000E+00 0.  1.
         23    2    1    0    0    0 -0.24985348467E+02  0.63263498570E+01 -0.11122854375E+02  0.97018515714E+02  0.92868639279E+02 0.  0.
         13    1    3    3    0    0  0.18674814283E+02  0.26754550210E+02 -0.30879919616E+02  0.44923660191E+02  0.10566000000E+00 0. -1.
         22    1    1    0    0    0  0.24985348467E+02 -0.63263498570E+01  0.11122854375E+02  0.28071484286E+02  0.00000000000E+00 0.  1.
</event>
<event>
 5    1  0.1261010E-009  0.9118800E+02  0.7561462E-02  0.1125453E+00
         25   -1    0    0    0    0  0.00000000000E+00  0.00000000000E+00  0.99999998245E-14  0.12509000000E+03  0.12509000000E+03 0.  0.
        -13    1    3    3    0    0 -0.16442749637E+02  0.14990201192E+02 -0.51090151112E+02  0.55725082791E+02  0.10566000000E+00 0.  1.
         23    2    1    0    0    0  0.12656468908E+02 -0.10515785724E+01 -0.20975454239E+02  0.10056936169E+03  0.97534275036E+02 0.  0.
         13    1    3    3    0    0  0.29099218545E+02 -0.16041779765E+02  0.30114696872E+02  0.44844278896E+02  0.10566000000E+00 0. -1.
         22    1    1    0    0    0 -0.12656468908E+02  0.10515785724E+01  0.20975454239E+02  0.24520638313E+02  0.00000000000E+00 0.  1.
</event>
<event>
 5    1  0.1261010E-009  0.9118800E+02  0.7561462E-02  0.1125453E+00
         25   -1    0    0    0    0  0.00000000000E+00  0.00000000000E+00  0.99999998245E-14  0.12509000000E+03  0.12509000000E+03 0.  0.
        -13    1    3    3    0    0 -0.72645664670E+01 -0.29948001085E+02 -0.34591912719E+02  0.46327834878E+02  0.10566000000E+00 0.  1.
         23    2    1    0    0    0  0.10867776966E+02 -0.23580500591E+02  0.11820316796E+02  0.96561619859E+02  0.92251167778E+02 0.  0.
         13    1    3    3    0    0  0.18132343433E+02  0.63675004939E+01  0.46412229515E+02  0.50233784981E+02  0.10566000000E+00 0. -1.
         22    1    1    0    0    0 -0.10867776966E+02  0.23580500591E+02 -0.11820316796E+02  0.28528380141E+02  0.00000000000E+00 0. -1.
</event>
<event>
 5    1  0.1261010E-009  0.9118800E+02  0.7561462E-02  0.1125453E+00
         25   -1    0    0    0    0  0.00000000000E+00  0.00000000000E+00  0.99999998245E-14  0.12509000000E+03  0.12509000000E+03 0.  0.
        -13    1    3    3    0    0 -0.43024021458E+01 -0.48703029659E+02  0.36127588911E+02  0.60792348258E+02  0.10566000000E+00 0. -1.
         23    2    1    0    0    0  0.58812760599E+01 -0.18482835355E+02  0.22254511682E+02  0.95569364826E+02  0.90895740232E+02 0.  0.
         13    1    3    3    0    0  0.10183678206E+02  0.30220194304E+02 -0.13873077229E+02  0.34777016568E+02  0.10566000000E+00 0.  1.
         22    1    1    0    0    0 -0.58812760599E+01  0.18482835355E+02 -0.22254511682E+02  0.29520635174E+02  0.00000000000E+00 0. -1.
</event>
<event>
 5    1  0.1261010E-009  0.9118800E+02  0.7561462E-02  0.1125453E+00
         25   -1    0    0    0    0  0.00000000000E+00  0.00000000000E+00  0.99999998245E-14  0.12509000000E+03  0.12509000000E+03 0.  0.
        -13    1    3    3    0    0 -0.38640236150E+02 -0.22776145800E+02 -0.26408664549E+02  0.52050450475E+02  0.10566000000E+00 0.  1.
         23    2    1    0    0    0 -0.15411076582E+02  0.14121845483E+02 -0.20073354101E+02  0.96109535094E+02  0.91636103092E+02 0.  0.
         13    1    3    3    0    0  0.23229159569E+02  0.36897991284E+02  0.63353104480E+01  0.44059084620E+02  0.10566000000E+00 0. -1.
         22    1    1    0    0    0  0.15411076582E+02 -0.14121845483E+02  0.20073354101E+02  0.28980464906E+02  0.00000000000E+00 0.  1.
</event>
<event>
 5    1  0.1261010E-009  0.9118800E+02  0.7561462E-02  0.1125453E+00
         25   -1    0    0    0    0  0.00000000000E+00  0.00000000000E+00  0.99999998245E-14  0.12509000000E+03  0.12509000000E+03 0.  0.
        -13    1    3    3    0    0  0.10445510205E+02 -0.44482734831E+02 -0.10932570199E+02  0.46982492874E+02  0.10566000000E+00 0. -1.
         23    2    1    0    0    0 -0.24165019281E+02 -0.12448316548E+02  0.62892973738E+01  0.97189032217E+02  0.93098034244E+02 0.  0.
         13    1    3    3    0    0 -0.34610529487E+02  0.32034418283E+02  0.17221867573E+02  0.50206539343E+02  0.10566000000E+00 0.  1.
         22    1    1    0    0    0  0.24165019281E+02  0.12448316548E+02 -0.62892973738E+01  0.27900967783E+02  0.00000000000E+00 0. -1.
</event>
<event>
 5    1  0.1261010E-009  0.9118800E+02  0.7561462E-02  0.1125453E+00
         25   -1    0    0    0    0  0.00000000000E+00  0.00000000000E+00  0.99999998245E-14  0.12509000000E+03  0.12509000000E+03 0.  0.
        -13    1    3    3    0    0 -0.17223408982E+02 -0.27140391050E+02  0.12063688291E+02  0.34333516897E+02  0.10566000000E+00 0. -1.
         23    2    1    0    0    0  0.10090591188E+02  0.17274354711E+02 -0.21009286860E+02  0.96079424419E+02  0.91594990589E+02 0.  0.
         13    1    3    3    0    0  0.27314000171E+02  0.44414745760E+02 -0.33072975151E+02  0.61745907522E+02  0.10566000000E+00 0.  1.
         22    1    1    0    0    0 -0.10090591188E+02 -0.17274354711E+02  0.21009286860E+02  0.29010575581E+02  0.00000000000E+00 0.  1.
</event>
<event>
 5    1  0.1261010E-009  0.9118800E+02  0.7561462E-02  0.1125453E+00
         25   -1    0    0    0    0  0.00000000000E+00  0.00000000000E+00  0.99999998245E-14  0.12509000000E+03  0.12509000000E+03 0.  0.
        -13    1    3    3    0    0  0.23374416072E+02 -0.29086673493E+02  0.88779728654E+01  0.38356583109E+02  0.10566000000E+00 0.  1.
         23    2    1    0    0    0 -0.20759035908E+02 -0.55200197769E+01 -0.19673567022E+02  0.95961707404E+02  0.91434084774E+02 0.  0.
         13    1    3    3    0    0 -0.44133451980E+02  0.23566653716E+02 -0.28551539887E+02  0.57605124295E+02  0.10566000000E+00 0. -1.
         22    1    1    0    0    0  0.20759035908E+02  0.55200197769E+01  0.19673567022E+02  0.29128292596E+02  0.00000000000E+00 0. -1.
</event>
<event>
 5    1  0.1261010E-009  0.9118800E+02  0.7561462E-02  0.1125453E+00
         25   -1    0    0    0    0  0.00000000000E+00  0.00000000000E+00  0.99999998245E-14  0.12509000000E+03  0.12509000000E+03 0.  0.
        -13    1    3    3    0    0 -0.28709152765E+02 -0.97858357961E+01  0.36137417426E+02  0.47179467324E+02  0.10566000000E+00 0. -1.
         23    2    1    0    0    0  0.67008984455E+01  0.19223082371E+02  0.22063153479E+02  0.95069812172E+02  0.90205640118E+02 0.  0.
         13    1    3    3    0    0  0.35410051210E+02  0.29008918167E+02 -0.14074263947E+02  0.47890344848E+02  0.10566000000E+00 0.  1.
         22    1    1    0    0    0 -0.67008984455E+01 -0.19223082371E+02 -0.22063153479E+02  0.30020187828E+02  0.00000000000E+00 0.  1.
</event>
<event>
 5    1  0.1261010E-009  0.9118800E+02  0.7561462E-02  0.1125453E+00
         25   -1    0    0    0    0  0.00000000000E+00  0.00000000000E+00  0.99999998245E-14  0.12509000000E+03  0.12509000000E+03 0.  0.
        -13    1    3    3    0    0 -0.23397574693E+02 -0.26324513711E+02  0.35435115105E+02  0.49960835363E+02  0.10566000000E+00 0. -1.
         23    2    1    0    0    0 -0.25167462850E+02 -0.80739458700E+00 -0.65025944066E+01  0.99083523762E+02  0.95609664128E+02 0.  0.
         13    1    3    3    0    0 -0.17698881571E+01  0.25517119124E+02 -0.41937709511E+02  0.49122688399E+02  0.10566000000E+00 0.  1.
         22    1    1    0    0    0  0.25167462850E+02  0.80739458700E+00  0.65025944066E+01  0.26006476238E+02  0.00000000000E+00 0. -1.
</event>
<event>
 5    1  0.1261010E-009  0.9118800E+02  0.7561462E-02  0.1125453E+00
         25   -1    0    0    0    0  0.00000000000E+00  0.00000000000E+00  0.99999998245E-14  0.12509000000E+03  0.12509000000E+03 0.  0.
        -13    1    3    3    0    0 -0.94930382593E+01  0.57466662433E+02 -0.22260065885E+02  0.62354284246E+02  0.10566000000E+00 0. -1.
         23    2    1    0    0    0 -0.48271623484E+01  0.25699155728E+02 -0.13629692016E+02  0.95602433028E+02  0.90941237044E+02 0.  0.
         13    1    3    3    0    0  0.46658759110E+01 -0.31767506706E+02  0.86303738684E+01  0.33248148782E+02  0.10566000000E+00 0.  1.
         22    1    1    0    0    0  0.48271623484E+01 -0.25699155728E+02  0.13629692016E+02  0.29487566972E+02  0.00000000000E+00 0. -1.
</event>
<event>
 5    1  0.1261010E-009  0.9118800E+02  0.7561462E-02  0.1125453E+00
         25   -1    0    0    0    0  0.00000000000E+00  0.00000000000E+00  0.99999998245E-14  0.12509000000E+03  0.12509000000E+03 0.  0.
        -13    1    3    3    0    0 -0.36361866643E+02  0.18188951226E+02  0.10813408197E+02  0.42070943100E+02  0.10566000000E+00 0.  1.
         23    2    1    0    0    0  0.17660843283E+02  0.15409025736E+02  0.16445863495E+02  0.96457677606E+02  0.92110117161E+02 0.  0.
         13    1    3    3    0    0  0.54022709926E+02 -0.27799254899E+01  0.56324552973E+01  0.54386734506E+02  0.10566000000E+00 0. -1.
         22    1    1    0    0    0 -0.17660843283E+02 -0.15409025736E+02 -0.16445863495E+02  0.28632322394E+02  0.00000000000E+00 0. -1.
</event>
<event>
 5    1  0.1261010E-009  0.9118800E+02  0.7561462E-02  0.1125453E+00
         25   -1    0    0    0    0  0.00000000000E+00  0.00000000000E+00  0.99999998245E-14  0.12509000000E+03  0.12509000000E+03 0.  0.
        -13    1    3    3    0    0  0.41331629677E+02  0.40168214543E+02  0.18141369135E+02  0.60422756552E+02  0.10566000000E+00 0.  1.
         23    2    1    0    0    0  0.10194261417E+02  0.22568592290E+02  0.14544938846E+02  0.96370327825E+02  0.91991415444E+02 0.  0.
         13    1    3    3    0    0 -0.31137368259E+02 -0.17599622253E+02 -0.35964302889E+01  0.35947571273E+02  0.10566000000E+00 0. -1.
         22    1    1    0    0    0 -0.10194261417E+02 -0.22568592290E+02 -0.14544938846E+02  0.28719672175E+02  0.00000000000E+00 0.  1.
</event>
<event>
 5    1  0.1261010E-009  0.9118800E+02  0.7561462E-02  0.1125453E+00
         25   -1    0    0    0    0  0.00000000000E+00  0.00000000000E+00  0.99999998245E-14  0.12509000000E+03  0.12509000000E+03 0.  0.
        -13    1    3    3    0    0 -0.15677506498E+02 -0.34263709327E+02 -0.31774912106E+02  0.49289371980E+02  0.10566000000E+00 0.  1.
         23    2    1    0    0    0 -0.12826190067E+02 -0.21779314042E+02  0.13565922370E+02  0.96404046616E+02  0.92037254862E+02 0.  0.
         13    1    3    3    0    0  0.28513164301E+01  0.12484395285E+02  0.45340834476E+02  0.47114674636E+02  0.10566000000E+00 0. -1.
         22    1    1    0    0    0  0.12826190067E+02  0.21779314042E+02 -0.13565922370E+02  0.28685953384E+02  0.00000000000E+00 0. -1.
</event>
<event>
 5    1  0.1261010E-009  0.9118800E+02  0.7561462E-02  0.1125453E+00
         25   -1    0    0    0    0  0.00000000000E+00  0.00000000000E+00  0.99999998245E-14  0.12509000000E+03  0.12509000000E+03 0.  0.
        -13    1    3    3    0    0 -0.57132789306E+01 -0.25477825879E+02 -0.49746323975E+02  0.56182462394E+02  0.10566000000E+00 0.  1.
         23    2    1    0    0    0 -0.15566560078E+02  0.24108475205E+01 -0.28243205774E+02  0.92751035100E+02  0.86930695736E+02 0.  0.
         13    1    3    3    0    0 -0.98532811473E+01  0.27888673399E+02  0.21503118200E+02  0.36568572705E+02  0.10566000000E+00 0. -1.
         22    1    1    0    0    0  0.15566560078E+02 -0.24108475205E+01  0.28243205774E+02  0.32338964900E+02  0.00000000000E+00 0.  1.
</event>
<event>
 5    1  0.1261010E-009  0.9118800E+02  0.7561462E-02  0.1125453E+00
         25   -1    0    0    0    0  0.00000000000E+00  0.00000000000E+00  0.99999998245E-14  0.12509000000E+03  0.12509000000E+03 0.  0.
        -13    1    3    3    0    0  0.29714079229E+01 -0.86941403863E+01  0.45049692547E+02  0.45977204186E+02  0.10566000000E+00 0. -1.
         23    2    1    0    0    0  0.17829826138E+02  0.22019067296E+02  0.31592296026E+02  0.82653987076E+02  0.70928600625E+02 0.  0.
         13    1    3    3    0    0  0.14858418215E+02  0.30713207683E+02 -0.13457396522E+02  0.36676782890E+02  0.10566000000E+00 0.  1.
         22    1    1    0    0    0 -0.17829826138E+02 -0.22019067296E+02 -0.31592296026E+02  0.42436012924E+02  0.00000000000E+00 0.  1.
</event>
<event>
 5    1  0.1261010E-009  0.9118800E+02  0.7561462E-02  0.1125453E+00
         25   -1    0    0    0    0  0.00000000000E+00  0.00000000000E+00  0.99999998245E-14  0.12509000000E+03  0.12509000000E+03 0.  0.
        -13    1    3    3    0    0  0.37418368720E+02 -0.36948444891E+02  0.13752107256E+02  0.54354884928E+02  0.10566000000E+00 0. -1.
         23    2    1    0    0    0  0.88298800118E+01 -0.11669880215E+02  0.26691041607E+02  0.94650476559E+02  0.89622252401E+02 0.  0.
         13    1    3    3    0    0 -0.28588488708E+02  0.25278564676E+02  0.12938934351E+02  0.40295591631E+02  0.10566000000E+00 0.  1.
         22    1    1    0    0    0 -0.88298800118E+01  0.11669880215E+02 -0.26691041607E+02  0.30439523441E+02  0.00000000000E+00 0. -1.
</event>
<event>
 5    1  0.1261010E-009  0.9118800E+02  0.7561462E-02  0.1125453E+00
         25   -1    0    0    0    0  0.00000000000E+00  0.00000000000E+00  0.99999998245E-14  0.12509000000E+03  0.12509000000E+03 0.  0.
        -13    1    3    3    0    0 -0.13150344305E+02 -0.42582271366E+02 -0.42031592333E+02  0.61260487331E+02  0.10566000000E+00 0. -1.
         23    2    1    0    0    0 -0.11611230897E+02 -0.14067063694E+02 -0.23655058209E+02  0.95219199161E+02  0.90412560776E+02 0.  0.
         13    1    3    3    0    0  0.15391134078E+01  0.28515207672E+02  0.18376534124E+02  0.33958711829E+02  0.10566000000E+00 0.  1.
         22    1    1    0    0    0  0.11611230897E+02  0.14067063694E+02  0.23655058209E+02  0.29870800839E+02  0.00000000000E+00 0. -1.
</event>
<event>
 5    1  0.1261010E-009  0.9118800E+02  0.7561462E-02  0.1125453E+00
         25   -1    0    0    0    0  0.00000000000E+00  0.00000000000E+00  0.99999998245E-14  0.12509000000E+03  0.12509000000E+03 0.  0.
        -13    1    3    3    0    0  0.28441036652E+02  0.36135536058E+02 -0.69695991126E+01  0.46510816031E+02  0.10566000000E+00 0. -1.
         23    2    1    0    0    0  0.15435090678E+02 -0.33168809611E+00  0.24314931183E+02  0.96287779258E+02  0.91879097268E+02 0.  0.
         13    1    3    3    0    0 -0.13005945975E+02 -0.36467224154E+02  0.31284530296E+02  0.49776963227E+02  0.10566000000E+00 0.  1.
         22    1    1    0    0    0 -0.15435090678E+02  0.33168809611E+00 -0.24314931183E+02  0.28802220742E+02  0.00000000000E+00 0.  1.
</event>
<event>
 5    1  0.1261010E-009  0.9118800E+02  0.7561462E-02  0.1125453E+00
         25   -1    0    0    0    0  0.00000000000E+00  0.00000000000E+00  0.99999998245E-14  0.12509000000E+03  0.12509000000E+03 0.  0.
        -13    1    3    3    0    0 -0.85733631057E+01  0.39576432561E+02  0.83577518098E+01  0.41348031979E+02  0.10566000000E+00 0.  1.
         23    2    1    0    0    0  0.25052107625E+02 -0.64790269057E+01 -0.12837277413E+01  0.99181818994E+02  0.95738181391E+02 0.  0.
         13    1    3    3    0    0  0.33625470731E+02 -0.46055459467E+02 -0.96414795511E+01  0.57833787015E+02  0.10566000000E+00 0. -1.
         22    1    1    0    0    0 -0.25052107625E+02  0.64790269057E+01  0.12837277413E+01  0.25908181006E+02  0.00000000000E+00 0. -1.
</event>
<event>
 5    1  0.1261010E-009  0.9118800E+02  0.7561462E-02  0.1125453E+00
         25   -1    0    0    0    0  0.00000000000E+00  0.00000000000E+00  0.99999998245E-14  0.12509000000E+03  0.12509000000E+03 0.  0.
        -13    1    3    3    0    0 -0.86225926077E+01  0.30605008155E+02 -0.15512656769E+02  0.35378938813E+02  0.10566000000E+00 0.  1.
         23    2    1    0    0    0  0.25232451058E+02 -0.96821779419E+01  0.12855776347E+02  0.95161883762E+02  0.90333227439E+02 0.  0.
         13    1    3    3    0    0  0.33855043666E+02 -0.40287186097E+02  0.28368433116E+02  0.59782944949E+02  0.10566000000E+00 0. -1.
         22    1    1    0    0    0 -0.25232451058E+02  0.96821779419E+01 -0.12855776347E+02  0.29928116238E+02  0.00000000000E+00 0. -1.
</event>
<event>
 5    1  0.1261010E-009  0.9118800E+02  0.7561462E-02  0.1125453E+00
         25   -1    0    0    0    0  0.00000000000E+00  0.00000000000E+00  0.99999998245E-14  0.12509000000E+03  0.12509000000E+03 0.  0.
        -13    1    3    3    0    0 -0.49918130136E+01 -0.20750637525E+02 -0.44043652846E+02  0.48942432254E+02  0.10566000000E+00 0.  1.
         23    2    1    0    0    0 -0.93660560696E+00  0.19555105175E+02 -0.23934825004E+02  0.94168240405E+02  0.88946626044E+02 0.  0.
         13    1    3    3    0    0  0.40552074067E+01  0.40305742700E+02  0.20108827842E+02  0.45225808151E+02  0.10566000000E+00 0. -1.
         22    1    1    0    0    0  0.93660560696E+00 -0.19555105175E+02  0.23934825004E+02  0.30921759595E+02  0.00000000000E+00 0.  1.
</event>
<event>
 5    1  0.1261010E-009  0.9118800E+02  0.7561462E-02  0.1125453E+00
         25   -1    0    0    0    0  0.00000000000E+00  0.00000000000E+00  0.99999998245E-14  0.12509000000E+03  0.12509000000E+03 0.  0.
        -13    1    3    3    0    0 -0.16126298200E+02  0.59996751259E+02  0.32123119859E+01  0.62209306118E+02  0.10566000000E+00 0.  1.
         23    2    1    0    0    0 -0.10380468926E+02  0.27089659245E+02  0.49532650700E+01  0.95659767109E+02  0.91020066114E+02 0.  0.
         13    1    3    3    0    0  0.57458292740E+01 -0.32907092014E+02  0.17409530840E+01  0.33450460992E+02  0.10566000000E+00 0. -1.
         22    1    1    0    0    0  0.10380468926E+02 -0.27089659245E+02 -0.49532650700E+01  0.29430232891E+02  0.00000000000E+00 0.  1.
</event>
<event>
 5    1  0.1261010E-009  0.9118800E+02  0.7561462E-02  0.1125453E+00
         25   -1    0    0    0    0  0.00000000000E+00  0.00000000000E+00  0.99999998245E-14  0.12509000000E+03  0.12509000000E+03 0.  0.
        -13    1    3    3    0    0 -0.57824390024E+02  0.15176997849E+02 -0.79168958970E+01  0.60304972847E+02  0.10566000000E+00 0.  1.
         23    2    1    0    0    0 -0.28954279602E+02  0.15737702443E+02 -0.13071817819E+02  0.89637242610E+02  0.82328228793E+02 0.  0.
         13    1    3    3    0    0  0.28870110422E+02  0.56070459385E+00 -0.51549219219E+01  0.29332269763E+02  0.10566000000E+00 0. -1.
         22    1    1    0    0    0  0.28954279602E+02 -0.15737702443E+02  0.13071817819E+02  0.35452757390E+02  0.00000000000E+00 0.  1.
</event>
<event>
 5    1  0.1261010E-009  0.9118800E+02  0.7561462E-02  0.1125453E+00
         25   -1    0    0    0    0  0.00000000000E+00  0.00000000000E+00  0.99999998245E-14  0.12509000000E+03  0.12509000000E+03 0.  0.
        -13    1    3    3    0    0 -0.52386153231E+00 -0.20991042345E+02  0.29614934068E+02  0.36303633062E+02  0.10566000000E+00 0.  1.
         23    2    1    0    0    0  0.17730654449E+02  0.42052932936E+01 -0.21970420689E+02  0.96545999157E+02  0.92229984111E+02 0.  0.
         13    1    3    3    0    0  0.18254515981E+02  0.25196335639E+02 -0.51585354757E+02  0.60242366095E+02  0.10566000000E+00 0. -1.
         22    1    1    0    0    0 -0.17730654449E+02 -0.42052932936E+01  0.21970420689E+02  0.28544000843E+02  0.00000000000E+00 0. -1.
</event>
<event>
 5    1  0.1261010E-009  0.9118800E+02  0.7561462E-02  0.1125453E+00
         25   -1    0    0    0    0  0.00000000000E+00  0.00000000000E+00  0.99999998245E-14  0.12509000000E+03  0.12509000000E+03 0.  0.
        -13    1    3    3    0    0 -0.32813485357E+02  0.21986200052E+02  0.22707549162E+02  0.45560528608E+02  0.10566000000E+00 0.  1.
         23    2    1    0    0    0  0.16918138227E+02  0.75406160844E+01 -0.70296535766E+01  0.10527837913E+03  0.10339746995E+03 0.  0.
         13    1    3    3    0    0  0.49731623584E+02 -0.14445583968E+02 -0.29737202739E+02  0.59717850524E+02  0.10566000000E+00 0. -1.
         22    1    1    0    0    0 -0.16918138227E+02 -0.75406160844E+01  0.70296535766E+01  0.19811620868E+02  0.00000000000E+00 0. -1.
</event>
<event>
 5    1  0.1261010E-009  0.9118800E+02  0.7561462E-02  0.1125453E+00
         25   -1    0    0    0    0  0.00000000000E+00  0.00000000000E+00  0.99999998245E-14  0.12509000000E+03  0.12509000000E+03 0.  0.
        -13    1    3    3    0    0 -0.11415179065E+02  0.27007554663E+02  0.20575357817E+02  0.35819978159E+02  0.10566000000E+00 0.  1.
         23    2    1    0    0    0  0.26718200553E+00 -0.36876298845E+01 -0.29310785943E+02  0.95546943743E+02  0.90864879275E+02 0.  0.
         13    1    3    3    0    0  0.11682361070E+02 -0.30695184547E+02 -0.49886143761E+02  0.59726965584E+02  0.10566000000E+00 0. -1.
         22    1    1    0    0    0 -0.26718200553E+00  0.36876298845E+01  0.29310785943E+02  0.29543056257E+02  0.00000000000E+00 0. -1.
</event>
<event>
 5    1  0.1261010E-009  0.9118800E+02  0.7561462E-02  0.1125453E+00
         25   -1    0    0    0    0  0.00000000000E+00  0.00000000000E+00  0.99999998245E-14  0.12509000000E+03  0.12509000000E+03 0.  0.
        -13    1    3    3    0    0 -0.44033566211E+02  0.38711439384E+00 -0.74815129419E+01  0.44666419274E+02  0.10566000000E+00 0.  1.
         23    2    1    0    0    0 -0.72096859358E+01 -0.15886069700E+02  0.23751092534E+02  0.95620334608E+02  0.90965857398E+02 0.  0.
         13    1    3    3    0    0  0.36823880275E+02 -0.16273184093E+02  0.31232605476E+02  0.50953915334E+02  0.10566000000E+00 0. -1.
         22    1    1    0    0    0  0.72096859358E+01  0.15886069700E+02 -0.23751092534E+02  0.29469665392E+02  0.00000000000E+00 0. -1.
</event>
<event>
 5    1  0.1261010E-009  0.9118800E+02  0.7561462E-02  0.1125453E+00
         25   -1    0    0    0    0  0.00000000000E+00  0.00000000000E+00  0.99999998245E-14  0.12509000000E+03  0.12509000000E+03 0.  0.
        -13    1    3    3    0    0  0.81423239151E+01  0.22882043372E+02  0.30344905646E+02  0.38867850601E+02  0.10566000000E+00 0.  1.
         23    2    1    0    0    0  0.25212937057E+00  0.19680077010E+02 -0.24099834657E+02  0.93974553180E+02  0.88673815834E+02 0.  0.
         13    1    3    3    0    0 -0.78901945445E+01 -0.32019663623E+01 -0.54444740302E+02  0.55106702579E+02  0.10566000000E+00 0. -1.
         22    1    1    0    0    0 -0.25212937057E+00 -0.19680077010E+02  0.24099834657E+02  0.31115446820E+02  0.00000000000E+00 0. -1.
</event>
<event>
 5    1  0.1261010E-009  0.9118800E+02  0.7561462E-02  0.1125453E+00
         25   -1    0    0    0    0  0.00000000000E+00  0.00000000000E+00  0.99999998245E-14  0.12509000000E+03  0.12509000000E+03 0.  0.
        -13    1    3    3    0    0 -0.11649094631E+02 -0.49607277299E+01  0.41106077309E+02  0.43011986481E+02  0.10566000000E+00 0. -1.
         23    2    1    0    0    0  0.66260383470E+01 -0.30386948213E+02  0.89589971827E+00  0.93976118175E+02  0.88676023507E+02 0.  0.
         13    1    3    3    0    0  0.18275132978E+02 -0.25426220483E+02 -0.40210177590E+02  0.50964131694E+02  0.10566000000E+00 0.  1.
         22    1    1    0    0    0 -0.66260383470E+01  0.30386948213E+02 -0.89589971827E+00  0.31113881825E+02  0.00000000000E+00 0. -1.
</event>
<event>
 5    1  0.1261010E-009  0.9118800E+02  0.7561462E-02  0.1125453E+00
         25   -1    0    0    0    0  0.00000000000E+00  0.00000000000E+00  0.99999998245E-14  0.12509000000E+03  0.12509000000E+03 0.  0.
        -13    1    3    3    0    0  0.60464171200E+01 -0.49962554423E+01 -0.40938522441E+02  0.41683276168E+02  0.10566000000E+00 0.  1.
         23    2    1    0    0    0 -0.14522248389E+01  0.29115417804E+02  0.57244324246E+00  0.95932767584E+02  0.91394483938E+02 0.  0.
         13    1    3    3    0    0 -0.74986419589E+01  0.34111673246E+02  0.41510965683E+02  0.54249491416E+02  0.10566000000E+00 0. -1.
         22    1    1    0    0    0  0.14522248389E+01 -0.29115417804E+02 -0.57244324246E+00  0.29157232416E+02  0.00000000000E+00 0. -1.
</event>
<event>
 5    1  0.1261010E-009  0.9118800E+02  0.7561462E-02  0.1125453E+00
         25   -1    0    0    0    0  0.00000000000E+00  0.00000000000E+00  0.99999998245E-14  0.12509000000E+03  0.12509000000E+03 0.  0.
        -13    1    3    3    0    0 -0.78731312167E+01 -0.64711181713E+01 -0.54834236302E+02  0.55773346685E+02  0.10566000000E+00 0.  1.
         23    2    1    0    0    0  0.86063253817E+00  0.17172773536E+02 -0.22638269814E+02  0.96662265312E+02  0.92387539397E+02 0.  0.
         13    1    3    3    0    0  0.87337637548E+01  0.23643891707E+02  0.32195966488E+02  0.40888918628E+02  0.10566000000E+00 0. -1.
         22    1    1    0    0    0 -0.86063253817E+00 -0.17172773536E+02  0.22638269814E+02  0.28427734688E+02  0.00000000000E+00 0.  1.
</event>
<event>
 5    1  0.1261010E-009  0.9118800E+02  0.7561462E-02  0.1125453E+00
         25   -1    0    0    0    0  0.00000000000E+00  0.00000000000E+00  0.99999998245E-14  0.12509000000E+03  0.12509000000E+03 0.  0.
        -13    1    3    3    0    0  0.47033276364E+02  0.37699195518E+02 -0.86708270700E+00  0.60283674612E+02  0.10566000000E+00 0.  1.
         23    2    1    0    0    0  0.24840207791E+02  0.14360881946E+02 -0.11469414344E+02  0.94189865393E+02  0.88977033126E+02 0.  0.
         13    1    3    3    0    0 -0.22193068574E+02 -0.23338313571E+02 -0.10602331637E+02  0.33906190781E+02  0.10566000000E+00 0. -1.
         22    1    1    0    0    0 -0.24840207791E+02 -0.14360881946E+02  0.11469414344E+02  0.30900134607E+02  0.00000000000E+00 0.  1.
</event>
<event>
 5    1  0.1261010E-009  0.9118800E+02  0.7561462E-02  0.1125453E+00
         25   -1    0    0    0    0  0.00000000000E+00  0.00000000000E+00  0.99999998245E-14  0.12509000000E+03  0.12509000000E+03 0.  0.
        -13    1    3    3    0    0  0.16629878344E+02 -0.11832643712E+02 -0.21459001032E+01  0.20522679217E+02  0.10566000000E+00 0.  1.
         23    2    1    0    0    0  0.19711000937E+02  0.44208593011E+02 -0.18937167677E+01  0.76649217418E+02  0.59401962203E+02 0.  0.
         13    1    3    3    0    0  0.30811225934E+01  0.56041236724E+02  0.25218333544E+00  0.56126538201E+02  0.10566000000E+00 0. -1.
         22    1    1    0    0    0 -0.19711000937E+02 -0.44208593011E+02  0.18937167677E+01  0.48440782582E+02  0.00000000000E+00 0. -1.
</event>
<event>
 5    1  0.1261010E-009  0.9118800E+02  0.7561462E-02  0.1125453E+00
         25   -1    0    0    0    0  0.00000000000E+00  0.00000000000E+00  0.99999998245E-14  0.12509000000E+03  0.12509000000E+03 0.  0.
        -13    1    3    3    0    0  0.46080178659E+02  0.20357094497E+01  0.15708290722E+02  0.48726671748E+02  0.10566000000E+00 0. -1.
         23    2    1    0    0    0  0.68334288564E+01 -0.25224908554E+02  0.10971040435E+02  0.96746473584E+02  0.92501484643E+02 0.  0.
         13    1    3    3    0    0 -0.39246749803E+02 -0.27260618004E+02 -0.47372502874E+01  0.48019801835E+02  0.10566000000E+00 0.  1.
         22    1    1    0    0    0 -0.68334288564E+01  0.25224908554E+02 -0.10971040435E+02  0.28343526416E+02  0.00000000000E+00 0.  1.
</event>
<event>
 5    1  0.1261010E-009  0.9118800E+02  0.7561462E-02  0.1125453E+00
         25   -1    0    0    0    0  0.00000000000E+00  0.00000000000E+00  0.99999998245E-14  0.12509000000E+03  0.12509000000E+03 0.  0.
        -13    1    3    3    0    0  0.10157565709E+01  0.63568914533E+01  0.50939786352E+02  0.51345056510E+02  0.10566000000E+00 0.  1.
         23    2    1    0    0    0 -0.16553714025E+02 -0.16726470308E+02  0.16634966344E+02  0.96271215116E+02  0.91856543031E+02 0.  0.
         13    1    3    3    0    0 -0.17569470595E+02 -0.23083361761E+02 -0.34304820009E+02  0.44926158606E+02  0.10566000000E+00 0. -1.
         22    1    1    0    0    0  0.16553714025E+02  0.16726470308E+02 -0.16634966344E+02  0.28818784884E+02  0.00000000000E+00 0.  1.
</event>
<event>
 5    1  0.1261010E-009  0.9118800E+02  0.7561462E-02  0.1125453E+00
         25   -1    0    0    0    0  0.00000000000E+00  0.00000000000E+00  0.99999998245E-14  0.12509000000E+03  0.12509000000E+03 0.  0.
        -13    1    3    3    0    0 -0.56155973973E+01  0.30703558193E+02  0.32453441049E+02  0.45027551786E+02  0.10566000000E+00 0.  1.
         23    2    1    0    0    0 -0.28145279843E+02 -0.63794617701E+01  0.67781964421E+01  0.95445468347E+02  0.90725074654E+02 0.  0.
         13    1    3    3    0    0 -0.22529682446E+02 -0.37083019963E+02 -0.25675244607E+02  0.50417916561E+02  0.10566000000E+00 0. -1.
         22    1    1    0    0    0  0.28145279843E+02  0.63794617701E+01 -0.67781964421E+01  0.29644531653E+02  0.00000000000E+00 0. -1.
</event>
<event>
 5    1  0.1261010E-009  0.9118800E+02  0.7561462E-02  0.1125453E+00
         25   -1    0    0    0    0  0.00000000000E+00  0.00000000000E+00  0.99999998245E-14  0.12509000000E+03  0.12509000000E+03 0.  0.
        -13    1    3    3    0    0 -0.34430243216E+02  0.41212951694E+01  0.32728604319E+02  0.47682275811E+02  0.10566000000E+00 0.  1.
         23    2    1    0    0    0 -0.20149716303E+02  0.17685529526E+02 -0.11361520543E+02  0.95971738191E+02  0.91447806757E+02 0.  0.
         13    1    3    3    0    0  0.14280526913E+02  0.13564234357E+02 -0.44090124862E+02  0.48289462380E+02  0.10566000000E+00 0. -1.
         22    1    1    0    0    0  0.20149716303E+02 -0.17685529526E+02  0.11361520543E+02  0.29118261809E+02  0.00000000000E+00 0.  1.
</event>
<event>
 5    1  0.1261010E-009  0.9118800E+02  0.7561462E-02  0.1125453E+00
         25   -1    0    0    0    0  0.00000000000E+00  0.00000000000E+00  0.99999998245E-14  0.12509000000E+03  0.12509000000E+03 0.  0.
        -13    1    3    3    0    0 -0.22778166896E+02  0.28402049383E+01 -0.32982170914E+02  0.40183907394E+02  0.10566000000E+00 0.  1.
         23    2    1    0    0    0 -0.19396310845E+01 -0.29020749984E+02  0.67712477078E+01  0.95226713277E+02  0.90422956309E+02 0.  0.
         13    1    3    3    0    0  0.20838535811E+02 -0.31860954922E+02  0.39753418622E+02  0.55042805883E+02  0.10566000000E+00 0. -1.
         22    1    1    0    0    0  0.19396310845E+01  0.29020749984E+02 -0.67712477078E+01  0.29863286723E+02  0.00000000000E+00 0. -1.
</event>
<event>
 5    1  0.1261010E-009  0.9118800E+02  0.7561462E-02  0.1125453E+00
         25   -1    0    0    0    0  0.00000000000E+00  0.00000000000E+00  0.99999998245E-14  0.12509000000E+03  0.12509000000E+03 0.  0.
        -13    1    3    3    0    0 -0.58586152260E+01 -0.30903199011E+02  0.16568419837E+02  0.35550735315E+02  0.10566000000E+00 0.  1.
         23    2    1    0    0    0  0.36962984263E+00  0.85117538847E+01 -0.28264026746E+02  0.95569807109E+02  0.90896348896E+02 0.  0.
         13    1    3    3    0    0  0.62282450686E+01  0.39414952896E+02 -0.44832446583E+02  0.60019071795E+02  0.10566000000E+00 0. -1.
         22    1    1    0    0    0 -0.36962984263E+00 -0.85117538847E+01  0.28264026746E+02  0.29520192891E+02  0.00000000000E+00 0. -1.
</event>
<event>
 5    1  0.1261010E-009  0.9118800E+02  0.7561462E-02  0.1125453E+00
         25   -1    0    0    0    0  0.00000000000E+00  0.00000000000E+00  0.99999998245E-14  0.12509000000E+03  0.12509000000E+03 0.  0.
        -13    1    3    3    0    0  0.48724577815E+02 -0.25825431086E+02 -0.15801093739E+02  0.57364824600E+02  0.10566000000E+00 0.  1.
         23    2    1    0    0    0  0.18654445606E+02 -0.57511389917E+01 -0.23713039830E+02  0.94375635306E+02  0.89237819006E+02 0.  0.
         13    1    3    3    0    0 -0.30070132209E+02  0.20074292095E+02 -0.79119460905E+01  0.37010810706E+02  0.10566000000E+00 0. -1.
         22    1    1    0    0    0 -0.18654445606E+02  0.57511389917E+01  0.23713039830E+02  0.30714364694E+02  0.00000000000E+00 0.  1.
</event>
<event>
 5    1  0.1261010E-009  0.9118800E+02  0.7561462E-02  0.1125453E+00
         25   -1    0    0    0    0  0.00000000000E+00  0.00000000000E+00  0.99999998245E-14  0.12509000000E+03  0.12509000000E+03 0.  0.
        -13    1    3    3    0    0 -0.26943866016E+02 -0.92061775944E+01  0.31609780737E+02  0.42543096080E+02  0.10566000000E+00 0.  1.
         23    2    1    0    0    0  0.52807563220E+01  0.24802155954E+02  0.24314248913E+02  0.89958589162E+02  0.82815045351E+02 0.  0.
         13    1    3    3    0    0  0.32224622338E+02  0.34008333548E+02 -0.72955318239E+01  0.47415493082E+02  0.10566000000E+00 0. -1.
         22    1    1    0    0    0 -0.52807563220E+01 -0.24802155954E+02 -0.24314248913E+02  0.35131410838E+02  0.00000000000E+00 0.  1.
</event>
<event>
 5    1  0.1261010E-009  0.9118800E+02  0.7561462E-02  0.1125453E+00
         25   -1    0    0    0    0  0.00000000000E+00  0.00000000000E+00  0.99999998245E-14  0.12509000000E+03  0.12509000000E+03 0.  0.
        -13    1    3    3    0    0  0.79020726305E+01  0.26802585905E+02 -0.53319249637E+00  0.27948467245E+02  0.10566000000E+00 0. -1.
         23    2    1    0    0    0 -0.42138861452E+02  0.87473440295E+01  0.63364635043E+01  0.81588845512E+02  0.69024555559E+02 0.  0.
         13    1    3    3    0    0 -0.50040934083E+02 -0.18055241875E+02  0.68696560007E+01  0.53640378267E+02  0.10566000000E+00 0.  1.
         22    1    1    0    0    0  0.42138861452E+02 -0.87473440295E+01 -0.63364635043E+01  0.43501154488E+02  0.00000000000E+00 0.  1.
</event>
<event>
 5    1  0.1261010E-009  0.9118800E+02  0.7561462E-02  0.1125453E+00
         25   -1    0    0    0    0  0.00000000000E+00  0.00000000000E+00  0.99999998245E-14  0.12509000000E+03  0.12509000000E+03 0.  0.
        -13    1    3    3    0    0 -0.46943024806E+02  0.39186651596E+02 -0.12552128171E+02  0.62424420917E+02  0.10566000000E+00 0. -1.
         23    2    1    0    0    0 -0.23359924755E+02  0.17894841453E+02 -0.35348819142E+01  0.95452071170E+02  0.90734178044E+02 0.  0.
         13    1    3    3    0    0  0.23583100051E+02 -0.21291810142E+02  0.90172462568E+01  0.33027650253E+02  0.10566000000E+00 0.  1.
         22    1    1    0    0    0  0.23359924755E+02 -0.17894841453E+02  0.35348819142E+01  0.29637928830E+02  0.00000000000E+00 0. -1.
</event>
<event>
 5    1  0.1261010E-009  0.9118800E+02  0.7561462E-02  0.1125453E+00
         25   -1    0    0    0    0  0.00000000000E+00  0.00000000000E+00  0.99999998245E-14  0.12509000000E+03  0.12509000000E+03 0.  0.
        -13    1    3    3    0    0 -0.32329293221E+02  0.14436509739E+02 -0.15576809055E+02  0.38681315360E+02  0.10566000000E+00 0. -1.
         23    2    1    0    0    0 -0.11234495375E+01  0.68065493658E+01  0.29924548004E+02  0.94380558026E+02  0.89244719210E+02 0.  0.
         13    1    3    3    0    0  0.31205843684E+02 -0.76299603727E+01  0.45501357059E+02  0.55699242666E+02  0.10566000000E+00 0.  1.
         22    1    1    0    0    0  0.11234495375E+01 -0.68065493658E+01 -0.29924548004E+02  0.30709441974E+02  0.00000000000E+00 0.  1.
</event>
<event>
 5    1  0.1261010E-009  0.9118800E+02  0.7561462E-02  0.1125453E+00
         25   -1    0    0    0    0  0.00000000000E+00  0.00000000000E+00  0.99999998245E-14  0.12509000000E+03  0.12509000000E+03 0.  0.
        -13    1    3    3    0    0 -0.20522189159E+01  0.18548740591E+02 -0.31024579172E+02  0.36205014250E+02  0.10566000000E+00 0. -1.
         23    2    1    0    0    0  0.14000561198E+02  0.50388937381E+01  0.24981852365E+02  0.96012532581E+02  0.91503591738E+02 0.  0.
         13    1    3    3    0    0  0.16052780114E+02 -0.13509846853E+02  0.56006431537E+02  0.59807518331E+02  0.10566000000E+00 0.  1.
         22    1    1    0    0    0 -0.14000561198E+02 -0.50388937381E+01 -0.24981852365E+02  0.29077467419E+02  0.00000000000E+00 0.  1.
</event>
<event>
 5    1  0.1261010E-009  0.9118800E+02  0.7561462E-02  0.1125453E+00
         25   -1    0    0    0    0  0.00000000000E+00  0.00000000000E+00  0.99999998245E-14  0.12509000000E+03  0.12509000000E+03 0.  0.
        -13    1    3    3    0    0 -0.41679484379E+02  0.21465462641E+02 -0.82668904623E+01  0.47605652463E+02  0.10566000000E+00 0.  1.
         23    2    1    0    0    0  0.46430279753E+01  0.19273971559E+02 -0.21513258367E+02  0.95834847052E+02  0.91260363442E+02 0.  0.
         13    1    3    3    0    0  0.46322512355E+02 -0.21914910824E+01 -0.13246367905E+02  0.48229194589E+02  0.10566000000E+00 0. -1.
         22    1    1    0    0    0 -0.46430279753E+01 -0.19273971559E+02  0.21513258367E+02  0.29255152948E+02  0.00000000000E+00 0. -1.
</event>
<event>
 5    1  0.1261010E-009  0.9118800E+02  0.7561462E-02  0.1125453E+00
         25   -1    0    0    0    0  0.00000000000E+00  0.00000000000E+00  0.99999998245E-14  0.12509000000E+03  0.12509000000E+03 0.  0.
        -13    1    3    3    0    0 -0.19826015552E+02 -0.15812407154E+02 -0.38839543901E+02  0.46385606034E+02  0.10566000000E+00 0.  1.
         23    2    1    0    0    0  0.13340800490E+02  0.15720676579E+02 -0.21435874670E+02  0.95347549652E+02  0.90589965626E+02 0.  0.
         13    1    3    3    0    0  0.33166816042E+02  0.31533083734E+02  0.17403669232E+02  0.48961943618E+02  0.10566000000E+00 0. -1.
         22    1    1    0    0    0 -0.13340800490E+02 -0.15720676579E+02  0.21435874670E+02  0.29742450348E+02  0.00000000000E+00 0.  1.
</event>
<event>
 5    1  0.1261010E-009  0.9118800E+02  0.7561462E-02  0.1125453E+00
         25   -1    0    0    0    0  0.00000000000E+00  0.00000000000E+00  0.99999998245E-14  0.12509000000E+03  0.12509000000E+03 0.  0.
        -13    1    3    3    0    0 -0.14070746804E+02  0.31625844914E+02 -0.11355864169E+02  0.36430026039E+02  0.10566000000E+00 0.  1.
         23    2    1    0    0    0  0.63041423792E+01 -0.24502463507E+02 -0.13950215805E+02  0.96198453657E+02  0.91757403167E+02 0.  0.
         13    1    3    3    0    0  0.20374889183E+02 -0.56128308421E+02 -0.25943516365E+01  0.59768427618E+02  0.10566000000E+00 0. -1.
         22    1    1    0    0    0 -0.63041423792E+01  0.24502463507E+02  0.13950215805E+02  0.28891546343E+02  0.00000000000E+00 0. -1.
</event>
<event>
 5    1  0.1261010E-009  0.9118800E+02  0.7561462E-02  0.1125453E+00
         25   -1    0    0    0    0  0.00000000000E+00  0.00000000000E+00  0.99999998245E-14  0.12509000000E+03  0.12509000000E+03 0.  0.
        -13    1    3    3    0    0  0.25268217069E+02 -0.52423047114E-01  0.53975178694E+02  0.59597119235E+02  0.10566000000E+00 0.  1.
         23    2    1    0    0    0  0.16978817607E+02  0.11408669419E+02  0.19638598172E+02  0.96733122115E+02  0.92483427654E+02 0.  0.
         13    1    3    3    0    0 -0.82893994616E+01  0.11461092466E+02 -0.34336580522E+02  0.37136002880E+02  0.10566000000E+00 0. -1.
         22    1    1    0    0    0 -0.16978817607E+02 -0.11408669419E+02 -0.19638598172E+02  0.28356877885E+02  0.00000000000E+00 0.  1.
</event>
<event>
 5    1  0.1261010E-009  0.9118800E+02  0.7561462E-02  0.1125453E+00
         25   -1    0    0    0    0  0.00000000000E+00  0.00000000000E+00  0.99999998245E-14  0.12509000000E+03  0.12509000000E+03 0.  0.
        -13    1    3    3    0    0  0.36562745074E+02 -0.40262234876E+02 -0.29011507014E+02  0.61640575823E+02  0.10566000000E+00 0.  1.
         23    2    1    0    0    0  0.22606881184E+02 -0.13771515654E+02 -0.12884851873E+02  0.95649464542E+02  0.91005906067E+02 0.  0.
         13    1    3    3    0    0 -0.13955863890E+02  0.26490719222E+02  0.16126655141E+02  0.34008888718E+02  0.10566000000E+00 0. -1.
         22    1    1    0    0    0 -0.22606881184E+02  0.13771515654E+02  0.12884851873E+02  0.29440535458E+02  0.00000000000E+00 0.  1.
</event>
<event>
 5    1  0.1261010E-009  0.9118800E+02  0.7561462E-02  0.1125453E+00
         25   -1    0    0    0    0  0.00000000000E+00  0.00000000000E+00  0.99999998245E-14  0.12509000000E+03  0.12509000000E+03 0.  0.
        -13    1    3    3    0    0 -0.31952075579E+02  0.20303105587E+02 -0.13304264688E+02  0.40126871959E+02  0.10566000000E+00 0.  1.
         23    2    1    0    0    0  0.23437803159E+02  0.10502014807E+02 -0.12832868081E+02  0.96379280136E+02  0.92003587998E+02 0.  0.
         13    1    3    3    0    0  0.55389878737E+02 -0.98010907796E+01  0.47139660758E+00  0.56252408178E+02  0.10566000000E+00 0. -1.
         22    1    1    0    0    0 -0.23437803159E+02 -0.10502014807E+02  0.12832868081E+02  0.28710719864E+02  0.00000000000E+00 0. -1.
</event>
<event>
 5    1  0.1261010E-009  0.9118800E+02  0.7561462E-02  0.1125453E+00
         25   -1    0    0    0    0  0.00000000000E+00  0.00000000000E+00  0.99999998245E-14  0.12509000000E+03  0.12509000000E+03 0.  0.
        -13    1    3    3    0    0  0.14795038003E+02  0.78418502229E+01  0.31487109498E+02  0.35662823682E+02  0.10566000000E+00 0.  1.
         23    2    1    0    0    0 -0.22967280676E+02 -0.16665241951E+02 -0.80672705043E+01  0.95589031807E+02  0.90922801747E+02 0.  0.
         13    1    3    3    0    0 -0.37762318679E+02 -0.24507092174E+02 -0.39554380002E+02  0.59926208125E+02  0.10566000000E+00 0. -1.
         22    1    1    0    0    0  0.22967280676E+02  0.16665241951E+02  0.80672705043E+01  0.29500968193E+02  0.00000000000E+00 0. -1.
</event>
<event>
 5    1  0.1261010E-009  0.9118800E+02  0.7561462E-02  0.1125453E+00
         25   -1    0    0    0    0  0.00000000000E+00  0.00000000000E+00  0.99999998245E-14  0.12509000000E+03  0.12509000000E+03 0.  0.
        -13    1    3    3    0    0 -0.52419083165E+02  0.24199441224E+02  0.44970765197E+01  0.57910345334E+02  0.10566000000E+00 0.  1.
         23    2    1    0    0    0 -0.20484570654E+02  0.22291103937E+02  0.14627276569E+02  0.91467564493E+02  0.85063783038E+02 0.  0.
         13    1    3    3    0    0  0.31934512512E+02 -0.19083372872E+01  0.10130200050E+02  0.33557219158E+02  0.10566000000E+00 0. -1.
         22    1    1    0    0    0  0.20484570654E+02 -0.22291103937E+02 -0.14627276569E+02  0.33622435507E+02  0.00000000000E+00 0.  1.
</event>
<event>
 5    1  0.1261010E-009  0.9118800E+02  0.7561462E-02  0.1125453E+00
         25   -1    0    0    0    0  0.00000000000E+00  0.00000000000E+00  0.99999998245E-14  0.12509000000E+03  0.12509000000E+03 0.  0.
        -13    1    3    3    0    0  0.25314918374E+02 -0.12356455454E+02  0.21250700233E+02  0.35286406846E+02  0.10566000000E+00 0.  1.
         23    2    1    0    0    0 -0.24259627946E+02  0.15828994252E+02  0.60656117959E-01  0.96122944812E+02  0.91654406512E+02 0.  0.
         13    1    3    3    0    0 -0.49574546321E+02  0.28185449705E+02 -0.21190044115E+02  0.60836537966E+02  0.10566000000E+00 0. -1.
         22    1    1    0    0    0  0.24259627946E+02 -0.15828994252E+02 -0.60656117959E-01  0.28967055188E+02  0.00000000000E+00 0. -1.
</event>
<event>
 5    1  0.1261010E-009  0.9118800E+02  0.7561462E-02  0.1125453E+00
         25   -1    0    0    0    0  0.00000000000E+00  0.00000000000E+00  0.99999998245E-14  0.12509000000E+03  0.12509000000E+03 0.  0.
        -13    1    3    3    0    0 -0.16870197996E+02 -0.14967574298E+02  0.54943514588E+02  0.59392194943E+02  0.10566000000E+00 0.  1.
         23    2    1    0    0    0 -0.58530761401E+01 -0.20107147722E+02  0.21062465604E+02  0.95388428541E+02  0.90646395143E+02 0.  0.
         13    1    3    3    0    0  0.11017121856E+02 -0.51395734232E+01 -0.33881048984E+02  0.35996233598E+02  0.10566000000E+00 0. -1.
         22    1    1    0    0    0  0.58530761401E+01  0.20107147722E+02 -0.21062465604E+02  0.29701571459E+02  0.00000000000E+00 0.  1.
</event>
<event>
 5    1  0.1261010E-009  0.9118800E+02  0.7561462E-02  0.1125453E+00
         25   -1    0    0    0    0  0.00000000000E+00  0.00000000000E+00  0.99999998245E-14  0.12509000000E+03  0.12509000000E+03 0.  0.
        -13    1    3    3    0    0 -0.10613022424E+02 -0.27892144691E+02 -0.18157699282E+02  0.34933095879E+02  0.10566000000E+00 0.  1.
         23    2    1    0    0    0 -0.41408732182E+01  0.21066098068E+02  0.18750434904E+02  0.96585506882E+02  0.92283552228E+02 0.  0.
         13    1    3    3    0    0  0.64721492055E+01  0.48958242759E+02  0.36908134186E+02  0.61652411003E+02  0.10566000000E+00 0. -1.
         22    1    1    0    0    0  0.41408732182E+01 -0.21066098068E+02 -0.18750434904E+02  0.28504493118E+02  0.00000000000E+00 0. -1.
</event>
<event>
 5    1  0.1261010E-009  0.9118800E+02  0.7561462E-02  0.1125453E+00
         25   -1    0    0    0    0  0.00000000000E+00  0.00000000000E+00  0.99999998245E-14  0.12509000000E+03  0.12509000000E+03 0.  0.
        -13    1    3    3    0    0  0.98465160382E+01  0.86947871042E+01 -0.41836253338E+02  0.43850159159E+02  0.10566000000E+00 0.  1.
         23    2    1    0    0    0  0.21605615683E+02 -0.22319059951E+02 -0.46485734792E+01  0.93680569863E+02  0.88258126359E+02 0.  0.
         13    1    3    3    0    0  0.11759099645E+02 -0.31013847055E+02  0.37187679859E+02  0.49830410704E+02  0.10566000000E+00 0. -1.
         22    1    1    0    0    0 -0.21605615683E+02  0.22319059951E+02  0.46485734792E+01  0.31409430137E+02  0.00000000000E+00 0.  1.
</event>
<event>
 5    1  0.1261010E-009  0.9118800E+02  0.7561462E-02  0.1125453E+00
         25   -1    0    0    0    0  0.00000000000E+00  0.00000000000E+00  0.99999998245E-14  0.12509000000E+03  0.12509000000E+03 0.  0.
        -13    1    3    3    0    0  0.11362002735E+01 -0.47996583268E+02  0.21055239469E+02  0.52424204615E+02  0.10566000000E+00 0.  1.
         23    2    1    0    0    0  0.23071643573E+02 -0.18723288936E+02 -0.13953754205E+01  0.95344254787E+02  0.90585415839E+02 0.  0.
         13    1    3    3    0    0  0.21935443299E+02  0.29273294332E+02 -0.22450614889E+02  0.42920050172E+02  0.10566000000E+00 0. -1.
         22    1    1    0    0    0 -0.23071643573E+02  0.18723288936E+02  0.13953754205E+01  0.29745745213E+02  0.00000000000E+00 0.  1.
</event>
<event>
 5    1  0.1261010E-009  0.9118800E+02  0.7561462E-02  0.1125453E+00
         25   -1    0    0    0    0  0.00000000000E+00  0.00000000000E+00  0.99999998245E-14  0.12509000000E+03  0.12509000000E+03 0.  0.
        -13    1    3    3    0    0 -0.46092905384E+01 -0.20439830458E+02 -0.32262169002E+02  0.38469350673E+02  0.10566000000E+00 0.  1.
         23    2    1    0    0    0  0.15605199364E+02  0.19770253422E+02  0.78001939624E+01  0.98722819768E+02  0.95136569990E+02 0.  0.
         13    1    3    3    0    0  0.20214489902E+02  0.40210083880E+02  0.40062362964E+02  0.60253469095E+02  0.10566000000E+00 0. -1.
         22    1    1    0    0    0 -0.15605199364E+02 -0.19770253422E+02 -0.78001939624E+01  0.26367180232E+02  0.00000000000E+00 0. -1.
</event>
<event>
 5    1  0.1261010E-009  0.9118800E+02  0.7561462E-02  0.1125453E+00
         25   -1    0    0    0    0  0.00000000000E+00  0.00000000000E+00  0.99999998245E-14  0.12509000000E+03  0.12509000000E+03 0.  0.
        -13    1    3    3    0    0  0.24429751384E+02  0.14769370410E+02 -0.47031960488E+02  0.55017847344E+02  0.10566000000E+00 0. -1.
         23    2    1    0    0    0 -0.10759407042E+02  0.91451521491E+01 -0.23340337863E+02  0.97810520179E+02  0.93929376866E+02 0.  0.
         13    1    3    3    0    0 -0.35189158426E+02 -0.56242182610E+01  0.23691622624E+02  0.42792672835E+02  0.10566000000E+00 0.  1.
         22    1    1    0    0    0  0.10759407042E+02 -0.91451521491E+01  0.23340337863E+02  0.27279479821E+02  0.00000000000E+00 0. -1.
</event>
<event>
 5    1  0.1261010E-009  0.9118800E+02  0.7561462E-02  0.1125453E+00
         25   -1    0    0    0    0  0.00000000000E+00  0.00000000000E+00  0.99999998245E-14  0.12509000000E+03  0.12509000000E+03 0.  0.
        -13    1    3    3    0    0 -0.36655664416E+02 -0.27809192386E+02  0.73820418260E+01  0.46599298498E+02  0.10566000000E+00 0.  1.
         23    2    1    0    0    0 -0.18795953893E+02 -0.56115996629E+01 -0.27293939352E+02  0.91478438612E+02  0.85079772402E+02 0.  0.
         13    1    3    3    0    0  0.17859710523E+02  0.22197592723E+02 -0.34675981178E+02  0.44879140114E+02  0.10566000000E+00 0. -1.
         22    1    1    0    0    0  0.18795953893E+02  0.56115996629E+01  0.27293939352E+02  0.33611561388E+02  0.00000000000E+00 0.  1.
</event>
<event>
 5    1  0.1261010E-009  0.9118800E+02  0.7561462E-02  0.1125453E+00
         25   -1    0    0    0    0  0.00000000000E+00  0.00000000000E+00  0.99999998245E-14  0.12509000000E+03  0.12509000000E+03 0.  0.
        -13    1    3    3    0    0 -0.24574277006E+02  0.95339540290E+01 -0.40726115481E+02  0.48512050215E+02  0.10566000000E+00 0.  1.
         23    2    1    0    0    0  0.50861302026E+01 -0.20412976190E+02 -0.22052108130E+02  0.94612897278E+02  0.89569785871E+02 0.  0.
         13    1    3    3    0    0  0.29660407209E+02 -0.29946930219E+02  0.18674007351E+02  0.46100847063E+02  0.10566000000E+00 0. -1.
         22    1    1    0    0    0 -0.50861302026E+01  0.20412976190E+02  0.22052108130E+02  0.30477102722E+02  0.00000000000E+00 0. -1.
</event>
<event>
 5    1  0.1261010E-009  0.9118800E+02  0.7561462E-02  0.1125453E+00
         25   -1    0    0    0    0  0.00000000000E+00  0.00000000000E+00  0.99999998245E-14  0.12509000000E+03  0.12509000000E+03 0.  0.
        -13    1    3    3    0    0  0.73050505168E+00 -0.37048835407E+02  0.16284082008E+02  0.40476318181E+02  0.10566000000E+00 0. -1.
         23    2    1    0    0    0  0.26463282717E+02  0.10305070095E+02  0.30491511970E+00  0.96689422980E+02  0.92424302763E+02 0.  0.
         13    1    3    3    0    0  0.25732777666E+02  0.47353905502E+02 -0.15979166888E+02  0.56213104799E+02  0.10566000000E+00 0.  1.
         22    1    1    0    0    0 -0.26463282717E+02 -0.10305070095E+02 -0.30491511970E+00  0.28400577020E+02  0.00000000000E+00 0.  1.
</event>
<event>
 5    1  0.1261010E-009  0.9118800E+02  0.7561462E-02  0.1125453E+00
         25   -1    0    0    0    0  0.00000000000E+00  0.00000000000E+00  0.99999998245E-14  0.12509000000E+03  0.12509000000E+03 0.  0.
        -13    1    3    3    0    0 -0.13837207040E+02 -0.39445037268E+02  0.51613329812E+01  0.42119232969E+02  0.10566000000E+00 0. -1.
         23    2    1    0    0    0  0.25877669281E+02 -0.17619824747E+01 -0.70484360676E+01  0.98211778321E+02  0.94462239018E+02 0.  0.
         13    1    3    3    0    0  0.39714876321E+02  0.37683054793E+02 -0.12209769049E+02  0.56092545351E+02  0.10566000000E+00 0.  1.
         22    1    1    0    0    0 -0.25877669281E+02  0.17619824747E+01  0.70484360676E+01  0.26878221679E+02  0.00000000000E+00 0.  1.
</event>
<event>
 5    1  0.1261010E-009  0.9118800E+02  0.7561462E-02  0.1125453E+00
         25   -1    0    0    0    0  0.00000000000E+00  0.00000000000E+00  0.99999998245E-14  0.12509000000E+03  0.12509000000E+03 0.  0.
        -13    1    3    3    0    0  0.26218387327E+02 -0.24403697467E+02 -0.67138012119E+01  0.36442153817E+02  0.10566000000E+00 0.  1.
         23    2    1    0    0    0 -0.65693000093E+01  0.26774109848E+02 -0.34062554201E+01  0.97312108849E+02  0.93263257996E+02 0.  0.
         13    1    3    3    0    0 -0.32787687336E+02  0.51177807315E+02  0.33075457917E+01  0.60869955032E+02  0.10566000000E+00 0. -1.
         22    1    1    0    0    0  0.65693000093E+01 -0.26774109848E+02  0.34062554201E+01  0.27777891151E+02  0.00000000000E+00 0. -1.
</event>
<event>
 5    1  0.1261010E-009  0.9118800E+02  0.7561462E-02  0.1125453E+00
         25   -1    0    0    0    0  0.00000000000E+00  0.00000000000E+00  0.99999998245E-14  0.12509000000E+03  0.12509000000E+03 0.  0.
        -13    1    3    3    0    0  0.49040334183E+02  0.19247489812E+02  0.13435454406E+02  0.54368583207E+02  0.10566000000E+00 0.  1.
         23    2    1    0    0    0  0.80585974096E+01  0.25996933590E+02  0.10184699000E+02  0.96029551931E+02  0.91526855086E+02 0.  0.
         13    1    3    3    0    0 -0.40981736773E+02  0.67494437777E+01 -0.32507554055E+01  0.41660968724E+02  0.10566000000E+00 0. -1.
         22    1    1    0    0    0 -0.80585974096E+01 -0.25996933590E+02 -0.10184699000E+02  0.29060448069E+02  0.00000000000E+00 0.  1.
</event>
<event>
 5    1  0.1261010E-009  0.9118800E+02  0.7561462E-02  0.1125453E+00
         25   -1    0    0    0    0  0.00000000000E+00  0.00000000000E+00  0.99999998245E-14  0.12509000000E+03  0.12509000000E+03 0.  0.
        -13    1    3    3    0    0 -0.16213037620E+02 -0.56004958260E+01  0.46346620751E+02  0.49419111297E+02  0.10566000000E+00 0.  1.
         23    2    1    0    0    0 -0.25412041886E+02  0.10046421122E+02  0.15880771154E+01  0.97718035528E+02  0.93806130014E+02 0.  0.
         13    1    3    3    0    0 -0.91990042657E+01  0.15646916948E+02 -0.44758543635E+02  0.48298924230E+02  0.10566000000E+00 0. -1.
         22    1    1    0    0    0  0.25412041886E+02 -0.10046421122E+02 -0.15880771154E+01  0.27371964472E+02  0.00000000000E+00 0.  1.
</event>
<event>
 5    1  0.1261010E-009  0.9118800E+02  0.7561462E-02  0.1125453E+00
         25   -1    0    0    0    0  0.00000000000E+00  0.00000000000E+00  0.99999998245E-14  0.12509000000E+03  0.12509000000E+03 0.  0.
        -13    1    3    3    0    0 -0.37809955932E+02 -0.70788842455E+01  0.36640203818E+02  0.53124561829E+02  0.10566000000E+00 0. -1.
         23    2    1    0    0    0 -0.21577725031E+02  0.18771439482E+02  0.70572255880E+01  0.95632070834E+02  0.90981994819E+02 0.  0.
         13    1    3    3    0    0  0.16232230901E+02  0.25850323727E+02 -0.29582978230E+02  0.42507509005E+02  0.10566000000E+00 0.  1.
         22    1    1    0    0    0  0.21577725031E+02 -0.18771439482E+02 -0.70572255880E+01  0.29457929166E+02  0.00000000000E+00 0. -1.
</event>
<event>
 5    1  0.1261010E-009  0.9118800E+02  0.7561462E-02  0.1125453E+00
         25   -1    0    0    0    0  0.00000000000E+00  0.00000000000E+00  0.99999998245E-14  0.12509000000E+03  0.12509000000E+03 0.  0.
        -13    1    3    3    0    0  0.48624400041E+01 -0.49005647035E+02 -0.13796252030E+02  0.51142394335E+02  0.10566000000E+00 0. -1.
         23    2    1    0    0    0  0.66026286796E+01 -0.66441513028E+01 -0.27769678931E+02  0.95783097742E+02  0.91189403404E+02 0.  0.
         13    1    3    3    0    0  0.17401886755E+01  0.42361495733E+02 -0.13973426901E+02  0.44640703408E+02  0.10566000000E+00 0.  1.
         22    1    1    0    0    0 -0.66026286796E+01  0.66441513028E+01  0.27769678931E+02  0.29306902258E+02  0.00000000000E+00 0. -1.
</event>
<event>
 5    1  0.1261010E-009  0.9118800E+02  0.7561462E-02  0.1125453E+00
         25   -1    0    0    0    0  0.00000000000E+00  0.00000000000E+00  0.99999998245E-14  0.12509000000E+03  0.12509000000E+03 0.  0.
        -13    1    3    3    0    0 -0.37229650331E+02  0.16243647606E+02  0.47437552557E+02  0.62451865528E+02  0.10566000000E+00 0.  1.
         23    2    1    0    0    0 -0.18214363837E+02  0.59130780438E+01  0.19943681286E+02  0.97440805343E+02  0.93435713626E+02 0.  0.
         13    1    3    3    0    0  0.19015286494E+02 -0.10330569562E+02 -0.27493871271E+02  0.34988939815E+02  0.10566000000E+00 0. -1.
         22    1    1    0    0    0  0.18214363837E+02 -0.59130780438E+01 -0.19943681286E+02  0.27649194657E+02  0.00000000000E+00 0.  1.
</event>
<event>
 5    1  0.1261010E-009  0.9118800E+02  0.7561462E-02  0.1125453E+00
         25   -1    0    0    0    0  0.00000000000E+00  0.00000000000E+00  0.99999998245E-14  0.12509000000E+03  0.12509000000E+03 0.  0.
        -13    1    3    3    0    0 -0.33161259713E+02  0.19937206768E+02  0.10098134548E+02  0.39989309132E+02  0.10566000000E+00 0.  1.
         23    2    1    0    0    0  0.47578045786E+01 -0.20516080212E+02  0.19689046022E+02  0.96259377652E+02  0.91840421390E+02 0.  0.
         13    1    3    3    0    0  0.37919064292E+02 -0.40453286981E+02  0.95909114742E+01  0.56270068520E+02  0.10566000000E+00 0. -1.
         22    1    1    0    0    0 -0.47578045786E+01  0.20516080212E+02 -0.19689046022E+02  0.28830622348E+02  0.00000000000E+00 0. -1.
</event>
<event>
 5    1  0.1261010E-009  0.9118800E+02  0.7561462E-02  0.1125453E+00
         25   -1    0    0    0    0  0.00000000000E+00  0.00000000000E+00  0.99999998245E-14  0.12509000000E+03  0.12509000000E+03 0.  0.
        -13    1    3    3    0    0  0.33066052136E+02  0.78215789355E+01 -0.51743437911E+02  0.61902628634E+02  0.10566000000E+00 0.  1.
         23    2    1    0    0    0  0.17012271779E+02 -0.68452902404E+00 -0.32702361416E+02  0.88220901648E+02  0.80147346022E+02 0.  0.
         13    1    3    3    0    0 -0.16053780357E+02 -0.85061079595E+01  0.19041076494E+02  0.26318273014E+02  0.10566000000E+00 0. -1.
         22    1    1    0    0    0 -0.17012271779E+02  0.68452902404E+00  0.32702361416E+02  0.36869098352E+02  0.00000000000E+00 0.  1.
</event>
<event>
 5    1  0.1261010E-009  0.9118800E+02  0.7561462E-02  0.1125453E+00
         25   -1    0    0    0    0  0.00000000000E+00  0.00000000000E+00  0.99999998245E-14  0.12509000000E+03  0.12509000000E+03 0.  0.
        -13    1    3    3    0    0  0.32030763886E+02  0.13090421759E+02  0.19819473251E+02  0.39876705744E+02  0.10566000000E+00 0.  1.
         23    2    1    0    0    0  0.13751596545E+02 -0.21011071057E+02 -0.18165121430E+02  0.94097369407E+02  0.88846900780E+02 0.  0.
         13    1    3    3    0    0 -0.18279167341E+02 -0.34101492816E+02 -0.37984594682E+02  0.54220663664E+02  0.10566000000E+00 0. -1.
         22    1    1    0    0    0 -0.13751596545E+02  0.21011071057E+02  0.18165121430E+02  0.30992630593E+02  0.00000000000E+00 0. -1.
</event>
<event>
 5    1  0.1261010E-009  0.9118800E+02  0.7561462E-02  0.1125453E+00
         25   -1    0    0    0    0  0.00000000000E+00  0.00000000000E+00  0.99999998245E-14  0.12509000000E+03  0.12509000000E+03 0.  0.
        -13    1    3    3    0    0 -0.41811018978E+01  0.15245446845E+02  0.32091665293E+02  0.35774172358E+02  0.10566000000E+00 0. -1.
         23    2    1    0    0    0 -0.11397051950E+02 -0.27356722158E+02 -0.76524605179E+01  0.94482105718E+02  0.89386940369E+02 0.  0.
         13    1    3    3    0    0 -0.72159500521E+01 -0.42602169003E+02 -0.39744125811E+02  0.58707933360E+02  0.10566000000E+00 0.  1.
         22    1    1    0    0    0  0.11397051950E+02  0.27356722158E+02  0.76524605179E+01  0.30607894282E+02  0.00000000000E+00 0.  1.
</event>
<event>
 5    1  0.1261010E-009  0.9118800E+02  0.7561462E-02  0.1125453E+00
         25   -1    0    0    0    0  0.00000000000E+00  0.00000000000E+00  0.99999998245E-14  0.12509000000E+03  0.12509000000E+03 0.  0.
        -13    1    3    3    0    0  0.36916590034E+02  0.24272858743E+02  0.12725859019E+02  0.45977874495E+02  0.10566000000E+00 0.  1.
         23    2    1    0    0    0 -0.72278460464E+01  0.30547563572E+02  0.14303014747E+02  0.90594034591E+02  0.83769370739E+02 0.  0.
         13    1    3    3    0    0 -0.44144436080E+02  0.62747048288E+01  0.15771557275E+01  0.44616160096E+02  0.10566000000E+00 0. -1.
         22    1    1    0    0    0  0.72278460464E+01 -0.30547563572E+02 -0.14303014747E+02  0.34495965409E+02  0.00000000000E+00 0. -1.
</event>
<event>
 5    1  0.1261010E-009  0.9118800E+02  0.7561462E-02  0.1125453E+00
         25   -1    0    0    0    0  0.00000000000E+00  0.00000000000E+00  0.99999998245E-14  0.12509000000E+03  0.12509000000E+03 0.  0.
        -13    1    3    3    0    0  0.32064347746E+01 -0.73756381473E+01  0.56037059379E+02  0.56611345594E+02  0.10566000000E+00 0. -1.
         23    2    1    0    0    0 -0.12902065587E+02  0.94777369593E+01  0.24276202868E+02  0.96010371048E+02  0.91500636768E+02 0.  0.
         13    1    3    3    0    0 -0.16108500362E+02  0.16853375107E+02 -0.31760856512E+02  0.39399025455E+02  0.10566000000E+00 0.  1.
         22    1    1    0    0    0  0.12902065587E+02 -0.94777369593E+01 -0.24276202868E+02  0.29079628952E+02  0.00000000000E+00 0. -1.
</event>
<event>
 5    1  0.1261010E-009  0.9118800E+02  0.7561462E-02  0.1125453E+00
         25   -1    0    0    0    0  0.00000000000E+00  0.00000000000E+00  0.99999998245E-14  0.12509000000E+03  0.12509000000E+03 0.  0.
        -13    1    3    3    0    0  0.23440805344E+02 -0.45656216271E+02  0.27192731014E+02  0.58081126224E+02  0.10566000000E+00 0. -1.
         23    2    1    0    0    0  0.97284670662E+01 -0.10722876185E+02  0.25643602207E+02  0.95641443512E+02  0.90994880283E+02 0.  0.
         13    1    3    3    0    0 -0.13712338278E+02  0.34933340087E+02 -0.15491288078E+01  0.37560317288E+02  0.10566000000E+00 0.  1.
         22    1    1    0    0    0 -0.97284670662E+01  0.10722876185E+02 -0.25643602207E+02  0.29448556488E+02  0.00000000000E+00 0. -1.
</event>
<event>
 5    1  0.1261010E-009  0.9118800E+02  0.7561462E-02  0.1125453E+00
         25   -1    0    0    0    0  0.00000000000E+00  0.00000000000E+00  0.99999998245E-14  0.12509000000E+03  0.12509000000E+03 0.  0.
        -13    1    3    3    0    0  0.30987868147E+02  0.46185096846E+02  0.23504384972E+02  0.60380281715E+02  0.10566000000E+00 0. -1.
         23    2    1    0    0    0  0.30904427990E+01  0.23342174929E+02  0.45747590886E+01  0.10110382924E+03  0.98217350293E+02 0.  0.
         13    1    3    3    0    0 -0.27897425348E+02 -0.22842921917E+02 -0.18929625884E+02  0.40723547523E+02  0.10566000000E+00 0.  1.
         22    1    1    0    0    0 -0.30904427990E+01 -0.23342174929E+02 -0.45747590886E+01  0.23986170762E+02  0.00000000000E+00 0. -1.
</event>
<event>
 5    1  0.1261010E-009  0.9118800E+02  0.7561462E-02  0.1125453E+00
         25   -1    0    0    0    0  0.00000000000E+00  0.00000000000E+00  0.99999998245E-14  0.12509000000E+03  0.12509000000E+03 0.  0.
        -13    1    3    3    0    0 -0.80548331392E+01 -0.19327224301E+02 -0.30607458877E+02  0.37084358415E+02  0.10566000000E+00 0.  1.
         23    2    1    0    0    0  0.27385031415E+02 -0.15420038394E+01  0.11878906677E+02  0.95199765052E+02  0.90385668779E+02 0.  0.
         13    1    3    3    0    0  0.35439864554E+02  0.17785220462E+02  0.42486365555E+02  0.58115406637E+02  0.10566000000E+00 0. -1.
         22    1    1    0    0    0 -0.27385031415E+02  0.15420038394E+01 -0.11878906677E+02  0.29890234948E+02  0.00000000000E+00 0. -1.
</event>
<event>
 5    1  0.1261010E-009  0.9118800E+02  0.7561462E-02  0.1125453E+00
         25   -1    0    0    0    0  0.00000000000E+00  0.00000000000E+00  0.99999998245E-14  0.12509000000E+03  0.12509000000E+03 0.  0.
        -13    1    3    3    0    0 -0.22684184070E+02 -0.26677875278E+02 -0.21579076965E+01  0.35084882299E+02  0.10566000000E+00 0. -1.
         23    2    1    0    0    0  0.18816076732E+02  0.16040527026E+02  0.13840970007E+02  0.96754232821E+02  0.92511976885E+02 0.  0.
         13    1    3    3    0    0  0.41500260802E+02  0.42718402304E+02  0.15998877704E+02  0.61669350522E+02  0.10566000000E+00 0.  1.
         22    1    1    0    0    0 -0.18816076732E+02 -0.16040527026E+02 -0.13840970007E+02  0.28335767179E+02  0.00000000000E+00 0.  1.
</event>
<event>
 5    1  0.1261010E-009  0.9118800E+02  0.7561462E-02  0.1125453E+00
         25   -1    0    0    0    0  0.00000000000E+00  0.00000000000E+00  0.99999998245E-14  0.12509000000E+03  0.12509000000E+03 0.  0.
        -13    1    3    3    0    0 -0.32869377515E+02 -0.44123578307E+01  0.48880516947E+02  0.59069289659E+02  0.10566000000E+00 0. -1.
         23    2    1    0    0    0 -0.15489198260E+01 -0.35706669996E+00  0.28256081407E+02  0.96789244079E+02  0.92559305224E+02 0.  0.
         13    1    3    3    0    0  0.31320457689E+02  0.40552911307E+01 -0.20624435540E+02  0.37719954419E+02  0.10566000000E+00 0.  1.
         22    1    1    0    0    0  0.15489198260E+01  0.35706669996E+00 -0.28256081407E+02  0.28300755921E+02  0.00000000000E+00 0. -1.
</event>
<event>
 5    1  0.1261010E-009  0.9118800E+02  0.7561462E-02  0.1125453E+00
         25   -1    0    0    0    0  0.00000000000E+00  0.00000000000E+00  0.99999998245E-14  0.12509000000E+03  0.12509000000E+03 0.  0.
        -13    1    3    3    0    0  0.55417066788E+02  0.12009373105E+01  0.16403499601E+02  0.57806396749E+02  0.10566000000E+00 0. -1.
         23    2    1    0    0    0  0.26152424654E+02 -0.14329463325E+02 -0.10453510194E+01  0.95250837927E+02  0.90456323895E+02 0.  0.
         13    1    3    3    0    0 -0.29264642135E+02 -0.15530400635E+02 -0.17448850621E+02  0.37444441179E+02  0.10566000000E+00 0.  1.
         22    1    1    0    0    0 -0.26152424654E+02  0.14329463325E+02  0.10453510194E+01  0.29839162073E+02  0.00000000000E+00 0. -1.
</event>
<event>
 5    1  0.1261010E-009  0.9118800E+02  0.7561462E-02  0.1125453E+00
         25   -1    0    0    0    0  0.00000000000E+00  0.00000000000E+00  0.99999998245E-14  0.12509000000E+03  0.12509000000E+03 0.  0.
        -13    1    3    3    0    0  0.25740567845E+02  0.80149153507E+01  0.20440893187E+02  0.33832779658E+02  0.10566000000E+00 0.  1.
         23    2    1    0    0    0 -0.25486100190E+02 -0.15558022926E+01 -0.13680141917E+02  0.96122637218E+02  0.91653986707E+02 0.  0.
         13    1    3    3    0    0 -0.51226668035E+02 -0.95707176433E+01 -0.34121035104E+02  0.62289857560E+02  0.10566000000E+00 0. -1.
         22    1    1    0    0    0  0.25486100190E+02  0.15558022926E+01  0.13680141917E+02  0.28967362782E+02  0.00000000000E+00 0. -1.
</event>
<event>
 5    1  0.1261010E-009  0.9118800E+02  0.7561462E-02  0.1125453E+00
         25   -1    0    0    0    0  0.00000000000E+00  0.00000000000E+00  0.99999998245E-14  0.12509000000E+03  0.12509000000E+03 0.  0.
        -13    1    3    3    0    0  0.48885963270E+02 -0.30300237172E+02 -0.96563493431E+01  0.58319791017E+02  0.10566000000E+00 0. -1.
         23    2    1    0    0    0  0.25490981676E+02 -0.15272868836E+02  0.11466037465E+02  0.93238458680E+02  0.87629273035E+02 0.  0.
         13    1    3    3    0    0 -0.23394981594E+02  0.15027368336E+02  0.21122386808E+02  0.34918667664E+02  0.10566000000E+00 0.  1.
         22    1    1    0    0    0 -0.25490981676E+02  0.15272868836E+02 -0.11466037465E+02  0.31851541320E+02  0.00000000000E+00 0. -1.
</event>
<event>
 5    1  0.1261010E-009  0.9118800E+02  0.7561462E-02  0.1125453E+00
         25   -1    0    0    0    0  0.00000000000E+00  0.00000000000E+00  0.99999998245E-14  0.12509000000E+03  0.12509000000E+03 0.  0.
        -13    1    3    3    0    0  0.19668528925E+02 -0.13805216352E+02  0.15672470977E+02  0.28689240825E+02  0.10566000000E+00 0.  1.
         23    2    1    0    0    0  0.19150151072E+02  0.14241995441E+02 -0.32700012213E+02  0.84607244178E+02  0.74293554555E+02 0.  0.
         13    1    3    3    0    0 -0.51837785266E+00  0.28047211793E+02 -0.48372483190E+02  0.55918003352E+02  0.10566000000E+00 0. -1.
         22    1    1    0    0    0 -0.19150151072E+02 -0.14241995441E+02  0.32700012213E+02  0.40482755822E+02  0.00000000000E+00 0. -1.
</event>
<event>
 5    1  0.1261010E-009  0.9118800E+02  0.7561462E-02  0.1125453E+00
         25   -1    0    0    0    0  0.00000000000E+00  0.00000000000E+00  0.99999998245E-14  0.12509000000E+03  0.12509000000E+03 0.  0.
        -13    1    3    3    0    0 -0.37506192196E+02  0.10154204331E+02  0.16719340907E+02  0.42300943761E+02  0.10566000000E+00 0.  1.
         23    2    1    0    0    0 -0.41026077776E+01 -0.14851273157E+02 -0.21334394125E+02  0.98773691793E+02  0.95203435405E+02 0.  0.
         13    1    3    3    0    0  0.33403584419E+02 -0.25005477488E+02 -0.38053735032E+02  0.56472748032E+02  0.10566000000E+00 0. -1.
         22    1    1    0    0    0  0.41026077776E+01  0.14851273157E+02  0.21334394125E+02  0.26316308207E+02  0.00000000000E+00 0.  1.
</event>
<event>
 5    1  0.1261010E-009  0.9118800E+02  0.7561462E-02  0.1125453E+00
         25   -1    0    0    0    0  0.00000000000E+00  0.00000000000E+00  0.99999998245E-14  0.12509000000E+03  0.12509000000E+03 0.  0.
        -13    1    3    3    0    0  0.36631952943E+01 -0.27034342181E+02  0.40210486553E+02  0.48591861971E+02  0.10566000000E+00 0.  1.
         23    2    1    0    0    0 -0.40171422198E+01 -0.28124440307E+02 -0.65031397179E+01  0.95945319518E+02  0.91411661932E+02 0.  0.
         13    1    3    3    0    0 -0.76803375141E+01 -0.10900981263E+01 -0.46713626271E+02  0.47353457548E+02  0.10566000000E+00 0. -1.
         22    1    1    0    0    0  0.40171422198E+01  0.28124440307E+02  0.65031397179E+01  0.29144680482E+02  0.00000000000E+00 0.  1.
</event>
<event>
 5    1  0.1261010E-009  0.9118800E+02  0.7561462E-02  0.1125453E+00
         25   -1    0    0    0    0  0.00000000000E+00  0.00000000000E+00  0.99999998245E-14  0.12509000000E+03  0.12509000000E+03 0.  0.
        -13    1    3    3    0    0  0.40144365653E+02 -0.14391426021E+01 -0.16910786666E+02  0.43584711710E+02  0.10566000000E+00 0.  1.
         23    2    1    0    0    0  0.11561870337E+02 -0.27043292984E+01  0.26771942948E+02  0.95803020438E+02  0.91216728472E+02 0.  0.
         13    1    3    3    0    0 -0.28582495316E+02 -0.12651866963E+01  0.43682729614E+02  0.52218308728E+02  0.10566000000E+00 0. -1.
         22    1    1    0    0    0 -0.11561870337E+02  0.27043292984E+01 -0.26771942948E+02  0.29286979562E+02  0.00000000000E+00 0. -1.
</event>
<event>
 5    1  0.1261010E-009  0.9118800E+02  0.7561462E-02  0.1125453E+00
         25   -1    0    0    0    0  0.00000000000E+00  0.00000000000E+00  0.99999998245E-14  0.12509000000E+03  0.12509000000E+03 0.  0.
        -13    1    3    3    0    0  0.14163536911E+02  0.33387014823E+02  0.39370254189E+02  0.53528745694E+02  0.10566000000E+00 0. -1.
         23    2    1    0    0    0 -0.16184194309E+02  0.20558223480E+02  0.12263577916E+02  0.96194255653E+02  0.91751679980E+02 0.  0.
         13    1    3    3    0    0 -0.30347731219E+02 -0.12828791343E+02 -0.27106676273E+02  0.42665509959E+02  0.10566000000E+00 0.  1.
         22    1    1    0    0    0  0.16184194309E+02 -0.20558223480E+02 -0.12263577916E+02  0.28895744347E+02  0.00000000000E+00 0. -1.
</event>
<event>
 5    1  0.1261010E-009  0.9118800E+02  0.7561462E-02  0.1125453E+00
         25   -1    0    0    0    0  0.00000000000E+00  0.00000000000E+00  0.99999998245E-14  0.12509000000E+03  0.12509000000E+03 0.  0.
        -13    1    3    3    0    0  0.38574000696E+02  0.12903509571E+02 -0.17995875966E+02  0.44478273402E+02  0.10566000000E+00 0.  1.
         23    2    1    0    0    0  0.13119951261E+02 -0.27702096594E+02 -0.68050800910E+01  0.93691777250E+02  0.88274009382E+02 0.  0.
         13    1    3    3    0    0 -0.25454049436E+02 -0.40605606165E+02  0.11190795875E+02  0.49213503849E+02  0.10566000000E+00 0. -1.
         22    1    1    0    0    0 -0.13119951261E+02  0.27702096594E+02  0.68050800910E+01  0.31398222750E+02  0.00000000000E+00 0. -1.
</event>
<event>
 5    1  0.1261010E-009  0.9118800E+02  0.7561462E-02  0.1125453E+00
         25   -1    0    0    0    0  0.00000000000E+00  0.00000000000E+00  0.99999998245E-14  0.12509000000E+03  0.12509000000E+03 0.  0.
        -13    1    3    3    0    0 -0.34986844075E+02 -0.44449861264E+02  0.82687330293E+00  0.56573530102E+02  0.10566000000E+00 0. -1.
         23    2    1    0    0    0  0.18800153357E+01 -0.26804754096E+02  0.53396930302E+01  0.97693985300E+02  0.93774053673E+02 0.  0.
         13    1    3    3    0    0  0.36866859411E+02  0.17645107168E+02  0.45128197272E+01  0.41120455198E+02  0.10566000000E+00 0.  1.
         22    1    1    0    0    0 -0.18800153357E+01  0.26804754096E+02 -0.53396930302E+01  0.27396014700E+02  0.00000000000E+00 0. -1.
</event>
<event>
 5    1  0.1261010E-009  0.9118800E+02  0.7561462E-02  0.1125453E+00
         25   -1    0    0    0    0  0.00000000000E+00  0.00000000000E+00  0.99999998245E-14  0.12509000000E+03  0.12509000000E+03 0.  0.
        -13    1    3    3    0    0  0.19845748312E+02 -0.26676180456E+02 -0.33730553589E+02  0.47362788550E+02  0.10566000000E+00 0. -1.
         23    2    1    0    0    0  0.21000656491E+02  0.16210046416E+02 -0.80365331896E+01  0.97370349144E+02  0.93341340514E+02 0.  0.
         13    1    3    3    0    0  0.11549081791E+01  0.42886226872E+02  0.25694020400E+02  0.50007560594E+02  0.10566000000E+00 0.  1.
         22    1    1    0    0    0 -0.21000656491E+02 -0.16210046416E+02  0.80365331896E+01  0.27719650856E+02  0.00000000000E+00 0.  1.
</event>
<event>
 5    1  0.1261010E-009  0.9118800E+02  0.7561462E-02  0.1125453E+00
         25   -1    0    0    0    0  0.00000000000E+00  0.00000000000E+00  0.99999998245E-14  0.12509000000E+03  0.12509000000E+03 0.  0.
        -13    1    3    3    0    0 -0.22862121528E+02 -0.10519686897E+02 -0.32623489003E+02  0.41202470944E+02  0.10566000000E+00 0.  1.
         23    2    1    0    0    0  0.21695161984E+01 -0.25919673218E+02  0.13416518352E+02  0.95823308609E+02  0.91244546401E+02 0.  0.
         13    1    3    3    0    0  0.25031637726E+02 -0.15399986321E+02  0.46040007355E+02  0.54620837665E+02  0.10566000000E+00 0. -1.
         22    1    1    0    0    0 -0.21695161984E+01  0.25919673218E+02 -0.13416518352E+02  0.29266691391E+02  0.00000000000E+00 0. -1.
</event>
<event>
 5    1  0.1261010E-009  0.9118800E+02  0.7561462E-02  0.1125453E+00
         25   -1    0    0    0    0  0.00000000000E+00  0.00000000000E+00  0.99999998245E-14  0.12509000000E+03  0.12509000000E+03 0.  0.
        -13    1    3    3    0    0 -0.34171369809E+02  0.30549382963E+00 -0.25431768557E+02  0.42597674315E+02  0.10566000000E+00 0.  1.
         23    2    1    0    0    0  0.14412935315E+02 -0.18173200516E+02 -0.19257321867E+02  0.94942987430E+02  0.90029597884E+02 0.  0.
         13    1    3    3    0    0  0.48584305124E+02 -0.18478694346E+02  0.61744466893E+01  0.52345313115E+02  0.10566000000E+00 0. -1.
         22    1    1    0    0    0 -0.14412935315E+02  0.18173200516E+02  0.19257321867E+02  0.30147012570E+02  0.00000000000E+00 0. -1.
</event>
<event>
 5    1  0.1261010E-009  0.9118800E+02  0.7561462E-02  0.1125453E+00
         25   -1    0    0    0    0  0.00000000000E+00  0.00000000000E+00  0.99999998245E-14  0.12509000000E+03  0.12509000000E+03 0.  0.
        -13    1    3    3    0    0 -0.11881279848E+02 -0.28623005678E+02  0.39905593552E+02  0.50526318148E+02  0.10566000000E+00 0. -1.
         23    2    1    0    0    0 -0.28818012058E+02 -0.32235846389E+01  0.73114788920E+01  0.95184698790E+02  0.90364815295E+02 0.  0.
         13    1    3    3    0    0 -0.16936732210E+02  0.25399421039E+02 -0.32594114660E+02  0.44658380642E+02  0.10566000000E+00 0.  1.
         22    1    1    0    0    0  0.28818012058E+02  0.32235846389E+01 -0.73114788920E+01  0.29905301210E+02  0.00000000000E+00 0. -1.
</event>
<event>
 5    1  0.1261010E-009  0.9118800E+02  0.7561462E-02  0.1125453E+00
         25   -1    0    0    0    0  0.00000000000E+00  0.00000000000E+00  0.99999998245E-14  0.12509000000E+03  0.12509000000E+03 0.  0.
        -13    1    3    3    0    0 -0.32065400222E+02  0.24884372123E+00  0.48032151983E+02  0.57752494343E+02  0.10566000000E+00 0.  1.
         23    2    1    0    0    0 -0.18098498299E+02  0.16603277838E+02  0.18237156736E+02  0.94498851583E+02  0.89410371820E+02 0.  0.
         13    1    3    3    0    0  0.13966901923E+02  0.16354434117E+02 -0.29794995247E+02  0.36746357240E+02  0.10566000000E+00 0. -1.
         22    1    1    0    0    0  0.18098498299E+02 -0.16603277838E+02 -0.18237156736E+02  0.30591148417E+02  0.00000000000E+00 0.  1.
</event>
<event>
 5    1  0.1261010E-009  0.9118800E+02  0.7561462E-02  0.1125453E+00
         25   -1    0    0    0    0  0.00000000000E+00  0.00000000000E+00  0.99999998245E-14  0.12509000000E+03  0.12509000000E+03 0.  0.
        -13    1    3    3    0    0 -0.60194404397E+02  0.16624576925E+02 -0.24359185417E+01  0.62495501772E+02  0.10566000000E+00 0.  1.
         23    2    1    0    0    0 -0.35977073162E+02  0.10017014953E+02 -0.31798423366E+01  0.87609314586E+02  0.79187058431E+02 0.  0.
         13    1    3    3    0    0  0.24217331235E+02 -0.66075619719E+01 -0.74392379487E+00  0.25113812813E+02  0.10566000000E+00 0. -1.
         22    1    1    0    0    0  0.35977073162E+02 -0.10017014953E+02  0.31798423366E+01  0.37480685414E+02  0.00000000000E+00 0.  1.
</event>
<event>
 5    1  0.1261010E-009  0.9118800E+02  0.7561462E-02  0.1125453E+00
         25   -1    0    0    0    0  0.00000000000E+00  0.00000000000E+00  0.99999998245E-14  0.12509000000E+03  0.12509000000E+03 0.  0.
        -13    1    3    3    0    0  0.16656529845E+02  0.43304192075E+02 -0.95100238699E+01  0.47361849159E+02  0.10566000000E+00 0. -1.
         23    2    1    0    0    0 -0.22599344923E+02  0.18594337055E+02 -0.11139610062E+02  0.93775934888E+02  0.88393185769E+02 0.  0.
         13    1    3    3    0    0 -0.39255874768E+02 -0.24709855019E+02 -0.16295861922E+01  0.46414085729E+02  0.10566000000E+00 0.  1.
         22    1    1    0    0    0  0.22599344923E+02 -0.18594337055E+02  0.11139610062E+02  0.31314065112E+02  0.00000000000E+00 0.  1.
</event>
<event>
 5    1  0.1261010E-009  0.9118800E+02  0.7561462E-02  0.1125453E+00
         25   -1    0    0    0    0  0.00000000000E+00  0.00000000000E+00  0.99999998245E-14  0.12509000000E+03  0.12509000000E+03 0.  0.
        -13    1    3    3    0    0 -0.19017777267E+02 -0.38380964105E+02 -0.37606020212E+02  0.56999984018E+02  0.10566000000E+00 0.  1.
         23    2    1    0    0    0 -0.30254957677E+01 -0.34627498937E+01 -0.28168234519E+02  0.96548912120E+02  0.92233934830E+02 0.  0.
         13    1    3    3    0    0  0.15992281499E+02  0.34918214211E+02  0.94377856936E+01  0.39548928102E+02  0.10566000000E+00 0. -1.
         22    1    1    0    0    0  0.30254957677E+01  0.34627498937E+01  0.28168234519E+02  0.28541087880E+02  0.00000000000E+00 0.  1.
</event>
<event>
 5    1  0.1261010E-009  0.9118800E+02  0.7561462E-02  0.1125453E+00
         25   -1    0    0    0    0  0.00000000000E+00  0.00000000000E+00  0.99999998245E-14  0.12509000000E+03  0.12509000000E+03 0.  0.
        -13    1    3    3    0    0 -0.30292611126E+02  0.58777418248E+01  0.21996241622E+02  0.37895064946E+02  0.10566000000E+00 0. -1.
         23    2    1    0    0    0  0.69010197412E+01  0.23022673712E+02 -0.17939752543E+02  0.95098296153E+02  0.90245130792E+02 0.  0.
         13    1    3    3    0    0  0.37193630867E+02  0.17144931888E+02 -0.39935994165E+02  0.57203231207E+02  0.10566000000E+00 0.  1.
         22    1    1    0    0    0 -0.69010197412E+01 -0.23022673712E+02  0.17939752543E+02  0.29991703847E+02  0.00000000000E+00 0.  1.
</event>
<event>
 5    1  0.1261010E-009  0.9118800E+02  0.7561462E-02  0.1125453E+00
         25   -1    0    0    0    0  0.00000000000E+00  0.00000000000E+00  0.99999998245E-14  0.12509000000E+03  0.12509000000E+03 0.  0.
        -13    1    3    3    0    0 -0.58706781747E+02 -0.12200496515E+02  0.33276929302E+01  0.60053501501E+02  0.10566000000E+00 0.  1.
         23    2    1    0    0    0 -0.24011820215E+02 -0.15964378015E+02  0.77522864079E+01  0.95231553624E+02  0.90429652137E+02 0.  0.
         13    1    3    3    0    0  0.34694961532E+02 -0.37638814997E+01  0.44245934777E+01  0.35178052123E+02  0.10566000000E+00 0. -1.
         22    1    1    0    0    0  0.24011820215E+02  0.15964378015E+02 -0.77522864079E+01  0.29858446376E+02  0.00000000000E+00 0.  1.
</event>
<event>
 5    1  0.1261010E-009  0.9118800E+02  0.7561462E-02  0.1125453E+00
         25   -1    0    0    0    0  0.00000000000E+00  0.00000000000E+00  0.99999998245E-14  0.12509000000E+03  0.12509000000E+03 0.  0.
        -13    1    3    3    0    0  0.39590108779E+02 -0.26951255527E+02 -0.39183501023E+02  0.61879760860E+02  0.10566000000E+00 0. -1.
         23    2    1    0    0    0  0.15903210977E+02 -0.18181795705E+02 -0.16420987999E+02  0.95881462528E+02  0.91324236625E+02 0.  0.
         13    1    3    3    0    0 -0.23686897802E+02  0.87694598223E+01  0.22762513025E+02  0.34001701668E+02  0.10566000000E+00 0.  1.
         22    1    1    0    0    0 -0.15903210977E+02  0.18181795705E+02  0.16420987999E+02  0.29208537472E+02  0.00000000000E+00 0. -1.
</event>
<event>
 5    1  0.1261010E-009  0.9118800E+02  0.7561462E-02  0.1125453E+00
         25   -1    0    0    0    0  0.00000000000E+00  0.00000000000E+00  0.99999998245E-14  0.12509000000E+03  0.12509000000E+03 0.  0.
        -13    1    3    3    0    0  0.99263123629E+01 -0.42179166249E+02 -0.69132829019E+01  0.43879589641E+02  0.10566000000E+00 0. -1.
         23    2    1    0    0    0 -0.23090955975E+02 -0.25114935581E+02 -0.22542516091E+02  0.84198469474E+02  0.73602071934E+02 0.  0.
         13    1    3    3    0    0 -0.33017268338E+02  0.17064230668E+02 -0.15629233189E+02  0.40318879832E+02  0.10566000000E+00 0.  1.
         22    1    1    0    0    0  0.23090955975E+02  0.25114935581E+02  0.22542516091E+02  0.40891530526E+02  0.00000000000E+00 0. -1.
</event>
<event>
 5    1  0.1261010E-009  0.9118800E+02  0.7561462E-02  0.1125453E+00
         25   -1    0    0    0    0  0.00000000000E+00  0.00000000000E+00  0.99999998245E-14  0.12509000000E+03  0.12509000000E+03 0.  0.
        -13    1    3    3    0    0 -0.44307654425E+01  0.31657430332E+02 -0.24993304511E+02  0.40577099601E+02  0.10566000000E+00 0.  1.
         23    2    1    0    0    0  0.15652214988E+02 -0.19464527947E+02 -0.13521673702E+02  0.96687617319E+02  0.92421858891E+02 0.  0.
         13    1    3    3    0    0  0.20082980431E+02 -0.51121958278E+02  0.11471630809E+02  0.56110517718E+02  0.10566000000E+00 0. -1.
         22    1    1    0    0    0 -0.15652214988E+02  0.19464527947E+02  0.13521673702E+02  0.28402382681E+02  0.00000000000E+00 0. -1.
</event>
<event>
 5    1  0.1261010E-009  0.9118800E+02  0.7561462E-02  0.1125453E+00
         25   -1    0    0    0    0  0.00000000000E+00  0.00000000000E+00  0.99999998245E-14  0.12509000000E+03  0.12509000000E+03 0.  0.
        -13    1    3    3    0    0  0.16341598354E+02  0.12403836745E+01 -0.42205006743E+02  0.45275381242E+02  0.10566000000E+00 0. -1.
         23    2    1    0    0    0  0.32324190660E+02  0.83463568811E+01  0.79433112153E+00  0.91696199124E+02  0.85399338387E+02 0.  0.
         13    1    3    3    0    0  0.15982592306E+02  0.71059732066E+01  0.42999337864E+02  0.46420817882E+02  0.10566000000E+00 0.  1.
         22    1    1    0    0    0 -0.32324190660E+02 -0.83463568811E+01 -0.79433112153E+00  0.33393800876E+02  0.00000000000E+00 0.  1.
</event>
<event>
 5    1  0.1261010E-009  0.9118800E+02  0.7561462E-02  0.1125453E+00
         25   -1    0    0    0    0  0.00000000000E+00  0.00000000000E+00  0.99999998245E-14  0.12509000000E+03  0.12509000000E+03 0.  0.
        -13    1    3    3    0    0 -0.57490029111E+02  0.81011357915E+01 -0.49758834779E+01  0.58270939830E+02  0.10566000000E+00 0.  1.
         23    2    1    0    0    0 -0.25930676843E+02 -0.11423591604E+02  0.40576342826E+01  0.96465485286E+02  0.92120719758E+02 0.  0.
         13    1    3    3    0    0  0.31559352268E+02 -0.19524727395E+02  0.90335177605E+01  0.38194545456E+02  0.10566000000E+00 0. -1.
         22    1    1    0    0    0  0.25930676843E+02  0.11423591604E+02 -0.40576342826E+01  0.28624514714E+02  0.00000000000E+00 0.  1.
</event>
<event>
 5    1  0.1261010E-009  0.9118800E+02  0.7561462E-02  0.1125453E+00
         25   -1    0    0    0    0  0.00000000000E+00  0.00000000000E+00  0.99999998245E-14  0.12509000000E+03  0.12509000000E+03 0.  0.
        -13    1    3    3    0    0 -0.22765607332E+02 -0.31761410548E+02  0.34687843170E+02  0.52252442097E+02  0.10566000000E+00 0.  1.
         23    2    1    0    0    0 -0.27500442461E+02 -0.81727994017E+01 -0.22258623620E+01  0.96314603411E+02  0.91915610107E+02 0.  0.
         13    1    3    3    0    0 -0.47348351289E+01  0.23588611147E+02 -0.36913705532E+02  0.44062161314E+02  0.10566000000E+00 0. -1.
         22    1    1    0    0    0  0.27500442461E+02  0.81727994017E+01  0.22258623620E+01  0.28775396589E+02  0.00000000000E+00 0.  1.
</event>
<event>
 5    1  0.1261010E-009  0.9118800E+02  0.7561462E-02  0.1125453E+00
         25   -1    0    0    0    0  0.00000000000E+00  0.00000000000E+00  0.99999998245E-14  0.12509000000E+03  0.12509000000E+03 0.  0.
        -13    1    3    3    0    0 -0.63172885115E+01  0.11443818373E+02 -0.57179170040E+02  0.58654392534E+02  0.10566000000E+00 0. -1.
         23    2    1    0    0    0 -0.16685066814E+02 -0.17858595515E+01 -0.24635605755E+02  0.95282386546E+02  0.90499941248E+02 0.  0.
         13    1    3    3    0    0 -0.10367778302E+02 -0.13229677924E+02  0.32543564285E+02  0.36627994011E+02  0.10566000000E+00 0.  1.
         22    1    1    0    0    0  0.16685066814E+02  0.17858595515E+01  0.24635605755E+02  0.29807613454E+02  0.00000000000E+00 0. -1.
</event>
<event>
 5    1  0.1261010E-009  0.9118800E+02  0.7561462E-02  0.1125453E+00
         25   -1    0    0    0    0  0.00000000000E+00  0.00000000000E+00  0.99999998245E-14  0.12509000000E+03  0.12509000000E+03 0.  0.
        -13    1    3    3    0    0 -0.15553449535E+02 -0.18753390993E+02  0.55835110352E+02  0.60919374407E+02  0.10566000000E+00 0. -1.
         23    2    1    0    0    0 -0.13803941807E+02 -0.14206581532E+02  0.20520260755E+02  0.96568834707E+02  0.92260950391E+02 0.  0.
         13    1    3    3    0    0  0.17495077281E+01  0.45468094615E+01 -0.35314849597E+02  0.35649460299E+02  0.10566000000E+00 0.  1.
         22    1    1    0    0    0  0.13803941807E+02  0.14206581532E+02 -0.20520260755E+02  0.28521165293E+02  0.00000000000E+00 0. -1.
</event>
<event>
 5    1  0.1261010E-009  0.9118800E+02  0.7561462E-02  0.1125453E+00
         25   -1    0    0    0    0  0.00000000000E+00  0.00000000000E+00  0.99999998245E-14  0.12509000000E+03  0.12509000000E+03 0.  0.
        -13    1    3    3    0    0  0.31963103671E+02  0.77879578889E+00 -0.80012138609E+01  0.32958718216E+02  0.10566000000E+00 0.  1.
         23    2    1    0    0    0 -0.22361342798E+02  0.71388900687E+01  0.19860781385E+02  0.94341926233E+02  0.89190554461E+02 0.  0.
         13    1    3    3    0    0 -0.54324446469E+02  0.63600942798E+01  0.27861995246E+02  0.61383208017E+02  0.10566000000E+00 0. -1.
         22    1    1    0    0    0  0.22361342798E+02 -0.71388900687E+01 -0.19860781385E+02  0.30748073767E+02  0.00000000000E+00 0. -1.
</event>
<event>
 5    1  0.1261010E-009  0.9118800E+02  0.7561462E-02  0.1125453E+00
         25   -1    0    0    0    0  0.00000000000E+00  0.00000000000E+00  0.99999998245E-14  0.12509000000E+03  0.12509000000E+03 0.  0.
        -13    1    3    3    0    0 -0.11290113709E+02 -0.38152328147E+02  0.27647875370E+02  0.48450830613E+02  0.10566000000E+00 0.  1.
         23    2    1    0    0    0 -0.23042663435E+02 -0.14576381357E+02 -0.11385902265E+02  0.95542174326E+02  0.90858313174E+02 0.  0.
         13    1    3    3    0    0 -0.11752549727E+02  0.23575946790E+02 -0.39033777636E+02  0.47091343712E+02  0.10566000000E+00 0. -1.
         22    1    1    0    0    0  0.23042663435E+02  0.14576381357E+02  0.11385902265E+02  0.29547825674E+02  0.00000000000E+00 0.  1.
</event>
<event>
 5    1  0.1261010E-009  0.9118800E+02  0.7561462E-02  0.1125453E+00
         25   -1    0    0    0    0  0.00000000000E+00  0.00000000000E+00  0.99999998245E-14  0.12509000000E+03  0.12509000000E+03 0.  0.
        -13    1    3    3    0    0  0.45685311321E+02  0.44502480854E+01  0.94532662095E+01  0.46864995302E+02  0.10566000000E+00 0.  1.
         23    2    1    0    0    0  0.93194735674E+01 -0.27511613371E+02  0.61925003742E+01  0.95390024937E+02  0.90648598107E+02 0.  0.
         13    1    3    3    0    0 -0.36365837754E+02 -0.31961861456E+02 -0.32607658352E+01  0.48525029636E+02  0.10566000000E+00 0. -1.
         22    1    1    0    0    0 -0.93194735674E+01  0.27511613371E+02 -0.61925003742E+01  0.29699975063E+02  0.00000000000E+00 0. -1.
</event>
<event>
 5    1  0.1261010E-009  0.9118800E+02  0.7561462E-02  0.1125453E+00
         25   -1    0    0    0    0  0.00000000000E+00  0.00000000000E+00  0.99999998245E-14  0.12509000000E+03  0.12509000000E+03 0.  0.
        -13    1    3    3    0    0 -0.31910427569E+02  0.12214327214E+02  0.70023791498E+01  0.34878498459E+02  0.10566000000E+00 0.  1.
         23    2    1    0    0    0  0.24487115485E+02 -0.10545140868E+02 -0.74869571667E+01  0.97397521810E+02  0.93377748454E+02 0.  0.
         13    1    3    3    0    0  0.56397543054E+02 -0.22759468082E+02 -0.14489336317E+02  0.62519023351E+02  0.10566000000E+00 0. -1.
         22    1    1    0    0    0 -0.24487115485E+02  0.10545140868E+02  0.74869571667E+01  0.27692478190E+02  0.00000000000E+00 0. -1.
</event>
<event>
 5    1  0.1261010E-009  0.9118800E+02  0.7561462E-02  0.1125453E+00
         25   -1    0    0    0    0  0.00000000000E+00  0.00000000000E+00  0.99999998245E-14  0.12509000000E+03  0.12509000000E+03 0.  0.
        -13    1    3    3    0    0 -0.45300590631E+02  0.22634710092E+02  0.33865990425E+02  0.60921179273E+02  0.10566000000E+00 0. -1.
         23    2    1    0    0    0 -0.13928289793E+02  0.10761735493E+02  0.22889502314E+02  0.96215417344E+02  0.91780526318E+02 0.  0.
         13    1    3    3    0    0  0.31372300839E+02 -0.11872974599E+02 -0.10976488111E+02  0.35294238071E+02  0.10566000000E+00 0.  1.
         22    1    1    0    0    0  0.13928289793E+02 -0.10761735493E+02 -0.22889502314E+02  0.28874582656E+02  0.00000000000E+00 0. -1.
</event>
<event>
 5    1  0.1261010E-009  0.9118800E+02  0.7561462E-02  0.1125453E+00
         25   -1    0    0    0    0  0.00000000000E+00  0.00000000000E+00  0.99999998245E-14  0.12509000000E+03  0.12509000000E+03 0.  0.
        -13    1    3    3    0    0  0.12101437141E+02  0.10008481774E+02  0.52021638760E+02  0.54340376808E+02  0.10566000000E+00 0.  1.
         23    2    1    0    0    0  0.25888473390E+02  0.13086680117E+01  0.14182100911E+02  0.95542450987E+02  0.90858694069E+02 0.  0.
         13    1    3    3    0    0  0.13787036249E+02 -0.86998137628E+01 -0.37839537848E+02  0.41202074179E+02  0.10566000000E+00 0. -1.
         22    1    1    0    0    0 -0.25888473390E+02 -0.13086680117E+01 -0.14182100911E+02  0.29547549013E+02  0.00000000000E+00 0.  1.
</event>
<event>
 5    1  0.1261010E-009  0.9118800E+02  0.7561462E-02  0.1125453E+00
         25   -1    0    0    0    0  0.00000000000E+00  0.00000000000E+00  0.99999998245E-14  0.12509000000E+03  0.12509000000E+03 0.  0.
        -13    1    3    3    0    0  0.12942279685E+02  0.25240520220E+02  0.24079626614E+02  0.37207876133E+02  0.10566000000E+00 0.  1.
         23    2    1    0    0    0 -0.26114830890E+02 -0.13552375970E+02  0.69769538619E+01  0.94852123553E+02  0.89903260065E+02 0.  0.
         13    1    3    3    0    0 -0.39057110575E+02 -0.38792896191E+02 -0.17102672752E+02  0.57644247420E+02  0.10566000000E+00 0. -1.
         22    1    1    0    0    0  0.26114830890E+02  0.13552375970E+02 -0.69769538619E+01  0.30237876447E+02  0.00000000000E+00 0. -1.
</event>
<event>
 5    1  0.1261010E-009  0.9118800E+02  0.7561462E-02  0.1125453E+00
         25   -1    0    0    0    0  0.00000000000E+00  0.00000000000E+00  0.99999998245E-14  0.12509000000E+03  0.12509000000E+03 0.  0.
        -13    1    3    3    0    0 -0.24478628439E+02  0.21426341536E+02  0.52153805701E+02  0.61468056542E+02  0.10566000000E+00 0. -1.
         23    2    1    0    0    0 -0.61858482319E+01  0.49651628256E+01  0.28144597357E+02  0.95849002742E+02  0.91279764493E+02 0.  0.
         13    1    3    3    0    0  0.18292780207E+02 -0.16461178711E+02 -0.24009208344E+02  0.34380946200E+02  0.10566000000E+00 0.  1.
         22    1    1    0    0    0  0.61858482319E+01 -0.49651628256E+01 -0.28144597357E+02  0.29240997258E+02  0.00000000000E+00 0. -1.
</event>
<event>
 5    1  0.1261010E-009  0.9118800E+02  0.7561462E-02  0.1125453E+00
         25   -1    0    0    0    0  0.00000000000E+00  0.00000000000E+00  0.99999998245E-14  0.12509000000E+03  0.12509000000E+03 0.  0.
        -13    1    3    3    0    0  0.23882351299E+02 -0.16350887557E+02  0.36495241057E+02  0.46579308832E+02  0.10566000000E+00 0. -1.
         23    2    1    0    0    0  0.22766874718E+02  0.19490735899E+02  0.42202666375E+01  0.94824012146E+02  0.89864137778E+02 0.  0.
         13    1    3    3    0    0 -0.11154765809E+01  0.35841623456E+02 -0.32274974420E+02  0.48244703313E+02  0.10566000000E+00 0.  1.
         22    1    1    0    0    0 -0.22766874718E+02 -0.19490735899E+02 -0.42202666375E+01  0.30265987854E+02  0.00000000000E+00 0.  1.
</event>
<event>
 5    1  0.1261010E-009  0.9118800E+02  0.7561462E-02  0.1125453E+00
         25   -1    0    0    0    0  0.00000000000E+00  0.00000000000E+00  0.99999998245E-14  0.12509000000E+03  0.12509000000E+03 0.  0.
        -13    1    3    3    0    0  0.10723724031E+02 -0.25486487960E+01  0.50687775614E+02  0.51872493949E+02  0.10566000000E+00 0. -1.
         23    2    1    0    0    0 -0.19148789398E+02 -0.10572810287E+02  0.19790649101E+02  0.95592029822E+02  0.90926926270E+02 0.  0.
         13    1    3    3    0    0 -0.29872513429E+02 -0.80241614907E+01 -0.30897126513E+02  0.43719535873E+02  0.10566000000E+00 0.  1.
         22    1    1    0    0    0  0.19148789398E+02  0.10572810287E+02 -0.19790649101E+02  0.29497970178E+02  0.00000000000E+00 0. -1.
</event>
<event>
 5    1  0.1261010E-009  0.9118800E+02  0.7561462E-02  0.1125453E+00
         25   -1    0    0    0    0  0.00000000000E+00  0.00000000000E+00  0.99999998245E-14  0.12509000000E+03  0.12509000000E+03 0.  0.
        -13    1    3    3    0    0 -0.17129084973E+02 -0.29653524624E+02 -0.52332861524E+02  0.62541799095E+02  0.10566000000E+00 0. -1.
         23    2    1    0    0    0 -0.83386505033E+01 -0.14144980608E+02 -0.25858387346E+02  0.94458810589E+02  0.89354334720E+02 0.  0.
         13    1    3    3    0    0  0.87904344698E+01  0.15508544016E+02  0.26474474179E+02  0.31917011495E+02  0.10566000000E+00 0.  1.
         22    1    1    0    0    0  0.83386505033E+01  0.14144980608E+02  0.25858387346E+02  0.30631189411E+02  0.00000000000E+00 0. -1.
</event>
<event>
 5    1  0.1261010E-009  0.9118800E+02  0.7561462E-02  0.1125453E+00
         25   -1    0    0    0    0  0.00000000000E+00  0.00000000000E+00  0.99999998245E-14  0.12509000000E+03  0.12509000000E+03 0.  0.
        -13    1    3    3    0    0  0.18497099073E+02  0.10614451503E+02  0.32795177672E+02  0.39119612695E+02  0.10566000000E+00 0.  1.
         23    2    1    0    0    0 -0.63550172655E+01  0.16798691306E+02 -0.20249413013E+02  0.98023027480E+02  0.94211957389E+02 0.  0.
         13    1    3    3    0    0 -0.24852116338E+02  0.61842398027E+01 -0.53044590685E+02  0.58903414785E+02  0.10566000000E+00 0. -1.
         22    1    1    0    0    0  0.63550172655E+01 -0.16798691306E+02  0.20249413013E+02  0.27066972520E+02  0.00000000000E+00 0. -1.
</event>
<event>
 5    1  0.1261010E-009  0.9118800E+02  0.7561462E-02  0.1125453E+00
         25   -1    0    0    0    0  0.00000000000E+00  0.00000000000E+00  0.99999998245E-14  0.12509000000E+03  0.12509000000E+03 0.  0.
        -13    1    3    3    0    0  0.47709456930E+02 -0.31977714147E+02  0.15793305887E+02  0.59566820945E+02  0.10566000000E+00 0. -1.
         23    2    1    0    0    0  0.23061289338E+02 -0.18700170018E+01 -0.96573222355E+00  0.10193287003E+03  0.99267604611E+02 0.  0.
         13    1    3    3    0    0 -0.24648167592E+02  0.30107697145E+02 -0.16759038111E+02  0.42366049090E+02  0.10566000000E+00 0.  1.
         22    1    1    0    0    0 -0.23061289338E+02  0.18700170018E+01  0.96573222355E+00  0.23157129965E+02  0.00000000000E+00 0. -1.
</event>
<event>
 5    1  0.1261010E-009  0.9118800E+02  0.7561462E-02  0.1125453E+00
         25   -1    0    0    0    0  0.00000000000E+00  0.00000000000E+00  0.99999998245E-14  0.12509000000E+03  0.12509000000E+03 0.  0.
        -13    1    3    3    0    0  0.52694944184E+02 -0.26285418374E+02  0.77001916900E+01  0.59388420401E+02  0.10566000000E+00 0.  1.
         23    2    1    0    0    0  0.27161989038E+02 -0.27645157455E+01  0.13577334690E+02  0.94598030351E+02  0.89549020838E+02 0.  0.
         13    1    3    3    0    0 -0.25532955146E+02  0.23520902628E+02  0.58771430005E+01  0.35209609950E+02  0.10566000000E+00 0. -1.
         22    1    1    0    0    0 -0.27161989038E+02  0.27645157455E+01 -0.13577334690E+02  0.30491969649E+02  0.00000000000E+00 0.  1.
</event>
<event>
 5    1  0.1261010E-009  0.9118800E+02  0.7561462E-02  0.1125453E+00
         25   -1    0    0    0    0  0.00000000000E+00  0.00000000000E+00  0.99999998245E-14  0.12509000000E+03  0.12509000000E+03 0.  0.
        -13    1    3    3    0    0 -0.37119428045E+02 -0.58422453699E+01 -0.64651279704E+01  0.38128635080E+02  0.10566000000E+00 0. -1.
         23    2    1    0    0    0  0.49665059641E-01  0.31974460315E+02  0.58984826283E+01  0.92575992612E+02  0.86678450216E+02 0.  0.
         13    1    3    3    0    0  0.37169093105E+02  0.37816705685E+02  0.12363610599E+02  0.54447357532E+02  0.10566000000E+00 0.  1.
         22    1    1    0    0    0 -0.49665059641E-01 -0.31974460315E+02 -0.58984826283E+01  0.32514007388E+02  0.00000000000E+00 0.  1.
</event>
<event>
 5    1  0.1261010E-009  0.9118800E+02  0.7561462E-02  0.1125453E+00
         25   -1    0    0    0    0  0.00000000000E+00  0.00000000000E+00  0.99999998245E-14  0.12509000000E+03  0.12509000000E+03 0.  0.
        -13    1    3    3    0    0 -0.10038456751E+02 -0.30329642438E+02 -0.50533606152E+00  0.31951906875E+02  0.10566000000E+00 0. -1.
         23    2    1    0    0    0  0.12644567233E+02  0.25294755472E+02  0.13680127836E+02  0.93675741573E+02  0.88251282862E+02 0.  0.
         13    1    3    3    0    0  0.22683023983E+02  0.55624397910E+02  0.14185463898E+02  0.61723834699E+02  0.10566000000E+00 0.  1.
         22    1    1    0    0    0 -0.12644567233E+02 -0.25294755472E+02 -0.13680127836E+02  0.31414258427E+02  0.00000000000E+00 0.  1.
</event>
<event>
 5    1  0.1261010E-009  0.9118800E+02  0.7561462E-02  0.1125453E+00
         25   -1    0    0    0    0  0.00000000000E+00  0.00000000000E+00  0.99999998245E-14  0.12509000000E+03  0.12509000000E+03 0.  0.
        -13    1    3    3    0    0  0.12710267179E+02 -0.51063209093E+02 -0.20606702055E+02  0.56512384025E+02  0.10566000000E+00 0. -1.
         23    2    1    0    0    0  0.29417984193E+01 -0.83598134653E+01 -0.23058062554E+02  0.10038747163E+03  0.97300717122E+02 0.  0.
         13    1    3    3    0    0 -0.97684687600E+01  0.42703395627E+02 -0.24513604989E+01  0.43875087605E+02  0.10566000000E+00 0.  1.
         22    1    1    0    0    0 -0.29417984193E+01  0.83598134653E+01  0.23058062554E+02  0.24702528370E+02  0.00000000000E+00 0. -1.
</event>
<event>
 5    1  0.1261010E-009  0.9118800E+02  0.7561462E-02  0.1125453E+00
         25   -1    0    0    0    0  0.00000000000E+00  0.00000000000E+00  0.99999998245E-14  0.12509000000E+03  0.12509000000E+03 0.  0.
        -13    1    3    3    0    0 -0.14883605740E+02 -0.24635347384E+02 -0.16676122145E+02  0.33264489690E+02  0.10566000000E+00 0.  1.
         23    2    1    0    0    0  0.17009360217E+02  0.15384292338E+02  0.18718731837E+02  0.95486187621E+02  0.90781200252E+02 0.  0.
         13    1    3    3    0    0  0.31892965957E+02  0.40019639722E+02  0.35394853982E+02  0.62221697931E+02  0.10566000000E+00 0. -1.
         22    1    1    0    0    0 -0.17009360217E+02 -0.15384292338E+02 -0.18718731837E+02  0.29603812379E+02  0.00000000000E+00 0. -1.
</event>
<event>
 5    1  0.1261010E-009  0.9118800E+02  0.7561462E-02  0.1125453E+00
         25   -1    0    0    0    0  0.00000000000E+00  0.00000000000E+00  0.99999998245E-14  0.12509000000E+03  0.12509000000E+03 0.  0.
        -13    1    3    3    0    0  0.17940087355E+01 -0.42414283778E+02  0.20620025100E+02  0.47195196100E+02  0.10566000000E+00 0. -1.
         23    2    1    0    0    0  0.38960883972E+01  0.15364820685E-01  0.33326450767E+02  0.91536578988E+02  0.85165211391E+02 0.  0.
         13    1    3    3    0    0  0.21020796617E+01  0.42429648599E+02  0.12706425667E+02  0.44341382888E+02  0.10566000000E+00 0.  1.
         22    1    1    0    0    0 -0.38960883972E+01 -0.15364820685E-01 -0.33326450767E+02  0.33553421012E+02  0.00000000000E+00 0. -1.
</event>
<event>
 5    1  0.1261010E-009  0.9118800E+02  0.7561462E-02  0.1125453E+00
         25   -1    0    0    0    0  0.00000000000E+00  0.00000000000E+00  0.99999998245E-14  0.12509000000E+03  0.12509000000E+03 0.  0.
        -13    1    3    3    0    0  0.10925598763E+01  0.20176403011E+02 -0.10850540440E+02  0.22935263623E+02  0.10566000000E+00 0.  1.
         23    2    1    0    0    0  0.89240391306E+01 -0.39499119783E+02  0.22538952772E+01  0.84532645772E+02  0.74167844914E+02 0.  0.
         13    1    3    3    0    0  0.78314792543E+01 -0.59675522795E+02  0.13104435718E+02  0.61597382149E+02  0.10566000000E+00 0. -1.
         22    1    1    0    0    0 -0.89240391306E+01  0.39499119783E+02 -0.22538952772E+01  0.40557354228E+02  0.00000000000E+00 0. -1.
</event>
<event>
 5    1  0.1261010E-009  0.9118800E+02  0.7561462E-02  0.1125453E+00
         25   -1    0    0    0    0  0.00000000000E+00  0.00000000000E+00  0.99999998245E-14  0.12509000000E+03  0.12509000000E+03 0.  0.
        -13    1    3    3    0    0  0.60405366515E+01 -0.38183962973E+01 -0.54081975178E+02  0.54552171694E+02  0.10566000000E+00 0.  1.
         23    2    1    0    0    0 -0.11434459069E+02 -0.18723420318E+02 -0.30975841207E+02  0.87131917052E+02  0.78429298786E+02 0.  0.
         13    1    3    3    0    0 -0.17474995720E+02 -0.14905024021E+02  0.23106133971E+02  0.32579745358E+02  0.10566000000E+00 0. -1.
         22    1    1    0    0    0  0.11434459069E+02  0.18723420318E+02  0.30975841207E+02  0.37958082948E+02  0.00000000000E+00 0.  1.
</event>
<event>
 5    1  0.1261010E-009  0.9118800E+02  0.7561462E-02  0.1125453E+00
         25   -1    0    0    0    0  0.00000000000E+00  0.00000000000E+00  0.99999998245E-14  0.12509000000E+03  0.12509000000E+03 0.  0.
        -13    1    3    3    0    0  0.23515139663E+02 -0.45574814135E+02 -0.31982056214E+02  0.60439131037E+02  0.10566000000E+00 0.  1.
         23    2    1    0    0    0  0.20911742137E+02 -0.16084454903E+02 -0.12363890322E+02  0.95954515919E+02  0.91424245650E+02 0.  0.
         13    1    3    3    0    0 -0.26033975263E+01  0.29490359232E+02  0.19618165892E+02  0.35515384882E+02  0.10566000000E+00 0. -1.
         22    1    1    0    0    0 -0.20911742137E+02  0.16084454903E+02  0.12363890322E+02  0.29135484081E+02  0.00000000000E+00 0.  1.
</event>
<event>
 5    1  0.1261010E-009  0.9118800E+02  0.7561462E-02  0.1125453E+00
         25   -1    0    0    0    0  0.00000000000E+00  0.00000000000E+00  0.99999998245E-14  0.12509000000E+03  0.12509000000E+03 0.  0.
        -13    1    3    3    0    0  0.36549446214E+02  0.27578937678E+02  0.61381868006E+01  0.46196843217E+02  0.10566000000E+00 0.  1.
         23    2    1    0    0    0  0.24331385550E+02 -0.18042378745E+02 -0.40994284461E+01  0.94522876041E+02  0.89443977036E+02 0.  0.
         13    1    3    3    0    0 -0.12218060664E+02 -0.45621316423E+02 -0.10237615247E+02  0.48326032824E+02  0.10566000000E+00 0. -1.
         22    1    1    0    0    0 -0.24331385550E+02  0.18042378745E+02  0.40994284461E+01  0.30567123959E+02  0.00000000000E+00 0. -1.
</event>
<event>
 5    1  0.1261010E-009  0.9118800E+02  0.7561462E-02  0.1125453E+00
         25   -1    0    0    0    0  0.00000000000E+00  0.00000000000E+00  0.99999998245E-14  0.12509000000E+03  0.12509000000E+03 0.  0.
        -13    1    3    3    0    0 -0.12514623424E+02  0.25802555767E+02 -0.32701208670E+02  0.43494458222E+02  0.10566000000E+00 0.  1.
         23    2    1    0    0    0 -0.11234307079E+02 -0.23175009080E+02 -0.11805650746E+02  0.96758672976E+02  0.92517980442E+02 0.  0.
         13    1    3    3    0    0  0.12803163450E+01 -0.48977564847E+02  0.20895557923E+02  0.53264214753E+02  0.10566000000E+00 0. -1.
         22    1    1    0    0    0  0.11234307079E+02  0.23175009080E+02  0.11805650746E+02  0.28331327024E+02  0.00000000000E+00 0.  1.
</event>
<event>
 5    1  0.1261010E-009  0.9118800E+02  0.7561462E-02  0.1125453E+00
         25   -1    0    0    0    0  0.00000000000E+00  0.00000000000E+00  0.99999998245E-14  0.12509000000E+03  0.12509000000E+03 0.  0.
        -13    1    3    3    0    0  0.31461034931E+02 -0.54734523937E+01  0.17533242197E+02  0.36430497472E+02  0.10566000000E+00 0.  1.
         23    2    1    0    0    0 -0.13419663155E+02  0.25796384447E+02 -0.49911767373E+01  0.95586565370E+02  0.90919408402E+02 0.  0.
         13    1    3    3    0    0 -0.44880698087E+02  0.31269836841E+02 -0.22524418934E+02  0.59156067898E+02  0.10566000000E+00 0. -1.
         22    1    1    0    0    0  0.13419663155E+02 -0.25796384447E+02  0.49911767373E+01  0.29503434630E+02  0.00000000000E+00 0. -1.
</event>
<event>
 5    1  0.1261010E-009  0.9118800E+02  0.7561462E-02  0.1125453E+00
         25   -1    0    0    0    0  0.00000000000E+00  0.00000000000E+00  0.99999998245E-14  0.12509000000E+03  0.12509000000E+03 0.  0.
        -13    1    3    3    0    0 -0.15044100233E+02 -0.32041760943E+02 -0.31511994820E+02  0.47392155234E+02  0.10566000000E+00 0. -1.
         23    2    1    0    0    0 -0.55879860959E+01  0.15489478098E+02 -0.23319667139E+02  0.96542558857E+02  0.92225317970E+02 0.  0.
         13    1    3    3    0    0  0.94561141368E+01  0.47531239041E+02  0.81923276813E+01  0.49150403622E+02  0.10566000000E+00 0.  1.
         22    1    1    0    0    0  0.55879860959E+01 -0.15489478098E+02  0.23319667139E+02  0.28547441143E+02  0.00000000000E+00 0.  1.
</event>
<event>
 5    1  0.1261010E-009  0.9118800E+02  0.7561462E-02  0.1125453E+00
         25   -1    0    0    0    0  0.00000000000E+00  0.00000000000E+00  0.99999998245E-14  0.12509000000E+03  0.12509000000E+03 0.  0.
        -13    1    3    3    0    0  0.15947987608E+02 -0.22194802168E+02 -0.38188374713E+02  0.46960735506E+02  0.10566000000E+00 0. -1.
         23    2    1    0    0    0 -0.15242374784E+02  0.11971126646E+02 -0.21507615713E+02  0.96138050223E+02  0.91675020070E+02 0.  0.
         13    1    3    3    0    0 -0.31190362393E+02  0.34165928814E+02  0.16680759000E+02  0.49177314717E+02  0.10566000000E+00 0.  1.
         22    1    1    0    0    0  0.15242374784E+02 -0.11971126646E+02  0.21507615713E+02  0.28951949777E+02  0.00000000000E+00 0.  1.
</event>
<event>
 5    1  0.1261010E-009  0.9118800E+02  0.7561462E-02  0.1125453E+00
         25   -1    0    0    0    0  0.00000000000E+00  0.00000000000E+00  0.99999998245E-14  0.12509000000E+03  0.12509000000E+03 0.  0.
        -13    1    3    3    0    0  0.23516384289E+02  0.10306360948E+02  0.24677845103E+02  0.35612478276E+02  0.10566000000E+00 0.  1.
         23    2    1    0    0    0 -0.27331481255E+02  0.30034668228E+01 -0.79493841526E+01  0.96467921303E+02  0.92124027547E+02 0.  0.
         13    1    3    3    0    0 -0.50847865544E+02 -0.73028941257E+01 -0.32627229256E+02  0.60855443026E+02  0.10566000000E+00 0. -1.
         22    1    1    0    0    0  0.27331481255E+02 -0.30034668228E+01  0.79493841526E+01  0.28622078697E+02  0.00000000000E+00 0. -1.
</event>
<event>
 5    1  0.1261010E-009  0.9118800E+02  0.7561462E-02  0.1125453E+00
         25   -1    0    0    0    0  0.00000000000E+00  0.00000000000E+00  0.99999998245E-14  0.12509000000E+03  0.12509000000E+03 0.  0.
        -13    1    3    3    0    0 -0.15704733818E+02  0.24776183378E+01  0.30939997537E+02  0.34786087284E+02  0.10566000000E+00 0. -1.
         23    2    1    0    0    0  0.21229112157E+02 -0.10483932142E+02 -0.16456438590E+02  0.96255950558E+02  0.91835753444E+02 0.  0.
         13    1    3    3    0    0  0.36933845975E+02 -0.12961550480E+02 -0.47396436127E+02  0.61469863274E+02  0.10566000000E+00 0.  1.
         22    1    1    0    0    0 -0.21229112157E+02  0.10483932142E+02  0.16456438590E+02  0.28834049442E+02  0.00000000000E+00 0.  1.
</event>
<event>
 5    1  0.1261010E-009  0.9118800E+02  0.7561462E-02  0.1125453E+00
         25   -1    0    0    0    0  0.00000000000E+00  0.00000000000E+00  0.99999998245E-14  0.12509000000E+03  0.12509000000E+03 0.  0.
        -13    1    3    3    0    0 -0.48455099909E+00 -0.51543974633E+02  0.15870175119E+02  0.53934124013E+02  0.10566000000E+00 0. -1.
         23    2    1    0    0    0  0.17156323839E+02 -0.14078893525E+02  0.19557644758E+02  0.95508651839E+02  0.90812149061E+02 0.  0.
         13    1    3    3    0    0  0.17640874839E+02  0.37465081109E+02  0.36874696388E+01  0.41574527826E+02  0.10566000000E+00 0.  1.
         22    1    1    0    0    0 -0.17156323839E+02  0.14078893525E+02 -0.19557644758E+02  0.29581348161E+02  0.00000000000E+00 0.  1.
</event>
<event>
 5    1  0.1261010E-009  0.9118800E+02  0.7561462E-02  0.1125453E+00
         25   -1    0    0    0    0  0.00000000000E+00  0.00000000000E+00  0.99999998245E-14  0.12509000000E+03  0.12509000000E+03 0.  0.
        -13    1    3    3    0    0 -0.40679218476E+02  0.86410332089E+01  0.18237084200E+02  0.45410006330E+02  0.10566000000E+00 0.  1.
         23    2    1    0    0    0  0.94946087591E+01  0.22985493237E+02  0.16536293441E+01  0.10016581526E+03  0.97015336738E+02 0.  0.
         13    1    3    3    0    0  0.50173827235E+02  0.14344460028E+02 -0.16583454856E+02  0.54755808933E+02  0.10566000000E+00 0. -1.
         22    1    1    0    0    0 -0.94946087591E+01 -0.22985493237E+02 -0.16536293441E+01  0.24924184737E+02  0.00000000000E+00 0. -1.
</event>
<event>
 5    1  0.1261010E-009  0.9118800E+02  0.7561462E-02  0.1125453E+00
         25   -1    0    0    0    0  0.00000000000E+00  0.00000000000E+00  0.99999998245E-14  0.12509000000E+03  0.12509000000E+03 0.  0.
        -13    1    3    3    0    0  0.45533187256E+02 -0.95092091041E+01  0.11187907506E+02  0.47842205612E+02  0.10566000000E+00 0. -1.
         23    2    1    0    0    0 -0.79421203868E+01  0.10752804039E+02  0.14806231096E+02  0.10514195372E+03  0.10323229089E+03 0.  0.
         13    1    3    3    0    0 -0.53475307642E+02  0.20262013143E+02  0.36183235903E+01  0.57299748112E+02  0.10566000000E+00 0.  1.
         22    1    1    0    0    0  0.79421203868E+01 -0.10752804039E+02 -0.14806231096E+02  0.19948046276E+02  0.00000000000E+00 0.  1.
</event>
<event>
 5    1  0.1261010E-009  0.9118800E+02  0.7561462E-02  0.1125453E+00
         25   -1    0    0    0    0  0.00000000000E+00  0.00000000000E+00  0.99999998245E-14  0.12509000000E+03  0.12509000000E+03 0.  0.
        -13    1    3    3    0    0  0.10667342075E+02 -0.46583771067E+02  0.38199973323E+02  0.61180789793E+02  0.10566000000E+00 0. -1.
         23    2    1    0    0    0  0.11034668720E+02 -0.15800806907E+02  0.21546454475E+02  0.96181884995E+02  0.91734812847E+02 0.  0.
         13    1    3    3    0    0  0.36732664559E+00  0.30782964159E+02 -0.16653518849E+02  0.35001095203E+02  0.10566000000E+00 0.  1.
         22    1    1    0    0    0 -0.11034668720E+02  0.15800806907E+02 -0.21546454475E+02  0.28908115005E+02  0.00000000000E+00 0. -1.
</event>
<event>
 5    1  0.1261010E-009  0.9118800E+02  0.7561462E-02  0.1125453E+00
         25   -1    0    0    0    0  0.00000000000E+00  0.00000000000E+00  0.99999998245E-14  0.12509000000E+03  0.12509000000E+03 0.  0.
        -13    1    3    3    0    0  0.39999633952E+01  0.39114633423E+02 -0.46483320099E+02  0.60882382234E+02  0.10566000000E+00 0.  1.
         23    2    1    0    0    0  0.95420192435E+01  0.12354622630E+02 -0.24880550280E+02  0.95717757767E+02  0.91099728529E+02 0.  0.
         13    1    3    3    0    0  0.55420558483E+01 -0.26760010793E+02  0.21602769819E+02  0.34835375533E+02  0.10566000000E+00 0. -1.
         22    1    1    0    0    0 -0.95420192435E+01 -0.12354622630E+02  0.24880550280E+02  0.29372242233E+02  0.00000000000E+00 0.  1.
</event>
<event>
 5    1  0.1261010E-009  0.9118800E+02  0.7561462E-02  0.1125453E+00
         25   -1    0    0    0    0  0.00000000000E+00  0.00000000000E+00  0.99999998245E-14  0.12509000000E+03  0.12509000000E+03 0.  0.
        -13    1    3    3    0    0 -0.24308332519E+02 -0.10316958422E+02 -0.47879033285E+02  0.54678584961E+02  0.10566000000E+00 0.  1.
         23    2    1    0    0    0  0.69022533200E+01 -0.17856986178E+02 -0.22066167425E+02  0.95876496255E+02  0.91317433894E+02 0.  0.
         13    1    3    3    0    0  0.31210585839E+02 -0.75400277563E+01  0.25812865861E+02  0.41197911294E+02  0.10566000000E+00 0. -1.
         22    1    1    0    0    0 -0.69022533200E+01  0.17856986178E+02  0.22066167425E+02  0.29213503745E+02  0.00000000000E+00 0.  1.
</event>
<event>
 5    1  0.1261010E-009  0.9118800E+02  0.7561462E-02  0.1125453E+00
         25   -1    0    0    0    0  0.00000000000E+00  0.00000000000E+00  0.99999998245E-14  0.12509000000E+03  0.12509000000E+03 0.  0.
        -13    1    3    3    0    0  0.20141590361E+02 -0.19134768640E+02 -0.18139586317E+02  0.33179493501E+02  0.10566000000E+00 0.  1.
         23    2    1    0    0    0 -0.25562586003E+02 -0.19207871998E+02  0.15135627170E+02  0.89713802357E+02  0.82444472063E+02 0.  0.
         13    1    3    3    0    0 -0.45704176363E+02 -0.73103357929E-01  0.33275213488E+02  0.56534308856E+02  0.10566000000E+00 0. -1.
         22    1    1    0    0    0  0.25562586003E+02  0.19207871998E+02 -0.15135627170E+02  0.35376197643E+02  0.00000000000E+00 0. -1.
</event>
<event>
 5    1  0.1261010E-009  0.9118800E+02  0.7561462E-02  0.1125453E+00
         25   -1    0    0    0    0  0.00000000000E+00  0.00000000000E+00  0.99999998245E-14  0.12509000000E+03  0.12509000000E+03 0.  0.
        -13    1    3    3    0    0  0.14301894166E+02 -0.25516120388E+01  0.32409198783E+02  0.35516506452E+02  0.10566000000E+00 0. -1.
         23    2    1    0    0    0  0.95219244644E+01 -0.21229848458E+01 -0.27651124360E+02  0.95768356313E+02  0.91169179454E+02 0.  0.
         13    1    3    3    0    0 -0.47799697019E+01  0.42862719298E+00 -0.60060323143E+02  0.60251849861E+02  0.10566000000E+00 0.  1.
         22    1    1    0    0    0 -0.95219244644E+01  0.21229848458E+01  0.27651124360E+02  0.29321643687E+02  0.00000000000E+00 0.  1.
</event>
<event>
 5    1  0.1261010E-009  0.9118800E+02  0.7561462E-02  0.1125453E+00
         25   -1    0    0    0    0  0.00000000000E+00  0.00000000000E+00  0.99999998245E-14  0.12509000000E+03  0.12509000000E+03 0.  0.
        -13    1    3    3    0    0  0.18201389680E+01  0.35504524425E+02 -0.52585202800E+01  0.35938104570E+02  0.10566000000E+00 0. -1.
         23    2    1    0    0    0  0.18503051483E+02 -0.16463780263E+02  0.17176290547E+02  0.94949596358E+02  0.90038780072E+02 0.  0.
         13    1    3    3    0    0  0.16682912515E+02 -0.51968304688E+02  0.22434810827E+02  0.59011491788E+02  0.10566000000E+00 0.  1.
         22    1    1    0    0    0 -0.18503051483E+02  0.16463780263E+02 -0.17176290547E+02  0.30140403642E+02  0.00000000000E+00 0.  1.
</event>
<event>
 5    1  0.1261010E-009  0.9118800E+02  0.7561462E-02  0.1125453E+00
         25   -1    0    0    0    0  0.00000000000E+00  0.00000000000E+00  0.99999998245E-14  0.12509000000E+03  0.12509000000E+03 0.  0.
        -13    1    3    3    0    0 -0.10228339108E+02  0.35344257802E+02 -0.20975241266E+02  0.42353363393E+02  0.10566000000E+00 0. -1.
         23    2    1    0    0    0 -0.13830939203E+00 -0.17110637771E+02 -0.23722062925E+02  0.95840567119E+02  0.91268203565E+02 0.  0.
         13    1    3    3    0    0  0.10090029716E+02 -0.52454895573E+02 -0.27468216598E+01  0.53487203727E+02  0.10566000000E+00 0.  1.
         22    1    1    0    0    0  0.13830939203E+00  0.17110637771E+02  0.23722062925E+02  0.29249432881E+02  0.00000000000E+00 0.  1.
</event>
<event>
 5    1  0.1261010E-009  0.9118800E+02  0.7561462E-02  0.1125453E+00
         25   -1    0    0    0    0  0.00000000000E+00  0.00000000000E+00  0.99999998245E-14  0.12509000000E+03  0.12509000000E+03 0.  0.
        -13    1    3    3    0    0  0.44346081429E+02  0.64985774792E+01 -0.17278249039E+02  0.48034940421E+02  0.10566000000E+00 0.  1.
         23    2    1    0    0    0  0.16644345574E+02 -0.45511387263E+01  0.21859162160E+02  0.97240941244E+02  0.93167755046E+02 0.  0.
         13    1    3    3    0    0 -0.27701735854E+02 -0.11049716206E+02  0.39137411199E+02  0.49206000823E+02  0.10566000000E+00 0. -1.
         22    1    1    0    0    0 -0.16644345574E+02  0.45511387263E+01 -0.21859162160E+02  0.27849058756E+02  0.00000000000E+00 0. -1.
</event>
<event>
 5    1  0.1261010E-009  0.9118800E+02  0.7561462E-02  0.1125453E+00
         25   -1    0    0    0    0  0.00000000000E+00  0.00000000000E+00  0.99999998245E-14  0.12509000000E+03  0.12509000000E+03 0.  0.
        -13    1    3    3    0    0 -0.19573203851E+02  0.28720118997E+01  0.35045997606E+02  0.40244153284E+02  0.10566000000E+00 0.  1.
         23    2    1    0    0    0  0.11509589798E+02 -0.26917305396E+02 -0.90517440704E-01  0.95815092989E+02  0.91233282655E+02 0.  0.
         13    1    3    3    0    0  0.31082793649E+02 -0.29789317296E+02 -0.35136515047E+02  0.55570939704E+02  0.10566000000E+00 0. -1.
         22    1    1    0    0    0 -0.11509589798E+02  0.26917305396E+02  0.90517440704E-01  0.29274907011E+02  0.00000000000E+00 0. -1.
</event>
<event>
 5    1  0.1261010E-009  0.9118800E+02  0.7561462E-02  0.1125453E+00
         25   -1    0    0    0    0  0.00000000000E+00  0.00000000000E+00  0.99999998245E-14  0.12509000000E+03  0.12509000000E+03 0.  0.
        -13    1    3    3    0    0  0.35725745519E+02  0.43598264113E+02  0.69675133043E+01  0.56795201666E+02  0.10566000000E+00 0. -1.
         23    2    1    0    0    0  0.19780659045E+02  0.15581644373E+02 -0.14977010776E+02  0.95791997245E+02  0.91201610571E+02 0.  0.
         13    1    3    3    0    0 -0.15945086474E+02 -0.28016619740E+02 -0.21944524081E+02  0.38996795580E+02  0.10566000000E+00 0.  1.
         22    1    1    0    0    0 -0.19780659045E+02 -0.15581644373E+02  0.14977010776E+02  0.29298002755E+02  0.00000000000E+00 0. -1.
</event>
<event>
 5    1  0.1261010E-009  0.9118800E+02  0.7561462E-02  0.1125453E+00
         25   -1    0    0    0    0  0.00000000000E+00  0.00000000000E+00  0.99999998245E-14  0.12509000000E+03  0.12509000000E+03 0.  0.
        -13    1    3    3    0    0 -0.14787122442E+02  0.16701430851E+02 -0.55550592626E+02  0.59862144029E+02  0.10566000000E+00 0.  1.
         23    2    1    0    0    0 -0.17797185004E+02  0.14813813952E+01 -0.22576727280E+02  0.96303841875E+02  0.91900963326E+02 0.  0.
         13    1    3    3    0    0 -0.30100625623E+01 -0.15220049456E+02  0.32973865346E+02  0.36441697846E+02  0.10566000000E+00 0. -1.
         22    1    1    0    0    0  0.17797185004E+02 -0.14813813952E+01  0.22576727280E+02  0.28786158125E+02  0.00000000000E+00 0.  1.
</event>
<event>
 5    1  0.1261010E-009  0.9118800E+02  0.7561462E-02  0.1125453E+00
         25   -1    0    0    0    0  0.00000000000E+00  0.00000000000E+00  0.99999998245E-14  0.12509000000E+03  0.12509000000E+03 0.  0.
        -13    1    3    3    0    0  0.22092883405E+02 -0.53920764867E+01  0.46788312003E+02  0.52022372976E+02  0.10566000000E+00 0. -1.
         23    2    1    0    0    0 -0.15331231993E+02 -0.95222727279E+01  0.19480489034E+02  0.98534213336E+02  0.94888257400E+02 0.  0.
         13    1    3    3    0    0 -0.37424115398E+02 -0.41301962413E+01 -0.27307822969E+02  0.46511840360E+02  0.10566000000E+00 0.  1.
         22    1    1    0    0    0  0.15331231993E+02  0.95222727279E+01 -0.19480489034E+02  0.26555786664E+02  0.00000000000E+00 0. -1.
</event>
<event>
 5    1  0.1261010E-009  0.9118800E+02  0.7561462E-02  0.1125453E+00
         25   -1    0    0    0    0  0.00000000000E+00  0.00000000000E+00  0.99999998245E-14  0.12509000000E+03  0.12509000000E+03 0.  0.
        -13    1    3    3    0    0 -0.20871426201E+02  0.24363600152E+02  0.25204648049E+02  0.40798123625E+02  0.10566000000E+00 0. -1.
         23    2    1    0    0    0  0.25362046263E+02  0.20352203740E+02  0.24619623893E+01  0.92478547310E+02  0.86537707770E+02 0.  0.
         13    1    3    3    0    0  0.46233472464E+02 -0.40113964117E+01 -0.22742685660E+02  0.51680423685E+02  0.10566000000E+00 0.  1.
         22    1    1    0    0    0 -0.25362046263E+02 -0.20352203740E+02 -0.24619623893E+01  0.32611452690E+02  0.00000000000E+00 0.  1.
</event>
<event>
 5    1  0.1261010E-009  0.9118800E+02  0.7561462E-02  0.1125453E+00
         25   -1    0    0    0    0  0.00000000000E+00  0.00000000000E+00  0.99999998245E-14  0.12509000000E+03  0.12509000000E+03 0.  0.
        -13    1    3    3    0    0  0.26272485685E+02  0.27349859569E+02 -0.27309312085E+02  0.46734013450E+02  0.10566000000E+00 0. -1.
         23    2    1    0    0    0 -0.11567986179E+02 -0.51452953158E+00 -0.29110055060E+02  0.93761445127E+02  0.88372678141E+02 0.  0.
         13    1    3    3    0    0 -0.37840471864E+02 -0.27864389101E+02 -0.18007429747E+01  0.47027431677E+02  0.10566000000E+00 0.  1.
         22    1    1    0    0    0  0.11567986179E+02  0.51452953158E+00  0.29110055060E+02  0.31328554873E+02  0.00000000000E+00 0. -1.
</event>
<event>
 5    1  0.1261010E-009  0.9118800E+02  0.7561462E-02  0.1125453E+00
         25   -1    0    0    0    0  0.00000000000E+00  0.00000000000E+00  0.99999998245E-14  0.12509000000E+03  0.12509000000E+03 0.  0.
        -13    1    3    3    0    0  0.19704737767E+02  0.40735855095E+02 -0.45258037837E+01  0.45477254147E+02  0.10566000000E+00 0. -1.
         23    2    1    0    0    0 -0.21814973470E+02  0.15421358107E+02 -0.13859858245E+02  0.94993371884E+02  0.90099576458E+02 0.  0.
         13    1    3    3    0    0 -0.41519711238E+02 -0.25314496988E+02 -0.93340544611E+01  0.49516117737E+02  0.10566000000E+00 0.  1.
         22    1    1    0    0    0  0.21814973470E+02 -0.15421358107E+02  0.13859858245E+02  0.30096628116E+02  0.00000000000E+00 0.  1.
</event>
<event>
 5    1  0.1261010E-009  0.9118800E+02  0.7561462E-02  0.1125453E+00
         25   -1    0    0    0    0  0.00000000000E+00  0.00000000000E+00  0.99999998245E-14  0.12509000000E+03  0.12509000000E+03 0.  0.
        -13    1    3    3    0    0  0.20843424980E+02 -0.19216687040E+02  0.20622219659E+02  0.35057332092E+02  0.10566000000E+00 0. -1.
         23    2    1    0    0    0 -0.29171122332E+02  0.44475473250E+01 -0.34175287589E+01  0.95384536561E+02  0.90641024138E+02 0.  0.
         13    1    3    3    0    0 -0.50014547313E+02  0.23664234365E+02 -0.24039748418E+02  0.60327204469E+02  0.10566000000E+00 0.  1.
         22    1    1    0    0    0  0.29171122332E+02 -0.44475473250E+01  0.34175287589E+01  0.29705463439E+02  0.00000000000E+00 0.  1.
</event>
<event>
 5    1  0.1261010E-009  0.9118800E+02  0.7561462E-02  0.1125453E+00
         25   -1    0    0    0    0  0.00000000000E+00  0.00000000000E+00  0.99999998245E-14  0.12509000000E+03  0.12509000000E+03 0.  0.
        -13    1    3    3    0    0 -0.37702544239E+02 -0.24635666695E+02 -0.34688609933E+02  0.56848119922E+02  0.10566000000E+00 0. -1.
         23    2    1    0    0    0 -0.43384836409E+01 -0.25027546714E+02 -0.15129255961E+02  0.95524903674E+02  0.90834532537E+02 0.  0.
         13    1    3    3    0    0  0.33364060598E+02 -0.39188001944E+00  0.19559353972E+02  0.38676783752E+02  0.10566000000E+00 0.  1.
         22    1    1    0    0    0  0.43384836409E+01  0.25027546714E+02  0.15129255961E+02  0.29565096326E+02  0.00000000000E+00 0. -1.
</event>
<event>
 5    1  0.1261010E-009  0.9118800E+02  0.7561462E-02  0.1125453E+00
         25   -1    0    0    0    0  0.00000000000E+00  0.00000000000E+00  0.99999998245E-14  0.12509000000E+03  0.12509000000E+03 0.  0.
        -13    1    3    3    0    0  0.28015868710E+02 -0.19404551147E+02 -0.52336335548E+01  0.34479379185E+02  0.10566000000E+00 0.  1.
         23    2    1    0    0    0 -0.17579286166E+02  0.21586357762E+02 -0.87949614738E+01  0.95894906390E+02  0.91342649298E+02 0.  0.
         13    1    3    3    0    0 -0.45595154876E+02  0.40990908909E+02 -0.35613279190E+01  0.61415527205E+02  0.10566000000E+00 0. -1.
         22    1    1    0    0    0  0.17579286166E+02 -0.21586357762E+02  0.87949614738E+01  0.29195093610E+02  0.00000000000E+00 0. -1.
</event>
<event>
 5    1  0.1261010E-009  0.9118800E+02  0.7561462E-02  0.1125453E+00
         25   -1    0    0    0    0  0.00000000000E+00  0.00000000000E+00  0.99999998245E-14  0.12509000000E+03  0.12509000000E+03 0.  0.
        -13    1    3    3    0    0 -0.48622211948E+01 -0.37444934032E+02 -0.50224874259E+01  0.38092004720E+02  0.10566000000E+00 0.  1.
         23    2    1    0    0    0  0.32561995666E+02 -0.56439250529E+01  0.11792032880E+02  0.90001690106E+02  0.82880122651E+02 0.  0.
         13    1    3    3    0    0  0.37424216861E+02  0.31801008979E+02  0.16814520306E+02  0.51909685386E+02  0.10566000000E+00 0. -1.
         22    1    1    0    0    0 -0.32561995666E+02  0.56439250529E+01 -0.11792032880E+02  0.35088309894E+02  0.00000000000E+00 0. -1.
</event>
<event>
 5    1  0.1261010E-009  0.9118800E+02  0.7561462E-02  0.1125453E+00
         25   -1    0    0    0    0  0.00000000000E+00  0.00000000000E+00  0.99999998245E-14  0.12509000000E+03  0.12509000000E+03 0.  0.
        -13    1    3    3    0    0 -0.34013204339E+02 -0.45778026184E+02 -0.10495671268E+02  0.57988757791E+02  0.10566000000E+00 0. -1.
         23    2    1    0    0    0 -0.17787668885E+02 -0.20828646664E+02  0.11890784191E+02  0.95229919041E+02  0.90427391014E+02 0.  0.
         13    1    3    3    0    0  0.16225535454E+02  0.24949379521E+02  0.22386455458E+02  0.37241161250E+02  0.10566000000E+00 0.  1.
         22    1    1    0    0    0  0.17787668885E+02  0.20828646664E+02 -0.11890784191E+02  0.29860080959E+02  0.00000000000E+00 0.  1.
</event>
<event>
 5    1  0.1261010E-009  0.9118800E+02  0.7561462E-02  0.1125453E+00
         25   -1    0    0    0    0  0.00000000000E+00  0.00000000000E+00  0.99999998245E-14  0.12509000000E+03  0.12509000000E+03 0.  0.
        -13    1    3    3    0    0 -0.26578476794E+01 -0.89591221042E+01 -0.41008081657E+02  0.42059528628E+02  0.10566000000E+00 0. -1.
         23    2    1    0    0    0 -0.86029028713E+01  0.23466533070E+02  0.59153951766E+01  0.99405763351E+02  0.96030337785E+02 0.  0.
         13    1    3    3    0    0 -0.59450551919E+01  0.32425655175E+02  0.46923476833E+02  0.57346234723E+02  0.10566000000E+00 0.  1.
         22    1    1    0    0    0  0.86029028713E+01 -0.23466533070E+02 -0.59153951766E+01  0.25684236649E+02  0.00000000000E+00 0.  1.
</event>
<event>
 5    1  0.1261010E-009  0.9118800E+02  0.7561462E-02  0.1125453E+00
         25   -1    0    0    0    0  0.00000000000E+00  0.00000000000E+00  0.99999998245E-14  0.12509000000E+03  0.12509000000E+03 0.  0.
        -13    1    3    3    0    0 -0.16710811005E+02  0.27983271343E+02 -0.13299552901E+02  0.35202328771E+02  0.10566000000E+00 0.  1.
         23    2    1    0    0    0  0.14631377479E+02 -0.18011983126E+01  0.27012431584E+02  0.94316748914E+02  0.89155236208E+02 0.  0.
         13    1    3    3    0    0  0.31342188483E+02 -0.29784469656E+02  0.40311984486E+02  0.59114420143E+02  0.10566000000E+00 0. -1.
         22    1    1    0    0    0 -0.14631377479E+02  0.18011983126E+01 -0.27012431584E+02  0.30773251086E+02  0.00000000000E+00 0. -1.
</event>
<event>
 5    1  0.1261010E-009  0.9118800E+02  0.7561462E-02  0.1125453E+00
         25   -1    0    0    0    0  0.00000000000E+00  0.00000000000E+00  0.99999998245E-14  0.12509000000E+03  0.12509000000E+03 0.  0.
        -13    1    3    3    0    0 -0.53582577027E+02  0.40567501788E+01 -0.19612902409E+02  0.57203381787E+02  0.10566000000E+00 0.  1.
         23    2    1    0    0    0 -0.20583078650E+02  0.18545711447E+02 -0.15132128596E+02  0.93521220238E+02  0.88031987250E+02 0.  0.
         13    1    3    3    0    0  0.32999498378E+02  0.14488961269E+02  0.44807738132E+01  0.36317838452E+02  0.10566000000E+00 0. -1.
         22    1    1    0    0    0  0.20583078650E+02 -0.18545711447E+02  0.15132128596E+02  0.31568779762E+02  0.00000000000E+00 0.  1.
</event>
<event>
 4    1  0.1261010E-009  0.9118800E+02  0.7561462E-02  0.1125453E+00
         25   -1    0    0    0    0  0.00000000000E+00  0.00000000000E+00  0.99999998245E-14  0.12509000000E+03  0.12509000000E+03 0.  0.
        -13    1    1    0    0    0  0.76481979020E+00 -0.33339538042E+02  0.32175524549E+02  0.46339888759E+02  0.10566000000E+00 0.  1.
         13    1    1    0    0    0  0.84190113971E+01 -0.17896652308E+02 -0.76097325491E+01  0.21191722682E+02  0.10566000000E+00 0. -1.
         22    1    1    0    0    0 -0.91838311873E+01  0.51236190350E+02 -0.24565792000E+02  0.57558388559E+02  0.00000000000E+00 0. -1.
</event>
<event>
 5    1  0.1261010E-009  0.9118800E+02  0.7561462E-02  0.1125453E+00
         25   -1    0    0    0    0  0.00000000000E+00  0.00000000000E+00  0.99999998245E-14  0.12509000000E+03  0.12509000000E+03 0.  0.
        -13    1    3    3    0    0  0.34600168068E+02 -0.17522048191E+01  0.16096178147E+02  0.38201308447E+02  0.10566000000E+00 0.  1.
         23    2    1    0    0    0 -0.18268472895E+02  0.20823071364E+02  0.80110122497E+01  0.96254020387E+02  0.91833124310E+02 0.  0.
         13    1    3    3    0    0 -0.52868640963E+02  0.22575276183E+02 -0.80851658970E+01  0.58052711941E+02  0.10566000000E+00 0. -1.
         22    1    1    0    0    0  0.18268472895E+02 -0.20823071364E+02 -0.80110122497E+01  0.28835979613E+02  0.00000000000E+00 0.  1.
</event>
<event>
 5    1  0.1261010E-009  0.9118800E+02  0.7561462E-02  0.1125453E+00
         25   -1    0    0    0    0  0.00000000000E+00  0.00000000000E+00  0.99999998245E-14  0.12509000000E+03  0.12509000000E+03 0.  0.
        -13    1    3    3    0    0  0.47710930527E+02 -0.19959603166E+02  0.28147681550E+02  0.58881421441E+02  0.10566000000E+00 0.  1.
         23    2    1    0    0    0  0.19494876486E+02  0.34373420732E+01  0.21007416003E+02  0.96225193455E+02  0.91793849460E+02 0.  0.
         13    1    3    3    0    0 -0.28216054041E+02  0.23396945239E+02 -0.71402655467E+01  0.37343772014E+02  0.10566000000E+00 0. -1.
         22    1    1    0    0    0 -0.19494876486E+02 -0.34373420732E+01 -0.21007416003E+02  0.28864806545E+02  0.00000000000E+00 0.  1.
</event>
<event>
 5    1  0.1261010E-009  0.9118800E+02  0.7561462E-02  0.1125453E+00
         25   -1    0    0    0    0  0.00000000000E+00  0.00000000000E+00  0.99999998245E-14  0.12509000000E+03  0.12509000000E+03 0.  0.
        -13    1    3    3    0    0 -0.90528539508E+01 -0.43834022603E+02 -0.40637286198E+02  0.60454742542E+02  0.10566000000E+00 0. -1.
         23    2    1    0    0    0 -0.12259003310E+01 -0.27040213849E+02 -0.10049518574E+02  0.96216676323E+02  0.91782242195E+02 0.  0.
         13    1    3    3    0    0  0.78269536199E+01  0.16793808754E+02  0.30587767624E+02  0.35761933781E+02  0.10566000000E+00 0.  1.
         22    1    1    0    0    0  0.12259003310E+01  0.27040213849E+02  0.10049518574E+02  0.28873323677E+02  0.00000000000E+00 0. -1.
</event>
<event>
 5    1  0.1261010E-009  0.9118800E+02  0.7561462E-02  0.1125453E+00
         25   -1    0    0    0    0  0.00000000000E+00  0.00000000000E+00  0.99999998245E-14  0.12509000000E+03  0.12509000000E+03 0.  0.
        -13    1    3    3    0    0 -0.36929508529E+02  0.36868063771E+02 -0.23893737937E+02  0.57393071037E+02  0.10566000000E+00 0. -1.
         23    2    1    0    0    0 -0.27067138795E+02  0.11707215233E+02  0.29103631794E+01  0.95456250577E+02  0.90739939769E+02 0.  0.
         13    1    3    3    0    0  0.98623697345E+01 -0.25160848538E+02  0.26804101117E+02  0.38063179539E+02  0.10566000000E+00 0.  1.
         22    1    1    0    0    0  0.27067138795E+02 -0.11707215233E+02 -0.29103631794E+01  0.29633749423E+02  0.00000000000E+00 0. -1.
</event>
<event>
 5    1  0.1261010E-009  0.9118800E+02  0.7561462E-02  0.1125453E+00
         25   -1    0    0    0    0  0.00000000000E+00  0.00000000000E+00  0.99999998245E-14  0.12509000000E+03  0.12509000000E+03 0.  0.
        -13    1    3    3    0    0  0.31733518179E+02 -0.24303136385E+02 -0.36446422022E+02  0.54092619241E+02  0.10566000000E+00 0.  1.
         23    2    1    0    0    0  0.26256758383E+02 -0.10094972729E+02  0.34049243924E+01  0.96754168526E+02  0.92511889949E+02 0.  0.
         13    1    3    3    0    0 -0.54767597956E+01  0.14208163657E+02  0.39851346414E+02  0.42661549285E+02  0.10566000000E+00 0. -1.
         22    1    1    0    0    0 -0.26256758383E+02  0.10094972729E+02 -0.34049243924E+01  0.28335831474E+02  0.00000000000E+00 0.  1.
</event>
<event>
 5    1  0.1261010E-009  0.9118800E+02  0.7561462E-02  0.1125453E+00
         25   -1    0    0    0    0  0.00000000000E+00  0.00000000000E+00  0.99999998245E-14  0.12509000000E+03  0.12509000000E+03 0.  0.
        -13    1    3    3    0    0 -0.51687982518E+02  0.26555520648E+01  0.15907100666E+02  0.54145604708E+02  0.10566000000E+00 0. -1.
         23    2    1    0    0    0 -0.18895220260E+02  0.22160655562E+02 -0.11606062204E+01  0.95944314034E+02  0.91410285992E+02 0.  0.
         13    1    3    3    0    0  0.32792762258E+02  0.19505103497E+02 -0.17067706886E+02  0.41798709326E+02  0.10566000000E+00 0.  1.
         22    1    1    0    0    0  0.18895220260E+02 -0.22160655562E+02  0.11606062204E+01  0.29145685966E+02  0.00000000000E+00 0. -1.
</event>
<event>
 5    1  0.1261010E-009  0.9118800E+02  0.7561462E-02  0.1125453E+00
         25   -1    0    0    0    0  0.00000000000E+00  0.00000000000E+00  0.99999998245E-14  0.12509000000E+03  0.12509000000E+03 0.  0.
        -13    1    3    3    0    0 -0.32885240927E+02  0.10826796778E+02 -0.31915316010E+01  0.34768601313E+02  0.10566000000E+00 0.  1.
         23    2    1    0    0    0  0.18378828353E+02 -0.17362463357E+02 -0.16671724166E+02  0.94804973136E+02  0.89837631754E+02 0.  0.
         13    1    3    3    0    0  0.51264069280E+02 -0.28189260134E+02 -0.13480192565E+02  0.60036371823E+02  0.10566000000E+00 0. -1.
         22    1    1    0    0    0 -0.18378828353E+02  0.17362463357E+02  0.16671724166E+02  0.30285026864E+02  0.00000000000E+00 0. -1.
</event>
<event>
 5    1  0.1261010E-009  0.9118800E+02  0.7561462E-02  0.1125453E+00
         25   -1    0    0    0    0  0.00000000000E+00  0.00000000000E+00  0.99999998245E-14  0.12509000000E+03  0.12509000000E+03 0.  0.
        -13    1    3    3    0    0  0.96287002178E+01  0.29927751024E+02 -0.98674417370E+01  0.32950868269E+02  0.10566000000E+00 0. -1.
         23    2    1    0    0    0 -0.60052082607E+01 -0.27345659747E+02  0.96978938216E+01  0.95460677061E+02  0.90746041716E+02 0.  0.
         13    1    3    3    0    0 -0.15633908478E+02 -0.57273410771E+02  0.19565335559E+02  0.62509808792E+02  0.10566000000E+00 0.  1.
         22    1    1    0    0    0  0.60052082607E+01  0.27345659747E+02 -0.96978938216E+01  0.29629322939E+02  0.00000000000E+00 0.  1.
</event>
<event>
 5    1  0.1261010E-009  0.9118800E+02  0.7561462E-02  0.1125453E+00
         25   -1    0    0    0    0  0.00000000000E+00  0.00000000000E+00  0.99999998245E-14  0.12509000000E+03  0.12509000000E+03 0.  0.
        -13    1    3    3    0    0  0.19354110193E+02 -0.11792954452E+02  0.27303042205E+02  0.35484118050E+02  0.10566000000E+00 0. -1.
         23    2    1    0    0    0 -0.23193587565E+02  0.27543622084E+01 -0.15089816475E+02  0.97282958149E+02  0.93224151214E+02 0.  0.
         13    1    3    3    0    0 -0.42547697758E+02  0.14547316661E+02 -0.42392858679E+02  0.61798840099E+02  0.10566000000E+00 0.  1.
         22    1    1    0    0    0  0.23193587565E+02 -0.27543622084E+01  0.15089816475E+02  0.27807041851E+02  0.00000000000E+00 0.  1.
</event>
<event>
 5    1  0.1261010E-009  0.9118800E+02  0.7561462E-02  0.1125453E+00
         25   -1    0    0    0    0  0.00000000000E+00  0.00000000000E+00  0.99999998245E-14  0.12509000000E+03  0.12509000000E+03 0.  0.
        -13    1    3    3    0    0  0.15953536658E+02  0.36451716433E+02  0.29360741660E+02  0.49450048308E+02  0.10566000000E+00 0.  1.
         23    2    1    0    0    0 -0.20913644175E+02  0.13589014073E+02  0.18114631714E+02  0.94264982591E+02  0.89082575426E+02 0.  0.
         13    1    3    3    0    0 -0.36867180833E+02 -0.22862702360E+02 -0.11246109946E+02  0.44814934282E+02  0.10566000000E+00 0. -1.
         22    1    1    0    0    0  0.20913644175E+02 -0.13589014073E+02 -0.18114631714E+02  0.30825017409E+02  0.00000000000E+00 0.  1.
</event>
<event>
 5    1  0.1261010E-009  0.9118800E+02  0.7561462E-02  0.1125453E+00
         25   -1    0    0    0    0  0.00000000000E+00  0.00000000000E+00  0.99999998245E-14  0.12509000000E+03  0.12509000000E+03 0.  0.
        -13    1    3    3    0    0 -0.18904440116E+02 -0.56088104544E+02  0.19174732564E+01  0.59219432581E+02  0.10566000000E+00 0. -1.
         23    2    1    0    0    0 -0.21571149371E+02 -0.20364033916E+02  0.42657311480E+01  0.95119934522E+02  0.90275119045E+02 0.  0.
         13    1    3    3    0    0 -0.26667092548E+01  0.35724070628E+02  0.23482578915E+01  0.35900501941E+02  0.10566000000E+00 0.  1.
         22    1    1    0    0    0  0.21571149371E+02  0.20364033916E+02 -0.42657311480E+01  0.29970065478E+02  0.00000000000E+00 0. -1.
</event>
<event>
 5    1  0.1261010E-009  0.9118800E+02  0.7561462E-02  0.1125453E+00
         25   -1    0    0    0    0  0.00000000000E+00  0.00000000000E+00  0.99999998245E-14  0.12509000000E+03  0.12509000000E+03 0.  0.
        -13    1    3    3    0    0  0.35171701470E+02 -0.15449688206E+02  0.32553726302E+02  0.50353725881E+02  0.10566000000E+00 0.  1.
         23    2    1    0    0    0  0.14177787831E+02  0.18932502040E+02  0.23712751722E+02  0.91597554651E+02  0.85254724928E+02 0.  0.
         13    1    3    3    0    0 -0.20993913640E+02  0.34382190246E+02 -0.88409745798E+01  0.41243828769E+02  0.10566000000E+00 0. -1.
         22    1    1    0    0    0 -0.14177787831E+02 -0.18932502040E+02 -0.23712751722E+02  0.33492445349E+02  0.00000000000E+00 0.  1.
</event>
<event>
 5    1  0.1261010E-009  0.9118800E+02  0.7561462E-02  0.1125453E+00
         25   -1    0    0    0    0  0.00000000000E+00  0.00000000000E+00  0.99999998245E-14  0.12509000000E+03  0.12509000000E+03 0.  0.
        -13    1    3    3    0    0  0.59811386998E+01  0.96376959977E+01  0.55855321684E+02  0.56995502706E+02  0.10566000000E+00 0.  1.
         23    2    1    0    0    0 -0.57568179855E+01 -0.12126296242E+02  0.26550034400E+02  0.95339498483E+02  0.90578847589E+02 0.  0.
         13    1    3    3    0    0 -0.11737956685E+02 -0.21763992240E+02 -0.29305287284E+02  0.38343995777E+02  0.10566000000E+00 0. -1.
         22    1    1    0    0    0  0.57568179855E+01  0.12126296242E+02 -0.26550034400E+02  0.29750501517E+02  0.00000000000E+00 0.  1.
</event>
<event>
 5    1  0.1261010E-009  0.9118800E+02  0.7561462E-02  0.1125453E+00
         25   -1    0    0    0    0  0.00000000000E+00  0.00000000000E+00  0.99999998245E-14  0.12509000000E+03  0.12509000000E+03 0.  0.
        -13    1    3    3    0    0 -0.95684060854E+01  0.46230630227E+02 -0.29693248372E+02  0.55772087366E+02  0.10566000000E+00 0.  1.
         23    2    1    0    0    0  0.16051798265E+02  0.22114347758E+02 -0.10816298612E+02  0.95701279035E+02  0.91077098598E+02 0.  0.
         13    1    3    3    0    0  0.25620204350E+02 -0.24116282469E+02  0.18876949760E+02  0.39929191669E+02  0.10566000000E+00 0. -1.
         22    1    1    0    0    0 -0.16051798265E+02 -0.22114347758E+02  0.10816298612E+02  0.29388720965E+02  0.00000000000E+00 0.  1.
</event>
<event>
 5    1  0.1261010E-009  0.9118800E+02  0.7561462E-02  0.1125453E+00
         25   -1    0    0    0    0  0.00000000000E+00  0.00000000000E+00  0.99999998245E-14  0.12509000000E+03  0.12509000000E+03 0.  0.
        -13    1    3    3    0    0  0.31971328071E+02 -0.50702426700E+02  0.12012102297E+02  0.61132672586E+02  0.10566000000E+00 0.  1.
         23    2    1    0    0    0  0.21989843469E+02 -0.18385068591E+02  0.22410143740E+01  0.96339589424E+02  0.91949607841E+02 0.  0.
         13    1    3    3    0    0 -0.99814846025E+01  0.32317358109E+02 -0.97710879231E+01  0.35206916838E+02  0.10566000000E+00 0. -1.
         22    1    1    0    0    0 -0.21989843469E+02  0.18385068591E+02 -0.22410143740E+01  0.28750410576E+02  0.00000000000E+00 0.  1.
</event>
<event>
 5    1  0.1261010E-009  0.9118800E+02  0.7561462E-02  0.1125453E+00
         25   -1    0    0    0    0  0.00000000000E+00  0.00000000000E+00  0.99999998245E-14  0.12509000000E+03  0.12509000000E+03 0.  0.
        -13    1    3    3    0    0  0.34653215993E+02  0.41189655250E+02  0.45329295646E+01  0.54018438451E+02  0.10566000000E+00 0.  1.
         23    2    1    0    0    0  0.14543018976E+02  0.55737069901E+01  0.21702448369E+02  0.98377421020E+02  0.94681334437E+02 0.  0.
         13    1    3    3    0    0 -0.20110197017E+02 -0.35615948260E+02  0.17169518805E+02  0.44358982568E+02  0.10566000000E+00 0. -1.
         22    1    1    0    0    0 -0.14543018976E+02 -0.55737069901E+01 -0.21702448369E+02  0.26712578980E+02  0.00000000000E+00 0.  1.
</event>
<event>
 5    1  0.1261010E-009  0.9118800E+02  0.7561462E-02  0.1125453E+00
         25   -1    0    0    0    0  0.00000000000E+00  0.00000000000E+00  0.99999998245E-14  0.12509000000E+03  0.12509000000E+03 0.  0.
        -13    1    3    3    0    0 -0.51785213069E+00 -0.16471174955E+02  0.46227066241E+02  0.49076680740E+02  0.10566000000E+00 0.  1.
         23    2    1    0    0    0 -0.20329169673E+02  0.13336646100E+02  0.15431533659E+02  0.96292890773E+02  0.91886056143E+02 0.  0.
         13    1    3    3    0    0 -0.19811317542E+02  0.29807821055E+02 -0.30795532582E+02  0.47216210032E+02  0.10566000000E+00 0. -1.
         22    1    1    0    0    0  0.20329169673E+02 -0.13336646100E+02 -0.15431533659E+02  0.28797109227E+02  0.00000000000E+00 0.  1.
</event>
<event>
 5    1  0.1261010E-009  0.9118800E+02  0.7561462E-02  0.1125453E+00
         25   -1    0    0    0    0  0.00000000000E+00  0.00000000000E+00  0.99999998245E-14  0.12509000000E+03  0.12509000000E+03 0.  0.
        -13    1    3    3    0    0  0.14414425692E+01  0.70027724724E+01  0.32914073168E+02  0.33681804517E+02  0.10566000000E+00 0. -1.
         23    2    1    0    0    0  0.12475311295E+02 -0.47370008078E+00 -0.27150126457E+02  0.95207109405E+02  0.90395832487E+02 0.  0.
         13    1    3    3    0    0  0.11033868726E+02 -0.74764725532E+01 -0.60064199625E+02  0.61525304888E+02  0.10566000000E+00 0.  1.
         22    1    1    0    0    0 -0.12475311295E+02  0.47370008078E+00  0.27150126457E+02  0.29882890595E+02  0.00000000000E+00 0.  1.
</event>
<event>
 5    1  0.1261010E-009  0.9118800E+02  0.7561462E-02  0.1125453E+00
         25   -1    0    0    0    0  0.00000000000E+00  0.00000000000E+00  0.99999998245E-14  0.12509000000E+03  0.12509000000E+03 0.  0.
        -13    1    3    3    0    0 -0.15910645187E+02  0.16312420724E+02  0.40269740915E+02  0.46269935137E+02  0.10566000000E+00 0. -1.
         23    2    1    0    0    0  0.13074907629E+02 -0.17516431210E+02  0.61507553494E+01  0.10238294464E+03  0.99833145746E+02 0.  0.
         13    1    3    3    0    0  0.28985552816E+02 -0.33828851934E+02 -0.34118985566E+02  0.56113009501E+02  0.10566000000E+00 0.  1.
         22    1    1    0    0    0 -0.13074907629E+02  0.17516431210E+02 -0.61507553494E+01  0.22707055362E+02  0.00000000000E+00 0.  1.
</event>
<event>
 5    1  0.1261010E-009  0.9118800E+02  0.7561462E-02  0.1125453E+00
         25   -1    0    0    0    0  0.00000000000E+00  0.00000000000E+00  0.99999998245E-14  0.12509000000E+03  0.12509000000E+03 0.  0.
        -13    1    3    3    0    0 -0.54185817822E+01 -0.27195085229E+02  0.48877218792E+02  0.56195439050E+02  0.10566000000E+00 0.  1.
         23    2    1    0    0    0  0.28279372667E+01  0.57925172716E+01  0.28572372314E+02  0.95799541738E+02  0.91211957834E+02 0.  0.
         13    1    3    3    0    0  0.82465190489E+01  0.32987602501E+02 -0.20304846478E+02  0.39604102688E+02  0.10566000000E+00 0. -1.
         22    1    1    0    0    0 -0.28279372667E+01 -0.57925172716E+01 -0.28572372314E+02  0.29290458262E+02  0.00000000000E+00 0.  1.
</event>
<event>
 5    1  0.1261010E-009  0.9118800E+02  0.7561462E-02  0.1125453E+00
         25   -1    0    0    0    0  0.00000000000E+00  0.00000000000E+00  0.99999998245E-14  0.12509000000E+03  0.12509000000E+03 0.  0.
        -13    1    3    3    0    0 -0.45281177578E+02  0.12764975080E+02 -0.24796970987E+02  0.53181110987E+02  0.10566000000E+00 0.  1.
         23    2    1    0    0    0 -0.25624987736E+02 -0.84062340528E+01  0.80699381751E+01  0.96939890416E+02  0.92762673982E+02 0.  0.
         13    1    3    3    0    0  0.19656189841E+02 -0.21171209133E+02  0.32866909162E+02  0.43758779429E+02  0.10566000000E+00 0. -1.
         22    1    1    0    0    0  0.25624987736E+02  0.84062340528E+01 -0.80699381751E+01  0.28150109584E+02  0.00000000000E+00 0.  1.
</event>
<event>
 5    1  0.1261010E-009  0.9118800E+02  0.7561462E-02  0.1125453E+00
         25   -1    0    0    0    0  0.00000000000E+00  0.00000000000E+00  0.99999998245E-14  0.12509000000E+03  0.12509000000E+03 0.  0.
        -13    1    3    3    0    0 -0.34430914050E+02  0.12169426562E+02  0.24944473625E+02  0.44224661826E+02  0.10566000000E+00 0.  1.
         23    2    1    0    0    0 -0.14668934907E+02 -0.26680624658E+02 -0.39049035876E+00  0.94640273134E+02  0.89608009869E+02 0.  0.
         13    1    3    3    0    0  0.19761979143E+02 -0.38850051220E+02 -0.25334963984E+02  0.50415611308E+02  0.10566000000E+00 0. -1.
         22    1    1    0    0    0  0.14668934907E+02  0.26680624658E+02  0.39049035876E+00  0.30449726866E+02  0.00000000000E+00 0. -1.
</event>
<event>
 5    1  0.1261010E-009  0.9118800E+02  0.7561462E-02  0.1125453E+00
         25   -1    0    0    0    0  0.00000000000E+00  0.00000000000E+00  0.99999998245E-14  0.12509000000E+03  0.12509000000E+03 0.  0.
        -13    1    3    3    0    0  0.31433029945E+02  0.15778500437E+02 -0.29683175352E+02  0.46022804245E+02  0.10566000000E+00 0. -1.
         23    2    1    0    0    0  0.50034690478E+00  0.27145742786E+02  0.86691762081E+01  0.96589187475E+02  0.92288541123E+02 0.  0.
         13    1    3    3    0    0 -0.30932683041E+02  0.11367242350E+02  0.38352351560E+02  0.50566383230E+02  0.10566000000E+00 0.  1.
         22    1    1    0    0    0 -0.50034690478E+00 -0.27145742786E+02 -0.86691762081E+01  0.28500812525E+02  0.00000000000E+00 0.  1.
</event>
<event>
 5    1  0.1261010E-009  0.9118800E+02  0.7561462E-02  0.1125453E+00
         25   -1    0    0    0    0  0.00000000000E+00  0.00000000000E+00  0.99999998245E-14  0.12509000000E+03  0.12509000000E+03 0.  0.
        -13    1    3    3    0    0 -0.16180776909E+02  0.19350383225E+02 -0.27199743894E+02  0.37095715443E+02  0.10566000000E+00 0. -1.
         23    2    1    0    0    0  0.29404568126E+02 -0.18239786865E+01  0.25760843737E+01  0.95516502817E+02  0.90822962817E+02 0.  0.
         13    1    3    3    0    0  0.45585345035E+02 -0.21174361911E+02  0.29775828267E+02  0.58420787374E+02  0.10566000000E+00 0.  1.
         22    1    1    0    0    0 -0.29404568126E+02  0.18239786865E+01 -0.25760843737E+01  0.29573497183E+02  0.00000000000E+00 0.  1.
</event>
<event>
 5    1  0.1261010E-009  0.9118800E+02  0.7561462E-02  0.1125453E+00
         25   -1    0    0    0    0  0.00000000000E+00  0.00000000000E+00  0.99999998245E-14  0.12509000000E+03  0.12509000000E+03 0.  0.
        -13    1    3    3    0    0 -0.15459305299E+02 -0.11027148052E+02 -0.44778879920E+02  0.48638949058E+02  0.10566000000E+00 0.  1.
         23    2    1    0    0    0  0.14614541717E+02 -0.24034205730E+02 -0.13690991034E+02  0.93806280430E+02  0.88436118967E+02 0.  0.
         13    1    3    3    0    0  0.30073847016E+02 -0.13007057678E+02  0.31087888887E+02  0.45167331372E+02  0.10566000000E+00 0. -1.
         22    1    1    0    0    0 -0.14614541717E+02  0.24034205730E+02  0.13690991034E+02  0.31283719570E+02  0.00000000000E+00 0. -1.
</event>
<event>
 4    1  0.1261010E-009  0.9118800E+02  0.7561462E-02  0.1125453E+00
         25   -1    0    0    0    0  0.00000000000E+00  0.00000000000E+00  0.99999998245E-14  0.12509000000E+03  0.12509000000E+03 0.  0.
        -13    1    1    0    0    0  0.28953470069E+02  0.18095642891E+02 -0.48058452927E+02  0.58952368760E+02  0.10566000000E+00 0.  1.
         13    1    1    0    0    0  0.37207999406E+01 -0.10772457699E+02  0.79871931413E+01  0.13917493143E+02  0.10566000000E+00 0. -1.
         22    1    1    0    0    0 -0.32674270009E+02 -0.73231851917E+01  0.40071259786E+02  0.52220138097E+02  0.00000000000E+00 0.  1.
</event>
<event>
 5    1  0.1261010E-009  0.9118800E+02  0.7561462E-02  0.1125453E+00
         25   -1    0    0    0    0  0.00000000000E+00  0.00000000000E+00  0.99999998245E-14  0.12509000000E+03  0.12509000000E+03 0.  0.
        -13    1    3    3    0    0  0.14568248476E+02 -0.21119440899E+01 -0.52917190277E+02  0.54926627080E+02  0.10566000000E+00 0.  1.
         23    2    1    0    0    0  0.25331367797E+02  0.37028136332E+01 -0.13604030001E+02  0.96099335028E+02  0.91622178195E+02 0.  0.
         13    1    3    3    0    0  0.10763119321E+02  0.58147577231E+01  0.39313160276E+02  0.41172707948E+02  0.10566000000E+00 0. -1.
         22    1    1    0    0    0 -0.25331367797E+02 -0.37028136332E+01  0.13604030001E+02  0.28990664972E+02  0.00000000000E+00 0.  1.
</event>
<event>
 5    1  0.1261010E-009  0.9118800E+02  0.7561462E-02  0.1125453E+00
         25   -1    0    0    0    0  0.00000000000E+00  0.00000000000E+00  0.99999998245E-14  0.12509000000E+03  0.12509000000E+03 0.  0.
        -13    1    3    3    0    0  0.26773599811E+01  0.29038296811E+02 -0.56129694719E+01  0.29696927930E+02  0.10566000000E+00 0.  1.
         23    2    1    0    0    0 -0.17497628773E+02 -0.27264791387E+02 -0.13441236377E+02  0.90015754500E+02  0.82901347159E+02 0.  0.
         13    1    3    3    0    0 -0.20174988755E+02 -0.56303088199E+02 -0.78282669046E+01  0.60318826569E+02  0.10566000000E+00 0. -1.
         22    1    1    0    0    0  0.17497628773E+02  0.27264791387E+02  0.13441236377E+02  0.35074245500E+02  0.00000000000E+00 0. -1.
</event>
<event>
 5    1  0.1261010E-009  0.9118800E+02  0.7561462E-02  0.1125453E+00
         25   -1    0    0    0    0  0.00000000000E+00  0.00000000000E+00  0.99999998245E-14  0.12509000000E+03  0.12509000000E+03 0.  0.
        -13    1    3    3    0    0  0.52677896964E+02 -0.26028094766E+02  0.10481360333E+02  0.59684944703E+02  0.10566000000E+00 0. -1.
         23    2    1    0    0    0  0.27868935439E+02 -0.91806535988E+00  0.11325012360E+02  0.94993882120E+02  0.90100284843E+02 0.  0.
         13    1    3    3    0    0 -0.24808961525E+02  0.25110029406E+02  0.84365202709E+00  0.35308937417E+02  0.10566000000E+00 0.  1.
         22    1    1    0    0    0 -0.27868935439E+02  0.91806535988E+00 -0.11325012360E+02  0.30096117880E+02  0.00000000000E+00 0. -1.
</event>
<event>
 5    1  0.1261010E-009  0.9118800E+02  0.7561462E-02  0.1125453E+00
         25   -1    0    0    0    0  0.00000000000E+00  0.00000000000E+00  0.99999998245E-14  0.12509000000E+03  0.12509000000E+03 0.  0.
        -13    1    3    3    0    0  0.25631761528E+02  0.13758972691E+02 -0.36776937811E+02  0.46891905990E+02  0.10566000000E+00 0. -1.
         23    2    1    0    0    0  0.26891034744E+02 -0.96812166371E+01  0.61841489745E+01  0.95847951445E+02  0.91278323782E+02 0.  0.
         13    1    3    3    0    0  0.12592732156E+01 -0.23440189328E+02  0.42961086785E+02  0.48956045455E+02  0.10566000000E+00 0.  1.
         22    1    1    0    0    0 -0.26891034744E+02  0.96812166371E+01 -0.61841489745E+01  0.29242048555E+02  0.00000000000E+00 0.  1.
</event>
<event>
 5    1  0.1261010E-009  0.9118800E+02  0.7561462E-02  0.1125453E+00
         25   -1    0    0    0    0  0.00000000000E+00  0.00000000000E+00  0.99999998245E-14  0.12509000000E+03  0.12509000000E+03 0.  0.
        -13    1    3    3    0    0 -0.56600298731E+01  0.34874868932E+02  0.18867226248E+02  0.40053411983E+02  0.10566000000E+00 0.  1.
         23    2    1    0    0    0 -0.24995717467E+02 -0.33256324421E+01 -0.15962387178E+02  0.95246348627E+02  0.90450115531E+02 0.  0.
         13    1    3    3    0    0 -0.19335687594E+02 -0.38200501374E+02 -0.34829613427E+02  0.55192936644E+02  0.10566000000E+00 0. -1.
         22    1    1    0    0    0  0.24995717467E+02  0.33256324421E+01  0.15962387178E+02  0.29843651373E+02  0.00000000000E+00 0. -1.
</event>
<event>
 5    1  0.1261010E-009  0.9118800E+02  0.7561462E-02  0.1125453E+00
         25   -1    0    0    0    0  0.00000000000E+00  0.00000000000E+00  0.99999998245E-14  0.12509000000E+03  0.12509000000E+03 0.  0.
        -13    1    3    3    0    0 -0.83391157912E+01 -0.42963390355E+02  0.44428000290E+02  0.62363868841E+02  0.10566000000E+00 0.  1.
         23    2    1    0    0    0 -0.67636455695E+00 -0.17714895684E+02  0.20550193217E+02  0.97949892421E+02  0.94114802162E+02 0.  0.
         13    1    3    3    0    0  0.76627512342E+01  0.25248494671E+02 -0.23877807073E+02  0.35586023581E+02  0.10566000000E+00 0. -1.
         22    1    1    0    0    0  0.67636455695E+00  0.17714895684E+02 -0.20550193217E+02  0.27140107579E+02  0.00000000000E+00 0.  1.
</event>
<event>
 5    1  0.1261010E-009  0.9118800E+02  0.7561462E-02  0.1125453E+00
         25   -1    0    0    0    0  0.00000000000E+00  0.00000000000E+00  0.99999998245E-14  0.12509000000E+03  0.12509000000E+03 0.  0.
        -13    1    3    3    0    0 -0.35468917360E+02 -0.12866427024E+02 -0.21799997361E+02  0.43575682347E+02  0.10566000000E+00 0.  1.
         23    2    1    0    0    0 -0.15141415097E+02 -0.30024030500E+01  0.25093568310E+02  0.95628770464E+02  0.90977457069E+02 0.  0.
         13    1    3    3    0    0  0.20327502263E+02  0.98640239739E+01  0.46893565671E+02  0.52053088118E+02  0.10566000000E+00 0. -1.
         22    1    1    0    0    0  0.15141415097E+02  0.30024030500E+01 -0.25093568310E+02  0.29461229536E+02  0.00000000000E+00 0.  1.
</event>
<event>
 5    1  0.1261010E-009  0.9118800E+02  0.7561462E-02  0.1125453E+00
         25   -1    0    0    0    0  0.00000000000E+00  0.00000000000E+00  0.99999998245E-14  0.12509000000E+03  0.12509000000E+03 0.  0.
        -13    1    3    3    0    0 -0.60309373007E+02  0.15436414468E+01  0.11871740501E+02  0.61486199167E+02  0.10566000000E+00 0.  1.
         23    2    1    0    0    0 -0.34710954248E+02 -0.38791592375E+01  0.13958124137E+00  0.90162679689E+02  0.83122747215E+02 0.  0.
         13    1    3    3    0    0  0.25598418759E+02 -0.54228006842E+01 -0.11732159259E+02  0.28676480522E+02  0.10566000000E+00 0. -1.
         22    1    1    0    0    0  0.34710954248E+02  0.38791592375E+01 -0.13958124137E+00  0.34927320311E+02  0.00000000000E+00 0.  1.
</event>
<event>
 5    1  0.1261010E-009  0.9118800E+02  0.7561462E-02  0.1125453E+00
         25   -1    0    0    0    0  0.00000000000E+00  0.00000000000E+00  0.99999998245E-14  0.12509000000E+03  0.12509000000E+03 0.  0.
        -13    1    3    3    0    0  0.26572849213E+02  0.11515306680E+01 -0.25640221268E+02  0.36944207244E+02  0.10566000000E+00 0.  1.
         23    2    1    0    0    0 -0.27094198739E+02 -0.11010441014E+02 -0.73170149481E+01  0.94942626576E+02  0.90029096501E+02 0.  0.
         13    1    3    3    0    0 -0.53667047952E+02 -0.12161971682E+02  0.18323206320E+02  0.57998419332E+02  0.10566000000E+00 0. -1.
         22    1    1    0    0    0  0.27094198739E+02  0.11010441014E+02  0.73170149481E+01  0.30147373424E+02  0.00000000000E+00 0. -1.
</event>
<event>
 5    1  0.1261010E-009  0.9118800E+02  0.7561462E-02  0.1125453E+00
         25   -1    0    0    0    0  0.00000000000E+00  0.00000000000E+00  0.99999998245E-14  0.12509000000E+03  0.12509000000E+03 0.  0.
        -13    1    3    3    0    0 -0.18146489446E+00 -0.47763527456E+02  0.15030001177E+02  0.50072942634E+02  0.10566000000E+00 0.  1.
         23    2    1    0    0    0 -0.10303814489E+02 -0.19048478900E+02 -0.19386114537E+02  0.96023961772E+02  0.91519214682E+02 0.  0.
         13    1    3    3    0    0 -0.10122349595E+02  0.28715048556E+02 -0.34416115714E+02  0.45951019138E+02  0.10566000000E+00 0. -1.
         22    1    1    0    0    0  0.10303814489E+02  0.19048478900E+02  0.19386114537E+02  0.29066038228E+02  0.00000000000E+00 0.  1.
</event>
<event>
 5    1  0.1261010E-009  0.9118800E+02  0.7561462E-02  0.1125453E+00
         25   -1    0    0    0    0  0.00000000000E+00  0.00000000000E+00  0.99999998245E-14  0.12509000000E+03  0.12509000000E+03 0.  0.
        -13    1    3    3    0    0  0.85241893232E+01  0.53656980837E+01 -0.33962499151E+02  0.35424779917E+02  0.10566000000E+00 0.  1.
         23    2    1    0    0    0  0.10121011519E+02  0.57798108818E+01  0.26620253129E+02  0.96030079755E+02  0.91527576463E+02 0.  0.
         13    1    3    3    0    0  0.15968221955E+01  0.41411279810E+00  0.60582752280E+02  0.60605299838E+02  0.10566000000E+00 0. -1.
         22    1    1    0    0    0 -0.10121011519E+02 -0.57798108818E+01 -0.26620253129E+02  0.29059920245E+02  0.00000000000E+00 0. -1.
</event>
<event>
 5    1  0.1261010E-009  0.9118800E+02  0.7561462E-02  0.1125453E+00
         25   -1    0    0    0    0  0.00000000000E+00  0.00000000000E+00  0.99999998245E-14  0.12509000000E+03  0.12509000000E+03 0.  0.
        -13    1    3    3    0    0 -0.17236949523E+02 -0.25078816694E+02  0.49585520351E+02  0.58178986482E+02  0.10566000000E+00 0.  1.
         23    2    1    0    0    0  0.66952644156E+01 -0.15879968586E+02  0.30187393475E+02  0.90329696596E+02  0.83373709252E+02 0.  0.
         13    1    3    3    0    0  0.23932213939E+02  0.91988481078E+01 -0.19398126876E+02  0.32150710114E+02  0.10566000000E+00 0. -1.
         22    1    1    0    0    0 -0.66952644156E+01  0.15879968586E+02 -0.30187393475E+02  0.34760303404E+02  0.00000000000E+00 0.  1.
</event>
<event>
 5    1  0.1261010E-009  0.9118800E+02  0.7561462E-02  0.1125453E+00
         25   -1    0    0    0    0  0.00000000000E+00  0.00000000000E+00  0.99999998245E-14  0.12509000000E+03  0.12509000000E+03 0.  0.
        -13    1    3    3    0    0 -0.41496135817E+02 -0.14299332912E+02  0.18103102459E+01  0.43928220960E+02  0.10566000000E+00 0. -1.
         23    2    1    0    0    0  0.23098961405E+01 -0.24296640429E+02 -0.19682161981E+02  0.93736374108E+02  0.88337183418E+02 0.  0.
         13    1    3    3    0    0  0.43806031958E+02 -0.99973075174E+01 -0.21492472227E+02  0.49808153148E+02  0.10566000000E+00 0.  1.
         22    1    1    0    0    0 -0.23098961405E+01  0.24296640429E+02  0.19682161981E+02  0.31353625892E+02  0.00000000000E+00 0. -1.
</event>
<event>
 5    1  0.1261010E-009  0.9118800E+02  0.7561462E-02  0.1125453E+00
         25   -1    0    0    0    0  0.00000000000E+00  0.00000000000E+00  0.99999998245E-14  0.12509000000E+03  0.12509000000E+03 0.  0.
        -13    1    3    3    0    0  0.32764568636E+02  0.20600695023E+02  0.18517183616E+02  0.42904578385E+02  0.10566000000E+00 0.  1.
         23    2    1    0    0    0 -0.15787802602E+02  0.59523625763E+01  0.25926152174E+02  0.94156996625E+02  0.88930811959E+02 0.  0.
         13    1    3    3    0    0 -0.48552371238E+02 -0.14648332447E+02  0.74089685576E+01  0.51252418240E+02  0.10566000000E+00 0. -1.
         22    1    1    0    0    0  0.15787802602E+02 -0.59523625763E+01 -0.25926152174E+02  0.30933003375E+02  0.00000000000E+00 0.  1.
</event>
<event>
 5    1  0.1261010E-009  0.9118800E+02  0.7561462E-02  0.1125453E+00
         25   -1    0    0    0    0  0.00000000000E+00  0.00000000000E+00  0.99999998245E-14  0.12509000000E+03  0.12509000000E+03 0.  0.
        -13    1    3    3    0    0  0.16747620655E+02  0.79681270599E+01  0.26710876268E+02  0.32518547346E+02  0.10566000000E+00 0.  1.
         23    2    1    0    0    0 -0.33394087298E+02  0.16928183090E+02  0.78374944923E+01  0.86838793887E+02  0.77960383237E+02 0.  0.
         13    1    3    3    0    0 -0.50141707953E+02  0.89600560305E+01 -0.18873381776E+02  0.54320246541E+02  0.10566000000E+00 0. -1.
         22    1    1    0    0    0  0.33394087298E+02 -0.16928183090E+02 -0.78374944923E+01  0.38251206113E+02  0.00000000000E+00 0. -1.
</event>
<event>
 5    1  0.1261010E-009  0.9118800E+02  0.7561462E-02  0.1125453E+00
         25   -1    0    0    0    0  0.00000000000E+00  0.00000000000E+00  0.99999998245E-14  0.12509000000E+03  0.12509000000E+03 0.  0.
        -13    1    3    3    0    0 -0.22161406240E+02  0.34891218460E+02 -0.31942088461E+02  0.52238235340E+02  0.10566000000E+00 0.  1.
         23    2    1    0    0    0  0.14825313340E+02  0.21547457613E+02 -0.12612456852E+02  0.96052835658E+02  0.91558671489E+02 0.  0.
         13    1    3    3    0    0  0.36986719580E+02 -0.13343760847E+02  0.19329631609E+02  0.43814600318E+02  0.10566000000E+00 0. -1.
         22    1    1    0    0    0 -0.14825313340E+02 -0.21547457613E+02  0.12612456852E+02  0.29037164342E+02  0.00000000000E+00 0. -1.
</event>
<event>
 5    1  0.1261010E-009  0.9118800E+02  0.7561462E-02  0.1125453E+00
         25   -1    0    0    0    0  0.00000000000E+00  0.00000000000E+00  0.99999998245E-14  0.12509000000E+03  0.12509000000E+03 0.  0.
        -13    1    3    3    0    0 -0.27268385476E+02 -0.73889477801E+01 -0.26685923296E+01  0.28377701542E+02  0.10566000000E+00 0.  1.
         23    2    1    0    0    0  0.31457084770E+02 -0.39340105991E+01  0.15301493562E+02  0.89888290854E+02  0.82708793400E+02 0.  0.
         13    1    3    3    0    0  0.58725470246E+02  0.34549371810E+01  0.17970085891E+02  0.61510589312E+02  0.10566000000E+00 0. -1.
         22    1    1    0    0    0 -0.31457084770E+02  0.39340105991E+01 -0.15301493562E+02  0.35201709146E+02  0.00000000000E+00 0. -1.
</event>
<event>
 5    1  0.1261010E-009  0.9118800E+02  0.7561462E-02  0.1125453E+00
         25   -1    0    0    0    0  0.00000000000E+00  0.00000000000E+00  0.99999998245E-14  0.12509000000E+03  0.12509000000E+03 0.  0.
        -13    1    3    3    0    0  0.39446610191E+02 -0.83725431130E+01 -0.34100107791E+02  0.52810633864E+02  0.10566000000E+00 0.  1.
         23    2    1    0    0    0 -0.27579085668E+01  0.51592902021E+01 -0.26714188221E+02  0.97742748084E+02  0.93839078297E+02 0.  0.
         13    1    3    3    0    0 -0.42204518757E+02  0.13531833315E+02  0.73859195699E+01  0.44932114221E+02  0.10566000000E+00 0. -1.
         22    1    1    0    0    0  0.27579085668E+01 -0.51592902021E+01  0.26714188221E+02  0.27347251916E+02  0.00000000000E+00 0. -1.
</event>
<event>
 5    1  0.1261010E-009  0.9118800E+02  0.7561462E-02  0.1125453E+00
         25   -1    0    0    0    0  0.00000000000E+00  0.00000000000E+00  0.99999998245E-14  0.12509000000E+03  0.12509000000E+03 0.  0.
        -13    1    3    3    0    0 -0.22030363832E+02  0.67854967631E+01 -0.26969948283E+02  0.35479137127E+02  0.10566000000E+00 0.  1.
         23    2    1    0    0    0  0.16815751316E+02 -0.24572278799E+02  0.51920198345E+01  0.94865449587E+02  0.89921799791E+02 0.  0.
         13    1    3    3    0    0  0.38846115149E+02 -0.31357775562E+02  0.32161968117E+02  0.59386312460E+02  0.10566000000E+00 0. -1.
         22    1    1    0    0    0 -0.16815751316E+02  0.24572278799E+02 -0.51920198345E+01  0.30224550413E+02  0.00000000000E+00 0. -1.
</event>
<event>
 5    1  0.1261010E-009  0.9118800E+02  0.7561462E-02  0.1125453E+00
         25   -1    0    0    0    0  0.00000000000E+00  0.00000000000E+00  0.99999998245E-14  0.12509000000E+03  0.12509000000E+03 0.  0.
        -13    1    3    3    0    0 -0.36409443947E+02 -0.45124711553E+02 -0.18401699742E+01  0.58011073002E+02  0.10566000000E+00 0. -1.
         23    2    1    0    0    0 -0.13678664005E+02 -0.23810540908E+02 -0.17134361574E+02  0.92722824438E+02  0.86890092173E+02 0.  0.
         13    1    3    3    0    0  0.22730779942E+02  0.21314170644E+02 -0.15294191600E+02  0.34711751436E+02  0.10566000000E+00 0.  1.
         22    1    1    0    0    0  0.13678664005E+02  0.23810540908E+02  0.17134361574E+02  0.32367175562E+02  0.00000000000E+00 0. -1.
</event>
<event>
 5    1  0.1261010E-009  0.9118800E+02  0.7561462E-02  0.1125453E+00
         25   -1    0    0    0    0  0.00000000000E+00  0.00000000000E+00  0.99999998245E-14  0.12509000000E+03  0.12509000000E+03 0.  0.
        -13    1    3    3    0    0  0.23179864823E+02  0.17159299880E+02 -0.19922950692E+02  0.35052572429E+02  0.10566000000E+00 0. -1.
         23    2    1    0    0    0 -0.19157897584E+02 -0.21842607318E+02  0.20819909380E+00  0.96035432697E+02  0.91534891993E+02 0.  0.
         13    1    3    3    0    0 -0.42337762407E+02 -0.39001907198E+02  0.20131149786E+02  0.60982860268E+02  0.10566000000E+00 0.  1.
         22    1    1    0    0    0  0.19157897584E+02  0.21842607318E+02 -0.20819909380E+00  0.29054567303E+02  0.00000000000E+00 0.  1.
</event>
<event>
 5    1  0.1261010E-009  0.9118800E+02  0.7561462E-02  0.1125453E+00
         25   -1    0    0    0    0  0.00000000000E+00  0.00000000000E+00  0.99999998245E-14  0.12509000000E+03  0.12509000000E+03 0.  0.
        -13    1    3    3    0    0 -0.25514676920E+02 -0.11313543530E+02  0.44236368861E+02  0.52305472941E+02  0.10566000000E+00 0. -1.
         23    2    1    0    0    0 -0.85265174862E+01  0.20157769007E+02  0.19350562219E+02  0.95875595847E+02  0.91316200475E+02 0.  0.
         13    1    3    3    0    0  0.16988159434E+02  0.31471312538E+02 -0.24885806642E+02  0.43570122906E+02  0.10566000000E+00 0.  1.
         22    1    1    0    0    0  0.85265174862E+01 -0.20157769007E+02 -0.19350562219E+02  0.29214404153E+02  0.00000000000E+00 0. -1.
</event>
<event>
 5    1  0.1261010E-009  0.9118800E+02  0.7561462E-02  0.1125453E+00
         25   -1    0    0    0    0  0.00000000000E+00  0.00000000000E+00  0.99999998245E-14  0.12509000000E+03  0.12509000000E+03 0.  0.
        -13    1    3    3    0    0 -0.31219294467E+02 -0.43366111724E+02 -0.10292655896E+02  0.54417037061E+02  0.10566000000E+00 0.  1.
         23    2    1    0    0    0 -0.93084021457E+01 -0.13058723600E+02  0.17755345705E+02  0.10116451330E+03  0.98294607371E+02 0.  0.
         13    1    3    3    0    0  0.21910892322E+02  0.30307388124E+02  0.28048001600E+02  0.46747476242E+02  0.10566000000E+00 0. -1.
         22    1    1    0    0    0  0.93084021457E+01  0.13058723600E+02 -0.17755345705E+02  0.23925486697E+02  0.00000000000E+00 0. -1.
</event>
<event>
 5    1  0.1261010E-009  0.9118800E+02  0.7561462E-02  0.1125453E+00
         25   -1    0    0    0    0  0.00000000000E+00  0.00000000000E+00  0.99999998245E-14  0.12509000000E+03  0.12509000000E+03 0.  0.
        -13    1    3    3    0    0  0.29344874274E+02 -0.51745125767E+02 -0.85510033195E+01  0.60098340314E+02  0.10566000000E+00 0.  1.
         23    2    1    0    0    0  0.40703467847E+01 -0.30184295725E+02  0.83685898750E+00  0.94621003228E+02  0.89581105639E+02 0.  0.
         13    1    3    3    0    0 -0.25274527489E+02  0.21560830042E+02  0.93878623070E+01  0.34522662913E+02  0.10566000000E+00 0. -1.
         22    1    1    0    0    0 -0.40703467847E+01  0.30184295725E+02 -0.83685898750E+00  0.30468996772E+02  0.00000000000E+00 0.  1.
</event>
<event>
 5    1  0.1261010E-009  0.9118800E+02  0.7561462E-02  0.1125453E+00
         25   -1    0    0    0    0  0.00000000000E+00  0.00000000000E+00  0.99999998245E-14  0.12509000000E+03  0.12509000000E+03 0.  0.
        -13    1    3    3    0    0 -0.15090600509E+02  0.56877143753E+02 -0.10460519365E+02  0.59767627815E+02  0.10566000000E+00 0. -1.
         23    2    1    0    0    0  0.47993117193E+01  0.33143645275E+02 -0.45451472602E+01  0.91293654359E+02  0.84807655005E+02 0.  0.
         13    1    3    3    0    0  0.19889912228E+02 -0.23733498478E+02  0.59153721052E+01  0.31526026544E+02  0.10566000000E+00 0.  1.
         22    1    1    0    0    0 -0.47993117193E+01 -0.33143645275E+02  0.45451472602E+01  0.33796345641E+02  0.00000000000E+00 0. -1.
</event>
<event>
 5    1  0.1261010E-009  0.9118800E+02  0.7561462E-02  0.1125453E+00
         25   -1    0    0    0    0  0.00000000000E+00  0.00000000000E+00  0.99999998245E-14  0.12509000000E+03  0.12509000000E+03 0.  0.
        -13    1    3    3    0    0  0.44939325857E+02 -0.29243923558E+02 -0.21127107697E+02  0.57629123863E+02  0.10566000000E+00 0.  1.
         23    2    1    0    0    0  0.10512727481E+02 -0.13051418150E+02 -0.24039893191E+02  0.95785163890E+02  0.91192237619E+02 0.  0.
         13    1    3    3    0    0 -0.34426598376E+02  0.16192505408E+02 -0.29127854937E+01  0.38156040026E+02  0.10566000000E+00 0. -1.
         22    1    1    0    0    0 -0.10512727481E+02  0.13051418150E+02  0.24039893191E+02  0.29304836110E+02  0.00000000000E+00 0.  1.
</event>
<event>
 5    1  0.1261010E-009  0.9118800E+02  0.7561462E-02  0.1125453E+00
         25   -1    0    0    0    0  0.00000000000E+00  0.00000000000E+00  0.99999998245E-14  0.12509000000E+03  0.12509000000E+03 0.  0.
        -13    1    3    3    0    0 -0.18760208792E+01 -0.15583023365E+02 -0.40558964959E+02  0.43490123868E+02  0.10566000000E+00 0.  1.
         23    2    1    0    0    0 -0.17571968182E+02 -0.20750844921E+02  0.95630156264E+01  0.96266001343E+02  0.91849442654E+02 0.  0.
         13    1    3    3    0    0 -0.15695947303E+02 -0.51678215566E+01  0.50121980585E+02  0.52775877474E+02  0.10566000000E+00 0. -1.
         22    1    1    0    0    0  0.17571968182E+02  0.20750844921E+02 -0.95630156264E+01  0.28823998657E+02  0.00000000000E+00 0. -1.
</event>
<event>
 5    1  0.1261010E-009  0.9118800E+02  0.7561462E-02  0.1125453E+00
         25   -1    0    0    0    0  0.00000000000E+00  0.00000000000E+00  0.99999998245E-14  0.12509000000E+03  0.12509000000E+03 0.  0.
        -13    1    3    3    0    0 -0.35957649287E+02  0.24467571518E+02 -0.40983828828E+01  0.43685495356E+02  0.10566000000E+00 0. -1.
         23    2    1    0    0    0 -0.75176382121E+01  0.87861279215E+01 -0.34825684025E+02  0.88394779658E+02  0.80418268290E+02 0.  0.
         13    1    3    3    0    0  0.28440011075E+02 -0.15681443596E+02 -0.30727301143E+02  0.44709284301E+02  0.10566000000E+00 0.  1.
         22    1    1    0    0    0  0.75176382121E+01 -0.87861279215E+01  0.34825684025E+02  0.36695220342E+02  0.00000000000E+00 0. -1.
</event>
<event>
 5    1  0.1261010E-009  0.9118800E+02  0.7561462E-02  0.1125453E+00
         25   -1    0    0    0    0  0.00000000000E+00  0.00000000000E+00  0.99999998245E-14  0.12509000000E+03  0.12509000000E+03 0.  0.
        -13    1    3    3    0    0 -0.10790351139E+02  0.21089414022E+02  0.32052723406E+02  0.39857035806E+02  0.10566000000E+00 0.  1.
         23    2    1    0    0    0  0.17726432893E+02  0.18737425898E+02 -0.15238658589E+02  0.95131123720E+02  0.90290622061E+02 0.  0.
         13    1    3    3    0    0  0.28516784032E+02 -0.23519881232E+01 -0.47291381994E+02  0.55274087913E+02  0.10566000000E+00 0. -1.
         22    1    1    0    0    0 -0.17726432893E+02 -0.18737425898E+02  0.15238658589E+02  0.29958876280E+02  0.00000000000E+00 0.  1.
</event>
<event>
 5    1  0.1261010E-009  0.9118800E+02  0.7561462E-02  0.1125453E+00
         25   -1    0    0    0    0  0.00000000000E+00  0.00000000000E+00  0.99999998245E-14  0.12509000000E+03  0.12509000000E+03 0.  0.
        -13    1    3    3    0    0  0.20230560463E+02  0.29920511263E+02  0.28957305169E+02  0.46293080019E+02  0.10566000000E+00 0. -1.
         23    2    1    0    0    0 -0.11886647281E+02 -0.80356220669E+01  0.25118807196E+02  0.96162191916E+02  0.91707955345E+02 0.  0.
         13    1    3    3    0    0 -0.32117207745E+02 -0.37956133330E+02 -0.38384979733E+01  0.49869111897E+02  0.10566000000E+00 0.  1.
         22    1    1    0    0    0  0.11886647281E+02  0.80356220669E+01 -0.25118807196E+02  0.28927808084E+02  0.00000000000E+00 0.  1.
</event>
<event>
 5    1  0.1261010E-009  0.9118800E+02  0.7561462E-02  0.1125453E+00
         25   -1    0    0    0    0  0.00000000000E+00  0.00000000000E+00  0.99999998245E-14  0.12509000000E+03  0.12509000000E+03 0.  0.
        -13    1    3    3    0    0 -0.29369169255E+02 -0.19379650592E+02  0.21278818649E+02  0.41120776342E+02  0.10566000000E+00 0. -1.
         23    2    1    0    0    0 -0.40394169635E+01  0.22034708404E+02 -0.11707169223E+02  0.99813467899E+02  0.96559957016E+02 0.  0.
         13    1    3    3    0    0  0.25329752292E+02  0.41414358996E+02 -0.32985987872E+02  0.58692691557E+02  0.10566000000E+00 0.  1.
         22    1    1    0    0    0  0.40394169635E+01 -0.22034708404E+02  0.11707169223E+02  0.25276532101E+02  0.00000000000E+00 0.  1.
</event>
<event>
 5    1  0.1261010E-009  0.9118800E+02  0.7561462E-02  0.1125453E+00
         25   -1    0    0    0    0  0.00000000000E+00  0.00000000000E+00  0.99999998245E-14  0.12509000000E+03  0.12509000000E+03 0.  0.
        -13    1    3    3    0    0 -0.15448019584E+02 -0.28161647436E+02 -0.18099173728E+02  0.36868834386E+02  0.10566000000E+00 0. -1.
         23    2    1    0    0    0 -0.14597796215E+02  0.26402129891E+02  0.15810216189E+01  0.94879608634E+02  0.89941494251E+02 0.  0.
         13    1    3    3    0    0  0.85022336911E+00  0.54563777327E+02  0.19680195346E+02  0.58010774248E+02  0.10566000000E+00 0.  1.
         22    1    1    0    0    0  0.14597796215E+02 -0.26402129891E+02 -0.15810216189E+01  0.30210391366E+02  0.00000000000E+00 0.  1.
</event>
<event>
 5    1  0.1261010E-009  0.9118800E+02  0.7561462E-02  0.1125453E+00
         25   -1    0    0    0    0  0.00000000000E+00  0.00000000000E+00  0.99999998245E-14  0.12509000000E+03  0.12509000000E+03 0.  0.
        -13    1    3    3    0    0  0.30457158802E+02 -0.88124301961E+01 -0.84180899272E+00  0.31717775058E+02  0.10566000000E+00 0.  1.
         23    2    1    0    0    0 -0.18643678071E+02  0.25547033315E+02 -0.90204837299E+01  0.92202209410E+02  0.86137335982E+02 0.  0.
         13    1    3    3    0    0 -0.49100836873E+02  0.34359463511E+02 -0.81786747372E+01  0.60484434351E+02  0.10566000000E+00 0. -1.
         22    1    1    0    0    0  0.18643678071E+02 -0.25547033315E+02  0.90204837299E+01  0.32887790590E+02  0.00000000000E+00 0. -1.
</event>
<event>
 5    1  0.1261010E-009  0.9118800E+02  0.7561462E-02  0.1125453E+00
         25   -1    0    0    0    0  0.00000000000E+00  0.00000000000E+00  0.99999998245E-14  0.12509000000E+03  0.12509000000E+03 0.  0.
        -13    1    3    3    0    0 -0.72901765980E+01 -0.60697222875E+02  0.12469637191E+02  0.62392327696E+02  0.10566000000E+00 0. -1.
         23    2    1    0    0    0 -0.11910686540E+01 -0.34961072988E+02  0.77771356787E+01  0.89254555139E+02  0.81744703221E+02 0.  0.
         13    1    3    3    0    0  0.60991079440E+01  0.25736149887E+02 -0.46925015123E+01  0.26862227443E+02  0.10566000000E+00 0.  1.
         22    1    1    0    0    0  0.11910686540E+01  0.34961072988E+02 -0.77771356787E+01  0.35835444861E+02  0.00000000000E+00 0. -1.
</event>
<event>
 5    1  0.1261010E-009  0.9118800E+02  0.7561462E-02  0.1125453E+00
         25   -1    0    0    0    0  0.00000000000E+00  0.00000000000E+00  0.99999998245E-14  0.12509000000E+03  0.12509000000E+03 0.  0.
        -13    1    3    3    0    0  0.27701215370E+02 -0.40354195459E+01 -0.28926110383E+02  0.40253856583E+02  0.10566000000E+00 0. -1.
         23    2    1    0    0    0  0.13803735769E+02 -0.13613679150E+02  0.23090013858E+02  0.94939973115E+02  0.90025409602E+02 0.  0.
         13    1    3    3    0    0 -0.13897479602E+02 -0.95782596044E+01  0.52016124241E+02  0.54686116532E+02  0.10566000000E+00 0.  1.
         22    1    1    0    0    0 -0.13803735769E+02  0.13613679150E+02 -0.23090013858E+02  0.30150026885E+02  0.00000000000E+00 0.  1.
</event>
<event>
 5    1  0.1261010E-009  0.9118800E+02  0.7561462E-02  0.1125453E+00
         25   -1    0    0    0    0  0.00000000000E+00  0.00000000000E+00  0.99999998245E-14  0.12509000000E+03  0.12509000000E+03 0.  0.
        -13    1    3    3    0    0 -0.13918916938E+02 -0.11789004491E+02 -0.30193018384E+02  0.35275294454E+02  0.10566000000E+00 0.  1.
         23    2    1    0    0    0  0.23902235087E+02 -0.32099048963E+02 -0.57999766544E+01  0.84651089089E+02  0.74367340736E+02 0.  0.
         13    1    3    3    0    0  0.37821152025E+02 -0.20310044472E+02  0.24393041729E+02  0.49375794635E+02  0.10566000000E+00 0. -1.
         22    1    1    0    0    0 -0.23902235087E+02  0.32099048963E+02  0.57999766544E+01  0.40438910911E+02  0.00000000000E+00 0. -1.
</event>
<event>
 5    1  0.1261010E-009  0.9118800E+02  0.7561462E-02  0.1125453E+00
         25   -1    0    0    0    0  0.00000000000E+00  0.00000000000E+00  0.99999998245E-14  0.12509000000E+03  0.12509000000E+03 0.  0.
        -13    1    3    3    0    0  0.14514156129E+02 -0.58796995845E+02  0.11316996070E+01  0.60572595755E+02  0.10566000000E+00 0.  1.
         23    2    1    0    0    0  0.17161471243E+02 -0.23813578143E+02  0.20207390722E+01  0.95667457867E+02  0.91030635004E+02 0.  0.
         13    1    3    3    0    0  0.26473151137E+01  0.34983417702E+02  0.88903946521E+00  0.35094862112E+02  0.10566000000E+00 0. -1.
         22    1    1    0    0    0 -0.17161471243E+02  0.23813578143E+02 -0.20207390722E+01  0.29422542133E+02  0.00000000000E+00 0.  1.
</event>
<event>
 5    1  0.1261010E-009  0.9118800E+02  0.7561462E-02  0.1125453E+00
         25   -1    0    0    0    0  0.00000000000E+00  0.00000000000E+00  0.99999998245E-14  0.12509000000E+03  0.12509000000E+03 0.  0.
        -13    1    3    3    0    0  0.37584809863E+02  0.61828618357E+01 -0.48623705979E+01  0.38399212554E+02  0.10566000000E+00 0. -1.
         23    2    1    0    0    0 -0.59104407339E+01 -0.11256389591E+02  0.27122521134E+02  0.95135521721E+02  0.90296714914E+02 0.  0.
         13    1    3    3    0    0 -0.43495250597E+02 -0.17439251427E+02  0.31984891732E+02  0.56736309167E+02  0.10566000000E+00 0.  1.
         22    1    1    0    0    0  0.59104407339E+01  0.11256389591E+02 -0.27122521134E+02  0.29954478279E+02  0.00000000000E+00 0.  1.
</event>
<event>
 5    1  0.1261010E-009  0.9118800E+02  0.7561462E-02  0.1125453E+00
         25   -1    0    0    0    0  0.00000000000E+00  0.00000000000E+00  0.99999998245E-14  0.12509000000E+03  0.12509000000E+03 0.  0.
        -13    1    3    3    0    0 -0.59835337782E+02  0.16519510836E+02 -0.21093332956E+01  0.62109760398E+02  0.10566000000E+00 0.  1.
         23    2    1    0    0    0 -0.29169916038E+02  0.42215689663E+01  0.26794101046E+01  0.95494647582E+02  0.90792856724E+02 0.  0.
         13    1    3    3    0    0  0.30665421743E+02 -0.12297941870E+02  0.47887434002E+01  0.33384887184E+02  0.10566000000E+00 0. -1.
         22    1    1    0    0    0  0.29169916038E+02 -0.42215689663E+01 -0.26794101046E+01  0.29595352418E+02  0.00000000000E+00 0.  1.
</event>
<event>
 5    1  0.1261010E-009  0.9118800E+02  0.7561462E-02  0.1125453E+00
         25   -1    0    0    0    0  0.00000000000E+00  0.00000000000E+00  0.99999998245E-14  0.12509000000E+03  0.12509000000E+03 0.  0.
        -13    1    3    3    0    0 -0.59099234219E+02  0.17884546779E+01  0.94497737322E+01  0.59876768809E+02  0.10566000000E+00 0. -1.
         23    2    1    0    0    0 -0.27452928883E+02 -0.72905400034E+01 -0.57016312340E+01  0.96118913094E+02  0.91648903855E+02 0.  0.
         13    1    3    3    0    0  0.31646305336E+02 -0.90789946813E+01 -0.15151404966E+02  0.36242144285E+02  0.10566000000E+00 0.  1.
         22    1    1    0    0    0  0.27452928883E+02  0.72905400034E+01  0.57016312340E+01  0.28971086906E+02  0.00000000000E+00 0. -1.
</event>
<event>
 5    1  0.1261010E-009  0.9118800E+02  0.7561462E-02  0.1125453E+00
         25   -1    0    0    0    0  0.00000000000E+00  0.00000000000E+00  0.99999998245E-14  0.12509000000E+03  0.12509000000E+03 0.  0.
        -13    1    3    3    0    0 -0.70883239903E+01  0.35715121925E+02 -0.84938484495E+01  0.37389449002E+02  0.10566000000E+00 0.  1.
         23    2    1    0    0    0  0.44247274433E+01  0.32558900246E+01  0.33182986050E+02  0.91455351258E+02  0.85045821049E+02 0.  0.
         13    1    3    3    0    0  0.11513051434E+02 -0.32459231901E+02  0.41676834499E+02  0.54065902257E+02  0.10566000000E+00 0. -1.
         22    1    1    0    0    0 -0.44247274433E+01 -0.32558900246E+01 -0.33182986050E+02  0.33634648742E+02  0.00000000000E+00 0. -1.
</event>
<event>
 5    1  0.1261010E-009  0.9118800E+02  0.7561462E-02  0.1125453E+00
         25   -1    0    0    0    0  0.00000000000E+00  0.00000000000E+00  0.99999998245E-14  0.12509000000E+03  0.12509000000E+03 0.  0.
        -13    1    3    3    0    0 -0.21128232752E+02  0.89631874127E+00 -0.41516873442E+02  0.46592569697E+02  0.10566000000E+00 0.  1.
         23    2    1    0    0    0  0.17108632835E+02  0.17839827668E+02 -0.13585483536E+02  0.96884856291E+02  0.92688431031E+02 0.  0.
         13    1    3    3    0    0  0.38236865588E+02  0.16943508927E+02  0.27931389907E+02  0.50292286594E+02  0.10566000000E+00 0. -1.
         22    1    1    0    0    0 -0.17108632835E+02 -0.17839827668E+02  0.13585483536E+02  0.28205143709E+02  0.00000000000E+00 0.  1.
</event>
<event>
 5    1  0.1261010E-009  0.9118800E+02  0.7561462E-02  0.1125453E+00
         25   -1    0    0    0    0  0.00000000000E+00  0.00000000000E+00  0.99999998245E-14  0.12509000000E+03  0.12509000000E+03 0.  0.
        -13    1    3    3    0    0 -0.32040366603E+02 -0.12665040979E+02 -0.22024605383E+02  0.40891108586E+02  0.10566000000E+00 0.  1.
         23    2    1    0    0    0  0.79882845592E+01  0.24507202092E+02 -0.12869124070E+02  0.96279758785E+02  0.91868177040E+02 0.  0.
         13    1    3    3    0    0  0.40028651162E+02  0.37172243071E+02  0.91554813133E+01  0.55388650199E+02  0.10566000000E+00 0. -1.
         22    1    1    0    0    0 -0.79882845592E+01 -0.24507202092E+02  0.12869124070E+02  0.28810241215E+02  0.00000000000E+00 0. -1.
</event>
<event>
 5    1  0.1261010E-009  0.9118800E+02  0.7561462E-02  0.1125453E+00
         25   -1    0    0    0    0  0.00000000000E+00  0.00000000000E+00  0.99999998245E-14  0.12509000000E+03  0.12509000000E+03 0.  0.
        -13    1    3    3    0    0  0.40772403492E+01  0.38894268168E+02 -0.43338784564E+02  0.58375075133E+02  0.10566000000E+00 0. -1.
         23    2    1    0    0    0  0.16123735866E+02  0.22890396262E+02 -0.14305412930E+02  0.93648149889E+02  0.88212164917E+02 0.  0.
         13    1    3    3    0    0  0.12046495517E+02 -0.16003871907E+02  0.29033371635E+02  0.35273074756E+02  0.10566000000E+00 0.  1.
         22    1    1    0    0    0 -0.16123735866E+02 -0.22890396262E+02  0.14305412930E+02  0.31441850111E+02  0.00000000000E+00 0. -1.
</event>
<event>
 5    1  0.1261010E-009  0.9118800E+02  0.7561462E-02  0.1125453E+00
         25   -1    0    0    0    0  0.00000000000E+00  0.00000000000E+00  0.99999998245E-14  0.12509000000E+03  0.12509000000E+03 0.  0.
        -13    1    3    3    0    0 -0.34187760998E+02 -0.87237831850E+01 -0.23825421948E+01  0.35363753569E+02  0.10566000000E+00 0.  1.
         23    2    1    0    0    0  0.18446198894E+02  0.21346335946E+02 -0.65583410263E+01  0.96125536446E+02  0.91657943507E+02 0.  0.
         13    1    3    3    0    0  0.52633959892E+02  0.30070119131E+02 -0.41757988315E+01  0.60761782877E+02  0.10566000000E+00 0. -1.
         22    1    1    0    0    0 -0.18446198894E+02 -0.21346335946E+02  0.65583410263E+01  0.28964463554E+02  0.00000000000E+00 0. -1.
</event>
<event>
 5    1  0.1261010E-009  0.9118800E+02  0.7561462E-02  0.1125453E+00
         25   -1    0    0    0    0  0.00000000000E+00  0.00000000000E+00  0.99999998245E-14  0.12509000000E+03  0.12509000000E+03 0.  0.
        -13    1    3    3    0    0  0.52685250094E+02  0.33346206679E+02 -0.40562954965E+01  0.62483355980E+02  0.10566000000E+00 0.  1.
         23    2    1    0    0    0  0.30886111639E+02  0.19502138871E+02 -0.43121407102E+01  0.88308484666E+02  0.80283924878E+02 0.  0.
         13    1    3    3    0    0 -0.21799138455E+02 -0.13844067808E+02 -0.25584521368E+00  0.25825128686E+02  0.10566000000E+00 0. -1.
         22    1    1    0    0    0 -0.30886111639E+02 -0.19502138871E+02  0.43121407102E+01  0.36781515334E+02  0.00000000000E+00 0.  1.
</event>
<event>
 5    1  0.1261010E-009  0.9118800E+02  0.7561462E-02  0.1125453E+00
         25   -1    0    0    0    0  0.00000000000E+00  0.00000000000E+00  0.99999998245E-14  0.12509000000E+03  0.12509000000E+03 0.  0.
        -13    1    3    3    0    0  0.39214889907E+02  0.19646510106E+02  0.26125536771E+02  0.51052402346E+02  0.10566000000E+00 0. -1.
         23    2    1    0    0    0 -0.16317696007E+01  0.27605676862E+02  0.10911725415E+02  0.95361195474E+02  0.90608806325E+02 0.  0.
         13    1    3    3    0    0 -0.40846659507E+02  0.79591667563E+01 -0.15213811356E+02  0.44308793127E+02  0.10566000000E+00 0.  1.
         22    1    1    0    0    0  0.16317696007E+01 -0.27605676862E+02 -0.10911725415E+02  0.29728804526E+02  0.00000000000E+00 0.  1.
</event>
<event>
 5    1  0.1261010E-009  0.9118800E+02  0.7561462E-02  0.1125453E+00
         25   -1    0    0    0    0  0.00000000000E+00  0.00000000000E+00  0.99999998245E-14  0.12509000000E+03  0.12509000000E+03 0.  0.
        -13    1    3    3    0    0  0.29685920697E+02  0.16495806123E+02 -0.79580924740E+01  0.34881340386E+02  0.10566000000E+00 0. -1.
         23    2    1    0    0    0 -0.25898645325E+02  0.68537156092E+01  0.13314624893E+02  0.95173575023E+02  0.90349415601E+02 0.  0.
         13    1    3    3    0    0 -0.55584566022E+02 -0.96420905143E+01  0.21272717367E+02  0.60292234637E+02  0.10566000000E+00 0.  1.
         22    1    1    0    0    0  0.25898645325E+02 -0.68537156092E+01 -0.13314624893E+02  0.29916424977E+02  0.00000000000E+00 0.  1.
</event>
<event>
 5    1  0.1261010E-009  0.9118800E+02  0.7561462E-02  0.1125453E+00
         25   -1    0    0    0    0  0.00000000000E+00  0.00000000000E+00  0.99999998245E-14  0.12509000000E+03  0.12509000000E+03 0.  0.
        -13    1    3    3    0    0 -0.25009724896E+00 -0.41699463610E+02  0.22760314524E+02  0.47507377272E+02  0.10566000000E+00 0.  1.
         23    2    1    0    0    0  0.28124591000E+02 -0.63629199112E+01  0.81004618711E+01  0.95138424895E+02  0.90300736654E+02 0.  0.
         13    1    3    3    0    0  0.28374688249E+02  0.35336543699E+02 -0.14659852653E+02  0.47631047623E+02  0.10566000000E+00 0. -1.
         22    1    1    0    0    0 -0.28124591000E+02  0.63629199112E+01 -0.81004618711E+01  0.29951575105E+02  0.00000000000E+00 0.  1.
</event>
<event>
 5    1  0.1261010E-009  0.9118800E+02  0.7561462E-02  0.1125453E+00
         25   -1    0    0    0    0  0.00000000000E+00  0.00000000000E+00  0.99999998245E-14  0.12509000000E+03  0.12509000000E+03 0.  0.
        -13    1    3    3    0    0 -0.19041935513E+02  0.48320466652E+02 -0.99266675791E-01  0.51937306663E+02  0.10566000000E+00 0. -1.
         23    2    1    0    0    0 -0.13241193852E+02  0.11394958269E+02 -0.23328362877E+02  0.95945758664E+02  0.91412262867E+02 0.  0.
         13    1    3    3    0    0  0.58007416612E+01 -0.36925508383E+02 -0.23229096201E+02  0.44008452000E+02  0.10566000000E+00 0.  1.
         22    1    1    0    0    0  0.13241193852E+02 -0.11394958269E+02  0.23328362877E+02  0.29144241336E+02  0.00000000000E+00 0. -1.
</event>
<event>
 5    1  0.1261010E-009  0.9118800E+02  0.7561462E-02  0.1125453E+00
         25   -1    0    0    0    0  0.00000000000E+00  0.00000000000E+00  0.99999998245E-14  0.12509000000E+03  0.12509000000E+03 0.  0.
        -13    1    3    3    0    0 -0.18014295117E+02 -0.40096951191E+02  0.16446681563E+00  0.43958145283E+02  0.10566000000E+00 0.  1.
         23    2    1    0    0    0 -0.31755907024E+02 -0.26587625618E+02 -0.25801805613E+02  0.76293764082E+02  0.58648664077E+02 0.  0.
         13    1    3    3    0    0 -0.13741611906E+02  0.13509325573E+02 -0.25966272429E+02  0.32335618799E+02  0.10566000000E+00 0. -1.
         22    1    1    0    0    0  0.31755907024E+02  0.26587625618E+02  0.25801805613E+02  0.48796235918E+02  0.00000000000E+00 0. -1.
</event>
<event>
 5    1  0.1261010E-009  0.9118800E+02  0.7561462E-02  0.1125453E+00
         25   -1    0    0    0    0  0.00000000000E+00  0.00000000000E+00  0.99999998245E-14  0.12509000000E+03  0.12509000000E+03 0.  0.
        -13    1    3    3    0    0 -0.36605224271E+02  0.77481197585E+01 -0.21034621296E+02  0.42923679489E+02  0.10566000000E+00 0.  1.
         23    2    1    0    0    0 -0.60726398179E+01 -0.22873393364E+02  0.13122654274E+02  0.98029454301E+02  0.94220490219E+02 0.  0.
         13    1    3    3    0    0  0.30532584453E+02 -0.30621513122E+02  0.34157275570E+02  0.55105774813E+02  0.10566000000E+00 0. -1.
         22    1    1    0    0    0  0.60726398179E+01  0.22873393364E+02 -0.13122654274E+02  0.27060545699E+02  0.00000000000E+00 0. -1.
</event>
<event>
 5    1  0.1261010E-009  0.9118800E+02  0.7561462E-02  0.1125453E+00
         25   -1    0    0    0    0  0.00000000000E+00  0.00000000000E+00  0.99999998245E-14  0.12509000000E+03  0.12509000000E+03 0.  0.
        -13    1    3    3    0    0  0.27215730705E+02 -0.34120684358E+02 -0.11082504081E+02  0.45030546961E+02  0.10566000000E+00 0. -1.
         23    2    1    0    0    0 -0.13394952165E+02 -0.80616412868E+01 -0.25313456202E+02  0.95337926650E+02  0.90576676851E+02 0.  0.
         13    1    3    3    0    0 -0.40610682869E+02  0.26059043071E+02 -0.14230952121E+02  0.50307379689E+02  0.10566000000E+00 0.  1.
         22    1    1    0    0    0  0.13394952165E+02  0.80616412868E+01  0.25313456202E+02  0.29752073350E+02  0.00000000000E+00 0.  1.
</event>
<event>
 5    1  0.1261010E-009  0.9118800E+02  0.7561462E-02  0.1125453E+00
         25   -1    0    0    0    0  0.00000000000E+00  0.00000000000E+00  0.99999998245E-14  0.12509000000E+03  0.12509000000E+03 0.  0.
        -13    1    3    3    0    0 -0.53343723065E+02  0.15244793076E+02 -0.16738092315E+02  0.57949386578E+02  0.10566000000E+00 0. -1.
         23    2    1    0    0    0 -0.25323422516E+02  0.35289681044E+01  0.92281049148E+01  0.97907519169E+02  0.94058466104E+02 0.  0.
         13    1    3    3    0    0  0.28020300549E+02 -0.11715824972E+02  0.25966197229E+02  0.39958132592E+02  0.10566000000E+00 0.  1.
         22    1    1    0    0    0  0.25323422516E+02 -0.35289681044E+01 -0.92281049148E+01  0.27182480831E+02  0.00000000000E+00 0. -1.
</event>
<event>
 5    1  0.1261010E-009  0.9118800E+02  0.7561462E-02  0.1125453E+00
         25   -1    0    0    0    0  0.00000000000E+00  0.00000000000E+00  0.99999998245E-14  0.12509000000E+03  0.12509000000E+03 0.  0.
        -13    1    3    3    0    0 -0.78170135590E+01  0.21370330471E+02  0.24299344511E+02  0.33290629810E+02  0.10566000000E+00 0.  1.
         23    2    1    0    0    0 -0.63483914285E+00 -0.23493390902E+02 -0.18092232633E+02  0.95430746495E+02  0.90704774175E+02 0.  0.
         13    1    3    3    0    0  0.71821744162E+01 -0.44863721374E+02 -0.42391577144E+02  0.62140116685E+02  0.10566000000E+00 0. -1.
         22    1    1    0    0    0  0.63483914285E+00  0.23493390902E+02  0.18092232633E+02  0.29659253505E+02  0.00000000000E+00 0. -1.
</event>
<event>
 5    1  0.1261010E-009  0.9118800E+02  0.7561462E-02  0.1125453E+00
         25   -1    0    0    0    0  0.00000000000E+00  0.00000000000E+00  0.99999998245E-14  0.12509000000E+03  0.12509000000E+03 0.  0.
        -13    1    3    3    0    0 -0.32914266560E+02 -0.82325620350E+01 -0.19684683251E+02  0.39225271695E+02  0.10566000000E+00 0.  1.
         23    2    1    0    0    0  0.73638573468E+01 -0.10132247144E+02  0.23593878178E+02  0.98377457727E+02  0.94681382933E+02 0.  0.
         13    1    3    3    0    0  0.40278123906E+02 -0.18996851095E+01  0.43278561429E+02  0.59152186032E+02  0.10566000000E+00 0. -1.
         22    1    1    0    0    0 -0.73638573468E+01  0.10132247144E+02 -0.23593878178E+02  0.26712542273E+02  0.00000000000E+00 0. -1.
</event>
<event>
 5    1  0.1261010E-009  0.9118800E+02  0.7561462E-02  0.1125453E+00
         25   -1    0    0    0    0  0.00000000000E+00  0.00000000000E+00  0.99999998245E-14  0.12509000000E+03  0.12509000000E+03 0.  0.
        -13    1    3    3    0    0 -0.13339147048E+02 -0.34751211619E+02 -0.14258524430E+02  0.39860961302E+02  0.10566000000E+00 0.  1.
         23    2    1    0    0    0  0.24633218262E+02  0.62628974369E+01 -0.14645259426E+02  0.95755669431E+02  0.91151770572E+02 0.  0.
         13    1    3    3    0    0  0.37972365310E+02  0.41014109056E+02 -0.38673499610E+00  0.55894708129E+02  0.10566000000E+00 0. -1.
         22    1    1    0    0    0 -0.24633218262E+02 -0.62628974369E+01  0.14645259426E+02  0.29334330569E+02  0.00000000000E+00 0. -1.
</event>
<event>
 5    1  0.1261010E-009  0.9118800E+02  0.7561462E-02  0.1125453E+00
         25   -1    0    0    0    0  0.00000000000E+00  0.00000000000E+00  0.99999998245E-14  0.12509000000E+03  0.12509000000E+03 0.  0.
        -13    1    3    3    0    0  0.21585486067E+02  0.23532200881E+02 -0.49833688353E+02  0.59187036976E+02  0.10566000000E+00 0. -1.
         23    2    1    0    0    0 -0.38916909532E+01  0.12267881414E+02 -0.26900768961E+02  0.95268907740E+02  0.90481308779E+02 0.  0.
         13    1    3    3    0    0 -0.25477177021E+02 -0.11264319467E+02  0.22932919392E+02  0.36081870764E+02  0.10566000000E+00 0.  1.
         22    1    1    0    0    0  0.38916909532E+01 -0.12267881414E+02  0.26900768961E+02  0.29821092260E+02  0.00000000000E+00 0. -1.
</event>
<event>
 5    1  0.1261010E-009  0.9118800E+02  0.7561462E-02  0.1125453E+00
         25   -1    0    0    0    0  0.00000000000E+00  0.00000000000E+00  0.99999998245E-14  0.12509000000E+03  0.12509000000E+03 0.  0.
        -13    1    3    3    0    0  0.17785617374E+02  0.47899730167E+02  0.30115755794E+02  0.59310051817E+02  0.10566000000E+00 0. -1.
         23    2    1    0    0    0  0.19734935294E+02  0.14338191221E+02  0.85959321884E+01  0.99226097573E+02  0.95796017615E+02 0.  0.
         13    1    3    3    0    0  0.19493179200E+01 -0.33561538946E+02 -0.21519823606E+02  0.39916045757E+02  0.10566000000E+00 0.  1.
         22    1    1    0    0    0 -0.19734935294E+02 -0.14338191221E+02 -0.85959321884E+01  0.25863902427E+02  0.00000000000E+00 0. -1.
</event>
<event>
 5    1  0.1261010E-009  0.9118800E+02  0.7561462E-02  0.1125453E+00
         25   -1    0    0    0    0  0.00000000000E+00  0.00000000000E+00  0.99999998245E-14  0.12509000000E+03  0.12509000000E+03 0.  0.
        -13    1    3    3    0    0 -0.34198122428E+02 -0.48390082094E+02  0.17682713957E+01  0.59281106353E+02  0.10566000000E+00 0.  1.
         23    2    1    0    0    0 -0.73551336328E+01 -0.30448098606E+02 -0.75164937318E+01  0.92876922260E+02  0.87111654278E+02 0.  0.
         13    1    3    3    0    0  0.26842988795E+02  0.17941983489E+02 -0.92847651274E+01  0.33595815907E+02  0.10566000000E+00 0. -1.
         22    1    1    0    0    0  0.73551336328E+01  0.30448098606E+02  0.75164937318E+01  0.32213077740E+02  0.00000000000E+00 0.  1.
</event>
<event>
 5    1  0.1261010E-009  0.9118800E+02  0.7561462E-02  0.1125453E+00
         25   -1    0    0    0    0  0.00000000000E+00  0.00000000000E+00  0.99999998245E-14  0.12509000000E+03  0.12509000000E+03 0.  0.
        -13    1    3    3    0    0  0.29975620722E+02  0.48188809681E+02  0.28004413420E+01  0.56820355964E+02  0.10566000000E+00 0. -1.
         23    2    1    0    0    0  0.44276984830E+00  0.32399657452E+02  0.10205684320E+02  0.91118102193E+02  0.84548321726E+02 0.  0.
         13    1    3    3    0    0 -0.29532850873E+02 -0.15789152228E+02  0.74052429783E+01  0.34297746229E+02  0.10566000000E+00 0.  1.
         22    1    1    0    0    0 -0.44276984830E+00 -0.32399657452E+02 -0.10205684320E+02  0.33971897807E+02  0.00000000000E+00 0. -1.
</event>
<event>
 5    1  0.1261010E-009  0.9118800E+02  0.7561462E-02  0.1125453E+00
         25   -1    0    0    0    0  0.00000000000E+00  0.00000000000E+00  0.99999998245E-14  0.12509000000E+03  0.12509000000E+03 0.  0.
        -13    1    3    3    0    0 -0.19935414186E+02  0.46748934992E+02 -0.31609851562E+02  0.59850459827E+02  0.10566000000E+00 0.  1.
         23    2    1    0    0    0 -0.48648300587E+01  0.24490510256E+02 -0.28945904938E+02  0.86862822799E+02  0.77998928888E+02 0.  0.
         13    1    3    3    0    0  0.15070584128E+02 -0.22258424736E+02  0.26639466236E+01  0.27012362972E+02  0.10566000000E+00 0. -1.
         22    1    1    0    0    0  0.48648300587E+01 -0.24490510256E+02  0.28945904938E+02  0.38227177201E+02  0.00000000000E+00 0.  1.
</event>
<event>
 5    1  0.1261010E-009  0.9118800E+02  0.7561462E-02  0.1125453E+00
         25   -1    0    0    0    0  0.00000000000E+00  0.00000000000E+00  0.99999998245E-14  0.12509000000E+03  0.12509000000E+03 0.  0.
        -13    1    3    3    0    0 -0.38348941965E+02  0.23946729920E+01  0.12692584823E+02  0.40465895296E+02  0.10566000000E+00 0.  1.
         23    2    1    0    0    0 -0.23248212951E+00 -0.12149578781E+02 -0.25809781046E+02  0.96562625250E+02  0.92252531050E+02 0.  0.
         13    1    3    3    0    0  0.38116459836E+02 -0.14544251773E+02 -0.38502365869E+02  0.56096729954E+02  0.10566000000E+00 0. -1.
         22    1    1    0    0    0  0.23248212950E+00  0.12149578781E+02  0.25809781046E+02  0.28527374750E+02  0.00000000000E+00 0. -1.
</event>
<event>
 5    1  0.1261010E-009  0.9118800E+02  0.7561462E-02  0.1125453E+00
         25   -1    0    0    0    0  0.00000000000E+00  0.00000000000E+00  0.99999998245E-14  0.12509000000E+03  0.12509000000E+03 0.  0.
        -13    1    3    3    0    0  0.75065392851E+01 -0.28460902040E+02  0.27529511322E+01  0.29562831071E+02  0.10566000000E+00 0.  1.
         23    2    1    0    0    0 -0.19935916020E+02  0.26636245791E+02 -0.43980095606E+01  0.91530011539E+02  0.85155564627E+02 0.  0.
         13    1    3    3    0    0 -0.27442455305E+02  0.55097147831E+02 -0.71509606929E+01  0.61967180468E+02  0.10566000000E+00 0. -1.
         22    1    1    0    0    0  0.19935916020E+02 -0.26636245791E+02  0.43980095606E+01  0.33559988461E+02  0.00000000000E+00 0. -1.
</event>
<event>
 5    1  0.1261010E-009  0.9118800E+02  0.7561462E-02  0.1125453E+00
         25   -1    0    0    0    0  0.00000000000E+00  0.00000000000E+00  0.99999998245E-14  0.12509000000E+03  0.12509000000E+03 0.  0.
        -13    1    3    3    0    0  0.19734957757E+02 -0.21443875279E+02  0.28798378468E+02  0.40971528054E+02  0.10566000000E+00 0.  1.
         23    2    1    0    0    0  0.20473158610E+02 -0.21052643974E+01 -0.21778880654E+02  0.95124986998E+02  0.90282119754E+02 0.  0.
         13    1    3    3    0    0  0.73820085308E+00  0.19338610882E+02 -0.50577259122E+02  0.54153458944E+02  0.10566000000E+00 0. -1.
         22    1    1    0    0    0 -0.20473158610E+02  0.21052643974E+01  0.21778880654E+02  0.29965013002E+02  0.00000000000E+00 0. -1.
</event>
<event>
 5    1  0.1261010E-009  0.9118800E+02  0.7561462E-02  0.1125453E+00
         25   -1    0    0    0    0  0.00000000000E+00  0.00000000000E+00  0.99999998245E-14  0.12509000000E+03  0.12509000000E+03 0.  0.
        -13    1    3    3    0    0 -0.18650289984E+02 -0.34241094447E+02 -0.95774584534E+01  0.40150027894E+02  0.10566000000E+00 0. -1.
         23    2    1    0    0    0  0.20764145953E+02 -0.12642577944E+02  0.19708937235E+02  0.93794205695E+02  0.88419037999E+02 0.  0.
         13    1    3    3    0    0  0.39414435938E+02  0.21598516503E+02  0.29286395689E+02  0.53644177801E+02  0.10566000000E+00 0.  1.
         22    1    1    0    0    0 -0.20764145953E+02  0.12642577944E+02 -0.19708937235E+02  0.31295794305E+02  0.00000000000E+00 0.  1.
</event>
<event>
 5    1  0.1261010E-009  0.9118800E+02  0.7561462E-02  0.1125453E+00
         25   -1    0    0    0    0  0.00000000000E+00  0.00000000000E+00  0.99999998245E-14  0.12509000000E+03  0.12509000000E+03 0.  0.
        -13    1    3    3    0    0  0.45159003921E+02 -0.36578728144E+02 -0.65519651973E+01  0.58483146289E+02  0.10566000000E+00 0. -1.
         23    2    1    0    0    0  0.27182263073E+02 -0.73693834587E+01  0.81075092493E+01  0.95782749283E+02  0.91188925401E+02 0.  0.
         13    1    3    3    0    0 -0.17976740848E+02  0.29209344686E+02  0.14659474447E+02  0.37299602995E+02  0.10566000000E+00 0.  1.
         22    1    1    0    0    0 -0.27182263073E+02  0.73693834587E+01 -0.81075092493E+01  0.29307250717E+02  0.00000000000E+00 0. -1.
</event>
<event>
 5    1  0.1261010E-009  0.9118800E+02  0.7561462E-02  0.1125453E+00
         25   -1    0    0    0    0  0.00000000000E+00  0.00000000000E+00  0.99999998245E-14  0.12509000000E+03  0.12509000000E+03 0.  0.
        -13    1    3    3    0    0  0.38762605910E+01 -0.25044124928E+02  0.35180400409E+02  0.43357875023E+02  0.10566000000E+00 0. -1.
         23    2    1    0    0    0 -0.28556686214E+02 -0.75602038424E+01 -0.17138854005E+01  0.95499825739E+02  0.90799990657E+02 0.  0.
         13    1    3    3    0    0 -0.32432946805E+02  0.17483921086E+02 -0.36894285809E+02  0.52141950715E+02  0.10566000000E+00 0.  1.
         22    1    1    0    0    0  0.28556686214E+02  0.75602038424E+01  0.17138854005E+01  0.29590174261E+02  0.00000000000E+00 0.  1.
</event>
<event>
 5    1  0.1261010E-009  0.9118800E+02  0.7561462E-02  0.1125453E+00
         25   -1    0    0    0    0  0.00000000000E+00  0.00000000000E+00  0.99999998245E-14  0.12509000000E+03  0.12509000000E+03 0.  0.
        -13    1    3    3    0    0 -0.19709128010E+02  0.24137549149E+02  0.50571281854E+02  0.59401487508E+02  0.10566000000E+00 0. -1.
         23    2    1    0    0    0 -0.79498139558E+01 -0.97039398323E+00  0.30305989925E+02  0.93743640853E+02  0.88347472904E+02 0.  0.
         13    1    3    3    0    0  0.11759314054E+02 -0.25107943132E+02 -0.20265291928E+02  0.34342153344E+02  0.10566000000E+00 0.  1.
         22    1    1    0    0    0  0.79498139558E+01  0.97039398323E+00 -0.30305989925E+02  0.31346359147E+02  0.00000000000E+00 0. -1.
</event>
<event>
 5    1  0.1261010E-009  0.9118800E+02  0.7561462E-02  0.1125453E+00
         25   -1    0    0    0    0  0.00000000000E+00  0.00000000000E+00  0.99999998245E-14  0.12509000000E+03  0.12509000000E+03 0.  0.
        -13    1    3    3    0    0 -0.38933362451E+02  0.14044243812E+02 -0.13660611100E+02  0.43585214875E+02  0.10566000000E+00 0. -1.
         23    2    1    0    0    0  0.68263300469E+01  0.26693845292E+02  0.88814600608E+01  0.96141070984E+02  0.91679141786E+02 0.  0.
         13    1    3    3    0    0  0.45759692498E+02  0.12649601480E+02  0.22542071161E+02  0.52555856109E+02  0.10566000000E+00 0.  1.
         22    1    1    0    0    0 -0.68263300469E+01 -0.26693845292E+02 -0.88814600608E+01  0.28948929016E+02  0.00000000000E+00 0.  1.
</event>
<event>
 5    1  0.1261010E-009  0.9118800E+02  0.7561462E-02  0.1125453E+00
         25   -1    0    0    0    0  0.00000000000E+00  0.00000000000E+00  0.99999998245E-14  0.12509000000E+03  0.12509000000E+03 0.  0.
        -13    1    3    3    0    0 -0.41199353472E+02 -0.15945896973E+02 -0.95966852492E+01  0.45208029027E+02  0.10566000000E+00 0.  1.
         23    2    1    0    0    0  0.23000402012E+01 -0.23589966901E+02  0.16223273538E+02  0.96367685894E+02  0.91987822874E+02 0.  0.
         13    1    3    3    0    0  0.43499393673E+02 -0.76440699277E+01  0.25819958787E+02  0.51159656867E+02  0.10566000000E+00 0. -1.
         22    1    1    0    0    0 -0.23000402012E+01  0.23589966901E+02 -0.16223273538E+02  0.28722314106E+02  0.00000000000E+00 0. -1.
</event>
<event>
 5    1  0.1261010E-009  0.9118800E+02  0.7561462E-02  0.1125453E+00
         25   -1    0    0    0    0  0.00000000000E+00  0.00000000000E+00  0.99999998245E-14  0.12509000000E+03  0.12509000000E+03 0.  0.
        -13    1    3    3    0    0 -0.22680911846E+02 -0.27641554823E+02  0.20757536205E+02  0.41344477122E+02  0.10566000000E+00 0.  1.
         23    2    1    0    0    0 -0.19561846637E+02  0.80391347146E+01 -0.20262415650E+02  0.95800769577E+02  0.91213641703E+02 0.  0.
         13    1    3    3    0    0  0.31190652090E+01  0.35680689538E+02 -0.41019951855E+02  0.54456292455E+02  0.10566000000E+00 0. -1.
         22    1    1    0    0    0  0.19561846637E+02 -0.80391347146E+01  0.20262415650E+02  0.29289230423E+02  0.00000000000E+00 0. -1.
</event>
<event>
 5    1  0.1261010E-009  0.9118800E+02  0.7561462E-02  0.1125453E+00
         25   -1    0    0    0    0  0.00000000000E+00  0.00000000000E+00  0.99999998245E-14  0.12509000000E+03  0.12509000000E+03 0.  0.
        -13    1    3    3    0    0  0.33005334251E+02  0.13446187929E+00 -0.10200696383E+02  0.34546136394E+02  0.10566000000E+00 0.  1.
         23    2    1    0    0    0 -0.22935966550E+02  0.10904855248E+02  0.13593672711E+02  0.96284403888E+02  0.91874501712E+02 0.  0.
         13    1    3    3    0    0 -0.55941300801E+02  0.10770393369E+02  0.23794369094E+02  0.61738267495E+02  0.10566000000E+00 0. -1.
         22    1    1    0    0    0  0.22935966550E+02 -0.10904855248E+02 -0.13593672711E+02  0.28805596112E+02  0.00000000000E+00 0. -1.
</event>
<event>
 5    1  0.1261010E-009  0.9118800E+02  0.7561462E-02  0.1125453E+00
         25   -1    0    0    0    0  0.00000000000E+00  0.00000000000E+00  0.99999998245E-14  0.12509000000E+03  0.12509000000E+03 0.  0.
        -13    1    3    3    0    0  0.43665729314E+02 -0.15895337096E+02 -0.32225369859E+02  0.56549476429E+02  0.10566000000E+00 0. -1.
         23    2    1    0    0    0  0.64949051589E+01 -0.15534948662E+02 -0.25812222385E+02  0.94271349033E+02  0.89091514753E+02 0.  0.
         13    1    3    3    0    0 -0.37170824155E+02  0.36038843349E+00  0.64131474734E+01  0.37721872603E+02  0.10566000000E+00 0.  1.
         22    1    1    0    0    0 -0.64949051589E+01  0.15534948662E+02  0.25812222385E+02  0.30818650967E+02  0.00000000000E+00 0.  1.
</event>
<event>
 5    1  0.1261010E-009  0.9118800E+02  0.7561462E-02  0.1125453E+00
         25   -1    0    0    0    0  0.00000000000E+00  0.00000000000E+00  0.99999998245E-14  0.12509000000E+03  0.12509000000E+03 0.  0.
        -13    1    3    3    0    0 -0.78722535474E+01  0.13431615594E+02 -0.53449934234E+02  0.55671243089E+02  0.10566000000E+00 0. -1.
         23    2    1    0    0    0 -0.17400759384E+02  0.13662051360E+02 -0.88765768586E+01  0.10125238915E+03  0.98406374878E+02 0.  0.
         13    1    3    3    0    0 -0.95285058367E+01  0.23043576590E+00  0.44573357376E+02  0.45581146057E+02  0.10566000000E+00 0.  1.
         22    1    1    0    0    0  0.17400759384E+02 -0.13662051360E+02  0.88765768586E+01  0.23837610854E+02  0.00000000000E+00 0. -1.
</event>
<event>
 5    1  0.1261010E-009  0.9118800E+02  0.7561462E-02  0.1125453E+00
         25   -1    0    0    0    0  0.00000000000E+00  0.00000000000E+00  0.99999998245E-14  0.12509000000E+03  0.12509000000E+03 0.  0.
        -13    1    3    3    0    0  0.24991227028E+02 -0.40090078546E+02 -0.24836574539E+02  0.53372674891E+02  0.10566000000E+00 0. -1.
         23    2    1    0    0    0 -0.20467155920E+01 -0.74195971278E+01 -0.28147147835E+02  0.95909503132E+02  0.91362636748E+02 0.  0.
         13    1    3    3    0    0 -0.27037942620E+02  0.32670481418E+02 -0.33105732955E+01  0.42536828241E+02  0.10566000000E+00 0.  1.
         22    1    1    0    0    0  0.20467155920E+01  0.74195971278E+01  0.28147147835E+02  0.29180496868E+02  0.00000000000E+00 0. -1.
</event>
<event>
 5    1  0.1261010E-009  0.9118800E+02  0.7561462E-02  0.1125453E+00
         25   -1    0    0    0    0  0.00000000000E+00  0.00000000000E+00  0.99999998245E-14  0.12509000000E+03  0.12509000000E+03 0.  0.
        -13    1    3    3    0    0 -0.26946189339E+02 -0.84086994841E+00 -0.23717392184E+02  0.35907242142E+02  0.10566000000E+00 0.  1.
         23    2    1    0    0    0  0.18735996929E+02  0.23859586566E+02  0.35211831710E+01  0.94549597531E+02  0.89481340012E+02 0.  0.
         13    1    3    3    0    0  0.45682186268E+02  0.24700456514E+02  0.27238575355E+02  0.58642355390E+02  0.10566000000E+00 0. -1.
         22    1    1    0    0    0 -0.18735996929E+02 -0.23859586566E+02 -0.35211831710E+01  0.30540402469E+02  0.00000000000E+00 0. -1.
</event>
<event>
 5    1  0.1261010E-009  0.9118800E+02  0.7561462E-02  0.1125453E+00
         25   -1    0    0    0    0  0.00000000000E+00  0.00000000000E+00  0.99999998245E-14  0.12509000000E+03  0.12509000000E+03 0.  0.
        -13    1    3    3    0    0 -0.58915695818E+02 -0.29997803636E+01 -0.56330408383E+00  0.58994799529E+02  0.10566000000E+00 0.  1.
         23    2    1    0    0    0 -0.28749206722E+02 -0.70674034596E+00 -0.15154644681E+02  0.92583391065E+02  0.86689126634E+02 0.  0.
         13    1    3    3    0    0  0.30166489096E+02  0.22930400176E+01 -0.14591340597E+02  0.33588591535E+02  0.10566000000E+00 0. -1.
         22    1    1    0    0    0  0.28749206722E+02  0.70674034596E+00  0.15154644681E+02  0.32506608935E+02  0.00000000000E+00 0.  1.
</event>
<event>
 5    1  0.1261010E-009  0.9118800E+02  0.7561462E-02  0.1125453E+00
         25   -1    0    0    0    0  0.00000000000E+00  0.00000000000E+00  0.99999998245E-14  0.12509000000E+03  0.12509000000E+03 0.  0.
        -13    1    3    3    0    0  0.44695384235E+02  0.17393455198E+02 -0.19463323059E+02  0.51759460625E+02  0.10566000000E+00 0.  1.
         23    2    1    0    0    0  0.47174446199E+01  0.92923859674E+00 -0.28716180101E+02  0.95974080511E+02  0.91451010723E+02 0.  0.
         13    1    3    3    0    0 -0.39977939616E+02 -0.16464216601E+02 -0.92528570414E+01  0.44214619886E+02  0.10566000000E+00 0. -1.
         22    1    1    0    0    0 -0.47174446199E+01 -0.92923859674E+00  0.28716180101E+02  0.29115919489E+02  0.00000000000E+00 0.  1.
</event>
<event>
 5    1  0.1261010E-009  0.9118800E+02  0.7561462E-02  0.1125453E+00
         25   -1    0    0    0    0  0.00000000000E+00  0.00000000000E+00  0.99999998245E-14  0.12509000000E+03  0.12509000000E+03 0.  0.
        -13    1    3    3    0    0  0.22423753525E+02 -0.55216552559E+01 -0.47877393147E+02  0.53156084670E+02  0.10566000000E+00 0.  1.
         23    2    1    0    0    0 -0.12909669828E+02 -0.10083959380E+02 -0.23955264075E+02  0.96069309300E+02  0.91581175471E+02 0.  0.
         13    1    3    3    0    0 -0.35333423352E+02 -0.45623041237E+01  0.23922129072E+02  0.42913224629E+02  0.10566000000E+00 0. -1.
         22    1    1    0    0    0  0.12909669828E+02  0.10083959380E+02  0.23955264075E+02  0.29020690700E+02  0.00000000000E+00 0.  1.
</event>
<event>
 5    1  0.1261010E-009  0.9118800E+02  0.7561462E-02  0.1125453E+00
         25   -1    0    0    0    0  0.00000000000E+00  0.00000000000E+00  0.99999998245E-14  0.12509000000E+03  0.12509000000E+03 0.  0.
        -13    1    3    3    0    0 -0.28707526030E+01 -0.30954924010E+02 -0.53886747056E+02  0.62211262753E+02  0.10566000000E+00 0.  1.
         23    2    1    0    0    0  0.24892812306E-01 -0.17890455008E+02 -0.22409142135E+02  0.96415295968E+02  0.92052542851E+02 0.  0.
         13    1    3    3    0    0  0.28956454153E+01  0.13064469002E+02  0.31477604920E+02  0.34204033216E+02  0.10566000000E+00 0. -1.
         22    1    1    0    0    0 -0.24892812306E-01  0.17890455008E+02  0.22409142135E+02  0.28674704032E+02  0.00000000000E+00 0.  1.
</event>
<event>
 5    1  0.1261010E-009  0.9118800E+02  0.7561462E-02  0.1125453E+00
         25   -1    0    0    0    0  0.00000000000E+00  0.00000000000E+00  0.99999998245E-14  0.12509000000E+03  0.12509000000E+03 0.  0.
        -13    1    3    3    0    0  0.23763305160E+02  0.26742816279E+02 -0.17784110125E+02  0.39951954040E+02  0.10566000000E+00 0.  1.
         23    2    1    0    0    0  0.93643878031E+01 -0.26275277013E+02 -0.19457606374E+01  0.97128098679E+02  0.93016125632E+02 0.  0.
         13    1    3    3    0    0 -0.14398917357E+02 -0.53018093291E+02  0.15838349488E+02  0.57176144639E+02  0.10566000000E+00 0. -1.
         22    1    1    0    0    0 -0.93643878031E+01  0.26275277013E+02  0.19457606374E+01  0.27961901321E+02  0.00000000000E+00 0. -1.
</event>
<event>
 5    1  0.1261010E-009  0.9118800E+02  0.7561462E-02  0.1125453E+00
         25   -1    0    0    0    0  0.00000000000E+00  0.00000000000E+00  0.99999998245E-14  0.12509000000E+03  0.12509000000E+03 0.  0.
        -13    1    3    3    0    0  0.20253744311E+01 -0.44280418671E+02 -0.41505910186E+02  0.60725689487E+02  0.10566000000E+00 0.  1.
         23    2    1    0    0    0 -0.96089710817E+01 -0.18388907770E+02 -0.19105614552E+02  0.96885235126E+02  0.92688942295E+02 0.  0.
         13    1    3    3    0    0 -0.11634345513E+02  0.25891510901E+02  0.22400295634E+02  0.36159545639E+02  0.10566000000E+00 0. -1.
         22    1    1    0    0    0  0.96089710817E+01  0.18388907770E+02  0.19105614552E+02  0.28204764874E+02  0.00000000000E+00 0.  1.
</event>
<event>
 5    1  0.1261010E-009  0.9118800E+02  0.7561462E-02  0.1125453E+00
         25   -1    0    0    0    0  0.00000000000E+00  0.00000000000E+00  0.99999998245E-14  0.12509000000E+03  0.12509000000E+03 0.  0.
        -13    1    3    3    0    0 -0.39811039586E+02  0.14287086464E+02 -0.23546446164E+02  0.48409565207E+02  0.10566000000E+00 0. -1.
         23    2    1    0    0    0 -0.24014266657E+02 -0.93604936133E+01  0.14194572984E+02  0.95665694639E+02  0.91028212027E+02 0.  0.
         13    1    3    3    0    0  0.15796772930E+02 -0.23647580078E+02  0.37741019148E+02  0.47256129432E+02  0.10566000000E+00 0.  1.
         22    1    1    0    0    0  0.24014266657E+02  0.93604936133E+01 -0.14194572984E+02  0.29424305361E+02  0.00000000000E+00 0.  1.
</event>
<event>
 5    1  0.1261010E-009  0.9118800E+02  0.7561462E-02  0.1125453E+00
         25   -1    0    0    0    0  0.00000000000E+00  0.00000000000E+00  0.99999998245E-14  0.12509000000E+03  0.12509000000E+03 0.  0.
        -13    1    3    3    0    0 -0.20331186495E+01 -0.36206671705E+02  0.26101452238E+01  0.36357676900E+02  0.10566000000E+00 0.  1.
         23    2    1    0    0    0  0.24914721486E+01  0.17435670433E+02 -0.23121545658E+02  0.96024282900E+02  0.91519653605E+02 0.  0.
         13    1    3    3    0    0  0.45245907981E+01  0.53642342138E+02 -0.25731690882E+02  0.59666606000E+02  0.10566000000E+00 0. -1.
         22    1    1    0    0    0 -0.24914721486E+01 -0.17435670433E+02  0.23121545658E+02  0.29065717100E+02  0.00000000000E+00 0. -1.
</event>
<event>
 5    1  0.1261010E-009  0.9118800E+02  0.7561462E-02  0.1125453E+00
         25   -1    0    0    0    0  0.00000000000E+00  0.00000000000E+00  0.99999998245E-14  0.12509000000E+03  0.12509000000E+03 0.  0.
        -13    1    3    3    0    0  0.18327871368E+02 -0.17821693514E+02  0.55970855306E+02  0.61532685919E+02  0.10566000000E+00 0.  1.
         23    2    1    0    0    0  0.16347315543E+02 -0.87380446248E+01  0.24378081048E+02  0.94465190043E+02  0.89363265075E+02 0.  0.
         13    1    3    3    0    0 -0.19805558248E+01  0.90836488896E+01 -0.31592774258E+02  0.32932504124E+02  0.10566000000E+00 0. -1.
         22    1    1    0    0    0 -0.16347315543E+02  0.87380446248E+01 -0.24378081048E+02  0.30624809957E+02  0.00000000000E+00 0.  1.
</event>
<event>
 5    1  0.1261010E-009  0.9118800E+02  0.7561462E-02  0.1125453E+00
         25   -1    0    0    0    0  0.00000000000E+00  0.00000000000E+00  0.99999998245E-14  0.12509000000E+03  0.12509000000E+03 0.  0.
        -13    1    3    3    0    0 -0.30824293624E+02  0.25215655647E+02  0.21187262360E+02  0.45109617794E+02  0.10566000000E+00 0.  1.
         23    2    1    0    0    0  0.28749003270E+01  0.24071572800E+02 -0.16565525763E+02  0.95728080568E+02  0.91113901774E+02 0.  0.
         13    1    3    3    0    0  0.33699193951E+02 -0.11440828473E+01 -0.37752788123E+02  0.50618462774E+02  0.10566000000E+00 0. -1.
         22    1    1    0    0    0 -0.28749003270E+01 -0.24071572800E+02  0.16565525763E+02  0.29361919432E+02  0.00000000000E+00 0.  1.
</event>
<event>
 5    1  0.1261010E-009  0.9118800E+02  0.7561462E-02  0.1125453E+00
         25   -1    0    0    0    0  0.00000000000E+00  0.00000000000E+00  0.99999998245E-14  0.12509000000E+03  0.12509000000E+03 0.  0.
        -13    1    3    3    0    0  0.84285849704E+01 -0.57413188693E+02 -0.43506930962E+01  0.58191536970E+02  0.10566000000E+00 0.  1.
         23    2    1    0    0    0 -0.12603782048E+02 -0.25998186794E+02 -0.32770106974E+01  0.96012520096E+02  0.91503574671E+02 0.  0.
         13    1    3    3    0    0 -0.21032367018E+02  0.31415001899E+02  0.10736823988E+01  0.37820983126E+02  0.10566000000E+00 0. -1.
         22    1    1    0    0    0  0.12603782048E+02  0.25998186794E+02  0.32770106974E+01  0.29077479904E+02  0.00000000000E+00 0.  1.
</event>
<event>
 5    1  0.1261010E-009  0.9118800E+02  0.7561462E-02  0.1125453E+00
         25   -1    0    0    0    0  0.00000000000E+00  0.00000000000E+00  0.99999998245E-14  0.12509000000E+03  0.12509000000E+03 0.  0.
        -13    1    3    3    0    0  0.56816128788E+02 -0.81062707264E+01  0.11404952852E+02  0.58513829384E+02  0.10566000000E+00 0.  1.
         23    2    1    0    0    0  0.24008903783E+02 -0.14227501285E+01 -0.10837665171E+02  0.98709957067E+02  0.95119656007E+02 0.  0.
         13    1    3    3    0    0 -0.32807225005E+02  0.66835205980E+01 -0.22242618024E+02  0.40196127683E+02  0.10566000000E+00 0. -1.
         22    1    1    0    0    0 -0.24008903783E+02  0.14227501285E+01  0.10837665171E+02  0.26380042933E+02  0.00000000000E+00 0.  1.
</event>
<event>
 5    1  0.1261010E-009  0.9118800E+02  0.7561462E-02  0.1125453E+00
         25   -1    0    0    0    0  0.00000000000E+00  0.00000000000E+00  0.99999998245E-14  0.12509000000E+03  0.12509000000E+03 0.  0.
        -13    1    3    3    0    0  0.33635537045E+02  0.33280354924E+02  0.34821494151E+02  0.58749289316E+02  0.10566000000E+00 0. -1.
         23    2    1    0    0    0  0.11542245226E+02  0.27613554743E+02  0.31221866564E+02  0.81840297318E+02  0.69478755623E+02 0.  0.
         13    1    3    3    0    0 -0.22093291819E+02 -0.56668001816E+01 -0.35996275877E+01  0.23091008001E+02  0.10566000000E+00 0.  1.
         22    1    1    0    0    0 -0.11542245226E+02 -0.27613554743E+02 -0.31221866564E+02  0.43249702682E+02  0.00000000000E+00 0. -1.
</event>
<event>
 5    1  0.1261010E-009  0.9118800E+02  0.7561462E-02  0.1125453E+00
         25   -1    0    0    0    0  0.00000000000E+00  0.00000000000E+00  0.99999998245E-14  0.12509000000E+03  0.12509000000E+03 0.  0.
        -13    1    3    3    0    0 -0.28068599973E+02  0.10937861982E+02  0.16710230203E+02  0.34448890935E+02  0.10566000000E+00 0.  1.
         23    2    1    0    0    0  0.21632859196E+02  0.29525864949E+01 -0.18983089447E+02  0.96158079066E+02  0.91702345230E+02 0.  0.
         13    1    3    3    0    0  0.49701459169E+02 -0.79852754869E+01 -0.35693319650E+02  0.61709188131E+02  0.10566000000E+00 0. -1.
         22    1    1    0    0    0 -0.21632859196E+02 -0.29525864949E+01  0.18983089447E+02  0.28931920934E+02  0.00000000000E+00 0. -1.
</event>
<event>
 5    1  0.1261010E-009  0.9118800E+02  0.7561462E-02  0.1125453E+00
         25   -1    0    0    0    0  0.00000000000E+00  0.00000000000E+00  0.99999998245E-14  0.12509000000E+03  0.12509000000E+03 0.  0.
        -13    1    3    3    0    0  0.42996334420E+02 -0.54626359022E+01 -0.54005914548E+01  0.43677256285E+02  0.10566000000E+00 0. -1.
         23    2    1    0    0    0 -0.93617274593E+01  0.16531897615E+02  0.11441380815E+02  0.10291229104E+03  0.10049422308E+03 0.  0.
         13    1    3    3    0    0 -0.52358061879E+02  0.21994533518E+02  0.16841972270E+02  0.59235034754E+02  0.10566000000E+00 0.  1.
         22    1    1    0    0    0  0.93617274593E+01 -0.16531897615E+02 -0.11441380815E+02  0.22177708961E+02  0.00000000000E+00 0.  1.
</event>
<event>
 5    1  0.1261010E-009  0.9118800E+02  0.7561462E-02  0.1125453E+00
         25   -1    0    0    0    0  0.00000000000E+00  0.00000000000E+00  0.99999998245E-14  0.12509000000E+03  0.12509000000E+03 0.  0.
        -13    1    3    3    0    0  0.41637455229E+01  0.55866072750E+01 -0.51566071292E+02  0.52034775200E+02  0.10566000000E+00 0.  1.
         23    2    1    0    0    0  0.53876566945E+01 -0.22486618249E+02 -0.18156215002E+02  0.95690629460E+02  0.91062470746E+02 0.  0.
         13    1    3    3    0    0  0.12239111717E+01 -0.28073225524E+02  0.33409856290E+02  0.43655854260E+02  0.10566000000E+00 0. -1.
         22    1    1    0    0    0 -0.53876566945E+01  0.22486618249E+02  0.18156215002E+02  0.29399370540E+02  0.00000000000E+00 0.  1.
</event>
<event>
 5    1  0.1261010E-009  0.9118800E+02  0.7561462E-02  0.1125453E+00
         25   -1    0    0    0    0  0.00000000000E+00  0.00000000000E+00  0.99999998245E-14  0.12509000000E+03  0.12509000000E+03 0.  0.
        -13    1    3    3    0    0  0.15420407372E+01  0.22649364703E+02  0.14926526034E+02  0.27169540934E+02  0.10566000000E+00 0.  1.
         23    2    1    0    0    0 -0.78346299615E+01  0.53307834313E+01 -0.39196430944E+02  0.84764339715E+02  0.74557591230E+02 0.  0.
         13    1    3    3    0    0 -0.93766706987E+01 -0.17318581271E+02 -0.54122956978E+02  0.57594798782E+02  0.10566000000E+00 0. -1.
         22    1    1    0    0    0  0.78346299615E+01 -0.53307834313E+01  0.39196430944E+02  0.40325660285E+02  0.00000000000E+00 0. -1.
</event>
<event>
 5    1  0.1261010E-009  0.9118800E+02  0.7561462E-02  0.1125453E+00
         25   -1    0    0    0    0  0.00000000000E+00  0.00000000000E+00  0.99999998245E-14  0.12509000000E+03  0.12509000000E+03 0.  0.
        -13    1    3    3    0    0  0.23501700601E+02 -0.16679042815E+02  0.20842066318E+02  0.35565760118E+02  0.10566000000E+00 0.  1.
         23    2    1    0    0    0 -0.55041589566E+01 -0.76490897971E+01 -0.29365922178E+02  0.94249090060E+02  0.89060256294E+02 0.  0.
         13    1    3    3    0    0 -0.29005859557E+02  0.90299530179E+01 -0.50207988496E+02  0.58683329942E+02  0.10566000000E+00 0. -1.
         22    1    1    0    0    0  0.55041589566E+01  0.76490897971E+01  0.29365922178E+02  0.30840909940E+02  0.00000000000E+00 0. -1.
</event>
<event>
 5    1  0.1261010E-009  0.9118800E+02  0.7561462E-02  0.1125453E+00
         25   -1    0    0    0    0  0.00000000000E+00  0.00000000000E+00  0.99999998245E-14  0.12509000000E+03  0.12509000000E+03 0.  0.
        -13    1    3    3    0    0  0.14821658446E+02 -0.81231594116E+01 -0.42732736587E+02  0.45953946710E+02  0.10566000000E+00 0.  1.
         23    2    1    0    0    0 -0.88343631077E+01 -0.28388829512E+02 -0.49051324728E+01  0.94956431723E+02  0.90048275877E+02 0.  0.
         13    1    3    3    0    0 -0.23656021554E+02 -0.20265670100E+02  0.37827604115E+02  0.49002485013E+02  0.10566000000E+00 0. -1.
         22    1    1    0    0    0  0.88343631077E+01  0.28388829512E+02  0.49051324728E+01  0.30133568277E+02  0.00000000000E+00 0. -1.
</event>
<event>
 5    1  0.1261010E-009  0.9118800E+02  0.7561462E-02  0.1125453E+00
         25   -1    0    0    0    0  0.00000000000E+00  0.00000000000E+00  0.99999998245E-14  0.12509000000E+03  0.12509000000E+03 0.  0.
        -13    1    3    3    0    0  0.53429808029E+01  0.31079985810E+02 -0.32162597923E+02  0.45043943333E+02  0.10566000000E+00 0.  1.
         23    2    1    0    0    0 -0.26757523556E+02  0.24295645115E+02 -0.32028039930E+01  0.88806375707E+02  0.81055974329E+02 0.  0.
         13    1    3    3    0    0 -0.32100504359E+02 -0.67843406951E+01  0.28959793930E+02  0.43762432374E+02  0.10566000000E+00 0. -1.
         22    1    1    0    0    0  0.26757523556E+02 -0.24295645115E+02  0.32028039930E+01  0.36283624293E+02  0.00000000000E+00 0. -1.
</event>
<event>
 5    1  0.1261010E-009  0.9118800E+02  0.7561462E-02  0.1125453E+00
         25   -1    0    0    0    0  0.00000000000E+00  0.00000000000E+00  0.99999998245E-14  0.12509000000E+03  0.12509000000E+03 0.  0.
        -13    1    3    3    0    0 -0.35383262899E+02 -0.28656115536E+02  0.36182871118E+01  0.45675501274E+02  0.10566000000E+00 0. -1.
         23    2    1    0    0    0 -0.18302418968E+01 -0.58231270440E+01  0.30257804284E+02  0.94222649708E+02  0.89023111628E+02 0.  0.
         13    1    3    3    0    0  0.33553021002E+02  0.22832988492E+02  0.26639517172E+02  0.48547148434E+02  0.10566000000E+00 0.  1.
         22    1    1    0    0    0  0.18302418968E+01  0.58231270440E+01 -0.30257804284E+02  0.30867350292E+02  0.00000000000E+00 0.  1.
</event>
<event>
 5    1  0.1261010E-009  0.9118800E+02  0.7561462E-02  0.1125453E+00
         25   -1    0    0    0    0  0.00000000000E+00  0.00000000000E+00  0.99999998245E-14  0.12509000000E+03  0.12509000000E+03 0.  0.
        -13    1    3    3    0    0 -0.31458670963E+02  0.14023890816E+02  0.38210870128E+02  0.51443165264E+02  0.10566000000E+00 0. -1.
         23    2    1    0    0    0  0.19632889900E+01 -0.12092961015E+02  0.27189503695E+02  0.95267804894E+02  0.90479784086E+02 0.  0.
         13    1    3    3    0    0  0.33421959953E+02 -0.26116851830E+02 -0.11021366433E+02  0.43824639630E+02  0.10566000000E+00 0.  1.
         22    1    1    0    0    0 -0.19632889900E+01  0.12092961015E+02 -0.27189503695E+02  0.29822195106E+02  0.00000000000E+00 0. -1.
</event>
<event>
 5    1  0.1261010E-009  0.9118800E+02  0.7561462E-02  0.1125453E+00
         25   -1    0    0    0    0  0.00000000000E+00  0.00000000000E+00  0.99999998245E-14  0.12509000000E+03  0.12509000000E+03 0.  0.
        -13    1    3    3    0    0 -0.33345087311E+02  0.81460685671E+01 -0.42197293433E+01  0.34584253073E+02  0.10566000000E+00 0.  1.
         23    2    1    0    0    0  0.16038018934E+02  0.30119985779E+02 -0.11404113098E+02  0.89111042397E+02  0.81524796761E+02 0.  0.
         13    1    3    3    0    0  0.49383106245E+02  0.21973917212E+02 -0.71843837550E+01  0.54526789324E+02  0.10566000000E+00 0. -1.
         22    1    1    0    0    0 -0.16038018934E+02 -0.30119985779E+02  0.11404113098E+02  0.35978957603E+02  0.00000000000E+00 0. -1.
</event>
<event>
 5    1  0.1261010E-009  0.9118800E+02  0.7561462E-02  0.1125453E+00
         25   -1    0    0    0    0  0.00000000000E+00  0.00000000000E+00  0.99999998245E-14  0.12509000000E+03  0.12509000000E+03 0.  0.
        -13    1    3    3    0    0 -0.89233491049E+01  0.30907598997E+02 -0.94728229691E+01  0.33535822251E+02  0.10566000000E+00 0. -1.
         23    2    1    0    0    0  0.11795698574E+02 -0.24462628576E+02 -0.16873406065E+02  0.93117034327E+02  0.87455769095E+02 0.  0.
         13    1    3    3    0    0  0.20719047678E+02 -0.55370227573E+02 -0.74005830960E+01  0.59581212076E+02  0.10566000000E+00 0.  1.
         22    1    1    0    0    0 -0.11795698574E+02  0.24462628576E+02  0.16873406065E+02  0.31972965673E+02  0.00000000000E+00 0.  1.
</event>
<event>
 5    1  0.1261010E-009  0.9118800E+02  0.7561462E-02  0.1125453E+00
         25   -1    0    0    0    0  0.00000000000E+00  0.00000000000E+00  0.99999998245E-14  0.12509000000E+03  0.12509000000E+03 0.  0.
        -13    1    3    3    0    0 -0.82264586876E+01 -0.32853963177E+02 -0.52414083712E+01  0.34271577797E+02  0.10566000000E+00 0. -1.
         23    2    1    0    0    0 -0.71098624715E+01  0.27126359697E+02  0.84441215092E+01  0.95803608572E+02  0.91217535006E+02 0.  0.
         13    1    3    3    0    0  0.11165962161E+01  0.59980322874E+02  0.13685529880E+02  0.61532030775E+02  0.10566000000E+00 0.  1.
         22    1    1    0    0    0  0.71098624715E+01 -0.27126359697E+02 -0.84441215092E+01  0.29286391428E+02  0.00000000000E+00 0.  1.
</event>
<event>
 5    1  0.1261010E-009  0.9118800E+02  0.7561462E-02  0.1125453E+00
         25   -1    0    0    0    0  0.00000000000E+00  0.00000000000E+00  0.99999998245E-14  0.12509000000E+03  0.12509000000E+03 0.  0.
        -13    1    3    3    0    0  0.16385641608E+02 -0.53035009989E+02  0.20723431925E+02  0.59250935268E+02  0.10566000000E+00 0.  1.
         23    2    1    0    0    0  0.11419268339E+00 -0.29495217689E+02 -0.16098829426E+01  0.95550659629E+02  0.90869994640E+02 0.  0.
         13    1    3    3    0    0 -0.16271448925E+02  0.23539792300E+02 -0.22333314868E+02  0.36299724360E+02  0.10566000000E+00 0. -1.
         22    1    1    0    0    0 -0.11419268339E+00  0.29495217689E+02  0.16098829426E+01  0.29539340371E+02  0.00000000000E+00 0.  1.
</event>
<event>
 5    1  0.1261010E-009  0.9118800E+02  0.7561462E-02  0.1125453E+00
         25   -1    0    0    0    0  0.00000000000E+00  0.00000000000E+00  0.99999998245E-14  0.12509000000E+03  0.12509000000E+03 0.  0.
        -13    1    3    3    0    0  0.37821626573E+02  0.15854549819E+02 -0.17421997799E+02  0.44557595962E+02  0.10566000000E+00 0. -1.
         23    2    1    0    0    0  0.62674665999E+01 -0.23514598292E+02 -0.17676380066E+02  0.95012236076E+02  0.90125762807E+02 0.  0.
         13    1    3    3    0    0 -0.31554159973E+02 -0.39369148111E+02 -0.25438226678E+00  0.50454640114E+02  0.10566000000E+00 0.  1.
         22    1    1    0    0    0 -0.62674665999E+01  0.23514598292E+02  0.17676380066E+02  0.30077763924E+02  0.00000000000E+00 0. -1.
</event>
<event>
 5    1  0.1261010E-009  0.9118800E+02  0.7561462E-02  0.1125453E+00
         25   -1    0    0    0    0  0.00000000000E+00  0.00000000000E+00  0.99999998245E-14  0.12509000000E+03  0.12509000000E+03 0.  0.
        -13    1    3    3    0    0  0.44145750725E+02 -0.28065314082E+02 -0.25399537894E+02  0.58152015020E+02  0.10566000000E+00 0. -1.
         23    2    1    0    0    0  0.27214450826E+02 -0.11364918513E+02  0.32877057016E+01  0.95415150121E+02  0.90683262829E+02 0.  0.
         13    1    3    3    0    0 -0.16931299899E+02  0.16700395569E+02  0.28687243596E+02  0.37263135102E+02  0.10566000000E+00 0.  1.
         22    1    1    0    0    0 -0.27214450826E+02  0.11364918513E+02 -0.32877057016E+01  0.29674849879E+02  0.00000000000E+00 0. -1.
</event>
<event>
 5    1  0.1261010E-009  0.9118800E+02  0.7561462E-02  0.1125453E+00
         25   -1    0    0    0    0  0.00000000000E+00  0.00000000000E+00  0.99999998245E-14  0.12509000000E+03  0.12509000000E+03 0.  0.
        -13    1    3    3    0    0  0.33150266734E+01  0.48911929789E+02  0.34764481775E+02  0.60099472832E+02  0.10566000000E+00 0.  1.
         23    2    1    0    0    0 -0.79781811008E+01  0.15964212357E+02  0.20950667314E+02  0.97568410097E+02  0.93606392614E+02 0.  0.
         13    1    3    3    0    0 -0.11293207774E+02 -0.32947717432E+02 -0.13813814461E+02  0.37468937265E+02  0.10566000000E+00 0. -1.
         22    1    1    0    0    0  0.79781811008E+01 -0.15964212357E+02 -0.20950667314E+02  0.27521589903E+02  0.00000000000E+00 0.  1.
</event>
<event>
 5    1  0.1261010E-009  0.9118800E+02  0.7561462E-02  0.1125453E+00
         25   -1    0    0    0    0  0.00000000000E+00  0.00000000000E+00  0.99999998245E-14  0.12509000000E+03  0.12509000000E+03 0.  0.
        -13    1    3    3    0    0 -0.78544423605E+01 -0.36727568426E+02  0.24450460257E+02  0.44815652601E+02  0.10566000000E+00 0.  1.
         23    2    1    0    0    0 -0.14670829854E+02  0.15702056256E+02 -0.11734532115E+01  0.10356873582E+03  0.10130803635E+03 0.  0.
         13    1    3    3    0    0 -0.68163874935E+01  0.52429624682E+02 -0.25623913468E+02  0.58753083223E+02  0.10566000000E+00 0. -1.
         22    1    1    0    0    0  0.14670829854E+02 -0.15702056256E+02  0.11734532115E+01  0.21521264175E+02  0.00000000000E+00 0. -1.
</event>
<event>
 5    1  0.1261010E-009  0.9118800E+02  0.7561462E-02  0.1125453E+00
         25   -1    0    0    0    0  0.00000000000E+00  0.00000000000E+00  0.99999998245E-14  0.12509000000E+03  0.12509000000E+03 0.  0.
        -13    1    3    3    0    0 -0.25554353863E+02 -0.12372275505E+02 -0.25873679015E+02  0.38412974792E+02  0.10566000000E+00 0. -1.
         23    2    1    0    0    0  0.12451858987E+02  0.24716339014E+02 -0.17944709687E+02  0.92105779345E+02  0.85997184701E+02 0.  0.
         13    1    3    3    0    0  0.38006212850E+02  0.37088614519E+02  0.79289693285E+01  0.53692804553E+02  0.10566000000E+00 0.  1.
         22    1    1    0    0    0 -0.12451858987E+02 -0.24716339014E+02  0.17944709687E+02  0.32984220655E+02  0.00000000000E+00 0.  1.
</event>
<event>
 5    1  0.1261010E-009  0.9118800E+02  0.7561462E-02  0.1125453E+00
         25   -1    0    0    0    0  0.00000000000E+00  0.00000000000E+00  0.99999998245E-14  0.12509000000E+03  0.12509000000E+03 0.  0.
        -13    1    3    3    0    0 -0.30103961033E+02  0.41589649108E+02 -0.51824467774E+01  0.51602483481E+02  0.10566000000E+00 0.  1.
         23    2    1    0    0    0 -0.12243233256E+02  0.10764650361E+02  0.22909822169E+02  0.96971777977E+02  0.92805664236E+02 0.  0.
         13    1    3    3    0    0  0.17860727778E+02 -0.30824998746E+02  0.28092268946E+02  0.45369294496E+02  0.10566000000E+00 0. -1.
         22    1    1    0    0    0  0.12243233256E+02 -0.10764650361E+02 -0.22909822169E+02  0.28118222023E+02  0.00000000000E+00 0. -1.
</event>
<event>
 5    1  0.1261010E-009  0.9118800E+02  0.7561462E-02  0.1125453E+00
         25   -1    0    0    0    0  0.00000000000E+00  0.00000000000E+00  0.99999998245E-14  0.12509000000E+03  0.12509000000E+03 0.  0.
        -13    1    3    3    0    0 -0.59244169123E+01  0.51416322671E+02  0.24752084625E+02  0.57370844600E+02  0.10566000000E+00 0. -1.
         23    2    1    0    0    0  0.15169780352E+02  0.21390576599E+02  0.12338518951E+02  0.96108660261E+02  0.91634908872E+02 0.  0.
         13    1    3    3    0    0  0.21094197265E+02 -0.30025746072E+02 -0.12413565674E+02  0.38737815661E+02  0.10566000000E+00 0.  1.
         22    1    1    0    0    0 -0.15169780352E+02 -0.21390576599E+02 -0.12338518951E+02  0.28981339739E+02  0.00000000000E+00 0. -1.
</event>
<event>
 5    1  0.1261010E-009  0.9118800E+02  0.7561462E-02  0.1125453E+00
         25   -1    0    0    0    0  0.00000000000E+00  0.00000000000E+00  0.99999998245E-14  0.12509000000E+03  0.12509000000E+03 0.  0.
        -13    1    3    3    0    0 -0.17906579951E+02  0.28924994665E+01 -0.27954397418E+02  0.33323740153E+02  0.10566000000E+00 0. -1.
         23    2    1    0    0    0  0.16236870330E+02 -0.28692570758E+02  0.68517375227E+01  0.91417371919E+02  0.84989940620E+02 0.  0.
         13    1    3    3    0    0  0.34143450282E+02 -0.31585070225E+02  0.34806134941E+02  0.58093631766E+02  0.10566000000E+00 0.  1.
         22    1    1    0    0    0 -0.16236870330E+02  0.28692570758E+02 -0.68517375227E+01  0.33672628081E+02  0.00000000000E+00 0.  1.
</event>
<event>
 5    1  0.1261010E-009  0.9118800E+02  0.7561462E-02  0.1125453E+00
         25   -1    0    0    0    0  0.00000000000E+00  0.00000000000E+00  0.99999998245E-14  0.12509000000E+03  0.12509000000E+03 0.  0.
        -13    1    3    3    0    0 -0.30740746543E+02  0.10397051715E+02 -0.12086643884E+02  0.34629327265E+02  0.10566000000E+00 0. -1.
         23    2    1    0    0    0  0.21753342942E+02  0.50976708282E+01  0.18907725936E+02  0.95820625611E+02  0.91240868121E+02 0.  0.
         13    1    3    3    0    0  0.52494089485E+02 -0.52993808869E+01  0.30994369821E+02  0.61191298346E+02  0.10566000000E+00 0.  1.
         22    1    1    0    0    0 -0.21753342942E+02 -0.50976708282E+01 -0.18907725936E+02  0.29269374389E+02  0.00000000000E+00 0.  1.
</event>
<event>
 5    1  0.1261010E-009  0.9118800E+02  0.7561462E-02  0.1125453E+00
         25   -1    0    0    0    0  0.00000000000E+00  0.00000000000E+00  0.99999998245E-14  0.12509000000E+03  0.12509000000E+03 0.  0.
        -13    1    3    3    0    0  0.37174241047E+02 -0.74301468959E+01  0.14726309914E+02  0.40669480548E+02  0.10566000000E+00 0. -1.
         23    2    1    0    0    0 -0.12256260412E+02 -0.26339929382E+02 -0.14249168102E+01  0.96003264414E+02  0.91490920812E+02 0.  0.
         13    1    3    3    0    0 -0.49430501459E+02 -0.18909782486E+02 -0.16151226724E+02  0.55333783866E+02  0.10566000000E+00 0.  1.
         22    1    1    0    0    0  0.12256260412E+02  0.26339929382E+02  0.14249168102E+01  0.29086735586E+02  0.00000000000E+00 0.  1.
</event>
<event>
 5    1  0.1261010E-009  0.9118800E+02  0.7561462E-02  0.1125453E+00
         25   -1    0    0    0    0  0.00000000000E+00  0.00000000000E+00  0.99999998245E-14  0.12509000000E+03  0.12509000000E+03 0.  0.
        -13    1    3    3    0    0 -0.11468436356E+02 -0.31737424176E+02 -0.27800543685E+02  0.43722654528E+02  0.10566000000E+00 0. -1.
         23    2    1    0    0    0 -0.12523218012E+02  0.13137258035E+02 -0.31471729566E+02  0.88759733005E+02  0.80983960778E+02 0.  0.
         13    1    3    3    0    0 -0.10547816561E+01  0.44874682212E+02 -0.36711858809E+01  0.45037078477E+02  0.10566000000E+00 0.  1.
         22    1    1    0    0    0  0.12523218012E+02 -0.13137258035E+02  0.31471729566E+02  0.36330266995E+02  0.00000000000E+00 0. -1.
</event>
<event>
 5    1  0.1261010E-009  0.9118800E+02  0.7561462E-02  0.1125453E+00
         25   -1    0    0    0    0  0.00000000000E+00  0.00000000000E+00  0.99999998245E-14  0.12509000000E+03  0.12509000000E+03 0.  0.
        -13    1    3    3    0    0 -0.95918012275E+01 -0.32208400553E+02 -0.14359717053E+01  0.33637135665E+02  0.10566000000E+00 0.  1.
         23    2    1    0    0    0  0.13169168544E+00  0.27688683169E+02 -0.11427617391E+02  0.95135518573E+02  0.90296710552E+02 0.  0.
         13    1    3    3    0    0  0.97234929129E+01  0.59897083722E+02 -0.99916456857E+01  0.61498382908E+02  0.10566000000E+00 0. -1.
         22    1    1    0    0    0 -0.13169168544E+00 -0.27688683169E+02  0.11427617391E+02  0.29954481427E+02  0.00000000000E+00 0. -1.
</event>
<event>
 5    1  0.1261010E-009  0.9118800E+02  0.7561462E-02  0.1125453E+00
         25   -1    0    0    0    0  0.00000000000E+00  0.00000000000E+00  0.99999998245E-14  0.12509000000E+03  0.12509000000E+03 0.  0.
        -13    1    3    3    0    0  0.20396567168E+02 -0.29611499799E+02 -0.46684771430E+01  0.36258333048E+02  0.10566000000E+00 0.  1.
         23    2    1    0    0    0 -0.16700824985E+02  0.16117291926E+02 -0.16874689102E+02  0.96394359452E+02  0.92024087866E+02 0.  0.
         13    1    3    3    0    0 -0.37097392153E+02  0.45728791725E+02 -0.12206211959E+02  0.60136026403E+02  0.10566000000E+00 0. -1.
         22    1    1    0    0    0  0.16700824985E+02 -0.16117291926E+02  0.16874689102E+02  0.28695640548E+02  0.00000000000E+00 0. -1.
</event>
<event>
 5    1  0.1261010E-009  0.9118800E+02  0.7561462E-02  0.1125453E+00
         25   -1    0    0    0    0  0.00000000000E+00  0.00000000000E+00  0.99999998245E-14  0.12509000000E+03  0.12509000000E+03 0.  0.
        -13    1    3    3    0    0 -0.32395011889E+02 -0.44205930492E+01 -0.15525055885E+02  0.36194156469E+02  0.10566000000E+00 0.  1.
         23    2    1    0    0    0  0.15406918232E+02  0.12165753494E+02  0.19254449497E+02  0.97592499879E+02  0.93638579227E+02 0.  0.
         13    1    3    3    0    0  0.47801930121E+02  0.16586346544E+02  0.34779505382E+02  0.61398343410E+02  0.10566000000E+00 0. -1.
         22    1    1    0    0    0 -0.15406918232E+02 -0.12165753494E+02 -0.19254449497E+02  0.27497500121E+02  0.00000000000E+00 0. -1.
</event>
<event>
 5    1  0.1261010E-009  0.9118800E+02  0.7561462E-02  0.1125453E+00
         25   -1    0    0    0    0  0.00000000000E+00  0.00000000000E+00  0.99999998245E-14  0.12509000000E+03  0.12509000000E+03 0.  0.
        -13    1    3    3    0    0 -0.24119559643E+02  0.24663658155E+02 -0.16349343573E+02  0.38175402949E+02  0.10566000000E+00 0. -1.
         23    2    1    0    0    0  0.76265612156E+01 -0.22441836182E+02 -0.18502961701E+02  0.95020745954E+02  0.90137573313E+02 0.  0.
         13    1    3    3    0    0  0.31746120859E+02 -0.47105494337E+02 -0.21536181277E+01  0.56845343005E+02  0.10566000000E+00 0.  1.
         22    1    1    0    0    0 -0.76265612156E+01  0.22441836182E+02  0.18502961701E+02  0.30069254046E+02  0.00000000000E+00 0.  1.
</event>
<event>
 5    1  0.1261010E-009  0.9118800E+02  0.7561462E-02  0.1125453E+00
         25   -1    0    0    0    0  0.00000000000E+00  0.00000000000E+00  0.99999998245E-14  0.12509000000E+03  0.12509000000E+03 0.  0.
        -13    1    3    3    0    0 -0.45155694018E+01  0.26839180640E+02 -0.42425289951E+02  0.50404844767E+02  0.10566000000E+00 0. -1.
         23    2    1    0    0    0 -0.23303784388E+02 -0.15838449544E+01 -0.46530299101E+01  0.10127350112E+03  0.98433207861E+02 0.  0.
         13    1    3    3    0    0 -0.18788214986E+02 -0.28423025595E+02  0.37772260041E+02  0.50868656351E+02  0.10566000000E+00 0.  1.
         22    1    1    0    0    0  0.23303784388E+02  0.15838449544E+01  0.46530299101E+01  0.23816498882E+02  0.00000000000E+00 0.  1.
</event>
<event>
 5    1  0.1261010E-009  0.9118800E+02  0.7561462E-02  0.1125453E+00
         25   -1    0    0    0    0  0.00000000000E+00  0.00000000000E+00  0.99999998245E-14  0.12509000000E+03  0.12509000000E+03 0.  0.
        -13    1    3    3    0    0 -0.37640916383E+02  0.28543453502E+02  0.21988405735E+02  0.52106318952E+02  0.10566000000E+00 0.  1.
         23    2    1    0    0    0 -0.28174905988E+02 -0.21849847321E+01 -0.76258281245E+01  0.95819661083E+02  0.91239545756E+02 0.  0.
         13    1    3    3    0    0  0.94660103947E+01 -0.30728438234E+02 -0.29614233859E+02  0.43713342130E+02  0.10566000000E+00 0. -1.
         22    1    1    0    0    0  0.28174905988E+02  0.21849847321E+01  0.76258281245E+01  0.29270338917E+02  0.00000000000E+00 0. -1.
</event>
<event>
 5    1  0.1261010E-009  0.9118800E+02  0.7561462E-02  0.1125453E+00
         25   -1    0    0    0    0  0.00000000000E+00  0.00000000000E+00  0.99999998245E-14  0.12509000000E+03  0.12509000000E+03 0.  0.
        -13    1    3    3    0    0  0.29451129201E+02  0.36273857222E+02  0.39504474802E+02  0.61186407170E+02  0.10566000000E+00 0. -1.
         23    2    1    0    0    0  0.67114171842E+01  0.22707842419E+02  0.20362026472E+02  0.93860184919E+02  0.88512332266E+02 0.  0.
         13    1    3    3    0    0 -0.22739712017E+02 -0.13566014803E+02 -0.19142448331E+02  0.32673777749E+02  0.10566000000E+00 0.  1.
         22    1    1    0    0    0 -0.67114171842E+01 -0.22707842419E+02 -0.20362026472E+02  0.31229815081E+02  0.00000000000E+00 0. -1.
</event>
<event>
 5    1  0.1261010E-009  0.9118800E+02  0.7561462E-02  0.1125453E+00
         25   -1    0    0    0    0  0.00000000000E+00  0.00000000000E+00  0.99999998245E-14  0.12509000000E+03  0.12509000000E+03 0.  0.
        -13    1    3    3    0    0 -0.38182947326E+02 -0.28045554996E+02 -0.86211208961E+01  0.48154184772E+02  0.10566000000E+00 0.  1.
         23    2    1    0    0    0 -0.15123560418E+01 -0.53179899531E+01 -0.28786789341E+02  0.95777076596E+02  0.91181143461E+02 0.  0.
         13    1    3    3    0    0  0.36670591284E+02  0.22727565043E+02 -0.20165668444E+02  0.47622891824E+02  0.10566000000E+00 0. -1.
         22    1    1    0    0    0  0.15123560418E+01  0.53179899531E+01  0.28786789341E+02  0.29312923404E+02  0.00000000000E+00 0. -1.
</event>
<event>
 5    1  0.1261010E-009  0.9118800E+02  0.7561462E-02  0.1125453E+00
         25   -1    0    0    0    0  0.00000000000E+00  0.00000000000E+00  0.99999998245E-14  0.12509000000E+03  0.12509000000E+03 0.  0.
        -13    1    3    3    0    0 -0.48689722121E+02 -0.18667048618E+02  0.21109033838E+02  0.56256112716E+02  0.10566000000E+00 0.  1.
         23    2    1    0    0    0 -0.15963700436E+02 -0.25756684854E+02  0.22092037699E+01  0.94706992782E+02  0.89701100073E+02 0.  0.
         13    1    3    3    0    0  0.32726021685E+02 -0.70896362365E+01 -0.18899830068E+02  0.38450880067E+02  0.10566000000E+00 0. -1.
         22    1    1    0    0    0  0.15963700436E+02  0.25756684854E+02 -0.22092037699E+01  0.30383007218E+02  0.00000000000E+00 0. -1.
</event>
<event>
 5    1  0.1261010E-009  0.9118800E+02  0.7561462E-02  0.1125453E+00
         25   -1    0    0    0    0  0.00000000000E+00  0.00000000000E+00  0.99999998245E-14  0.12509000000E+03  0.12509000000E+03 0.  0.
        -13    1    3    3    0    0 -0.21401407544E+02  0.31085928902E+02  0.10587411307E+02  0.39197699713E+02  0.10566000000E+00 0. -1.
         23    2    1    0    0    0  0.69669624803E+01  0.19150570148E+01 -0.28540780503E+02  0.95648835599E+02  0.91005041564E+02 0.  0.
         13    1    3    3    0    0  0.28368370024E+02 -0.29170871887E+02 -0.39128191810E+02  0.56451135886E+02  0.10566000000E+00 0.  1.
         22    1    1    0    0    0 -0.69669624803E+01 -0.19150570148E+01  0.28540780503E+02  0.29441164401E+02  0.00000000000E+00 0.  1.
</event>
<event>
 5    1  0.1261010E-009  0.9118800E+02  0.7561462E-02  0.1125453E+00
         25   -1    0    0    0    0  0.00000000000E+00  0.00000000000E+00  0.99999998245E-14  0.12509000000E+03  0.12509000000E+03 0.  0.
        -13    1    3    3    0    0 -0.60127990652E+02  0.29234770940E+01 -0.11269096010E+02  0.61244801144E+02  0.10566000000E+00 0.  1.
         23    2    1    0    0    0 -0.26928206638E+02 -0.48873236091E+01 -0.11630518976E+02  0.95353100087E+02  0.90597629549E+02 0.  0.
         13    1    3    3    0    0  0.33199784015E+02 -0.78108007031E+01 -0.36142296539E+00  0.34108298944E+02  0.10566000000E+00 0. -1.
         22    1    1    0    0    0  0.26928206638E+02  0.48873236091E+01  0.11630518976E+02  0.29736899913E+02  0.00000000000E+00 0.  1.
</event>
<event>
 5    1  0.1261010E-009  0.9118800E+02  0.7561462E-02  0.1125453E+00
         25   -1    0    0    0    0  0.00000000000E+00  0.00000000000E+00  0.99999998245E-14  0.12509000000E+03  0.12509000000E+03 0.  0.
        -13    1    3    3    0    0  0.12814315036E+02  0.35256940747E+02 -0.44366821441E+02  0.58100641558E+02  0.10566000000E+00 0. -1.
         23    2    1    0    0    0  0.44631475818E+01  0.28019874212E+02 -0.87412528585E+01  0.95400902022E+02  0.90663606634E+02 0.  0.
         13    1    3    3    0    0 -0.83511674543E+01 -0.72370665344E+01  0.35625568582E+02  0.37300260464E+02  0.10566000000E+00 0.  1.
         22    1    1    0    0    0 -0.44631475818E+01 -0.28019874212E+02  0.87412528585E+01  0.29689097978E+02  0.00000000000E+00 0. -1.
</event>
<event>
 5    1  0.1261010E-009  0.9118800E+02  0.7561462E-02  0.1125453E+00
         25   -1    0    0    0    0  0.00000000000E+00  0.00000000000E+00  0.99999998245E-14  0.12509000000E+03  0.12509000000E+03 0.  0.
        -13    1    3    3    0    0 -0.21362246349E+02 -0.48084185438E+02 -0.26719129736E+02  0.59011503253E+02  0.10566000000E+00 0.  1.
         23    2    1    0    0    0 -0.22085663815E+02 -0.18222486983E+02 -0.48090132657E+01  0.96056188907E+02  0.91563252677E+02 0.  0.
         13    1    3    3    0    0 -0.72341746597E+00  0.29861698455E+02  0.21910116470E+02  0.37044685654E+02  0.10566000000E+00 0. -1.
         22    1    1    0    0    0  0.22085663815E+02  0.18222486983E+02  0.48090132657E+01  0.29033811093E+02  0.00000000000E+00 0.  1.
</event>
<event>
 5    1  0.1261010E-009  0.9118800E+02  0.7561462E-02  0.1125453E+00
         25   -1    0    0    0    0  0.00000000000E+00  0.00000000000E+00  0.99999998245E-14  0.12509000000E+03  0.12509000000E+03 0.  0.
        -13    1    3    3    0    0  0.18692688615E+02  0.18164931347E+02  0.26014336367E+02  0.36825781718E+02  0.10566000000E+00 0.  1.
         23    2    1    0    0    0  0.10918053919E+02 -0.62492160061E+01 -0.26776218234E+02  0.95505840979E+02  0.90808277134E+02 0.  0.
         13    1    3    3    0    0 -0.77746346960E+01 -0.24414147354E+02 -0.52790554601E+02  0.58680059260E+02  0.10566000000E+00 0. -1.
         22    1    1    0    0    0 -0.10918053919E+02  0.62492160061E+01  0.26776218234E+02  0.29584159021E+02  0.00000000000E+00 0. -1.
</event>
<event>
 5    1  0.1261010E-009  0.9118800E+02  0.7561462E-02  0.1125453E+00
         25   -1    0    0    0    0  0.00000000000E+00  0.00000000000E+00  0.99999998245E-14  0.12509000000E+03  0.12509000000E+03 0.  0.
        -13    1    3    3    0    0 -0.56297950049E+02 -0.89172395264E+01  0.28327159560E+01  0.57070235537E+02  0.10566000000E+00 0.  1.
         23    2    1    0    0    0 -0.20233002751E+02 -0.15856912699E+02  0.14462866078E+02  0.95594397347E+02  0.90930183264E+02 0.  0.
         13    1    3    3    0    0  0.36064947298E+02 -0.69396731721E+01  0.11630150122E+02  0.38524161811E+02  0.10566000000E+00 0. -1.
         22    1    1    0    0    0  0.20233002751E+02  0.15856912699E+02 -0.14462866078E+02  0.29495602653E+02  0.00000000000E+00 0.  1.
</event>
<event>
 5    1  0.1261010E-009  0.9118800E+02  0.7561462E-02  0.1125453E+00
         25   -1    0    0    0    0  0.00000000000E+00  0.00000000000E+00  0.99999998245E-14  0.12509000000E+03  0.12509000000E+03 0.  0.
        -13    1    3    3    0    0 -0.33959329351E+02  0.33051731371E+02  0.21961868186E+02  0.52230142780E+02  0.10566000000E+00 0. -1.
         23    2    1    0    0    0  0.22349429166E+01  0.88129713359E+01  0.27485397922E+02  0.96139861269E+02  0.91677491197E+02 0.  0.
         13    1    3    3    0    0  0.36194272267E+02 -0.24238760035E+02  0.55235297360E+01  0.43909718489E+02  0.10566000000E+00 0.  1.
         22    1    1    0    0    0 -0.22349429166E+01 -0.88129713359E+01 -0.27485397922E+02  0.28950138731E+02  0.00000000000E+00 0. -1.
</event>
<event>
 5    1  0.1261010E-009  0.9118800E+02  0.7561462E-02  0.1125453E+00
         25   -1    0    0    0    0  0.00000000000E+00  0.00000000000E+00  0.99999998245E-14  0.12509000000E+03  0.12509000000E+03 0.  0.
        -13    1    3    3    0    0 -0.43337550279E+02  0.24191937245E+01  0.34418603979E+02  0.55395371886E+02  0.10566000000E+00 0. -1.
         23    2    1    0    0    0 -0.36254159474E+01  0.12176197869E+02  0.24526905828E+02  0.97468042343E+02  0.93472170903E+02 0.  0.
         13    1    3    3    0    0  0.39712134332E+02  0.97570041442E+01 -0.98916981510E+01  0.42072670457E+02  0.10566000000E+00 0.  1.
         22    1    1    0    0    0  0.36254159474E+01 -0.12176197869E+02 -0.24526905828E+02  0.27621957657E+02  0.00000000000E+00 0. -1.
</event>
<event>
 5    1  0.1261010E-009  0.9118800E+02  0.7561462E-02  0.1125453E+00
         25   -1    0    0    0    0  0.00000000000E+00  0.00000000000E+00  0.99999998245E-14  0.12509000000E+03  0.12509000000E+03 0.  0.
        -13    1    3    3    0    0  0.17143658443E+02  0.29790858260E+02 -0.12786312257E+02  0.36672894702E+02  0.10566000000E+00 0.  1.
         23    2    1    0    0    0 -0.16330389945E+02 -0.61494307637E+01  0.22110977565E+02  0.96922776790E+02  0.92739593472E+02 0.  0.
         13    1    3    3    0    0 -0.33474048388E+02 -0.35940289024E+02  0.34897289823E+02  0.60249882088E+02  0.10566000000E+00 0. -1.
         22    1    1    0    0    0  0.16330389945E+02  0.61494307637E+01 -0.22110977565E+02  0.28167223210E+02  0.00000000000E+00 0. -1.
</event>
<event>
 5    1  0.1261010E-009  0.9118800E+02  0.7561462E-02  0.1125453E+00
         25   -1    0    0    0    0  0.00000000000E+00  0.00000000000E+00  0.99999998245E-14  0.12509000000E+03  0.12509000000E+03 0.  0.
        -13    1    3    3    0    0 -0.43385553306E+02 -0.34330342280E+00  0.44356801067E+02  0.62048054424E+02  0.10566000000E+00 0.  1.
         23    2    1    0    0    0 -0.21874308715E+02  0.52314181991E+01  0.20386630774E+02  0.94734311366E+02  0.89739188304E+02 0.  0.
         13    1    3    3    0    0  0.21511244591E+02  0.55747216219E+01 -0.23970170292E+02  0.32686256942E+02  0.10566000000E+00 0. -1.
         22    1    1    0    0    0  0.21874308715E+02 -0.52314181991E+01 -0.20386630774E+02  0.30355688634E+02  0.00000000000E+00 0.  1.
</event>
<event>
 5    1  0.1261010E-009  0.9118800E+02  0.7561462E-02  0.1125453E+00
         25   -1    0    0    0    0  0.00000000000E+00  0.00000000000E+00  0.99999998245E-14  0.12509000000E+03  0.12509000000E+03 0.  0.
        -13    1    3    3    0    0 -0.33313744143E+02  0.16999713615E+02 -0.10841905008E+02  0.38940388802E+02  0.10566000000E+00 0.  1.
         23    2    1    0    0    0 -0.62256825856E+01 -0.23630074232E+02  0.17159063924E+02  0.95230780208E+02  0.90428582275E+02 0.  0.
         13    1    3    3    0    0  0.27088061558E+02 -0.40629787846E+02  0.28000968932E+02  0.56290391405E+02  0.10566000000E+00 0. -1.
         22    1    1    0    0    0  0.62256825856E+01  0.23630074232E+02 -0.17159063924E+02  0.29859219792E+02  0.00000000000E+00 0. -1.
</event>
<event>
 5    1  0.1261010E-009  0.9118800E+02  0.7561462E-02  0.1125453E+00
         25   -1    0    0    0    0  0.00000000000E+00  0.00000000000E+00  0.99999998245E-14  0.12509000000E+03  0.12509000000E+03 0.  0.
        -13    1    3    3    0    0  0.12688976057E+02 -0.18270469298E+02  0.14721226551E+02  0.26674816531E+02  0.10566000000E+00 0.  1.
         23    2    1    0    0    0 -0.30830854473E+02  0.19941175007E+02  0.16985635705E+02  0.84633803089E+02  0.74338259038E+02 0.  0.
         13    1    3    3    0    0 -0.43519830530E+02  0.38211644305E+02  0.22644091541E+01  0.57958986558E+02  0.10566000000E+00 0. -1.
         22    1    1    0    0    0  0.30830854473E+02 -0.19941175007E+02 -0.16985635705E+02  0.40456196911E+02  0.00000000000E+00 0. -1.
</event>
<event>
 5    1  0.1261010E-009  0.9118800E+02  0.7561462E-02  0.1125453E+00
         25   -1    0    0    0    0  0.00000000000E+00  0.00000000000E+00  0.99999998245E-14  0.12509000000E+03  0.12509000000E+03 0.  0.
        -13    1    3    3    0    0  0.28413857711E+02 -0.16155942452E+02 -0.29134532821E+02  0.43785773412E+02  0.10566000000E+00 0.  1.
         23    2    1    0    0    0 -0.22076518755E+02 -0.11084668610E+02 -0.13784839192E+02  0.96801056045E+02  0.92575267222E+02 0.  0.
         13    1    3    3    0    0 -0.50490376466E+02  0.50712738422E+01  0.15349693629E+02  0.53015282633E+02  0.10566000000E+00 0. -1.
         22    1    1    0    0    0  0.22076518755E+02  0.11084668610E+02  0.13784839192E+02  0.28288943955E+02  0.00000000000E+00 0. -1.
</event>
<event>
 5    1  0.1261010E-009  0.9118800E+02  0.7561462E-02  0.1125453E+00
         25   -1    0    0    0    0  0.00000000000E+00  0.00000000000E+00  0.99999998245E-14  0.12509000000E+03  0.12509000000E+03 0.  0.
        -13    1    3    3    0    0 -0.13099299486E+02  0.31701479729E+02  0.39459766988E+02  0.52284412962E+02  0.10566000000E+00 0.  1.
         23    2    1    0    0    0 -0.27114928445E+02  0.13728137947E+02  0.40024576345E+01  0.94435460643E+02  0.89321640400E+02 0.  0.
         13    1    3    3    0    0 -0.14015628960E+02 -0.17973341783E+02 -0.35457309354E+02  0.42151047681E+02  0.10566000000E+00 0. -1.
         22    1    1    0    0    0  0.27114928445E+02 -0.13728137947E+02 -0.40024576345E+01  0.30654539357E+02  0.00000000000E+00 0.  1.
</event>
<event>
 5    1  0.1261010E-009  0.9118800E+02  0.7561462E-02  0.1125453E+00
         25   -1    0    0    0    0  0.00000000000E+00  0.00000000000E+00  0.99999998245E-14  0.12509000000E+03  0.12509000000E+03 0.  0.
        -13    1    3    3    0    0 -0.22899923720E+02 -0.49362227839E+01 -0.29754238321E+02  0.37869495162E+02  0.10566000000E+00 0. -1.
         23    2    1    0    0    0  0.13800849195E+02 -0.22975094323E+02  0.11470582043E+02  0.95937081620E+02  0.91400388291E+02 0.  0.
         13    1    3    3    0    0  0.36700772915E+02 -0.18038871539E+02  0.41224820364E+02  0.58067586458E+02  0.10566000000E+00 0.  1.
         22    1    1    0    0    0 -0.13800849195E+02  0.22975094323E+02 -0.11470582043E+02  0.29152918380E+02  0.00000000000E+00 0.  1.
</event>
<event>
 5    1  0.1261010E-009  0.9118800E+02  0.7561462E-02  0.1125453E+00
         25   -1    0    0    0    0  0.00000000000E+00  0.00000000000E+00  0.99999998245E-14  0.12509000000E+03  0.12509000000E+03 0.  0.
        -13    1    3    3    0    0 -0.26845547898E+02 -0.11248145741E+02 -0.16796130872E+02  0.33605437073E+02  0.10566000000E+00 0.  1.
         23    2    1    0    0    0  0.15563388259E+02  0.25840254564E+02  0.59160549446E+01  0.94350164019E+02  0.89202107230E+02 0.  0.
         13    1    3    3    0    0  0.42408936157E+02  0.37088400305E+02  0.22712185816E+02  0.60744726946E+02  0.10566000000E+00 0. -1.
         22    1    1    0    0    0 -0.15563388259E+02 -0.25840254564E+02 -0.59160549446E+01  0.30739835981E+02  0.00000000000E+00 0. -1.
</event>
<event>
 5    1  0.1261010E-009  0.9118800E+02  0.7561462E-02  0.1125453E+00
         25   -1    0    0    0    0  0.00000000000E+00  0.00000000000E+00  0.99999998245E-14  0.12509000000E+03  0.12509000000E+03 0.  0.
        -13    1    3    3    0    0  0.15878691715E+02 -0.54458264926E+01 -0.28702623234E+02  0.33251189773E+02  0.10566000000E+00 0.  1.
         23    2    1    0    0    0 -0.19627086711E+02  0.20294250848E+01  0.21960311135E+02  0.95567189089E+02  0.90892745950E+02 0.  0.
         13    1    3    3    0    0 -0.35505778426E+02  0.74752515774E+01  0.50662934370E+02  0.62315999316E+02  0.10566000000E+00 0. -1.
         22    1    1    0    0    0  0.19627086711E+02 -0.20294250848E+01 -0.21960311135E+02  0.29522810911E+02  0.00000000000E+00 0. -1.
</event>
<event>
 5    1  0.1261010E-009  0.9118800E+02  0.7561462E-02  0.1125453E+00
         25   -1    0    0    0    0  0.00000000000E+00  0.00000000000E+00  0.99999998245E-14  0.12509000000E+03  0.12509000000E+03 0.  0.
        -13    1    3    3    0    0 -0.63293032723E+01  0.35255060939E+02  0.48006764302E+02  0.59896911310E+02  0.10566000000E+00 0. -1.
         23    2    1    0    0    0  0.96575127864E+01  0.15434825846E+02  0.24603789249E+02  0.94482029673E+02  0.89386833950E+02 0.  0.
         13    1    3    3    0    0  0.15986816059E+02 -0.19820235093E+02 -0.23402975052E+02  0.34585118363E+02  0.10566000000E+00 0.  1.
         22    1    1    0    0    0 -0.96575127864E+01 -0.15434825846E+02 -0.24603789249E+02  0.30607970327E+02  0.00000000000E+00 0. -1.
</event>
<event>
 5    1  0.1261010E-009  0.9118800E+02  0.7561462E-02  0.1125453E+00
         25   -1    0    0    0    0  0.00000000000E+00  0.00000000000E+00  0.99999998245E-14  0.12509000000E+03  0.12509000000E+03 0.  0.
        -13    1    3    3    0    0  0.36334426266E+02  0.18884242097E+02  0.47259066310E+02  0.62531877024E+02  0.10566000000E+00 0.  1.
         23    2    1    0    0    0  0.17935151141E+02  0.86236100071E+01  0.21951964894E+02  0.95460199819E+02  0.90745383854E+02 0.  0.
         13    1    3    3    0    0 -0.18399275125E+02 -0.10260632090E+02 -0.25307101416E+02  0.32928322795E+02  0.10566000000E+00 0. -1.
         22    1    1    0    0    0 -0.17935151141E+02 -0.86236100071E+01 -0.21951964894E+02  0.29629800181E+02  0.00000000000E+00 0.  1.
</event>
<event>
 5    1  0.1261010E-009  0.9118800E+02  0.7561462E-02  0.1125453E+00
         25   -1    0    0    0    0  0.00000000000E+00  0.00000000000E+00  0.99999998245E-14  0.12509000000E+03  0.12509000000E+03 0.  0.
        -13    1    3    3    0    0  0.19755464039E+02  0.10944995078E+02  0.60979090477E+01  0.23393737098E+02  0.10566000000E+00 0. -1.
         23    2    1    0    0    0 -0.36818589334E+02 -0.12563004147E+02 -0.56653958507E+01  0.85776715936E+02  0.76237200191E+02 0.  0.
         13    1    3    3    0    0 -0.56574053373E+02 -0.23507999224E+02 -0.11763304898E+02  0.62382978838E+02  0.10566000000E+00 0.  1.
         22    1    1    0    0    0  0.36818589334E+02  0.12563004147E+02  0.56653958507E+01  0.39313284064E+02  0.00000000000E+00 0.  1.
</event>
<event>
 5    1  0.1261010E-009  0.9118800E+02  0.7561462E-02  0.1125453E+00
         25   -1    0    0    0    0  0.00000000000E+00  0.00000000000E+00  0.99999998245E-14  0.12509000000E+03  0.12509000000E+03 0.  0.
        -13    1    3    3    0    0  0.31134594080E+02  0.37122658884E+01 -0.38026755873E+02  0.49286805464E+02  0.10566000000E+00 0.  1.
         23    2    1    0    0    0 -0.75784005491E+01 -0.17353147210E+02 -0.21706703052E+02  0.96284708292E+02  0.91874916166E+02 0.  0.
         13    1    3    3    0    0 -0.38712994629E+02 -0.21065413099E+02  0.16320052821E+02  0.46997902829E+02  0.10566000000E+00 0. -1.
         22    1    1    0    0    0  0.75784005491E+01  0.17353147210E+02  0.21706703052E+02  0.28805291708E+02  0.00000000000E+00 0.  1.
</event>
<event>
 5    1  0.1261010E-009  0.9118800E+02  0.7561462E-02  0.1125453E+00
         25   -1    0    0    0    0  0.00000000000E+00  0.00000000000E+00  0.99999998245E-14  0.12509000000E+03  0.12509000000E+03 0.  0.
        -13    1    3    3    0    0 -0.36107156539E+01  0.56116822136E+01  0.45211325064E+02  0.45701239840E+02  0.10566000000E+00 0. -1.
         23    2    1    0    0    0 -0.28198076367E+02 -0.66095166025E+01  0.31150256718E+01  0.95960622982E+02  0.91432601175E+02 0.  0.
         13    1    3    3    0    0 -0.24587360713E+02 -0.12221198816E+02 -0.42096299392E+02  0.50259383143E+02  0.10566000000E+00 0.  1.
         22    1    1    0    0    0  0.28198076367E+02  0.66095166025E+01 -0.31150256718E+01  0.29129377018E+02  0.00000000000E+00 0.  1.
</event>
<event>
 5    1  0.1261010E-009  0.9118800E+02  0.7561462E-02  0.1125453E+00
         25   -1    0    0    0    0  0.00000000000E+00  0.00000000000E+00  0.99999998245E-14  0.12509000000E+03  0.12509000000E+03 0.  0.
        -13    1    3    3    0    0 -0.15744340733E+02  0.68750407609E+01 -0.35814442468E+02  0.39721982628E+02  0.10566000000E+00 0.  1.
         23    2    1    0    0    0 -0.12870615278E+02  0.12410494659E+02  0.21359381884E+02  0.97235084639E+02  0.93159891450E+02 0.  0.
         13    1    3    3    0    0  0.28737254545E+01  0.55354538982E+01  0.57173824352E+02  0.57513102011E+02  0.10566000000E+00 0. -1.
         22    1    1    0    0    0  0.12870615278E+02 -0.12410494659E+02 -0.21359381884E+02  0.27854915361E+02  0.00000000000E+00 0. -1.
</event>
<event>
 5    1  0.1261010E-009  0.9118800E+02  0.7561462E-02  0.1125453E+00
         25   -1    0    0    0    0  0.00000000000E+00  0.00000000000E+00  0.99999998245E-14  0.12509000000E+03  0.12509000000E+03 0.  0.
        -13    1    3    3    0    0  0.30039068612E+02 -0.28517986803E+02 -0.13938120459E+02  0.43702443642E+02  0.10566000000E+00 0.  1.
         23    2    1    0    0    0  0.13798948017E+02  0.20971599581E+02 -0.15086710775E+02  0.95801302566E+02  0.91214372639E+02 0.  0.
         13    1    3    3    0    0 -0.16240120595E+02  0.49489586384E+02 -0.11485903160E+01  0.52098858924E+02  0.10566000000E+00 0. -1.
         22    1    1    0    0    0 -0.13798948017E+02 -0.20971599581E+02  0.15086710775E+02  0.29288697434E+02  0.00000000000E+00 0. -1.
</event>
<event>
 5    1  0.1261010E-009  0.9118800E+02  0.7561462E-02  0.1125453E+00
         25   -1    0    0    0    0  0.00000000000E+00  0.00000000000E+00  0.99999998245E-14  0.12509000000E+03  0.12509000000E+03 0.  0.
        -13    1    3    3    0    0  0.37114393138E+02 -0.13150670269E+02 -0.26176471819E+02  0.47282524757E+02  0.10566000000E+00 0.  1.
         23    2    1    0    0    0 -0.73760481354E+01 -0.25708724777E+02 -0.12996571830E+02  0.95353566201E+02  0.90598273119E+02 0.  0.
         13    1    3    3    0    0 -0.44490441273E+02 -0.12558054508E+02  0.13179899989E+02  0.48071041444E+02  0.10566000000E+00 0. -1.
         22    1    1    0    0    0  0.73760481354E+01  0.25708724777E+02  0.12996571830E+02  0.29736433799E+02  0.00000000000E+00 0.  1.
</event>
<event>
 5    1  0.1261010E-009  0.9118800E+02  0.7561462E-02  0.1125453E+00
         25   -1    0    0    0    0  0.00000000000E+00  0.00000000000E+00  0.99999998245E-14  0.12509000000E+03  0.12509000000E+03 0.  0.
        -13    1    3    3    0    0 -0.40002186568E+02  0.31483485816E+02  0.45131239763E+01  0.51105423014E+02  0.10566000000E+00 0. -1.
         23    2    1    0    0    0 -0.27627730973E+02 -0.10190770304E+02 -0.39024100990E+01  0.95385250839E+02  0.90642009879E+02 0.  0.
         13    1    3    3    0    0  0.12374455595E+02 -0.41674256120E+02 -0.84155340753E+01  0.44279827825E+02  0.10566000000E+00 0.  1.
         22    1    1    0    0    0  0.27627730973E+02  0.10190770304E+02  0.39024100990E+01  0.29704749161E+02  0.00000000000E+00 0. -1.
</event>
<event>
 5    1  0.1261010E-009  0.9118800E+02  0.7561462E-02  0.1125453E+00
         25   -1    0    0    0    0  0.00000000000E+00  0.00000000000E+00  0.99999998245E-14  0.12509000000E+03  0.12509000000E+03 0.  0.
        -13    1    3    3    0    0 -0.47155914838E+02 -0.31938859338E+01 -0.36200534800E+02  0.59534620981E+02  0.10566000000E+00 0. -1.
         23    2    1    0    0    0 -0.29317338217E+02 -0.33430073824E+01 -0.54523519475E+01  0.95083164775E+02  0.90224154545E+02 0.  0.
         13    1    3    3    0    0  0.17838576621E+02 -0.14912144862E+00  0.30748182853E+02  0.35548543793E+02  0.10566000000E+00 0.  1.
         22    1    1    0    0    0  0.29317338217E+02  0.33430073824E+01  0.54523519475E+01  0.30006835225E+02  0.00000000000E+00 0. -1.
</event>
<event>
 5    1  0.1261010E-009  0.9118800E+02  0.7561462E-02  0.1125453E+00
         25   -1    0    0    0    0  0.00000000000E+00  0.00000000000E+00  0.99999998245E-14  0.12509000000E+03  0.12509000000E+03 0.  0.
        -13    1    3    3    0    0 -0.22236071735E+02  0.65020479312E+01 -0.29232004803E+02  0.37299340240E+02  0.10566000000E+00 0.  1.
         23    2    1    0    0    0  0.68781857312E+00  0.18114556282E+02  0.23174832563E+02  0.95667506768E+02  0.91030702201E+02 0.  0.
         13    1    3    3    0    0  0.22923890309E+02  0.11612508351E+02  0.52406837366E+02  0.58368166528E+02  0.10566000000E+00 0. -1.
         22    1    1    0    0    0 -0.68781857312E+00 -0.18114556282E+02 -0.23174832563E+02  0.29422493232E+02  0.00000000000E+00 0. -1.
</event>
<event>
 5    1  0.1261010E-009  0.9118800E+02  0.7561462E-02  0.1125453E+00
         25   -1    0    0    0    0  0.00000000000E+00  0.00000000000E+00  0.99999998245E-14  0.12509000000E+03  0.12509000000E+03 0.  0.
        -13    1    3    3    0    0  0.37496872849E+02  0.25185064015E+02 -0.42096531457E+02  0.61744894912E+02  0.10566000000E+00 0. -1.
         23    2    1    0    0    0  0.13217441677E+02  0.70899905960E+01 -0.23282020970E+02  0.97394851841E+02  0.93374171662E+02 0.  0.
         13    1    3    3    0    0 -0.24279431172E+02 -0.18095073419E+02  0.18814510488E+02  0.35649956929E+02  0.10566000000E+00 0.  1.
         22    1    1    0    0    0 -0.13217441677E+02 -0.70899905960E+01  0.23282020970E+02  0.27695148159E+02  0.00000000000E+00 0. -1.
</event>
<event>
 5    1  0.1261010E-009  0.9118800E+02  0.7561462E-02  0.1125453E+00
         25   -1    0    0    0    0  0.00000000000E+00  0.00000000000E+00  0.99999998245E-14  0.12509000000E+03  0.12509000000E+03 0.  0.
        -13    1    3    3    0    0 -0.29883826654E+02 -0.23416751373E+02 -0.40493886577E+02  0.55508137732E+02  0.10566000000E+00 0.  1.
         23    2    1    0    0    0  0.41757310884E+01 -0.21689776006E+02 -0.19980599627E+02  0.95305650506E+02  0.90532091237E+02 0.  0.
         13    1    3    3    0    0  0.34059557742E+02  0.17269753666E+01  0.20513286950E+02  0.39797512775E+02  0.10566000000E+00 0. -1.
         22    1    1    0    0    0 -0.41757310884E+01  0.21689776006E+02  0.19980599627E+02  0.29784349494E+02  0.00000000000E+00 0.  1.
</event>
<event>
 5    1  0.1261010E-009  0.9118800E+02  0.7561462E-02  0.1125453E+00
         25   -1    0    0    0    0  0.00000000000E+00  0.00000000000E+00  0.99999998245E-14  0.12509000000E+03  0.12509000000E+03 0.  0.
        -13    1    3    3    0    0  0.58334288637E+01  0.13649484381E+01 -0.62196764382E+02  0.62484723255E+02  0.10566000000E+00 0. -1.
         23    2    1    0    0    0  0.87190596702E+00  0.11555677238E+01 -0.29289992281E+02  0.95764256964E+02  0.91163554710E+02 0.  0.
         13    1    3    3    0    0 -0.49615228967E+01 -0.20938071428E+00  0.32906772102E+02  0.33279533710E+02  0.10566000000E+00 0.  1.
         22    1    1    0    0    0 -0.87190596702E+00 -0.11555677238E+01  0.29289992281E+02  0.29325743036E+02  0.00000000000E+00 0. -1.
</event>
<event>
 5    1  0.1261010E-009  0.9118800E+02  0.7561462E-02  0.1125453E+00
         25   -1    0    0    0    0  0.00000000000E+00  0.00000000000E+00  0.99999998245E-14  0.12509000000E+03  0.12509000000E+03 0.  0.
        -13    1    3    3    0    0  0.42577467059E+02 -0.18317347404E+02  0.30076033210E+02  0.55253460116E+02  0.10566000000E+00 0.  1.
         23    2    1    0    0    0  0.24783601328E+01 -0.15244843625E+02  0.24881829799E+02  0.95804287097E+02  0.91218465487E+02 0.  0.
         13    1    3    3    0    0 -0.40099106926E+02  0.30725037786E+01 -0.51942034108E+01  0.40550826981E+02  0.10566000000E+00 0. -1.
         22    1    1    0    0    0 -0.24783601328E+01  0.15244843625E+02 -0.24881829799E+02  0.29285712903E+02  0.00000000000E+00 0.  1.
</event>
<event>
 5    1  0.1261010E-009  0.9118800E+02  0.7561462E-02  0.1125453E+00
         25   -1    0    0    0    0  0.00000000000E+00  0.00000000000E+00  0.99999998245E-14  0.12509000000E+03  0.12509000000E+03 0.  0.
        -13    1    3    3    0    0 -0.79927039576E+00 -0.10689556771E+02  0.48640278178E+02  0.49807562502E+02  0.10566000000E+00 0. -1.
         23    2    1    0    0    0  0.25158426891E+02  0.47106485156E+01  0.13425630676E+02  0.96186986107E+02  0.91741768482E+02 0.  0.
         13    1    3    3    0    0  0.25957697286E+02  0.15400205286E+02 -0.35214647502E+02  0.46379423605E+02  0.10566000000E+00 0.  1.
         22    1    1    0    0    0 -0.25158426891E+02 -0.47106485156E+01 -0.13425630676E+02  0.28903013893E+02  0.00000000000E+00 0.  1.
</event>
<event>
 5    1  0.1261010E-009  0.9118800E+02  0.7561462E-02  0.1125453E+00
         25   -1    0    0    0    0  0.00000000000E+00  0.00000000000E+00  0.99999998245E-14  0.12509000000E+03  0.12509000000E+03 0.  0.
        -13    1    3    3    0    0 -0.22227585849E+02  0.19173627665E+02  0.34456412172E+02  0.45265318670E+02  0.10566000000E+00 0.  1.
         23    2    1    0    0    0  0.22016125424E+02  0.16234485352E+02  0.95904458542E+01  0.96103021113E+02  0.91627210598E+02 0.  0.
         13    1    3    3    0    0  0.44243711273E+02 -0.29391423136E+01 -0.24865966317E+02  0.50837702443E+02  0.10566000000E+00 0. -1.
         22    1    1    0    0    0 -0.22016125424E+02 -0.16234485352E+02 -0.95904458542E+01  0.28986978887E+02  0.00000000000E+00 0. -1.
</event>
<event>
 5    1  0.1261010E-009  0.9118800E+02  0.7561462E-02  0.1125453E+00
         25   -1    0    0    0    0  0.00000000000E+00  0.00000000000E+00  0.99999998245E-14  0.12509000000E+03  0.12509000000E+03 0.  0.
        -13    1    3    3    0    0 -0.44021834532E+02  0.24668697931E+02 -0.32312205479E+01  0.50565981879E+02  0.10566000000E+00 0.  1.
         23    2    1    0    0    0 -0.85250254403E+01  0.79522060616E+01 -0.26469089552E+02  0.96167234888E+02  0.91714833720E+02 0.  0.
         13    1    3    3    0    0  0.35496809091E+02 -0.16716491870E+02 -0.23237869004E+02  0.45601253009E+02  0.10566000000E+00 0. -1.
         22    1    1    0    0    0  0.85250254403E+01 -0.79522060616E+01  0.26469089552E+02  0.28922765112E+02  0.00000000000E+00 0.  1.
</event>
<event>
 5    1  0.1261010E-009  0.9118800E+02  0.7561462E-02  0.1125453E+00
         25   -1    0    0    0    0  0.00000000000E+00  0.00000000000E+00  0.99999998245E-14  0.12509000000E+03  0.12509000000E+03 0.  0.
        -13    1    3    3    0    0  0.29759243110E+02  0.80431520319E+01 -0.24352735088E+02  0.39285769884E+02  0.10566000000E+00 0.  1.
         23    2    1    0    0    0 -0.21867985610E+02 -0.12932180834E+02 -0.14380645754E+02  0.95896626298E+02  0.91345004611E+02 0.  0.
         13    1    3    3    0    0 -0.51627228720E+02 -0.20975332866E+02  0.99720893341E+01  0.56610856414E+02  0.10566000000E+00 0. -1.
         22    1    1    0    0    0  0.21867985610E+02  0.12932180834E+02  0.14380645754E+02  0.29193373702E+02  0.00000000000E+00 0. -1.
</event>
<event>
 5    1  0.1261010E-009  0.9118800E+02  0.7561462E-02  0.1125453E+00
         25   -1    0    0    0    0  0.00000000000E+00  0.00000000000E+00  0.99999998245E-14  0.12509000000E+03  0.12509000000E+03 0.  0.
        -13    1    3    3    0    0 -0.26236217337E+02 -0.42965592446E+02  0.31551253450E+02  0.59412742679E+02  0.10566000000E+00 0. -1.
         23    2    1    0    0    0  0.97639594607E+00 -0.24868195498E+02  0.14757204189E+02  0.96156359167E+02  0.91699999108E+02 0.  0.
         13    1    3    3    0    0  0.27212613283E+02  0.18097396948E+02 -0.16794049261E+02  0.36743616488E+02  0.10566000000E+00 0.  1.
         22    1    1    0    0    0 -0.97639594607E+00  0.24868195498E+02 -0.14757204189E+02  0.28933640833E+02  0.00000000000E+00 0. -1.
</event>
<event>
 5    1  0.1261010E-009  0.9118800E+02  0.7561462E-02  0.1125453E+00
         25   -1    0    0    0    0  0.00000000000E+00  0.00000000000E+00  0.99999998245E-14  0.12509000000E+03  0.12509000000E+03 0.  0.
        -13    1    3    3    0    0 -0.32110316597E+02  0.18487426503E+01  0.19986705664E+02  0.37867794346E+02  0.10566000000E+00 0.  1.
         23    2    1    0    0    0 -0.12856527094E+02 -0.10156170292E+02 -0.28959245359E+02  0.91817248751E+02  0.85576464011E+02 0.  0.
         13    1    3    3    0    0  0.19253789503E+02 -0.12004912943E+02 -0.48945951023E+02  0.53949454405E+02  0.10566000000E+00 0. -1.
         22    1    1    0    0    0  0.12856527094E+02  0.10156170292E+02  0.28959245359E+02  0.33272751249E+02  0.00000000000E+00 0. -1.
</event>
<event>
 5    1  0.1261010E-009  0.9118800E+02  0.7561462E-02  0.1125453E+00
         25   -1    0    0    0    0  0.00000000000E+00  0.00000000000E+00  0.99999998245E-14  0.12509000000E+03  0.12509000000E+03 0.  0.
        -13    1    3    3    0    0  0.17387585447E+02 -0.14565900049E+02  0.26556280710E+02  0.34924787489E+02  0.10566000000E+00 0.  1.
         23    2    1    0    0    0 -0.23051744649E+02  0.19917318741E+01 -0.16811310192E+02  0.96489823819E+02  0.92153762934E+02 0.  0.
         13    1    3    3    0    0 -0.40439330097E+02  0.16557631923E+02 -0.43367590902E+02  0.61565036330E+02  0.10566000000E+00 0. -1.
         22    1    1    0    0    0  0.23051744649E+02 -0.19917318741E+01  0.16811310192E+02  0.28600176181E+02  0.00000000000E+00 0. -1.
</event>
<event>
 5    1  0.1261010E-009  0.9118800E+02  0.7561462E-02  0.1125453E+00
         25   -1    0    0    0    0  0.00000000000E+00  0.00000000000E+00  0.99999998245E-14  0.12509000000E+03  0.12509000000E+03 0.  0.
        -13    1    3    3    0    0 -0.23859596341E+02 -0.42756491458E+02  0.11458605189E+02  0.50286267472E+02  0.10566000000E+00 0.  1.
         23    2    1    0    0    0 -0.12747455549E+02 -0.14279555688E+02 -0.22215353468E+02  0.95765517680E+02  0.91165284584E+02 0.  0.
         13    1    3    3    0    0  0.11112140792E+02  0.28476935770E+02 -0.33673958657E+02  0.45479250208E+02  0.10566000000E+00 0. -1.
         22    1    1    0    0    0  0.12747455549E+02  0.14279555688E+02  0.22215353468E+02  0.29324482320E+02  0.00000000000E+00 0.  1.
</event>
<event>
 5    1  0.1261010E-009  0.9118800E+02  0.7561462E-02  0.1125453E+00
         25   -1    0    0    0    0  0.00000000000E+00  0.00000000000E+00  0.99999998245E-14  0.12509000000E+03  0.12509000000E+03 0.  0.
        -13    1    3    3    0    0 -0.42330715264E+02 -0.17264725422E+01  0.29513530142E+02  0.51632642656E+02  0.10566000000E+00 0.  1.
         23    2    1    0    0    0 -0.12447592351E+02 -0.24181641693E+02  0.24471120873E+01  0.97782808495E+02  0.93892464710E+02 0.  0.
         13    1    3    3    0    0  0.29883122913E+02 -0.22455169151E+02 -0.27066418054E+02  0.46150165839E+02  0.10566000000E+00 0. -1.
         22    1    1    0    0    0  0.12447592351E+02  0.24181641693E+02 -0.24471120873E+01  0.27307191505E+02  0.00000000000E+00 0.  1.
</event>
<event>
 5    1  0.1261010E-009  0.9118800E+02  0.7561462E-02  0.1125453E+00
         25   -1    0    0    0    0  0.00000000000E+00  0.00000000000E+00  0.99999998245E-14  0.12509000000E+03  0.12509000000E+03 0.  0.
        -13    1    3    3    0    0 -0.17231346568E+02  0.22407717040E+01 -0.41987927754E+02  0.45441584518E+02  0.10566000000E+00 0.  1.
         23    2    1    0    0    0  0.13568898935E+01 -0.24991307033E+02  0.15016424397E+01  0.10001687679E+03  0.96823107448E+02 0.  0.
         13    1    3    3    0    0  0.18588236462E+02 -0.27232078737E+02  0.43489570194E+02  0.54575292274E+02  0.10566000000E+00 0. -1.
         22    1    1    0    0    0 -0.13568898935E+01  0.24991307033E+02 -0.15016424397E+01  0.25073123208E+02  0.00000000000E+00 0. -1.
</event>
<event>
 5    1  0.1261010E-009  0.9118800E+02  0.7561462E-02  0.1125453E+00
         25   -1    0    0    0    0  0.00000000000E+00  0.00000000000E+00  0.99999998245E-14  0.12509000000E+03  0.12509000000E+03 0.  0.
        -13    1    3    3    0    0  0.33073870583E+02 -0.10698855775E+02 -0.55856045393E+01  0.35207336911E+02  0.10566000000E+00 0.  1.
         23    2    1    0    0    0 -0.20190534300E+02  0.19807318760E+02 -0.30562735957E+01  0.96641303016E+02  0.92359152706E+02 0.  0.
         13    1    3    3    0    0 -0.53264404884E+02  0.30506174534E+02  0.25293309436E+01  0.61433966105E+02  0.10566000000E+00 0. -1.
         22    1    1    0    0    0  0.20190534300E+02 -0.19807318760E+02  0.30562735957E+01  0.28448696984E+02  0.00000000000E+00 0. -1.
</event>
<event>
 5    1  0.1261010E-009  0.9118800E+02  0.7561462E-02  0.1125453E+00
         25   -1    0    0    0    0  0.00000000000E+00  0.00000000000E+00  0.99999998245E-14  0.12509000000E+03  0.12509000000E+03 0.  0.
        -13    1    3    3    0    0  0.37591022795E+01  0.15924698733E+02  0.52897863621E+02  0.55370768636E+02  0.10566000000E+00 0. -1.
         23    2    1    0    0    0 -0.14154151543E+02 -0.69009628458E+01  0.24466835088E+02  0.95993792115E+02  0.91477968994E+02 0.  0.
         13    1    3    3    0    0 -0.17913253822E+02 -0.22825661579E+02 -0.28431028533E+02  0.40623023478E+02  0.10566000000E+00 0.  1.
         22    1    1    0    0    0  0.14154151543E+02  0.69009628458E+01 -0.24466835088E+02  0.29096207885E+02  0.00000000000E+00 0. -1.
</event>
<event>
 5    1  0.1261010E-009  0.9118800E+02  0.7561462E-02  0.1125453E+00
         25   -1    0    0    0    0  0.00000000000E+00  0.00000000000E+00  0.99999998245E-14  0.12509000000E+03  0.12509000000E+03 0.  0.
        -13    1    3    3    0    0 -0.25860124621E+01 -0.16603927214E+02 -0.40666751729E+02  0.44001974042E+02  0.10566000000E+00 0.  1.
         23    2    1    0    0    0 -0.11357712390E+02 -0.25110394387E+02  0.97332981085E+01  0.95862160034E+02  0.91297793496E+02 0.  0.
         13    1    3    3    0    0 -0.87716999277E+01 -0.85064671732E+01  0.50400049838E+02  0.51860185992E+02  0.10566000000E+00 0. -1.
         22    1    1    0    0    0  0.11357712390E+02  0.25110394387E+02 -0.97332981085E+01  0.29227839966E+02  0.00000000000E+00 0. -1.
</event>
<event>
 5    1  0.1261010E-009  0.9118800E+02  0.7561462E-02  0.1125453E+00
         25   -1    0    0    0    0  0.00000000000E+00  0.00000000000E+00  0.99999998245E-14  0.12509000000E+03  0.12509000000E+03 0.  0.
        -13    1    3    3    0    0  0.52389715188E+02 -0.24744457564E+01  0.32788574629E+02  0.61853916040E+02  0.10566000000E+00 0. -1.
         23    2    1    0    0    0  0.29082506643E+02  0.10184864168E+01  0.10909217950E+02  0.94012024784E+02  0.88726660371E+02 0.  0.
         13    1    3    3    0    0 -0.23307208545E+02  0.34929321732E+01 -0.21879356679E+02  0.32158108745E+02  0.10566000000E+00 0.  1.
         22    1    1    0    0    0 -0.29082506643E+02 -0.10184864168E+01 -0.10909217950E+02  0.31077975216E+02  0.00000000000E+00 0. -1.
</event>
<event>
 5    1  0.1261010E-009  0.9118800E+02  0.7561462E-02  0.1125453E+00
         25   -1    0    0    0    0  0.00000000000E+00  0.00000000000E+00  0.99999998245E-14  0.12509000000E+03  0.12509000000E+03 0.  0.
        -13    1    3    3    0    0  0.24768867158E+02 -0.49806767147E+02  0.14599938752E+02  0.57509827069E+02  0.10566000000E+00 0.  1.
         23    2    1    0    0    0  0.24145988318E+02 -0.11974388451E+02  0.12430162432E+02  0.95409641701E+02  0.90675664105E+02 0.  0.
         13    1    3    3    0    0 -0.62287883996E+00  0.37832378696E+02 -0.21697763201E+01  0.37899814632E+02  0.10566000000E+00 0. -1.
         22    1    1    0    0    0 -0.24145988318E+02  0.11974388451E+02 -0.12430162432E+02  0.29680358299E+02  0.00000000000E+00 0.  1.
</event>
<event>
 5    1  0.1261010E-009  0.9118800E+02  0.7561462E-02  0.1125453E+00
         25   -1    0    0    0    0  0.00000000000E+00  0.00000000000E+00  0.99999998245E-14  0.12509000000E+03  0.12509000000E+03 0.  0.
        -13    1    3    3    0    0  0.26950409677E+01 -0.10100101260E+02 -0.53163347398E+02  0.54181435583E+02  0.10566000000E+00 0.  1.
         23    2    1    0    0    0  0.10371628279E+02 -0.25917228440E+02 -0.23800401015E+02  0.88405773258E+02  0.80435366934E+02 0.  0.
         13    1    3    3    0    0  0.76765873115E+01 -0.15817127180E+02  0.29362946383E+02  0.34224337675E+02  0.10566000000E+00 0. -1.
         22    1    1    0    0    0 -0.10371628279E+02  0.25917228440E+02  0.23800401015E+02  0.36684226742E+02  0.00000000000E+00 0.  1.
</event>
<event>
 5    1  0.1261010E-009  0.9118800E+02  0.7561462E-02  0.1125453E+00
         25   -1    0    0    0    0  0.00000000000E+00  0.00000000000E+00  0.99999998245E-14  0.12509000000E+03  0.12509000000E+03 0.  0.
        -13    1    3    3    0    0 -0.29197908013E+02  0.27450293401E+02  0.32697451061E+02  0.51722054387E+02  0.10566000000E+00 0. -1.
         23    2    1    0    0    0  0.56859229443E+01  0.88526068872E+00  0.28775800366E+02  0.95744470648E+02  0.91136400888E+02 0.  0.
         13    1    3    3    0    0  0.34883830957E+02 -0.26565032712E+02 -0.39216506952E+01  0.44022416261E+02  0.10566000000E+00 0.  1.
         22    1    1    0    0    0 -0.56859229443E+01 -0.88526068872E+00 -0.28775800366E+02  0.29345529352E+02  0.00000000000E+00 0. -1.
</event>
<event>
 5    1  0.1261010E-009  0.9118800E+02  0.7561462E-02  0.1125453E+00
         25   -1    0    0    0    0  0.00000000000E+00  0.00000000000E+00  0.99999998245E-14  0.12509000000E+03  0.12509000000E+03 0.  0.
        -13    1    3    3    0    0 -0.52980286621E+01  0.37331307767E+02  0.38156966204E+02  0.53643833581E+02  0.10566000000E+00 0. -1.
         23    2    1    0    0    0  0.20434848867E+02  0.17779885479E+02  0.11008898309E+02  0.95851271952E+02  0.91282874171E+02 0.  0.
         13    1    3    3    0    0  0.25732877529E+02 -0.19551422288E+02 -0.27148067895E+02  0.42207438371E+02  0.10566000000E+00 0.  1.
         22    1    1    0    0    0 -0.20434848867E+02 -0.17779885479E+02 -0.11008898309E+02  0.29238728048E+02  0.00000000000E+00 0. -1.
</event>
<event>
 5    1  0.1261010E-009  0.9118800E+02  0.7561462E-02  0.1125453E+00
         25   -1    0    0    0    0  0.00000000000E+00  0.00000000000E+00  0.99999998245E-14  0.12509000000E+03  0.12509000000E+03 0.  0.
        -13    1    3    3    0    0 -0.99720666761E+01  0.32821441288E+02 -0.32790749847E+02  0.47454542054E+02  0.10566000000E+00 0.  1.
         23    2    1    0    0    0 -0.28153823460E+02 -0.43110465876E+01 -0.86867734141E+01  0.95312778329E+02  0.90541939357E+02 0.  0.
         13    1    3    3    0    0 -0.18181756783E+02 -0.37132487875E+02  0.24103976432E+02  0.47858236276E+02  0.10566000000E+00 0. -1.
         22    1    1    0    0    0  0.28153823460E+02  0.43110465876E+01  0.86867734141E+01  0.29777221671E+02  0.00000000000E+00 0. -1.
</event>
<event>
 5    1  0.1261010E-009  0.9118800E+02  0.7561462E-02  0.1125453E+00
         25   -1    0    0    0    0  0.00000000000E+00  0.00000000000E+00  0.99999998245E-14  0.12509000000E+03  0.12509000000E+03 0.  0.
        -13    1    3    3    0    0 -0.15636091441E+02  0.56262464973E+00  0.27946853580E+02  0.32028763497E+02  0.10566000000E+00 0. -1.
         23    2    1    0    0    0  0.28990819078E+02 -0.71899219383E+01 -0.12458379329E+02  0.92726845275E+02  0.86895880517E+02 0.  0.
         13    1    3    3    0    0  0.44626910519E+02 -0.77525465880E+01 -0.40405232910E+02  0.60698081778E+02  0.10566000000E+00 0.  1.
         22    1    1    0    0    0 -0.28990819078E+02  0.71899219383E+01  0.12458379329E+02  0.32363154725E+02  0.00000000000E+00 0.  1.
</event>
<event>
 5    1  0.1261010E-009  0.9118800E+02  0.7561462E-02  0.1125453E+00
         25   -1    0    0    0    0  0.00000000000E+00  0.00000000000E+00  0.99999998245E-14  0.12509000000E+03  0.12509000000E+03 0.  0.
        -13    1    3    3    0    0  0.39442070816E+02 -0.33190752268E+01 -0.98909074847E+01  0.40798706174E+02  0.10566000000E+00 0.  1.
         23    2    1    0    0    0 -0.52344348663E+01  0.78473265666E+01 -0.31889760451E+02  0.91834373946E+02  0.85601492824E+02 0.  0.
         13    1    3    3    0    0 -0.44676505682E+02  0.11166401793E+02 -0.21998852967E+02  0.51035667771E+02  0.10566000000E+00 0. -1.
         22    1    1    0    0    0  0.52344348663E+01 -0.78473265666E+01  0.31889760451E+02  0.33255626054E+02  0.00000000000E+00 0. -1.
</event>
<event>
 5    1  0.1261010E-009  0.9118800E+02  0.7561462E-02  0.1125453E+00
         25   -1    0    0    0    0  0.00000000000E+00  0.00000000000E+00  0.99999998245E-14  0.12509000000E+03  0.12509000000E+03 0.  0.
        -13    1    3    3    0    0 -0.16474680238E+02  0.45411151660E+02  0.12473419547E+02  0.49891734218E+02  0.10566000000E+00 0. -1.
         23    2    1    0    0    0  0.15335721318E+02  0.14658504962E+02  0.21320853192E+02  0.95012850918E+02  0.90126616173E+02 0.  0.
         13    1    3    3    0    0  0.31810401556E+02 -0.30752646698E+02  0.88474336445E+01  0.45121116700E+02  0.10566000000E+00 0.  1.
         22    1    1    0    0    0 -0.15335721318E+02 -0.14658504962E+02 -0.21320853192E+02  0.30077149082E+02  0.00000000000E+00 0. -1.
</event>
<event>
 5    1  0.1261010E-009  0.9118800E+02  0.7561462E-02  0.1125453E+00
         25   -1    0    0    0    0  0.00000000000E+00  0.00000000000E+00  0.99999998245E-14  0.12509000000E+03  0.12509000000E+03 0.  0.
        -13    1    3    3    0    0  0.36123869352E+02  0.76318591914E+01 -0.28054024022E+01  0.37027836264E+02  0.10566000000E+00 0.  1.
         23    2    1    0    0    0 -0.10178131992E+02 -0.27868091935E+02 -0.13392576349E+01  0.95391203224E+02  0.90650224062E+02 0.  0.
         13    1    3    3    0    0 -0.46302001344E+02 -0.35499951126E+02  0.14661447673E+01  0.58363366960E+02  0.10566000000E+00 0. -1.
         22    1    1    0    0    0  0.10178131992E+02  0.27868091935E+02  0.13392576349E+01  0.29698796776E+02  0.00000000000E+00 0. -1.
</event>
<event>
 5    1  0.1261010E-009  0.9118800E+02  0.7561462E-02  0.1125453E+00
         25   -1    0    0    0    0  0.00000000000E+00  0.00000000000E+00  0.99999998245E-14  0.12509000000E+03  0.12509000000E+03 0.  0.
        -13    1    3    3    0    0 -0.37952517245E+02 -0.67576714561E+01  0.18296475211E+02  0.42671206427E+02  0.10566000000E+00 0.  1.
         23    2    1    0    0    0 -0.65487565079E+00 -0.24738273219E+02 -0.15302510796E+02  0.95993988922E+02  0.91478238114E+02 0.  0.
         13    1    3    3    0    0  0.37297641594E+02 -0.17980601763E+02 -0.33598986007E+02  0.53322782495E+02  0.10566000000E+00 0. -1.
         22    1    1    0    0    0  0.65487565079E+00  0.24738273219E+02  0.15302510796E+02  0.29096011078E+02  0.00000000000E+00 0. -1.
</event>
<event>
 5    1  0.1261010E-009  0.9118800E+02  0.7561462E-02  0.1125453E+00
         25   -1    0    0    0    0  0.00000000000E+00  0.00000000000E+00  0.99999998245E-14  0.12509000000E+03  0.12509000000E+03 0.  0.
        -13    1    3    3    0    0 -0.95224842707E+00  0.29087711849E+02 -0.27171209774E+02  0.39815669808E+02  0.10566000000E+00 0.  1.
         23    2    1    0    0    0  0.16766193180E+02  0.12548666257E+02  0.22049198042E+02  0.94680439121E+02  0.89664062808E+02 0.  0.
         13    1    3    3    0    0  0.17718441608E+02 -0.16539045592E+02  0.49220407816E+02  0.54864769312E+02  0.10566000000E+00 0. -1.
         22    1    1    0    0    0 -0.16766193180E+02 -0.12548666257E+02 -0.22049198042E+02  0.30409560879E+02  0.00000000000E+00 0. -1.
</event>
<event>
 5    1  0.1261010E-009  0.9118800E+02  0.7561462E-02  0.1125453E+00
         25   -1    0    0    0    0  0.00000000000E+00  0.00000000000E+00  0.99999998245E-14  0.12509000000E+03  0.12509000000E+03 0.  0.
        -13    1    3    3    0    0 -0.58021242644E+02  0.95494993699E+01  0.12834699485E+02  0.60186362335E+02  0.10566000000E+00 0.  1.
         23    2    1    0    0    0 -0.24793203154E+02  0.15906539657E+02  0.26654382418E+01  0.95512551031E+02  0.90817519879E+02 0.  0.
         13    1    3    3    0    0  0.33228039490E+02  0.63570402870E+01 -0.10169261243E+02  0.35326188696E+02  0.10566000000E+00 0. -1.
         22    1    1    0    0    0  0.24793203154E+02 -0.15906539657E+02 -0.26654382418E+01  0.29577448969E+02  0.00000000000E+00 0.  1.
</event>
<event>
 5    1  0.1261010E-009  0.9118800E+02  0.7561462E-02  0.1125453E+00
         25   -1    0    0    0    0  0.00000000000E+00  0.00000000000E+00  0.99999998245E-14  0.12509000000E+03  0.12509000000E+03 0.  0.
        -13    1    3    3    0    0 -0.31540473022E+02  0.59285262872E+01  0.48069089580E+02  0.57797901341E+02  0.10566000000E+00 0.  1.
         23    2    1    0    0    0 -0.18447565454E+02 -0.13640194857E+02  0.18362073495E+02  0.95704062378E+02  0.91080921305E+02 0.  0.
         13    1    3    3    0    0  0.13092907569E+02 -0.19568721144E+02 -0.29707016085E+02  0.37906161037E+02  0.10566000000E+00 0. -1.
         22    1    1    0    0    0  0.18447565454E+02  0.13640194857E+02 -0.18362073495E+02  0.29385937622E+02  0.00000000000E+00 0.  1.
</event>
<event>
 5    1  0.1261010E-009  0.9118800E+02  0.7561462E-02  0.1125453E+00
         25   -1    0    0    0    0  0.00000000000E+00  0.00000000000E+00  0.99999998245E-14  0.12509000000E+03  0.12509000000E+03 0.  0.
        -13    1    3    3    0    0  0.39317371542E+01 -0.43452419068E+02 -0.10597786133E+02  0.44898725091E+02  0.10566000000E+00 0.  1.
         23    2    1    0    0    0 -0.28110737664E+02 -0.40162135088E+01 -0.59029926127E+00  0.96687676219E+02  0.92421938610E+02 0.  0.
         13    1    3    3    0    0 -0.32042474818E+02  0.39436205559E+02  0.10007486872E+02  0.51788951127E+02  0.10566000000E+00 0. -1.
         22    1    1    0    0    0  0.28110737664E+02  0.40162135088E+01  0.59029926127E+00  0.28402323781E+02  0.00000000000E+00 0. -1.
</event>
<event>
 5    1  0.1261010E-009  0.9118800E+02  0.7561462E-02  0.1125453E+00
         25   -1    0    0    0    0  0.00000000000E+00  0.00000000000E+00  0.99999998245E-14  0.12509000000E+03  0.12509000000E+03 0.  0.
        -13    1    3    3    0    0 -0.21855310763E+02 -0.39949000615E+02  0.40988056219E+02  0.61266705276E+02  0.10566000000E+00 0.  1.
         23    2    1    0    0    0 -0.90602918056E+01 -0.12505083940E+02  0.25501503806E+02  0.95277373341E+02  0.90493011678E+02 0.  0.
         13    1    3    3    0    0  0.12795018957E+02  0.27443916675E+02 -0.15486552414E+02  0.34010668066E+02  0.10566000000E+00 0. -1.
         22    1    1    0    0    0  0.90602918056E+01  0.12505083940E+02 -0.25501503806E+02  0.29812626659E+02  0.00000000000E+00 0.  1.
</event>
<event>
 5    1  0.1261010E-009  0.9118800E+02  0.7561462E-02  0.1125453E+00
         25   -1    0    0    0    0  0.00000000000E+00  0.00000000000E+00  0.99999998245E-14  0.12509000000E+03  0.12509000000E+03 0.  0.
        -13    1    3    3    0    0  0.26879023901E+02  0.25400939076E+02  0.41741258667E+02  0.55767674068E+02  0.10566000000E+00 0.  1.
         23    2    1    0    0    0  0.27578403292E+02  0.34074620496E+01  0.77824139965E+01  0.96232676954E+02  0.91804046863E+02 0.  0.
         13    1    3    3    0    0  0.69937939127E+00 -0.21993477026E+02 -0.33958844670E+02  0.40465002886E+02  0.10566000000E+00 0. -1.
         22    1    1    0    0    0 -0.27578403292E+02 -0.34074620496E+01 -0.77824139965E+01  0.28857323046E+02  0.00000000000E+00 0.  1.
</event>
<event>
 5    1  0.1261010E-009  0.9118800E+02  0.7561462E-02  0.1125453E+00
         25   -1    0    0    0    0  0.00000000000E+00  0.00000000000E+00  0.99999998245E-14  0.12509000000E+03  0.12509000000E+03 0.  0.
        -13    1    3    3    0    0 -0.20514063799E+02 -0.13300544784E+02 -0.43656076459E+02  0.50035941891E+02  0.10566000000E+00 0.  1.
         23    2    1    0    0    0 -0.19238846773E+02 -0.22986169741E+02  0.34953896854E+00  0.95113018797E+02  0.90265535741E+02 0.  0.
         13    1    3    3    0    0  0.12752170259E+01 -0.96856249567E+01  0.44005615427E+02  0.45077076906E+02  0.10566000000E+00 0. -1.
         22    1    1    0    0    0  0.19238846773E+02  0.22986169741E+02 -0.34953896854E+00  0.29976981203E+02  0.00000000000E+00 0.  1.
</event>
<event>
 5    1  0.1261010E-009  0.9118800E+02  0.7561462E-02  0.1125453E+00
         25   -1    0    0    0    0  0.00000000000E+00  0.00000000000E+00  0.99999998245E-14  0.12509000000E+03  0.12509000000E+03 0.  0.
        -13    1    3    3    0    0 -0.17944927291E+01 -0.50560423334E+01 -0.31416440190E+02  0.31871423666E+02  0.10566000000E+00 0.  1.
         23    2    1    0    0    0  0.80314272564E+01 -0.15890331512E+02  0.27363510504E+02  0.92443895080E+02  0.86487603569E+02 0.  0.
         13    1    3    3    0    0  0.98259199855E+01 -0.10834289179E+02  0.58779950694E+02  0.60572471414E+02  0.10566000000E+00 0. -1.
         22    1    1    0    0    0 -0.80314272564E+01  0.15890331512E+02 -0.27363510504E+02  0.32646104920E+02  0.00000000000E+00 0. -1.
</event>
<event>
 5    1  0.1261010E-009  0.9118800E+02  0.7561462E-02  0.1125453E+00
         25   -1    0    0    0    0  0.00000000000E+00  0.00000000000E+00  0.99999998245E-14  0.12509000000E+03  0.12509000000E+03 0.  0.
        -13    1    3    3    0    0  0.60768362785E+02 -0.10603803180E+02 -0.25261801083E+01  0.61738377914E+02  0.10566000000E+00 0.  1.
         23    2    1    0    0    0  0.28428175209E+02 -0.38297516305E+00  0.43011715660E+01  0.96335732620E+02  0.91944360822E+02 0.  0.
         13    1    3    3    0    0 -0.32340187576E+02  0.10220828017E+02  0.68273516743E+01  0.34597354707E+02  0.10566000000E+00 0. -1.
         22    1    1    0    0    0 -0.28428175209E+02  0.38297516305E+00 -0.43011715660E+01  0.28754267380E+02  0.00000000000E+00 0.  1.
</event>
<event>
 5    1  0.1261010E-009  0.9118800E+02  0.7561462E-02  0.1125453E+00
         25   -1    0    0    0    0  0.00000000000E+00  0.00000000000E+00  0.99999998245E-14  0.12509000000E+03  0.12509000000E+03 0.  0.
        -13    1    3    3    0    0  0.74190465016E+01 -0.13145445672E+02 -0.32966450159E+02  0.36258005916E+02  0.10566000000E+00 0.  1.
         23    2    1    0    0    0  0.47761329125E+01  0.25915107654E+02  0.12217853959E+02  0.96043826316E+02  0.91546361849E+02 0.  0.
         13    1    3    3    0    0 -0.26429135891E+01  0.39060553325E+02  0.45184304118E+02  0.59785820400E+02  0.10566000000E+00 0. -1.
         22    1    1    0    0    0 -0.47761329125E+01 -0.25915107654E+02 -0.12217853959E+02  0.29046173684E+02  0.00000000000E+00 0. -1.
</event>
<event>
 5    1  0.1261010E-009  0.9118800E+02  0.7561462E-02  0.1125453E+00
         25   -1    0    0    0    0  0.00000000000E+00  0.00000000000E+00  0.99999998245E-14  0.12509000000E+03  0.12509000000E+03 0.  0.
        -13    1    3    3    0    0  0.31854355090E+02  0.94205129487E+01 -0.16004719284E+02  0.36872865441E+02  0.10566000000E+00 0.  1.
         23    2    1    0    0    0 -0.15686510744E+02  0.13345960057E+02  0.19801930468E+02  0.96519075629E+02  0.92193460944E+02 0.  0.
         13    1    3    3    0    0 -0.47540865834E+02  0.39254471080E+01  0.35806649752E+02  0.59646210188E+02  0.10566000000E+00 0. -1.
         22    1    1    0    0    0  0.15686510744E+02 -0.13345960057E+02 -0.19801930468E+02  0.28570924371E+02  0.00000000000E+00 0. -1.
</event>
<event>
 5    1  0.1261010E-009  0.9118800E+02  0.7561462E-02  0.1125453E+00
         25   -1    0    0    0    0  0.00000000000E+00  0.00000000000E+00  0.99999998245E-14  0.12509000000E+03  0.12509000000E+03 0.  0.
        -13    1    3    3    0    0  0.25174796929E+01 -0.32755335039E+02 -0.41627470376E+02  0.53029304459E+02  0.10566000000E+00 0.  1.
         23    2    1    0    0    0  0.10061869317E+02 -0.27645660991E+02  0.28360975191E-01  0.95670200712E+02  0.91034404014E+02 0.  0.
         13    1    3    3    0    0  0.75443896239E+01  0.51096740478E+01  0.41655831351E+02  0.42640896253E+02  0.10566000000E+00 0. -1.
         22    1    1    0    0    0 -0.10061869317E+02  0.27645660991E+02 -0.28360975191E-01  0.29419799288E+02  0.00000000000E+00 0.  1.
</event>
<event>
 5    1  0.1261010E-009  0.9118800E+02  0.7561462E-02  0.1125453E+00
         25   -1    0    0    0    0  0.00000000000E+00  0.00000000000E+00  0.99999998245E-14  0.12509000000E+03  0.12509000000E+03 0.  0.
        -13    1    3    3    0    0 -0.33896382871E+02  0.23763233299E+02 -0.39569308700E+02  0.57266022942E+02  0.10566000000E+00 0.  1.
         23    2    1    0    0    0  0.23808482215E+00  0.19770145642E+02 -0.20666749621E+02  0.96488778296E+02  0.92152343725E+02 0.  0.
         13    1    3    3    0    0  0.34134467694E+02 -0.39930876570E+01  0.18902559079E+02  0.39222755354E+02  0.10566000000E+00 0. -1.
         22    1    1    0    0    0 -0.23808482215E+00 -0.19770145642E+02  0.20666749621E+02  0.28601221704E+02  0.00000000000E+00 0.  1.
</event>
<event>
 5    1  0.1261010E-009  0.9118800E+02  0.7561462E-02  0.1125453E+00
         25   -1    0    0    0    0  0.00000000000E+00  0.00000000000E+00  0.99999998245E-14  0.12509000000E+03  0.12509000000E+03 0.  0.
        -13    1    3    3    0    0 -0.99839066952E+01 -0.50752249196E+02  0.14570916578E+01  0.51745564752E+02  0.10566000000E+00 0.  1.
         23    2    1    0    0    0  0.20852215568E+02 -0.24476437403E+02  0.55328098497E+01  0.92462973367E+02  0.86515192753E+02 0.  0.
         13    1    3    3    0    0  0.30836122263E+02  0.26275811792E+02  0.40757181920E+01  0.40717408616E+02  0.10566000000E+00 0. -1.
         22    1    1    0    0    0 -0.20852215568E+02  0.24476437403E+02 -0.55328098497E+01  0.32627026633E+02  0.00000000000E+00 0. -1.
</event>
<event>
 5    1  0.1261010E-009  0.9118800E+02  0.7561462E-02  0.1125453E+00
         25   -1    0    0    0    0  0.00000000000E+00  0.00000000000E+00  0.99999998245E-14  0.12509000000E+03  0.12509000000E+03 0.  0.
        -13    1    3    3    0    0 -0.11624699401E+02 -0.50768335593E+01  0.35138061630E+02  0.37357762437E+02  0.10566000000E+00 0.  1.
         23    2    1    0    0    0  0.27992889058E+02 -0.12732673169E+02 -0.46053644901E+01  0.93994466785E+02  0.88701903024E+02 0.  0.
         13    1    3    3    0    0  0.39617588459E+02 -0.76558396098E+01 -0.39743426121E+02  0.56636704347E+02  0.10566000000E+00 0. -1.
         22    1    1    0    0    0 -0.27992889058E+02  0.12732673169E+02  0.46053644901E+01  0.31095533215E+02  0.00000000000E+00 0. -1.
</event>
<event>
 5    1  0.1261010E-009  0.9118800E+02  0.7561462E-02  0.1125453E+00
         25   -1    0    0    0    0  0.00000000000E+00  0.00000000000E+00  0.99999998245E-14  0.12509000000E+03  0.12509000000E+03 0.  0.
        -13    1    3    3    0    0 -0.47213264683E+01  0.27032212817E+02 -0.48590364972E+02  0.55803818736E+02  0.10566000000E+00 0.  1.
         23    2    1    0    0    0 -0.57496254107E+00  0.26785958177E+02 -0.72748111505E+01  0.97327777203E+02  0.93284270917E+02 0.  0.
         13    1    3    3    0    0  0.41463639273E+01 -0.24625464029E+00  0.41315553821E+02  0.41523958467E+02  0.10566000000E+00 0. -1.
         22    1    1    0    0    0  0.57496254107E+00 -0.26785958177E+02  0.72748111505E+01  0.27762222797E+02  0.00000000000E+00 0.  1.
</event>
<event>
 5    1  0.1261010E-009  0.9118800E+02  0.7561462E-02  0.1125453E+00
         25   -1    0    0    0    0  0.00000000000E+00  0.00000000000E+00  0.99999998245E-14  0.12509000000E+03  0.12509000000E+03 0.  0.
        -13    1    3    3    0    0  0.59003657889E+00  0.34431941771E+02 -0.16783727828E+02  0.38309417134E+02  0.10566000000E+00 0.  1.
         23    2    1    0    0    0 -0.19438772519E+02 -0.19055544736E+02 -0.11052379004E+02  0.95710845079E+02  0.91090236150E+02 0.  0.
         13    1    3    3    0    0 -0.20028809097E+02 -0.53487486507E+02  0.57313488247E+01  0.57401427945E+02  0.10566000000E+00 0. -1.
         22    1    1    0    0    0  0.19438772519E+02  0.19055544736E+02  0.11052379004E+02  0.29379154921E+02  0.00000000000E+00 0. -1.
</event>
<event>
 5    1  0.1261010E-009  0.9118800E+02  0.7561462E-02  0.1125453E+00
         25   -1    0    0    0    0  0.00000000000E+00  0.00000000000E+00  0.99999998245E-14  0.12509000000E+03  0.12509000000E+03 0.  0.
        -13    1    3    3    0    0  0.25430313188E+02  0.14169570934E+02  0.30956744047E+02  0.42494808334E+02  0.10566000000E+00 0.  1.
         23    2    1    0    0    0  0.33349613141E+02 -0.39023867644E+01 -0.11731388916E+02  0.89522447300E+02  0.82153622961E+02 0.  0.
         13    1    3    3    0    0  0.79192999535E+01 -0.18071957699E+02 -0.42688132964E+02  0.47027638966E+02  0.10566000000E+00 0. -1.
         22    1    1    0    0    0 -0.33349613141E+02  0.39023867644E+01  0.11731388916E+02  0.35567552700E+02  0.00000000000E+00 0. -1.
</event>
<event>
 5    1  0.1261010E-009  0.9118800E+02  0.7561462E-02  0.1125453E+00
         25   -1    0    0    0    0  0.00000000000E+00  0.00000000000E+00  0.99999998245E-14  0.12509000000E+03  0.12509000000E+03 0.  0.
        -13    1    3    3    0    0 -0.17261841744E+02 -0.30477557232E+02  0.14926087846E+02  0.38074294972E+02  0.10566000000E+00 0.  1.
         23    2    1    0    0    0 -0.44213711999E+01  0.26280307998E+02  0.10540347278E+02  0.96431632417E+02  0.92074739739E+02 0.  0.
         13    1    3    3    0    0  0.12840470544E+02  0.56757865230E+02 -0.43857405677E+01  0.58357337445E+02  0.10566000000E+00 0. -1.
         22    1    1    0    0    0  0.44213711999E+01 -0.26280307998E+02 -0.10540347278E+02  0.28658367583E+02  0.00000000000E+00 0. -1.
</event>
<event>
 5    1  0.1261010E-009  0.9118800E+02  0.7561462E-02  0.1125453E+00
         25   -1    0    0    0    0  0.00000000000E+00  0.00000000000E+00  0.99999998245E-14  0.12509000000E+03  0.12509000000E+03 0.  0.
        -13    1    3    3    0    0 -0.58258724819E+02  0.77394047569E+01  0.11329843643E+02  0.59852768729E+02  0.10566000000E+00 0.  1.
         23    2    1    0    0    0 -0.22201346095E+02  0.11202294720E+02  0.14649963397E+02  0.96228042288E+02  0.91797731560E+02 0.  0.
         13    1    3    3    0    0  0.36057378723E+02  0.34628899634E+01  0.33201197541E+01  0.36375273559E+02  0.10566000000E+00 0. -1.
         22    1    1    0    0    0  0.22201346095E+02 -0.11202294720E+02 -0.14649963397E+02  0.28861957712E+02  0.00000000000E+00 0.  1.
</event>
<event>
 5    1  0.1261010E-009  0.9118800E+02  0.7561462E-02  0.1125453E+00
         25   -1    0    0    0    0  0.00000000000E+00  0.00000000000E+00  0.99999998245E-14  0.12509000000E+03  0.12509000000E+03 0.  0.
        -13    1    3    3    0    0 -0.48809381420E+02 -0.30758491227E+02 -0.12900818553E+02  0.59117533613E+02  0.10566000000E+00 0. -1.
         23    2    1    0    0    0 -0.16290245281E+02 -0.25278660928E+02  0.12221778800E+01  0.94992217550E+02  0.90097973821E+02 0.  0.
         13    1    3    3    0    0  0.32519136138E+02  0.54798302988E+01  0.14122996433E+02  0.35874683937E+02  0.10566000000E+00 0.  1.
         22    1    1    0    0    0  0.16290245281E+02  0.25278660928E+02 -0.12221778800E+01  0.30097782450E+02  0.00000000000E+00 0. -1.
</event>
<event>
 5    1  0.1261010E-009  0.9118800E+02  0.7561462E-02  0.1125453E+00
         25   -1    0    0    0    0  0.00000000000E+00  0.00000000000E+00  0.99999998245E-14  0.12509000000E+03  0.12509000000E+03 0.  0.
        -13    1    3    3    0    0 -0.34265058295E+02  0.10911841074E+02  0.20048175722E+01  0.36016564983E+02  0.10566000000E+00 0.  1.
         23    2    1    0    0    0  0.24537832658E+02  0.12380109092E+02  0.10932311076E+02  0.95511498379E+02  0.90816069968E+02 0.  0.
         13    1    3    3    0    0  0.58802890954E+02  0.14682680179E+01  0.89274935034E+01  0.59494933396E+02  0.10566000000E+00 0. -1.
         22    1    1    0    0    0 -0.24537832658E+02 -0.12380109092E+02 -0.10932311076E+02  0.29578501621E+02  0.00000000000E+00 0. -1.
</event>
<event>
 5    1  0.1261010E-009  0.9118800E+02  0.7561462E-02  0.1125453E+00
         25   -1    0    0    0    0  0.00000000000E+00  0.00000000000E+00  0.99999998245E-14  0.12509000000E+03  0.12509000000E+03 0.  0.
        -13    1    3    3    0    0  0.29641362781E+02 -0.12419103317E+02 -0.13694358019E+02  0.34934096815E+02  0.10566000000E+00 0.  1.
         23    2    1    0    0    0 -0.24188671924E+02  0.15212985439E+02 -0.33610663736E+01  0.96318077182E+02  0.91920337518E+02 0.  0.
         13    1    3    3    0    0 -0.53830034706E+02  0.27632088756E+02  0.10333291645E+02  0.61383980367E+02  0.10566000000E+00 0. -1.
         22    1    1    0    0    0  0.24188671924E+02 -0.15212985439E+02  0.33610663736E+01  0.28771922818E+02  0.00000000000E+00 0. -1.
</event>
<event>
 5    1  0.1261010E-009  0.9118800E+02  0.7561462E-02  0.1125453E+00
         25   -1    0    0    0    0  0.00000000000E+00  0.00000000000E+00  0.99999998245E-14  0.12509000000E+03  0.12509000000E+03 0.  0.
        -13    1    3    3    0    0 -0.34905377491E+01 -0.39031917880E+02  0.16658768400E+02  0.42581688504E+02  0.10566000000E+00 0.  1.
         23    2    1    0    0    0  0.80939600440E+01  0.10987932842E+02  0.26890023748E+02  0.94935062850E+02  0.90018586547E+02 0.  0.
         13    1    3    3    0    0  0.11584497793E+02  0.50019850722E+02  0.10231255348E+02  0.52353374346E+02  0.10566000000E+00 0. -1.
         22    1    1    0    0    0 -0.80939600440E+01 -0.10987932842E+02 -0.26890023748E+02  0.30154937150E+02  0.00000000000E+00 0. -1.
</event>
<event>
 5    1  0.1261010E-009  0.9118800E+02  0.7561462E-02  0.1125453E+00
         25   -1    0    0    0    0  0.00000000000E+00  0.00000000000E+00  0.99999998245E-14  0.12509000000E+03  0.12509000000E+03 0.  0.
        -13    1    3    3    0    0  0.21746399035E+02 -0.84437058355E+00  0.33626318826E+02  0.40054454365E+02  0.10566000000E+00 0.  1.
         23    2    1    0    0    0  0.63117015454E+01  0.26571665041E+02 -0.11821770956E+02  0.95330207863E+02  0.90566016271E+02 0.  0.
         13    1    3    3    0    0 -0.15434697489E+02  0.27416035625E+02 -0.45448089782E+02  0.55275753499E+02  0.10566000000E+00 0. -1.
         22    1    1    0    0    0 -0.63117015454E+01 -0.26571665041E+02  0.11821770956E+02  0.29759792137E+02  0.00000000000E+00 0. -1.
</event>
<event>
 5    1  0.1261010E-009  0.9118800E+02  0.7561462E-02  0.1125453E+00
         25   -1    0    0    0    0  0.00000000000E+00  0.00000000000E+00  0.99999998245E-14  0.12509000000E+03  0.12509000000E+03 0.  0.
        -13    1    3    3    0    0 -0.69113484923E+01  0.22510649132E+02  0.47416436837E+02  0.52941719926E+02  0.10566000000E+00 0.  1.
         23    2    1    0    0    0 -0.20311183552E+02 -0.73379547996E+01  0.20579706675E+02  0.95258572197E+02  0.90467018809E+02 0.  0.
         13    1    3    3    0    0 -0.13399835060E+02 -0.29848603932E+02 -0.26836730162E+02  0.42316852271E+02  0.10566000000E+00 0. -1.
         22    1    1    0    0    0  0.20311183552E+02  0.73379547996E+01 -0.20579706675E+02  0.29831427803E+02  0.00000000000E+00 0.  1.
</event>
<event>
 5    1  0.1261010E-009  0.9118800E+02  0.7561462E-02  0.1125453E+00
         25   -1    0    0    0    0  0.00000000000E+00  0.00000000000E+00  0.99999998245E-14  0.12509000000E+03  0.12509000000E+03 0.  0.
        -13    1    3    3    0    0  0.13211983421E+02  0.20207619897E+02  0.23193633871E+02  0.33479250649E+02  0.10566000000E+00 0.  1.
         23    2    1    0    0    0 -0.23046753023E+02 -0.52897366912E+01 -0.19060461509E+02  0.94718379495E+02  0.89716977669E+02 0.  0.
         13    1    3    3    0    0 -0.36258736443E+02 -0.25497356588E+02 -0.42254095380E+02  0.61239128847E+02  0.10566000000E+00 0. -1.
         22    1    1    0    0    0  0.23046753023E+02  0.52897366912E+01  0.19060461509E+02  0.30371620505E+02  0.00000000000E+00 0. -1.
</event>
<event>
 5    1  0.1261010E-009  0.9118800E+02  0.7561462E-02  0.1125453E+00
         25   -1    0    0    0    0  0.00000000000E+00  0.00000000000E+00  0.99999998245E-14  0.12509000000E+03  0.12509000000E+03 0.  0.
        -13    1    3    3    0    0  0.47325104991E+02 -0.16049558161E+02  0.78032435202E+01  0.50578213225E+02  0.10566000000E+00 0. -1.
         23    2    1    0    0    0  0.35201291809E+02  0.10346912358E+02  0.21361197846E+02  0.82634254644E+02  0.70893791877E+02 0.  0.
         13    1    3    3    0    0 -0.12123813182E+02  0.26396470519E+02  0.13557954326E+02  0.32056041419E+02  0.10566000000E+00 0.  1.
         22    1    1    0    0    0 -0.35201291809E+02 -0.10346912358E+02 -0.21361197846E+02  0.42455745356E+02  0.00000000000E+00 0.  1.
</event>
<event>
 5    1  0.1261010E-009  0.9118800E+02  0.7561462E-02  0.1125453E+00
         25   -1    0    0    0    0  0.00000000000E+00  0.00000000000E+00  0.99999998245E-14  0.12509000000E+03  0.12509000000E+03 0.  0.
        -13    1    3    3    0    0 -0.46024079956E+02  0.13102000518E+02 -0.96291264741E+01  0.48811982074E+02  0.10566000000E+00 0. -1.
         23    2    1    0    0    0 -0.11590689285E+02  0.22555500398E+02  0.18026151800E+02  0.93976709833E+02  0.88676858120E+02 0.  0.
         13    1    3    3    0    0  0.34433390670E+02  0.94534998803E+01  0.27655278274E+02  0.45164727758E+02  0.10566000000E+00 0.  1.
         22    1    1    0    0    0  0.11590689285E+02 -0.22555500398E+02 -0.18026151800E+02  0.31113290167E+02  0.00000000000E+00 0. -1.
</event>
<event>
 5    1  0.1261010E-009  0.9118800E+02  0.7561462E-02  0.1125453E+00
         25   -1    0    0    0    0  0.00000000000E+00  0.00000000000E+00  0.99999998245E-14  0.12509000000E+03  0.12509000000E+03 0.  0.
        -13    1    3    3    0    0 -0.19797202835E+02 -0.27251313744E+02 -0.38256501980E+02  0.50971898618E+02  0.10566000000E+00 0. -1.
         23    2    1    0    0    0 -0.20668557700E+02  0.11757187038E+02 -0.19855658606E+02  0.94111492884E+02  0.88866783388E+02 0.  0.
         13    1    3    3    0    0 -0.87135486470E+00  0.39008500782E+02  0.18400843374E+02  0.43139594266E+02  0.10566000000E+00 0.  1.
         22    1    1    0    0    0  0.20668557700E+02 -0.11757187038E+02  0.19855658606E+02  0.30978507116E+02  0.00000000000E+00 0. -1.
</event>
<event>
 5    1  0.1261010E-009  0.9118800E+02  0.7561462E-02  0.1125453E+00
         25   -1    0    0    0    0  0.00000000000E+00  0.00000000000E+00  0.99999998245E-14  0.12509000000E+03  0.12509000000E+03 0.  0.
        -13    1    3    3    0    0 -0.47091084039E+02 -0.36670678789E+02  0.16345910524E+02  0.61883025409E+02  0.10566000000E+00 0.  1.
         23    2    1    0    0    0 -0.24266715265E+02 -0.15097779197E+02  0.19154473596E+01  0.96445884636E+02  0.92094100344E+02 0.  0.
         13    1    3    3    0    0  0.22824368774E+02  0.21572899592E+02 -0.14430463164E+02  0.34562859227E+02  0.10566000000E+00 0. -1.
         22    1    1    0    0    0  0.24266715265E+02  0.15097779197E+02 -0.19154473596E+01  0.28644115364E+02  0.00000000000E+00 0.  1.
</event>
<event>
 5    1  0.1261010E-009  0.9118800E+02  0.7561462E-02  0.1125453E+00
         25   -1    0    0    0    0  0.00000000000E+00  0.00000000000E+00  0.99999998245E-14  0.12509000000E+03  0.12509000000E+03 0.  0.
        -13    1    3    3    0    0 -0.40069173665E+02 -0.64740532716E+00 -0.27658155194E+02  0.48692325110E+02  0.10566000000E+00 0.  1.
         23    2    1    0    0    0 -0.22904340922E+02  0.82080586429E+01  0.15683250534E+02  0.96142713304E+02  0.91681382595E+02 0.  0.
         13    1    3    3    0    0  0.17164832743E+02  0.88554639701E+01  0.43341405728E+02  0.47450388194E+02  0.10566000000E+00 0. -1.
         22    1    1    0    0    0  0.22904340922E+02 -0.82080586429E+01 -0.15683250534E+02  0.28947286696E+02  0.00000000000E+00 0. -1.
</event>
<event>
 5    1  0.1261010E-009  0.9118800E+02  0.7561462E-02  0.1125453E+00
         25   -1    0    0    0    0  0.00000000000E+00  0.00000000000E+00  0.99999998245E-14  0.12509000000E+03  0.12509000000E+03 0.  0.
        -13    1    3    3    0    0  0.24558024741E+02  0.70553590905E+01  0.41835438418E+01  0.25891849571E+02  0.10566000000E+00 0.  1.
         23    2    1    0    0    0 -0.33572106328E+02 -0.34710989486E+01  0.18393287237E+02  0.86652415963E+02  0.77660757952E+02 0.  0.
         13    1    3    3    0    0 -0.58130131069E+02 -0.10526458039E+02  0.14209743395E+02  0.60760566392E+02  0.10566000000E+00 0. -1.
         22    1    1    0    0    0  0.33572106328E+02  0.34710989486E+01 -0.18393287237E+02  0.38437584037E+02  0.00000000000E+00 0. -1.
</event>
<event>
 5    1  0.1261010E-009  0.9118800E+02  0.7561462E-02  0.1125453E+00
         25   -1    0    0    0    0  0.00000000000E+00  0.00000000000E+00  0.99999998245E-14  0.12509000000E+03  0.12509000000E+03 0.  0.
        -13    1    3    3    0    0 -0.16749175881E+01  0.20594959854E+02  0.27275575989E+02  0.34218794980E+02  0.10566000000E+00 0. -1.
         23    2    1    0    0    0  0.15350000365E+02 -0.21003187163E+02 -0.14263814274E+02  0.95421619865E+02  0.90692186862E+02 0.  0.
         13    1    3    3    0    0  0.17024917953E+02 -0.41598147017E+02 -0.41539390263E+02  0.61202824885E+02  0.10566000000E+00 0.  1.
         22    1    1    0    0    0 -0.15350000365E+02  0.21003187163E+02  0.14263814274E+02  0.29668380135E+02  0.00000000000E+00 0.  1.
</event>
<event>
 5    1  0.1261010E-009  0.9118800E+02  0.7561462E-02  0.1125453E+00
         25   -1    0    0    0    0  0.00000000000E+00  0.00000000000E+00  0.99999998245E-14  0.12509000000E+03  0.12509000000E+03 0.  0.
        -13    1    3    3    0    0 -0.45421319293E+02  0.37835266954E+01 -0.35124252850E+01  0.45713888655E+02  0.10566000000E+00 0.  1.
         23    2    1    0    0    0  0.29326082501E+00  0.27198661924E+02 -0.63630825655E+01  0.97155397227E+02  0.93052830039E+02 0.  0.
         13    1    3    3    0    0  0.45714580118E+02  0.23415135228E+02 -0.28506572806E+01  0.51441508571E+02  0.10566000000E+00 0. -1.
         22    1    1    0    0    0 -0.29326082501E+00 -0.27198661924E+02  0.63630825655E+01  0.27934602773E+02  0.00000000000E+00 0. -1.
</event>
<event>
 5    1  0.1261010E-009  0.9118800E+02  0.7561462E-02  0.1125453E+00
         25   -1    0    0    0    0  0.00000000000E+00  0.00000000000E+00  0.99999998245E-14  0.12509000000E+03  0.12509000000E+03 0.  0.
        -13    1    3    3    0    0  0.10413443043E+02 -0.55328242305E+02 -0.98733158317E+01  0.57158968868E+02  0.10566000000E+00 0.  1.
         23    2    1    0    0    0 -0.90863198920E+01 -0.24964474194E+02 -0.16454614912E+02  0.93840351477E+02  0.88484298225E+02 0.  0.
         13    1    3    3    0    0 -0.19499762935E+02  0.30363768111E+02 -0.65812990800E+01  0.36681382608E+02  0.10566000000E+00 0. -1.
         22    1    1    0    0    0  0.90863198920E+01  0.24964474194E+02  0.16454614912E+02  0.31249648523E+02  0.00000000000E+00 0.  1.
</event>
<event>
 5    1  0.1261010E-009  0.9118800E+02  0.7561462E-02  0.1125453E+00
         25   -1    0    0    0    0  0.00000000000E+00  0.00000000000E+00  0.99999998245E-14  0.12509000000E+03  0.12509000000E+03 0.  0.
        -13    1    3    3    0    0  0.26660918772E+01 -0.13933447301E+02 -0.30579791149E+02  0.33710292053E+02  0.10566000000E+00 0.  1.
         23    2    1    0    0    0  0.13542291243E+02  0.22234499059E+02  0.16652306282E+02  0.94185859419E+02  0.88971401076E+02 0.  0.
         13    1    3    3    0    0  0.10876199366E+02  0.36167946360E+02  0.47232097431E+02  0.60475567366E+02  0.10566000000E+00 0. -1.
         22    1    1    0    0    0 -0.13542291243E+02 -0.22234499059E+02 -0.16652306282E+02  0.30904140581E+02  0.00000000000E+00 0. -1.
</event>
<event>
 5    1  0.1261010E-009  0.9118800E+02  0.7561462E-02  0.1125453E+00
         25   -1    0    0    0    0  0.00000000000E+00  0.00000000000E+00  0.99999998245E-14  0.12509000000E+03  0.12509000000E+03 0.  0.
        -13    1    3    3    0    0 -0.35798473841E+02  0.22431780883E+02 -0.92804357483E+01  0.43253360270E+02  0.10566000000E+00 0. -1.
         23    2    1    0    0    0 -0.14598804813E+02 -0.47232160302E+01  0.27469349092E+02  0.93625750268E+02  0.88180395225E+02 0.  0.
         13    1    3    3    0    0  0.21199669027E+02 -0.27154996914E+02  0.36749784841E+02  0.50372389998E+02  0.10566000000E+00 0.  1.
         22    1    1    0    0    0  0.14598804813E+02  0.47232160302E+01 -0.27469349092E+02  0.31464249732E+02  0.00000000000E+00 0. -1.
</event>
<event>
 5    1  0.1261010E-009  0.9118800E+02  0.7561462E-02  0.1125453E+00
         25   -1    0    0    0    0  0.00000000000E+00  0.00000000000E+00  0.99999998245E-14  0.12509000000E+03  0.12509000000E+03 0.  0.
        -13    1    3    3    0    0  0.51256242419E+01 -0.53661070417E+01  0.34670704026E+02  0.35456113865E+02  0.10566000000E+00 0. -1.
         23    2    1    0    0    0 -0.37039491722E+00  0.20451253040E+02 -0.20197842187E+02  0.96343804212E+02  0.91955341540E+02 0.  0.
         13    1    3    3    0    0 -0.54960191591E+01  0.25817360081E+02 -0.54868546214E+02  0.60887690347E+02  0.10566000000E+00 0.  1.
         22    1    1    0    0    0  0.37039491722E+00 -0.20451253040E+02  0.20197842187E+02  0.28746195788E+02  0.00000000000E+00 0.  1.
</event>
<event>
 5    1  0.1261010E-009  0.9118800E+02  0.7561462E-02  0.1125453E+00
         25   -1    0    0    0    0  0.00000000000E+00  0.00000000000E+00  0.99999998245E-14  0.12509000000E+03  0.12509000000E+03 0.  0.
        -13    1    3    3    0    0  0.87981196768E+01 -0.15879752698E+02  0.45346298027E+02  0.48845382222E+02  0.10566000000E+00 0. -1.
         23    2    1    0    0    0 -0.20115668025E+02 -0.21278446122E+02  0.11643601222E+02  0.93578322500E+02  0.88113089965E+02 0.  0.
         13    1    3    3    0    0 -0.28913787702E+02 -0.53986934240E+01 -0.33702696806E+02  0.44732940278E+02  0.10566000000E+00 0.  1.
         22    1    1    0    0    0  0.20115668025E+02  0.21278446122E+02 -0.11643601222E+02  0.31511677500E+02  0.00000000000E+00 0. -1.
</event>
<event>
 4    1  0.1261010E-009  0.9118800E+02  0.7561462E-02  0.1125453E+00
         25   -1    0    0    0    0  0.00000000000E+00  0.00000000000E+00  0.99999998245E-14  0.12509000000E+03  0.12509000000E+03 0.  0.
        -13    1    1    0    0    0  0.15065459507E+02 -0.17647234297E+02 -0.25326503121E+02  0.34348739028E+02  0.10566000000E+00 0.  1.
         13    1    1    0    0    0 -0.31728444341E+02 -0.22268210194E+02 -0.32514274488E+01  0.38899232769E+02  0.10566000000E+00 0. -1.
         22    1    1    0    0    0  0.16662984834E+02  0.39915444491E+02  0.28577930569E+02  0.51842028202E+02  0.00000000000E+00 0.  1.
</event>
<event>
 5    1  0.1261010E-009  0.9118800E+02  0.7561462E-02  0.1125453E+00
         25   -1    0    0    0    0  0.00000000000E+00  0.00000000000E+00  0.99999998245E-14  0.12509000000E+03  0.12509000000E+03 0.  0.
        -13    1    3    3    0    0 -0.18144386917E+02  0.66551102009E+00  0.40311742345E+02  0.44212095816E+02  0.10566000000E+00 0.  1.
         23    2    1    0    0    0  0.20962097290E+02  0.16008063610E+02  0.70662623125E+01  0.97784328677E+02  0.93894489979E+02 0.  0.
         13    1    3    3    0    0  0.39106484207E+02  0.15342552590E+02 -0.33245480033E+02  0.53572232861E+02  0.10566000000E+00 0. -1.
         22    1    1    0    0    0 -0.20962097290E+02 -0.16008063610E+02 -0.70662623125E+01  0.27305671323E+02  0.00000000000E+00 0. -1.
</event>
<event>
 5    1  0.1261010E-009  0.9118800E+02  0.7561462E-02  0.1125453E+00
         25   -1    0    0    0    0  0.00000000000E+00  0.00000000000E+00  0.99999998245E-14  0.12509000000E+03  0.12509000000E+03 0.  0.
        -13    1    3    3    0    0  0.13281209716E+02 -0.32150447542E+02 -0.48004317586E+02  0.59282944255E+02  0.10566000000E+00 0.  1.
         23    2    1    0    0    0 -0.43383627861E+01 -0.52400884776E+01 -0.25899893805E+02  0.98311568044E+02  0.94594291547E+02 0.  0.
         13    1    3    3    0    0 -0.17619572502E+02  0.26910359064E+02  0.22104423781E+02  0.39028623789E+02  0.10566000000E+00 0. -1.
         22    1    1    0    0    0  0.43383627861E+01  0.52400884776E+01  0.25899893805E+02  0.26778431956E+02  0.00000000000E+00 0.  1.
</event>
<event>
 5    1  0.1261010E-009  0.9118800E+02  0.7561462E-02  0.1125453E+00
         25   -1    0    0    0    0  0.00000000000E+00  0.00000000000E+00  0.99999998245E-14  0.12509000000E+03  0.12509000000E+03 0.  0.
        -13    1    3    3    0    0 -0.37322674007E+02 -0.17642521363E+02 -0.19129250510E+02  0.45499230149E+02  0.10566000000E+00 0.  1.
         23    2    1    0    0    0  0.60907900917E+01 -0.27865114430E+02  0.48811061161E+01  0.96152351114E+02  0.91694531470E+02 0.  0.
         13    1    3    3    0    0  0.43413464099E+02 -0.10222593067E+02  0.24010356626E+02  0.50653120964E+02  0.10566000000E+00 0. -1.
         22    1    1    0    0    0 -0.60907900917E+01  0.27865114430E+02 -0.48811061161E+01  0.28937648886E+02  0.00000000000E+00 0. -1.
</event>
<event>
 5    1  0.1261010E-009  0.9118800E+02  0.7561462E-02  0.1125453E+00
         25   -1    0    0    0    0  0.00000000000E+00  0.00000000000E+00  0.99999998245E-14  0.12509000000E+03  0.12509000000E+03 0.  0.
        -13    1    3    3    0    0 -0.22665732522E+02 -0.36347757926E+02  0.31725739911E+02  0.53305052987E+02  0.10566000000E+00 0.  1.
         23    2    1    0    0    0 -0.23236016748E+02 -0.10946053251E+02 -0.59280416467E+01  0.98729608617E+02  0.95145495867E+02 0.  0.
         13    1    3    3    0    0 -0.57028422617E+00  0.25401704675E+02 -0.37653781558E+02  0.45424555630E+02  0.10566000000E+00 0. -1.
         22    1    1    0    0    0  0.23236016748E+02  0.10946053251E+02  0.59280416467E+01  0.26360391383E+02  0.00000000000E+00 0.  1.
</event>
<event>
 5    1  0.1261010E-009  0.9118800E+02  0.7561462E-02  0.1125453E+00
         25   -1    0    0    0    0  0.00000000000E+00  0.00000000000E+00  0.99999998245E-14  0.12509000000E+03  0.12509000000E+03 0.  0.
        -13    1    3    3    0    0  0.13681218502E+02 -0.40640416142E+02 -0.19504812705E+02  0.47109107894E+02  0.10566000000E+00 0.  1.
         23    2    1    0    0    0 -0.10909270825E+02 -0.30452779560E+02  0.13951240248E+02  0.89861870936E+02  0.82668825871E+02 0.  0.
         13    1    3    3    0    0 -0.24590489328E+02  0.10187636582E+02  0.33456052953E+02  0.42752763042E+02  0.10566000000E+00 0. -1.
         22    1    1    0    0    0  0.10909270825E+02  0.30452779560E+02 -0.13951240248E+02  0.35228129064E+02  0.00000000000E+00 0.  1.
</event>
<event>
 5    1  0.1261010E-009  0.9118800E+02  0.7561462E-02  0.1125453E+00
         25   -1    0    0    0    0  0.00000000000E+00  0.00000000000E+00  0.99999998245E-14  0.12509000000E+03  0.12509000000E+03 0.  0.
        -13    1    3    3    0    0  0.59286440289E+02 -0.13576142235E+02 -0.79738992633E+01  0.61341567258E+02  0.10566000000E+00 0.  1.
         23    2    1    0    0    0  0.28914356649E+02  0.19510551765E+01 -0.58980679127E+01  0.95515790935E+02  0.90821982340E+02 0.  0.
         13    1    3    3    0    0 -0.30372083640E+02  0.15527197412E+02  0.20758313506E+01  0.34174223677E+02  0.10566000000E+00 0. -1.
         22    1    1    0    0    0 -0.28914356649E+02 -0.19510551765E+01  0.58980679127E+01  0.29574209065E+02  0.00000000000E+00 0.  1.
</event>
<event>
 5    1  0.1261010E-009  0.9118800E+02  0.7561462E-02  0.1125453E+00
         25   -1    0    0    0    0  0.00000000000E+00  0.00000000000E+00  0.99999998245E-14  0.12509000000E+03  0.12509000000E+03 0.  0.
        -13    1    3    3    0    0 -0.65387645978E+01 -0.54123154644E+02 -0.14712438325E+02  0.56467143691E+02  0.10566000000E+00 0. -1.
         23    2    1    0    0    0 -0.11993591256E+02 -0.14939630793E+02 -0.21154391920E+02  0.96549728506E+02  0.92235042027E+02 0.  0.
         13    1    3    3    0    0 -0.54548266578E+01  0.39183523852E+02 -0.64419535955E+01  0.40082584815E+02  0.10566000000E+00 0.  1.
         22    1    1    0    0    0  0.11993591256E+02  0.14939630793E+02  0.21154391920E+02  0.28540271494E+02  0.00000000000E+00 0.  1.
</event>
<event>
 5    1  0.1261010E-009  0.9118800E+02  0.7561462E-02  0.1125453E+00
         25   -1    0    0    0    0  0.00000000000E+00  0.00000000000E+00  0.99999998245E-14  0.12509000000E+03  0.12509000000E+03 0.  0.
        -13    1    3    3    0    0 -0.51332338031E+02  0.28546309615E+02  0.17607491730E+02  0.61318314144E+02  0.10566000000E+00 0. -1.
         23    2    1    0    0    0 -0.28563217698E+02  0.15634452478E+02  0.62207644029E+00  0.92521909963E+02  0.86600365673E+02 0.  0.
         13    1    3    3    0    0  0.22769120333E+02 -0.12911857138E+02 -0.16985415290E+02  0.31203595820E+02  0.10566000000E+00 0.  1.
         22    1    1    0    0    0  0.28563217698E+02 -0.15634452478E+02 -0.62207644029E+00  0.32568090037E+02  0.00000000000E+00 0. -1.
</event>
<event>
 5    1  0.1261010E-009  0.9118800E+02  0.7561462E-02  0.1125453E+00
         25   -1    0    0    0    0  0.00000000000E+00  0.00000000000E+00  0.99999998245E-14  0.12509000000E+03  0.12509000000E+03 0.  0.
        -13    1    3    3    0    0 -0.23713911758E+02 -0.23889754511E+02  0.94954566261E+01  0.34974917327E+02  0.10566000000E+00 0.  1.
         23    2    1    0    0    0  0.41632119708E+01  0.29216205786E+02  0.90882860301E+00  0.95564672163E+02  0.90889281997E+02 0.  0.
         13    1    3    3    0    0  0.27877123729E+02  0.53105960296E+02 -0.85866280231E+01  0.60589754837E+02  0.10566000000E+00 0. -1.
         22    1    1    0    0    0 -0.41632119708E+01 -0.29216205786E+02 -0.90882860301E+00  0.29525327837E+02  0.00000000000E+00 0. -1.
</event>
<event>
 5    1  0.1261010E-009  0.9118800E+02  0.7561462E-02  0.1125453E+00
         25   -1    0    0    0    0  0.00000000000E+00  0.00000000000E+00  0.99999998245E-14  0.12509000000E+03  0.12509000000E+03 0.  0.
        -13    1    3    3    0    0  0.60265373597E+01 -0.10310271513E+02  0.58953930612E+02  0.60151458419E+02  0.10566000000E+00 0. -1.
         23    2    1    0    0    0  0.13915795814E+02 -0.30203674047E+00  0.24141453847E+02  0.97223346215E+02  0.93144128404E+02 0.  0.
         13    1    3    3    0    0  0.78892584542E+01  0.10008234773E+02 -0.34812476765E+02  0.37071887797E+02  0.10566000000E+00 0.  1.
         22    1    1    0    0    0 -0.13915795814E+02  0.30203674047E+00 -0.24141453847E+02  0.27866653785E+02  0.00000000000E+00 0. -1.
</event>
<event>
 5    1  0.1261010E-009  0.9118800E+02  0.7561462E-02  0.1125453E+00
         25   -1    0    0    0    0  0.00000000000E+00  0.00000000000E+00  0.99999998245E-14  0.12509000000E+03  0.12509000000E+03 0.  0.
        -13    1    3    3    0    0 -0.14084967002E+02  0.46499803319E+02  0.53582200549E+01  0.48880872438E+02  0.10566000000E+00 0. -1.
         23    2    1    0    0    0 -0.23641241110E+02  0.26753896119E+01  0.17739258707E+02  0.95412613150E+02  0.90679763221E+02 0.  0.
         13    1    3    3    0    0 -0.95562741079E+01 -0.43824413707E+02  0.12381038652E+02  0.46531740712E+02  0.10566000000E+00 0.  1.
         22    1    1    0    0    0  0.23641241110E+02 -0.26753896119E+01 -0.17739258707E+02  0.29677386850E+02  0.00000000000E+00 0. -1.
</event>
<event>
 5    1  0.1261010E-009  0.9118800E+02  0.7561462E-02  0.1125453E+00
         25   -1    0    0    0    0  0.00000000000E+00  0.00000000000E+00  0.99999998245E-14  0.12509000000E+03  0.12509000000E+03 0.  0.
        -13    1    3    3    0    0  0.15439224195E+02  0.20053071905E+02  0.20029462797E+02  0.32275158877E+02  0.10566000000E+00 0.  1.
         23    2    1    0    0    0  0.15175984395E+02 -0.32714153331E+02  0.17243661937E+02  0.85116631271E+02  0.75146328662E+02 0.  0.
         13    1    3    3    0    0 -0.26323979979E+00 -0.52767225236E+02 -0.27858008604E+01  0.52841472394E+02  0.10566000000E+00 0. -1.
         22    1    1    0    0    0 -0.15175984395E+02  0.32714153331E+02 -0.17243661937E+02  0.39973368729E+02  0.00000000000E+00 0. -1.
</event>
<event>
 5    1  0.1261010E-009  0.9118800E+02  0.7561462E-02  0.1125453E+00
         25   -1    0    0    0    0  0.00000000000E+00  0.00000000000E+00  0.99999998245E-14  0.12509000000E+03  0.12509000000E+03 0.  0.
        -13    1    3    3    0    0 -0.23539852182E+02  0.42437091445E+01 -0.54343452396E+02  0.59374705813E+02  0.10566000000E+00 0.  1.
         23    2    1    0    0    0  0.17852534690E+01 -0.53183284036E+01 -0.25695240914E+02  0.98789483796E+02  0.95224182622E+02 0.  0.
         13    1    3    3    0    0  0.25325105651E+02 -0.95620375481E+01  0.28648211482E+02  0.39414777983E+02  0.10566000000E+00 0. -1.
         22    1    1    0    0    0 -0.17852534690E+01  0.53183284036E+01  0.25695240914E+02  0.26300516204E+02  0.00000000000E+00 0.  1.
</event>
<event>
 5    1  0.1261010E-009  0.9118800E+02  0.7561462E-02  0.1125453E+00
         25   -1    0    0    0    0  0.00000000000E+00  0.00000000000E+00  0.99999998245E-14  0.12509000000E+03  0.12509000000E+03 0.  0.
        -13    1    3    3    0    0  0.12771640221E+02 -0.18077996521E+02  0.38931144714E+02  0.44783634789E+02  0.10566000000E+00 0. -1.
         23    2    1    0    0    0 -0.26587605425E+02 -0.94075155391E+01  0.74636057227E+01  0.95916252876E+02  0.91371877756E+02 0.  0.
         13    1    3    3    0    0 -0.39359245646E+02  0.86704809823E+01 -0.31467538991E+02  0.51132618087E+02  0.10566000000E+00 0.  1.
         22    1    1    0    0    0  0.26587605425E+02  0.94075155391E+01 -0.74636057227E+01  0.29173747124E+02  0.00000000000E+00 0. -1.
</event>
<event>
 5    1  0.1261010E-009  0.9118800E+02  0.7561462E-02  0.1125453E+00
         25   -1    0    0    0    0  0.00000000000E+00  0.00000000000E+00  0.99999998245E-14  0.12509000000E+03  0.12509000000E+03 0.  0.
        -13    1    3    3    0    0  0.16814479954E+02 -0.29344994956E+02 -0.96024004926E+01  0.35157825933E+02  0.10566000000E+00 0. -1.
         23    2    1    0    0    0  0.45865966416E+01  0.26250129978E+02 -0.18329352846E+02  0.92746973419E+02  0.86924850935E+02 0.  0.
         13    1    3    3    0    0 -0.12227883313E+02  0.55595124934E+02 -0.87269523537E+01  0.57589147486E+02  0.10566000000E+00 0.  1.
         22    1    1    0    0    0 -0.45865966416E+01 -0.26250129978E+02  0.18329352846E+02  0.32343026581E+02  0.00000000000E+00 0.  1.
</event>
<event>
 5    1  0.1261010E-009  0.9118800E+02  0.7561462E-02  0.1125453E+00
         25   -1    0    0    0    0  0.00000000000E+00  0.00000000000E+00  0.99999998245E-14  0.12509000000E+03  0.12509000000E+03 0.  0.
        -13    1    3    3    0    0  0.32334086434E+02 -0.30902561633E+02 -0.42070179180E+02  0.61403359853E+02  0.10566000000E+00 0.  1.
         23    2    1    0    0    0  0.87454494356E+01 -0.16631241533E+02 -0.24946940527E+02  0.93858110489E+02  0.88509400529E+02 0.  0.
         13    1    3    3    0    0 -0.23588636999E+02  0.14271320099E+02  0.17123238652E+02  0.32454750635E+02  0.10566000000E+00 0. -1.
         22    1    1    0    0    0 -0.87454494356E+01  0.16631241533E+02  0.24946940527E+02  0.31231889511E+02  0.00000000000E+00 0.  1.
</event>
<event>
 5    1  0.1261010E-009  0.9118800E+02  0.7561462E-02  0.1125453E+00
         25   -1    0    0    0    0  0.00000000000E+00  0.00000000000E+00  0.99999998245E-14  0.12509000000E+03  0.12509000000E+03 0.  0.
        -13    1    3    3    0    0 -0.39913268902E+02  0.16253761975E+02 -0.11202921054E+02  0.44528310286E+02  0.10566000000E+00 0.  1.
         23    2    1    0    0    0  0.86324686995E+01  0.28232857586E+02 -0.72714121326E+01  0.94684618935E+02  0.89669893862E+02 0.  0.
         13    1    3    3    0    0  0.48545737601E+02  0.11979095610E+02  0.39315089210E+01  0.50156308649E+02  0.10566000000E+00 0. -1.
         22    1    1    0    0    0 -0.86324686995E+01 -0.28232857586E+02  0.72714121326E+01  0.30405381065E+02  0.00000000000E+00 0. -1.
</event>
<event>
 5    1  0.1261010E-009  0.9118800E+02  0.7561462E-02  0.1125453E+00
         25   -1    0    0    0    0  0.00000000000E+00  0.00000000000E+00  0.99999998245E-14  0.12509000000E+03  0.12509000000E+03 0.  0.
        -13    1    3    3    0    0  0.29524953611E+02  0.23721406909E+02  0.34441939931E+02  0.51192640308E+02  0.10566000000E+00 0. -1.
         23    2    1    0    0    0  0.13228028201E+02  0.26064679947E+02 -0.63472211891E+01  0.95179542169E+02  0.90357676817E+02 0.  0.
         13    1    3    3    0    0 -0.16296925411E+02  0.23432730386E+01 -0.40789161120E+02  0.43986901861E+02  0.10566000000E+00 0.  1.
         22    1    1    0    0    0 -0.13228028201E+02 -0.26064679947E+02  0.63472211891E+01  0.29910457831E+02  0.00000000000E+00 0. -1.
</event>
<event>
 5    1  0.1261010E-009  0.9118800E+02  0.7561462E-02  0.1125453E+00
         25   -1    0    0    0    0  0.00000000000E+00  0.00000000000E+00  0.99999998245E-14  0.12509000000E+03  0.12509000000E+03 0.  0.
        -13    1    3    3    0    0 -0.32947873330E+02  0.22656890296E+02  0.23902420455E+02  0.46585769313E+02  0.10566000000E+00 0.  1.
         23    2    1    0    0    0 -0.42092821097E+01  0.25872047605E+02 -0.14869194878E+02  0.94954076927E+02  0.90045004667E+02 0.  0.
         13    1    3    3    0    0  0.28738591220E+02  0.32151573091E+01 -0.38771615333E+02  0.48368307614E+02  0.10566000000E+00 0. -1.
         22    1    1    0    0    0  0.42092821097E+01 -0.25872047605E+02  0.14869194878E+02  0.30135923073E+02  0.00000000000E+00 0. -1.
</event>
<event>
 5    1  0.1261010E-009  0.9118800E+02  0.7561462E-02  0.1125453E+00
         25   -1    0    0    0    0  0.00000000000E+00  0.00000000000E+00  0.99999998245E-14  0.12509000000E+03  0.12509000000E+03 0.  0.
        -13    1    3    3    0    0 -0.25275493864E+02 -0.87064242624E+01  0.26186114947E+02  0.37421600628E+02  0.10566000000E+00 0. -1.
         23    2    1    0    0    0  0.12817888735E+02  0.26777240908E+02  0.67651488677E+00  0.95395276990E+02  0.90655845357E+02 0.  0.
         13    1    3    3    0    0  0.38093382599E+02  0.35483665170E+02 -0.25509600060E+02  0.57973676362E+02  0.10566000000E+00 0.  1.
         22    1    1    0    0    0 -0.12817888735E+02 -0.26777240908E+02 -0.67651488677E+00  0.29694723010E+02  0.00000000000E+00 0.  1.
</event>
<event>
 5    1  0.1261010E-009  0.9118800E+02  0.7561462E-02  0.1125453E+00
         25   -1    0    0    0    0  0.00000000000E+00  0.00000000000E+00  0.99999998245E-14  0.12509000000E+03  0.12509000000E+03 0.  0.
        -13    1    3    3    0    0 -0.30627777775E+01  0.42892626097E+02  0.20924589871E+02  0.47822668333E+02  0.10566000000E+00 0.  1.
         23    2    1    0    0    0  0.68098853474E+01  0.18699296772E+02 -0.20320069224E+02  0.96648068781E+02  0.92368315713E+02 0.  0.
         13    1    3    3    0    0  0.98726631250E+01 -0.24193329325E+02 -0.41244659095E+02  0.48825400448E+02  0.10566000000E+00 0. -1.
         22    1    1    0    0    0 -0.68098853474E+01 -0.18699296772E+02  0.20320069224E+02  0.28441931219E+02  0.00000000000E+00 0.  1.
</event>
<event>
 5    1  0.1261010E-009  0.9118800E+02  0.7561462E-02  0.1125453E+00
         25   -1    0    0    0    0  0.00000000000E+00  0.00000000000E+00  0.99999998245E-14  0.12509000000E+03  0.12509000000E+03 0.  0.
        -13    1    3    3    0    0  0.15221478188E+02 -0.86509936896E+01  0.31349207447E+02  0.35907061446E+02  0.10566000000E+00 0.  1.
         23    2    1    0    0    0 -0.19120157274E+02 -0.77474647799E+01 -0.19122190689E+02  0.96960623870E+02  0.92790628728E+02 0.  0.
         13    1    3    3    0    0 -0.34341635463E+02  0.90352890971E+00 -0.50471398137E+02  0.61053562424E+02  0.10566000000E+00 0. -1.
         22    1    1    0    0    0  0.19120157274E+02  0.77474647799E+01  0.19122190689E+02  0.28129376130E+02  0.00000000000E+00 0. -1.
</event>
<event>
 5    1  0.1261010E-009  0.9118800E+02  0.7561462E-02  0.1125453E+00
         25   -1    0    0    0    0  0.00000000000E+00  0.00000000000E+00  0.99999998245E-14  0.12509000000E+03  0.12509000000E+03 0.  0.
        -13    1    3    3    0    0 -0.74703945968E+00  0.51859811215E+02 -0.18294283683E+02  0.54997182352E+02  0.10566000000E+00 0.  1.
         23    2    1    0    0    0 -0.19659320377E+02  0.14489162700E+02 -0.13582748713E+02  0.97145129701E+02  0.93039026481E+02 0.  0.
         13    1    3    3    0    0 -0.18912280917E+02 -0.37370648515E+02  0.47115349701E+01  0.42147947349E+02  0.10566000000E+00 0. -1.
         22    1    1    0    0    0  0.19659320377E+02 -0.14489162700E+02  0.13582748713E+02  0.27944870299E+02  0.00000000000E+00 0.  1.
</event>
<event>
 5    1  0.1261010E-009  0.9118800E+02  0.7561462E-02  0.1125453E+00
         25   -1    0    0    0    0  0.00000000000E+00  0.00000000000E+00  0.99999998245E-14  0.12509000000E+03  0.12509000000E+03 0.  0.
        -13    1    3    3    0    0 -0.23129591153E+02 -0.27005064528E+02 -0.12917425576E+02  0.37830180341E+02  0.10566000000E+00 0. -1.
         23    2    1    0    0    0 -0.17315155340E+01 -0.31903962384E+01  0.31941806986E+02  0.92942592519E+02  0.87205904023E+02 0.  0.
         13    1    3    3    0    0  0.21398075619E+02  0.23814668290E+02  0.44859232562E+02  0.55112412178E+02  0.10566000000E+00 0.  1.
         22    1    1    0    0    0  0.17315155340E+01  0.31903962384E+01 -0.31941806986E+02  0.32147407481E+02  0.00000000000E+00 0.  1.
</event>
<event>
 5    1  0.1261010E-009  0.9118800E+02  0.7561462E-02  0.1125453E+00
         25   -1    0    0    0    0  0.00000000000E+00  0.00000000000E+00  0.99999998245E-14  0.12509000000E+03  0.12509000000E+03 0.  0.
        -13    1    3    3    0    0  0.42365078270E+02  0.15499555653E+02  0.72368712966E+01  0.45688286819E+02  0.10566000000E+00 0.  1.
         23    2    1    0    0    0 -0.63792868036E+01  0.11546062989E+02  0.24263883955E+02  0.97472198943E+02  0.93477733346E+02 0.  0.
         13    1    3    3    0    0 -0.48744365074E+02 -0.39534926636E+01  0.17027012658E+02  0.51783912123E+02  0.10566000000E+00 0. -1.
         22    1    1    0    0    0  0.63792868036E+01 -0.11546062989E+02 -0.24263883955E+02  0.27617801057E+02  0.00000000000E+00 0. -1.
</event>
<event>
 5    1  0.1261010E-009  0.9118800E+02  0.7561462E-02  0.1125453E+00
         25   -1    0    0    0    0  0.00000000000E+00  0.00000000000E+00  0.99999998245E-14  0.12509000000E+03  0.12509000000E+03 0.  0.
        -13    1    3    3    0    0 -0.32386601581E+02 -0.39913113909E+02  0.16893306309E+02  0.54104931254E+02  0.10566000000E+00 0.  1.
         23    2    1    0    0    0 -0.10420907627E+02 -0.22904084221E+02 -0.14517809567E+02  0.96039024381E+02  0.91539800194E+02 0.  0.
         13    1    3    3    0    0  0.21965693954E+02  0.17009029688E+02 -0.31411115876E+02  0.41934093127E+02  0.10566000000E+00 0. -1.
         22    1    1    0    0    0  0.10420907627E+02  0.22904084221E+02  0.14517809567E+02  0.29050975619E+02  0.00000000000E+00 0.  1.
</event>
<event>
 5    1  0.1261010E-009  0.9118800E+02  0.7561462E-02  0.1125453E+00
         25   -1    0    0    0    0  0.00000000000E+00  0.00000000000E+00  0.99999998245E-14  0.12509000000E+03  0.12509000000E+03 0.  0.
        -13    1    3    3    0    0 -0.16730618519E+00 -0.22597675913E+02  0.26190953119E+02  0.34592775797E+02  0.10566000000E+00 0. -1.
         23    2    1    0    0    0 -0.11953683623E+02  0.38536194741E+01 -0.27087384699E+02  0.95232549589E+02  0.90431029830E+02 0.  0.
         13    1    3    3    0    0 -0.11786377438E+02  0.26451295387E+02 -0.53278337818E+02  0.60639773792E+02  0.10566000000E+00 0.  1.
         22    1    1    0    0    0  0.11953683623E+02 -0.38536194741E+01  0.27087384699E+02  0.29857450411E+02  0.00000000000E+00 0.  1.
</event>
<event>
 5    1  0.1261010E-009  0.9118800E+02  0.7561462E-02  0.1125453E+00
         25   -1    0    0    0    0  0.00000000000E+00  0.00000000000E+00  0.99999998245E-14  0.12509000000E+03  0.12509000000E+03 0.  0.
        -13    1    3    3    0    0 -0.65044148817E+01  0.33308756333E+02  0.20588499904E+02  0.39694812681E+02  0.10566000000E+00 0.  1.
         23    2    1    0    0    0 -0.14190193165E+02  0.43259719275E+01 -0.26033306088E+02  0.95126544908E+02  0.90284278283E+02 0.  0.
         13    1    3    3    0    0 -0.76857782832E+01 -0.28982784406E+02 -0.46621805992E+02  0.55431732227E+02  0.10566000000E+00 0. -1.
         22    1    1    0    0    0  0.14190193165E+02 -0.43259719275E+01  0.26033306088E+02  0.29963455092E+02  0.00000000000E+00 0. -1.
</event>
<event>
 5    1  0.1261010E-009  0.9118800E+02  0.7561462E-02  0.1125453E+00
         25   -1    0    0    0    0  0.00000000000E+00  0.00000000000E+00  0.99999998245E-14  0.12509000000E+03  0.12509000000E+03 0.  0.
        -13    1    3    3    0    0 -0.29794584185E+02 -0.51880416433E+02  0.12205979094E+02  0.61059740793E+02  0.10566000000E+00 0.  1.
         23    2    1    0    0    0 -0.25130284193E+02 -0.25280206313E+02  0.43858469035E+01  0.89175439333E+02  0.81623546310E+02 0.  0.
         13    1    3    3    0    0  0.46642999912E+01  0.26600210120E+02 -0.78201321907E+01  0.28115698540E+02  0.10566000000E+00 0. -1.
         22    1    1    0    0    0  0.25130284193E+02  0.25280206313E+02 -0.43858469035E+01  0.35914560667E+02  0.00000000000E+00 0.  1.
</event>
<event>
 5    1  0.1261010E-009  0.9118800E+02  0.7561462E-02  0.1125453E+00
         25   -1    0    0    0    0  0.00000000000E+00  0.00000000000E+00  0.99999998245E-14  0.12509000000E+03  0.12509000000E+03 0.  0.
        -13    1    3    3    0    0 -0.48794421036E+02 -0.10718334763E+02 -0.22009104431E+02  0.54591117100E+02  0.10566000000E+00 0.  1.
         23    2    1    0    0    0 -0.14204375765E+02  0.98685264573E+01 -0.24702746495E+02  0.94934108541E+02  0.90017260426E+02 0.  0.
         13    1    3    3    0    0  0.34590045271E+02  0.20586861220E+02 -0.26936420642E+01  0.40342991441E+02  0.10566000000E+00 0. -1.
         22    1    1    0    0    0  0.14204375765E+02 -0.98685264573E+01  0.24702746495E+02  0.30155891459E+02  0.00000000000E+00 0.  1.
</event>
<event>
 5    1  0.1261010E-009  0.9118800E+02  0.7561462E-02  0.1125453E+00
         25   -1    0    0    0    0  0.00000000000E+00  0.00000000000E+00  0.99999998245E-14  0.12509000000E+03  0.12509000000E+03 0.  0.
        -13    1    3    3    0    0 -0.74712944107E+01  0.30790786010E+02  0.14772407493E+02  0.34958946358E+02  0.10566000000E+00 0. -1.
         23    2    1    0    0    0  0.63403204091E+01 -0.13212158764E+02 -0.25166013534E+02  0.95968031672E+02  0.91442736528E+02 0.  0.
         13    1    3    3    0    0  0.13811614820E+02 -0.44002944774E+02 -0.39938421027E+02  0.61009085314E+02  0.10566000000E+00 0.  1.
         22    1    1    0    0    0 -0.63403204091E+01  0.13212158764E+02  0.25166013534E+02  0.29121968328E+02  0.00000000000E+00 0.  1.
</event>
<event>
 5    1  0.1261010E-009  0.9118800E+02  0.7561462E-02  0.1125453E+00
         25   -1    0    0    0    0  0.00000000000E+00  0.00000000000E+00  0.99999998245E-14  0.12509000000E+03  0.12509000000E+03 0.  0.
        -13    1    3    3    0    0 -0.12920413117E+02  0.47317697676E+02  0.26895159779E+02  0.55939810262E+02  0.10566000000E+00 0.  1.
         23    2    1    0    0    0 -0.70550367441E+01  0.24276788171E+02 -0.83595125248E+01  0.98462618661E+02  0.94793828051E+02 0.  0.
         13    1    3    3    0    0  0.58653763731E+01 -0.23040909506E+02 -0.35254672304E+02  0.42522808399E+02  0.10566000000E+00 0. -1.
         22    1    1    0    0    0  0.70550367441E+01 -0.24276788171E+02  0.83595125248E+01  0.26627381339E+02  0.00000000000E+00 0.  1.
</event>
<event>
 5    1  0.1261010E-009  0.9118800E+02  0.7561462E-02  0.1125453E+00
         25   -1    0    0    0    0  0.00000000000E+00  0.00000000000E+00  0.99999998245E-14  0.12509000000E+03  0.12509000000E+03 0.  0.
        -13    1    3    3    0    0  0.53081219934E+02  0.14401783022E+02  0.88210050059E+01  0.55703218554E+02  0.10566000000E+00 0. -1.
         23    2    1    0    0    0  0.26189838397E+02 -0.48476752161E+01 -0.13128434934E+02  0.95395498925E+02  0.90656151590E+02 0.  0.
         13    1    3    3    0    0 -0.26891381536E+02 -0.19249458238E+02 -0.21949439940E+02  0.39692280372E+02  0.10566000000E+00 0.  1.
         22    1    1    0    0    0 -0.26189838397E+02  0.48476752161E+01  0.13128434934E+02  0.29694501075E+02  0.00000000000E+00 0. -1.
</event>
<event>
 5    1  0.1261010E-009  0.9118800E+02  0.7561462E-02  0.1125453E+00
         25   -1    0    0    0    0  0.00000000000E+00  0.00000000000E+00  0.99999998245E-14  0.12509000000E+03  0.12509000000E+03 0.  0.
        -13    1    3    3    0    0 -0.15001406997E+01 -0.44436920914E+02 -0.25242104908E+02  0.51127931570E+02  0.10566000000E+00 0. -1.
         23    2    1    0    0    0 -0.25475831519E+02 -0.12402072336E+02 -0.38661358658E+01  0.96493210035E+02  0.92158359287E+02 0.  0.
         13    1    3    3    0    0 -0.23975690819E+02  0.32034848578E+02  0.21375969042E+02  0.45365278465E+02  0.10566000000E+00 0.  1.
         22    1    1    0    0    0  0.25475831519E+02  0.12402072336E+02  0.38661358658E+01  0.28596789965E+02  0.00000000000E+00 0. -1.
</event>
<event>
 5    1  0.1261010E-009  0.9118800E+02  0.7561462E-02  0.1125453E+00
         25   -1    0    0    0    0  0.00000000000E+00  0.00000000000E+00  0.99999998245E-14  0.12509000000E+03  0.12509000000E+03 0.  0.
        -13    1    3    3    0    0 -0.56412802744E+00  0.21366001177E+02 -0.33080838434E+02  0.39384988032E+02  0.10566000000E+00 0.  1.
         23    2    1    0    0    0  0.29815527031E+02  0.19718729064E+01  0.81197194543E+01  0.94125766134E+02  0.88886872323E+02 0.  0.
         13    1    3    3    0    0  0.30379655059E+02 -0.19394128271E+02  0.41200557888E+02  0.54740778102E+02  0.10566000000E+00 0. -1.
         22    1    1    0    0    0 -0.29815527031E+02 -0.19718729064E+01 -0.81197194543E+01  0.30964233866E+02  0.00000000000E+00 0. -1.
</event>
<event>
 5    1  0.1261010E-009  0.9118800E+02  0.7561462E-02  0.1125453E+00
         25   -1    0    0    0    0  0.00000000000E+00  0.00000000000E+00  0.99999998245E-14  0.12509000000E+03  0.12509000000E+03 0.  0.
        -13    1    3    3    0    0 -0.26783262899E+02 -0.45085188886E+02  0.61479122801E+01  0.52799861911E+02  0.10566000000E+00 0.  1.
         23    2    1    0    0    0 -0.25870782572E+02 -0.28102269220E+01  0.13585994695E+02  0.95734012227E+02  0.91122044968E+02 0.  0.
         13    1    3    3    0    0  0.91248032616E+00  0.42274961964E+02  0.74380824145E+01  0.42934150317E+02  0.10566000000E+00 0. -1.
         22    1    1    0    0    0  0.25870782572E+02  0.28102269220E+01 -0.13585994695E+02  0.29355987773E+02  0.00000000000E+00 0.  1.
</event>
<event>
 5    1  0.1261010E-009  0.9118800E+02  0.7561462E-02  0.1125453E+00
         25   -1    0    0    0    0  0.00000000000E+00  0.00000000000E+00  0.99999998245E-14  0.12509000000E+03  0.12509000000E+03 0.  0.
        -13    1    3    3    0    0  0.32876287365E+02 -0.10455077156E+02  0.51300423748E+02  0.61821546001E+02  0.10566000000E+00 0.  1.
         23    2    1    0    0    0  0.16237586511E+02  0.18288376965E+01  0.23245491066E+02  0.96675976738E+02  0.92406102398E+02 0.  0.
         13    1    3    3    0    0 -0.16638700854E+02  0.12283914852E+02 -0.28054932682E+02  0.34854430737E+02  0.10566000000E+00 0. -1.
         22    1    1    0    0    0 -0.16237586511E+02 -0.18288376965E+01 -0.23245491066E+02  0.28414023262E+02  0.00000000000E+00 0.  1.
</event>
<event>
 5    1  0.1261010E-009  0.9118800E+02  0.7561462E-02  0.1125453E+00
         25   -1    0    0    0    0  0.00000000000E+00  0.00000000000E+00  0.99999998245E-14  0.12509000000E+03  0.12509000000E+03 0.  0.
        -13    1    3    3    0    0 -0.90637055027E+00  0.48824961650E+02  0.11420815651E+02  0.50151217153E+02  0.10566000000E+00 0. -1.
         23    2    1    0    0    0 -0.15401191619E+02  0.17317742343E+02 -0.18090814034E+02  0.95689686132E+02  0.91061174913E+02 0.  0.
         13    1    3    3    0    0 -0.14494821068E+02 -0.31507219307E+02 -0.29511629685E+02  0.45538468979E+02  0.10566000000E+00 0.  1.
         22    1    1    0    0    0  0.15401191619E+02 -0.17317742343E+02  0.18090814034E+02  0.29400313868E+02  0.00000000000E+00 0.  1.
</event>
<event>
 5    1  0.1261010E-009  0.9118800E+02  0.7561462E-02  0.1125453E+00
         25   -1    0    0    0    0  0.00000000000E+00  0.00000000000E+00  0.99999998245E-14  0.12509000000E+03  0.12509000000E+03 0.  0.
        -13    1    3    3    0    0 -0.42134307262E+02 -0.13196163141E+02  0.32284027945E+02  0.54696509893E+02  0.10566000000E+00 0. -1.
         23    2    1    0    0    0 -0.12581216574E+02  0.14237825235E+02  0.21418394407E+02  0.96458718211E+02  0.92111530343E+02 0.  0.
         13    1    3    3    0    0  0.29553090688E+02  0.27433988376E+02 -0.10865633538E+02  0.41762208318E+02  0.10566000000E+00 0.  1.
         22    1    1    0    0    0  0.12581216574E+02 -0.14237825235E+02 -0.21418394407E+02  0.28631281789E+02  0.00000000000E+00 0. -1.
</event>
<event>
 5    1  0.1261010E-009  0.9118800E+02  0.7561462E-02  0.1125453E+00
         25   -1    0    0    0    0  0.00000000000E+00  0.00000000000E+00  0.99999998245E-14  0.12509000000E+03  0.12509000000E+03 0.  0.
        -13    1    3    3    0    0 -0.51228541365E+02  0.33308759118E+02 -0.18863011448E+01  0.61134328985E+02  0.10566000000E+00 0. -1.
         23    2    1    0    0    0 -0.25182802112E+02  0.12978803719E+02 -0.98046431710E+01  0.95110775596E+02  0.90262427059E+02 0.  0.
         13    1    3    3    0    0  0.26045739253E+02 -0.20329955400E+02 -0.79183420262E+01  0.33976446611E+02  0.10566000000E+00 0.  1.
         22    1    1    0    0    0  0.25182802112E+02 -0.12978803719E+02  0.98046431710E+01  0.29979224404E+02  0.00000000000E+00 0. -1.
</event>
<event>
 5    1  0.1261010E-009  0.9118800E+02  0.7561462E-02  0.1125453E+00
         25   -1    0    0    0    0  0.00000000000E+00  0.00000000000E+00  0.99999998245E-14  0.12509000000E+03  0.12509000000E+03 0.  0.
        -13    1    3    3    0    0 -0.14743265309E+02  0.51352540004E+02  0.27359894590E+02  0.60025179990E+02  0.10566000000E+00 0.  1.
         23    2    1    0    0    0 -0.90911738999E+01  0.28110130514E+02  0.11291342019E+01  0.95524753097E+02  0.90834325174E+02 0.  0.
         13    1    3    3    0    0  0.56520914093E+01 -0.23242409490E+02 -0.26230760388E+02  0.35499573107E+02  0.10566000000E+00 0. -1.
         22    1    1    0    0    0  0.90911738999E+01 -0.28110130514E+02 -0.11291342019E+01  0.29565246903E+02  0.00000000000E+00 0. -1.
</event>
<event>
 5    1  0.1261010E-009  0.9118800E+02  0.7561462E-02  0.1125453E+00
         25   -1    0    0    0    0  0.00000000000E+00  0.00000000000E+00  0.99999998245E-14  0.12509000000E+03  0.12509000000E+03 0.  0.
        -13    1    3    3    0    0  0.31744945857E-01  0.23807953060E+02 -0.48863894717E+02  0.54355413784E+02  0.10566000000E+00 0. -1.
         23    2    1    0    0    0  0.44236384425E+01 -0.10877107527E+02 -0.27144303295E+02  0.95514786617E+02  0.90820599073E+02 0.  0.
         13    1    3    3    0    0  0.43918934966E+01 -0.34685060588E+02  0.21719591422E+02  0.41159372833E+02  0.10566000000E+00 0.  1.
         22    1    1    0    0    0 -0.44236384425E+01  0.10877107527E+02  0.27144303295E+02  0.29575213383E+02  0.00000000000E+00 0.  1.
</event>
<event>
 5    1  0.1261010E-009  0.9118800E+02  0.7561462E-02  0.1125453E+00
         25   -1    0    0    0    0  0.00000000000E+00  0.00000000000E+00  0.99999998245E-14  0.12509000000E+03  0.12509000000E+03 0.  0.
        -13    1    3    3    0    0 -0.32126271642E+02 -0.51654299714E+02 -0.84503698419E+01  0.61414036856E+02  0.10566000000E+00 0.  1.
         23    2    1    0    0    0 -0.13512614277E+02 -0.23096597244E+02 -0.12148376265E+02  0.95702475526E+02  0.91078741906E+02 0.  0.
         13    1    3    3    0    0  0.18613657365E+02  0.28557702470E+02 -0.36980064231E+01  0.34288438670E+02  0.10566000000E+00 0. -1.
         22    1    1    0    0    0  0.13512614277E+02  0.23096597244E+02  0.12148376265E+02  0.29387524474E+02  0.00000000000E+00 0.  1.
</event>
<event>
 5    1  0.1261010E-009  0.9118800E+02  0.7561462E-02  0.1125453E+00
         25   -1    0    0    0    0  0.00000000000E+00  0.00000000000E+00  0.99999998245E-14  0.12509000000E+03  0.12509000000E+03 0.  0.
        -13    1    3    3    0    0 -0.23934076978E+02  0.40330626208E+02 -0.13168760451E+02  0.48711670746E+02  0.10566000000E+00 0. -1.
         23    2    1    0    0    0  0.16595367685E+02  0.24448535459E+02  0.35215723554E+01  0.95331999621E+02  0.90568491018E+02 0.  0.
         13    1    3    3    0    0  0.40529444662E+02 -0.15882090748E+02  0.16690332806E+02  0.46620328875E+02  0.10566000000E+00 0.  1.
         22    1    1    0    0    0 -0.16595367685E+02 -0.24448535459E+02 -0.35215723554E+01  0.29758000379E+02  0.00000000000E+00 0. -1.
</event>
<event>
 5    1  0.1261010E-009  0.9118800E+02  0.7561462E-02  0.1125453E+00
         25   -1    0    0    0    0  0.00000000000E+00  0.00000000000E+00  0.99999998245E-14  0.12509000000E+03  0.12509000000E+03 0.  0.
        -13    1    3    3    0    0  0.53927972535E+01 -0.26777672817E+02 -0.18179974601E+02  0.32812324883E+02  0.10566000000E+00 0.  1.
         23    2    1    0    0    0 -0.65153428214E+01  0.27747758021E+02  0.94155447783E+01  0.95072667494E+02  0.90209599565E+02 0.  0.
         13    1    3    3    0    0 -0.11908140075E+02  0.54525430839E+02  0.27595519379E+02  0.62260342611E+02  0.10566000000E+00 0. -1.
         22    1    1    0    0    0  0.65153428214E+01 -0.27747758021E+02 -0.94155447783E+01  0.30017332506E+02  0.00000000000E+00 0. -1.
</event>
<event>
 5    1  0.1261010E-009  0.9118800E+02  0.7561462E-02  0.1125453E+00
         25   -1    0    0    0    0  0.00000000000E+00  0.00000000000E+00  0.99999998245E-14  0.12509000000E+03  0.12509000000E+03 0.  0.
        -13    1    3    3    0    0 -0.25509165346E+02  0.37053519952E+02  0.33161104386E+02  0.55886947184E+02  0.10566000000E+00 0. -1.
         23    2    1    0    0    0 -0.25942462586E+02  0.23952981104E+01  0.15244601992E+02  0.94904793226E+02  0.89976513987E+02 0.  0.
         13    1    3    3    0    0 -0.43329723994E+00 -0.34658221841E+02 -0.17916502393E+02  0.39017846042E+02  0.10566000000E+00 0.  1.
         22    1    1    0    0    0  0.25942462586E+02 -0.23952981104E+01 -0.15244601992E+02  0.30185206774E+02  0.00000000000E+00 0. -1.
</event>
<event>
 5    1  0.1261010E-009  0.9118800E+02  0.7561462E-02  0.1125453E+00
         25   -1    0    0    0    0  0.00000000000E+00  0.00000000000E+00  0.99999998245E-14  0.12509000000E+03  0.12509000000E+03 0.  0.
        -13    1    3    3    0    0  0.25638304563E+02  0.38142080618E+02  0.30024049517E+02  0.54896226538E+02  0.10566000000E+00 0.  1.
         23    2    1    0    0    0  0.25645387802E+02  0.11557034574E+02 -0.24381173044E+01  0.96855351434E+02  0.92648603453E+02 0.  0.
         13    1    3    3    0    0  0.70832385354E-02 -0.26585046043E+02 -0.32462166821E+02  0.41959124896E+02  0.10566000000E+00 0. -1.
         22    1    1    0    0    0 -0.25645387802E+02 -0.11557034574E+02  0.24381173044E+01  0.28234648566E+02  0.00000000000E+00 0.  1.
</event>
<event>
 5    1  0.1261010E-009  0.9118800E+02  0.7561462E-02  0.1125453E+00
         25   -1    0    0    0    0  0.00000000000E+00  0.00000000000E+00  0.99999998245E-14  0.12509000000E+03  0.12509000000E+03 0.  0.
        -13    1    3    3    0    0 -0.43583606937E+02 -0.20123892443E+02 -0.26896535732E+02  0.55026690243E+02  0.10566000000E+00 0. -1.
         23    2    1    0    0    0 -0.12971030828E+02  0.65586472491E+01 -0.25594089333E+02  0.95656670198E+02  0.91015809891E+02 0.  0.
         13    1    3    3    0    0  0.30612576109E+02  0.26682539692E+02  0.13024463987E+01  0.40629979955E+02  0.10566000000E+00 0.  1.
         22    1    1    0    0    0  0.12971030828E+02 -0.65586472491E+01  0.25594089333E+02  0.29433329802E+02  0.00000000000E+00 0. -1.
</event>
<event>
 5    1  0.1261010E-009  0.9118800E+02  0.7561462E-02  0.1125453E+00
         25   -1    0    0    0    0  0.00000000000E+00  0.00000000000E+00  0.99999998245E-14  0.12509000000E+03  0.12509000000E+03 0.  0.
        -13    1    3    3    0    0 -0.47524416040E+02  0.32774897253E+02 -0.18084735470E+02  0.60496552223E+02  0.10566000000E+00 0.  1.
         23    2    1    0    0    0 -0.14473815021E+02  0.23532884841E+02 -0.95241823707E+01  0.95866755142E+02  0.91304089182E+02 0.  0.
         13    1    3    3    0    0  0.33050601019E+02 -0.92420124115E+01  0.85605530991E+01  0.35370202919E+02  0.10566000000E+00 0. -1.
         22    1    1    0    0    0  0.14473815021E+02 -0.23532884841E+02  0.95241823707E+01  0.29223244858E+02  0.00000000000E+00 0.  1.
</event>
<event>
 5    1  0.1261010E-009  0.9118800E+02  0.7561462E-02  0.1125453E+00
         25   -1    0    0    0    0  0.00000000000E+00  0.00000000000E+00  0.99999998245E-14  0.12509000000E+03  0.12509000000E+03 0.  0.
        -13    1    3    3    0    0  0.65549072606E+01 -0.13172426523E+02  0.32266054287E+02  0.35462502068E+02  0.10566000000E+00 0. -1.
         23    2    1    0    0    0 -0.13920875506E+02  0.13360118234E+02 -0.19839059642E+02  0.97415610729E+02  0.93401977453E+02 0.  0.
         13    1    3    3    0    0 -0.20475782767E+02  0.26532544757E+02 -0.52105113928E+02  0.61953108660E+02  0.10566000000E+00 0.  1.
         22    1    1    0    0    0  0.13920875506E+02 -0.13360118234E+02  0.19839059642E+02  0.27674389271E+02  0.00000000000E+00 0.  1.
</event>
<event>
 5    1  0.1261010E-009  0.9118800E+02  0.7561462E-02  0.1125453E+00
         25   -1    0    0    0    0  0.00000000000E+00  0.00000000000E+00  0.99999998245E-14  0.12509000000E+03  0.12509000000E+03 0.  0.
        -13    1    3    3    0    0 -0.12518783114E+01  0.37090195658E+02  0.15304899213E+01  0.37143012488E+02  0.10566000000E+00 0. -1.
         23    2    1    0    0    0 -0.23861362969E+02 -0.16837290812E+02 -0.26413020344E+01  0.95767048561E+02  0.91167385117E+02 0.  0.
         13    1    3    3    0    0 -0.22609484658E+02 -0.53927486470E+02 -0.41717919556E+01  0.58624036074E+02  0.10566000000E+00 0.  1.
         22    1    1    0    0    0  0.23861362969E+02  0.16837290812E+02  0.26413020344E+01  0.29322951439E+02  0.00000000000E+00 0.  1.
</event>
<event>
 5    1  0.1261010E-009  0.9118800E+02  0.7561462E-02  0.1125453E+00
         25   -1    0    0    0    0  0.00000000000E+00  0.00000000000E+00  0.99999998245E-14  0.12509000000E+03  0.12509000000E+03 0.  0.
        -13    1    3    3    0    0  0.80748586488E+01  0.60834460842E+02 -0.84009885550E+01  0.61940477402E+02  0.10566000000E+00 0. -1.
         23    2    1    0    0    0  0.93536735557E+01  0.26595307404E+02 -0.58400626536E+01  0.96299239040E+02  0.91894698013E+02 0.  0.
         13    1    3    3    0    0  0.12788149070E+01 -0.34239153438E+02  0.25609259014E+01  0.34358761637E+02  0.10566000000E+00 0.  1.
         22    1    1    0    0    0 -0.93536735557E+01 -0.26595307404E+02  0.58400626536E+01  0.28790760960E+02  0.00000000000E+00 0. -1.
</event>
<event>
 5    1  0.1261010E-009  0.9118800E+02  0.7561462E-02  0.1125453E+00
         25   -1    0    0    0    0  0.00000000000E+00  0.00000000000E+00  0.99999998245E-14  0.12509000000E+03  0.12509000000E+03 0.  0.
        -13    1    3    3    0    0  0.14491610435E+02 -0.33135695355E+02 -0.21361905252E+02  0.42003847915E+02  0.10566000000E+00 0. -1.
         23    2    1    0    0    0 -0.27996825304E+02 -0.30041959507E+01 -0.88601015211E+01  0.95571381818E+02  0.90898515957E+02 0.  0.
         13    1    3    3    0    0 -0.42488435739E+02  0.30131499404E+02  0.12501803731E+02  0.53567533903E+02  0.10566000000E+00 0.  1.
         22    1    1    0    0    0  0.27996825304E+02  0.30041959507E+01  0.88601015211E+01  0.29518618182E+02  0.00000000000E+00 0.  1.
</event>
<event>
 5    1  0.1261010E-009  0.9118800E+02  0.7561462E-02  0.1125453E+00
         25   -1    0    0    0    0  0.00000000000E+00  0.00000000000E+00  0.99999998245E-14  0.12509000000E+03  0.12509000000E+03 0.  0.
        -13    1    3    3    0    0 -0.26434337565E+02  0.13633847306E+02 -0.29888112693E+02  0.42165939326E+02  0.10566000000E+00 0.  1.
         23    2    1    0    0    0  0.20162310700E+02  0.19048649713E+02 -0.84402717816E+00  0.97339644858E+02  0.93300183550E+02 0.  0.
         13    1    3    3    0    0  0.46596648266E+02  0.54148024070E+01  0.29044085514E+02  0.55173705532E+02  0.10566000000E+00 0. -1.
         22    1    1    0    0    0 -0.20162310700E+02 -0.19048649713E+02  0.84402717816E+00  0.27750355142E+02  0.00000000000E+00 0. -1.
</event>
<event>
 5    1  0.1261010E-009  0.9118800E+02  0.7561462E-02  0.1125453E+00
         25   -1    0    0    0    0  0.00000000000E+00  0.00000000000E+00  0.99999998245E-14  0.12509000000E+03  0.12509000000E+03 0.  0.
        -13    1    3    3    0    0 -0.13681898246E+02 -0.39331402714E+02 -0.34241443595E+01  0.41783842663E+02  0.10566000000E+00 0. -1.
         23    2    1    0    0    0  0.12401318627E+02 -0.23910694047E+01  0.26310748766E+02  0.95904979575E+02  0.91356443068E+02 0.  0.
         13    1    3    3    0    0  0.26083216873E+02  0.36940333309E+02  0.29734893125E+02  0.54121136912E+02  0.10566000000E+00 0.  1.
         22    1    1    0    0    0 -0.12401318627E+02  0.23910694047E+01 -0.26310748766E+02  0.29185020425E+02  0.00000000000E+00 0.  1.
</event>
<event>
 5    1  0.1261010E-009  0.9118800E+02  0.7561462E-02  0.1125453E+00
         25   -1    0    0    0    0  0.00000000000E+00  0.00000000000E+00  0.99999998245E-14  0.12509000000E+03  0.12509000000E+03 0.  0.
        -13    1    3    3    0    0 -0.31630237131E+01 -0.22147207603E+02 -0.24225376933E+02  0.32975499620E+02  0.10566000000E+00 0. -1.
         23    2    1    0    0    0  0.12132793652E+01  0.27099699873E+02  0.13140223026E+02  0.94948148013E+02  0.90036767878E+02 0.  0.
         13    1    3    3    0    0  0.43763030783E+01  0.49246907476E+02  0.37365599959E+02  0.61972648393E+02  0.10566000000E+00 0.  1.
         22    1    1    0    0    0 -0.12132793652E+01 -0.27099699873E+02 -0.13140223026E+02  0.30141851987E+02  0.00000000000E+00 0.  1.
</event>
<event>
 5    1  0.1261010E-009  0.9118800E+02  0.7561462E-02  0.1125453E+00
         25   -1    0    0    0    0  0.00000000000E+00  0.00000000000E+00  0.99999998245E-14  0.12509000000E+03  0.12509000000E+03 0.  0.
        -13    1    3    3    0    0  0.33755023276E+02 -0.16635008910E+02  0.62039548863E+01  0.38139550837E+02  0.10566000000E+00 0. -1.
         23    2    1    0    0    0 -0.19723520020E+02 -0.25259425924E+02 -0.22434433856E+01  0.92963859893E+02  0.87236405061E+02 0.  0.
         13    1    3    3    0    0 -0.53478543296E+02 -0.86244170138E+01 -0.84473982719E+01  0.54824309056E+02  0.10566000000E+00 0.  1.
         22    1    1    0    0    0  0.19723520020E+02  0.25259425924E+02  0.22434433856E+01  0.32126140107E+02  0.00000000000E+00 0.  1.
</event>
<event>
 5    1  0.1261010E-009  0.9118800E+02  0.7561462E-02  0.1125453E+00
         25   -1    0    0    0    0  0.00000000000E+00  0.00000000000E+00  0.99999998245E-14  0.12509000000E+03  0.12509000000E+03 0.  0.
        -13    1    3    3    0    0  0.24969805401E+02  0.23412597745E+02 -0.25361858910E+02  0.42601361085E+02  0.10566000000E+00 0.  1.
         23    2    1    0    0    0 -0.16939120960E+02 -0.12085485270E+02 -0.17130585229E+02  0.98137268721E+02  0.94363519374E+02 0.  0.
         13    1    3    3    0    0 -0.41908926361E+02 -0.35498083015E+02  0.82312736806E+01  0.55535907635E+02  0.10566000000E+00 0. -1.
         22    1    1    0    0    0  0.16939120960E+02  0.12085485270E+02  0.17130585229E+02  0.26952731279E+02  0.00000000000E+00 0. -1.
</event>
<event>
 5    1  0.1261010E-009  0.9118800E+02  0.7561462E-02  0.1125453E+00
         25   -1    0    0    0    0  0.00000000000E+00  0.00000000000E+00  0.99999998245E-14  0.12509000000E+03  0.12509000000E+03 0.  0.
        -13    1    3    3    0    0 -0.37706032297E+02  0.11709350716E+02 -0.14504520070E+02  0.42062406401E+02  0.10566000000E+00 0.  1.
         23    2    1    0    0    0 -0.67625276872E+01 -0.26162474167E+02  0.93759962419E+01  0.96487270396E+02  0.92150296840E+02 0.  0.
         13    1    3    3    0    0  0.30943504610E+02 -0.37871824883E+02  0.23880516312E+02  0.54424863995E+02  0.10566000000E+00 0. -1.
         22    1    1    0    0    0  0.67625276872E+01  0.26162474167E+02 -0.93759962419E+01  0.28602729604E+02  0.00000000000E+00 0. -1.
</event>
<event>
 5    1  0.1261010E-009  0.9118800E+02  0.7561462E-02  0.1125453E+00
         25   -1    0    0    0    0  0.00000000000E+00  0.00000000000E+00  0.99999998245E-14  0.12509000000E+03  0.12509000000E+03 0.  0.
        -13    1    3    3    0    0  0.52761314825E+02 -0.29929023151E+01 -0.27181962159E+02  0.59427132163E+02  0.10566000000E+00 0.  1.
         23    2    1    0    0    0  0.28005389901E+02 -0.87047453697E+01 -0.12417959765E+01  0.95736695030E+02  0.91125727775E+02 0.  0.
         13    1    3    3    0    0 -0.24755924924E+02 -0.57118430546E+01  0.25940166182E+02  0.36309562866E+02  0.10566000000E+00 0. -1.
         22    1    1    0    0    0 -0.28005389901E+02  0.87047453697E+01  0.12417959765E+01  0.29353304970E+02  0.00000000000E+00 0.  1.
</event>
<event>
 5    1  0.1261010E-009  0.9118800E+02  0.7561462E-02  0.1125453E+00
         25   -1    0    0    0    0  0.00000000000E+00  0.00000000000E+00  0.99999998245E-14  0.12509000000E+03  0.12509000000E+03 0.  0.
        -13    1    3    3    0    0 -0.39697633760E+02  0.52385484640E+01 -0.43376006728E+02  0.59032479534E+02  0.10566000000E+00 0. -1.
         23    2    1    0    0    0 -0.18369143393E+02  0.16576516434E+02 -0.15611244917E+02  0.95833935775E+02  0.91259114351E+02 0.  0.
         13    1    3    3    0    0  0.21328490367E+02  0.11337967969E+02  0.27764761811E+02  0.36801456241E+02  0.10566000000E+00 0.  1.
         22    1    1    0    0    0  0.18369143393E+02 -0.16576516434E+02  0.15611244917E+02  0.29256064225E+02  0.00000000000E+00 0. -1.
</event>
<event>
 5    1  0.1261010E-009  0.9118800E+02  0.7561462E-02  0.1125453E+00
         25   -1    0    0    0    0  0.00000000000E+00  0.00000000000E+00  0.99999998245E-14  0.12509000000E+03  0.12509000000E+03 0.  0.
        -13    1    3    3    0    0  0.15029815398E+02 -0.51048815518E+02  0.10845847399E+02  0.54309487998E+02  0.10566000000E+00 0.  1.
         23    2    1    0    0    0 -0.25778089546E+01 -0.23994463036E+02 -0.15866732561E+02  0.96208646888E+02  0.91771298228E+02 0.  0.
         13    1    3    3    0    0 -0.17607624353E+02  0.27054352482E+02 -0.26712579960E+02  0.41899158890E+02  0.10566000000E+00 0. -1.
         22    1    1    0    0    0  0.25778089546E+01  0.23994463036E+02  0.15866732561E+02  0.28881353112E+02  0.00000000000E+00 0. -1.
</event>
<event>
 5    1  0.1261010E-009  0.9118800E+02  0.7561462E-02  0.1125453E+00
         25   -1    0    0    0    0  0.00000000000E+00  0.00000000000E+00  0.99999998245E-14  0.12509000000E+03  0.12509000000E+03 0.  0.
        -13    1    3    3    0    0  0.65679220832E+01 -0.33863589452E+02 -0.45317350769E+02  0.56952205715E+02  0.10566000000E+00 0. -1.
         23    2    1    0    0    0 -0.15014821992E+02 -0.81050367240E+01 -0.18281463722E+02  0.10008303266E+03  0.96908539411E+02 0.  0.
         13    1    3    3    0    0 -0.21582744075E+02  0.25758552728E+02  0.27035887047E+02  0.43130826944E+02  0.10566000000E+00 0.  1.
         22    1    1    0    0    0  0.15014821992E+02  0.81050367240E+01  0.18281463722E+02  0.25006967340E+02  0.00000000000E+00 0. -1.
</event>
<event>
 5    1  0.1261010E-009  0.9118800E+02  0.7561462E-02  0.1125453E+00
         25   -1    0    0    0    0  0.00000000000E+00  0.00000000000E+00  0.99999998245E-14  0.12509000000E+03  0.12509000000E+03 0.  0.
        -13    1    3    3    0    0 -0.11482631549E+02  0.36942317496E+02 -0.12068863705E+02  0.40524736698E+02  0.10566000000E+00 0. -1.
         23    2    1    0    0    0  0.22789573760E+02  0.67407409598E+01  0.18055136713E+02  0.95243890997E+02  0.90446716633E+02 0.  0.
         13    1    3    3    0    0  0.34272205310E+02 -0.30201576536E+02  0.30124000418E+02  0.54719154300E+02  0.10566000000E+00 0.  1.
         22    1    1    0    0    0 -0.22789573760E+02 -0.67407409598E+01 -0.18055136713E+02  0.29846109003E+02  0.00000000000E+00 0.  1.
</event>
<event>
 5    1  0.1261010E-009  0.9118800E+02  0.7561462E-02  0.1125453E+00
         25   -1    0    0    0    0  0.00000000000E+00  0.00000000000E+00  0.99999998245E-14  0.12509000000E+03  0.12509000000E+03 0.  0.
        -13    1    3    3    0    0 -0.10253281277E+01  0.34105999581E+01 -0.32845416792E+02  0.33038100098E+02  0.10566000000E+00 0.  1.
         23    2    1    0    0    0 -0.17382771913E+02 -0.93471088834E+01  0.24272284525E+02  0.93806250226E+02  0.88436076244E+02 0.  0.
         13    1    3    3    0    0 -0.16357443785E+02 -0.12757708841E+02  0.57117701317E+02  0.60768150127E+02  0.10566000000E+00 0. -1.
         22    1    1    0    0    0  0.17382771913E+02  0.93471088834E+01 -0.24272284525E+02  0.31283749774E+02  0.00000000000E+00 0. -1.
</event>
<event>
 5    1  0.1261010E-009  0.9118800E+02  0.7561462E-02  0.1125453E+00
         25   -1    0    0    0    0  0.00000000000E+00  0.00000000000E+00  0.99999998245E-14  0.12509000000E+03  0.12509000000E+03 0.  0.
        -13    1    3    3    0    0  0.20979164567E+02 -0.36379131807E+02 -0.38530039500E+02  0.56992470422E+02  0.10566000000E+00 0.  1.
         23    2    1    0    0    0  0.61419883857E+01 -0.20787052038E+01 -0.28742807238E+02  0.95624867986E+02  0.90972091176E+02 0.  0.
         13    1    3    3    0    0 -0.14837176181E+02  0.34300426603E+02  0.97872322621E+01  0.38632397564E+02  0.10566000000E+00 0. -1.
         22    1    1    0    0    0 -0.61419883857E+01  0.20787052038E+01  0.28742807238E+02  0.29465132014E+02  0.00000000000E+00 0.  1.
</event>
<event>
 5    1  0.1261010E-009  0.9118800E+02  0.7561462E-02  0.1125453E+00
         25   -1    0    0    0    0  0.00000000000E+00  0.00000000000E+00  0.99999998245E-14  0.12509000000E+03  0.12509000000E+03 0.  0.
        -13    1    3    3    0    0 -0.16228108633E+02 -0.39650616169E+02  0.40348251533E+02  0.58851639214E+02  0.10566000000E+00 0.  1.
         23    2    1    0    0    0  0.73832197239E+01 -0.21108828720E+02  0.19688802627E+02  0.95294974706E+02  0.90517339067E+02 0.  0.
         13    1    3    3    0    0  0.23611328357E+02  0.18541787449E+02 -0.20659448906E+02  0.36443335491E+02  0.10566000000E+00 0. -1.
         22    1    1    0    0    0 -0.73832197239E+01  0.21108828720E+02 -0.19688802627E+02  0.29795025294E+02  0.00000000000E+00 0.  1.
</event>
<event>
 5    1  0.1261010E-009  0.9118800E+02  0.7561462E-02  0.1125453E+00
         25   -1    0    0    0    0  0.00000000000E+00  0.00000000000E+00  0.99999998245E-14  0.12509000000E+03  0.12509000000E+03 0.  0.
        -13    1    3    3    0    0 -0.40061030877E+02  0.32629765046E+02  0.12897671301E+02  0.53253627584E+02  0.10566000000E+00 0. -1.
         23    2    1    0    0    0 -0.24181424315E+02 -0.68966348030E+01  0.14834455777E+02  0.95894693327E+02  0.91342357516E+02 0.  0.
         13    1    3    3    0    0  0.15879606562E+02 -0.39526399849E+02  0.19367844769E+01  0.42641065743E+02  0.10566000000E+00 0.  1.
         22    1    1    0    0    0  0.24181424315E+02  0.68966348030E+01 -0.14834455777E+02  0.29195306673E+02  0.00000000000E+00 0. -1.
</event>
<event>
 5    1  0.1261010E-009  0.9118800E+02  0.7561462E-02  0.1125453E+00
         25   -1    0    0    0    0  0.00000000000E+00  0.00000000000E+00  0.99999998245E-14  0.12509000000E+03  0.12509000000E+03 0.  0.
        -13    1    3    3    0    0 -0.13812799657E+02 -0.34199173343E+01  0.33619889468E+02  0.36507497871E+02  0.10566000000E+00 0.  1.
         23    2    1    0    0    0  0.13785732134E+01  0.26337775990E+02 -0.14426009315E+02  0.95028585314E+02  0.90148451866E+02 0.  0.
         13    1    3    3    0    0  0.15191372870E+02  0.29757693324E+02 -0.48045898782E+02  0.58521087443E+02  0.10566000000E+00 0. -1.
         22    1    1    0    0    0 -0.13785732134E+01 -0.26337775990E+02  0.14426009315E+02  0.30061414686E+02  0.00000000000E+00 0. -1.
</event>
<event>
 5    1  0.1261010E-009  0.9118800E+02  0.7561462E-02  0.1125453E+00
         25   -1    0    0    0    0  0.00000000000E+00  0.00000000000E+00  0.99999998245E-14  0.12509000000E+03  0.12509000000E+03 0.  0.
        -13    1    3    3    0    0  0.29887524468E+02 -0.10780204602E+02 -0.11068256884E+02  0.33645124529E+02  0.10566000000E+00 0. -1.
         23    2    1    0    0    0 -0.15186135553E+02  0.23472085621E+02  0.11857979558E+02  0.94722761145E+02  0.89723086680E+02 0.  0.
         13    1    3    3    0    0 -0.45073660021E+02  0.34252290223E+02  0.22926236443E+02  0.61077636617E+02  0.10566000000E+00 0.  1.
         22    1    1    0    0    0  0.15186135553E+02 -0.23472085621E+02 -0.11857979558E+02  0.30367238855E+02  0.00000000000E+00 0.  1.
</event>
<event>
 5    1  0.1261010E-009  0.9118800E+02  0.7561462E-02  0.1125453E+00
         25   -1    0    0    0    0  0.00000000000E+00  0.00000000000E+00  0.99999998245E-14  0.12509000000E+03  0.12509000000E+03 0.  0.
        -13    1    3    3    0    0 -0.35826404240E+01  0.47343361948E+02  0.12895912062E+02  0.49199033984E+02  0.10566000000E+00 0.  1.
         23    2    1    0    0    0 -0.47195552788E+01  0.75150629412E+01  0.30913425239E+02  0.92928062355E+02  0.87185059156E+02 0.  0.
         13    1    3    3    0    0 -0.11369148548E+01 -0.39828299007E+02  0.18017513177E+02  0.43729028371E+02  0.10566000000E+00 0. -1.
         22    1    1    0    0    0  0.47195552788E+01 -0.75150629412E+01 -0.30913425239E+02  0.32161937645E+02  0.00000000000E+00 0.  1.
</event>
<event>
 5    1  0.1261010E-009  0.9118800E+02  0.7561462E-02  0.1125453E+00
         25   -1    0    0    0    0  0.00000000000E+00  0.00000000000E+00  0.99999998245E-14  0.12509000000E+03  0.12509000000E+03 0.  0.
        -13    1    3    3    0    0 -0.21867053222E+02 -0.99272331070E+01  0.28484313132E+02  0.37257015882E+02  0.10566000000E+00 0.  1.
         23    2    1    0    0    0  0.27730659641E+02 -0.64868909976E+01 -0.35343609143E+01  0.96392248415E+02  0.92021218252E+02 0.  0.
         13    1    3    3    0    0  0.49597712863E+02  0.34403421094E+01 -0.32018674047E+02  0.59135232533E+02  0.10566000000E+00 0. -1.
         22    1    1    0    0    0 -0.27730659641E+02  0.64868909976E+01  0.35343609143E+01  0.28697751585E+02  0.00000000000E+00 0. -1.
</event>
<event>
 5    1  0.1261010E-009  0.9118800E+02  0.7561462E-02  0.1125453E+00
         25   -1    0    0    0    0  0.00000000000E+00  0.00000000000E+00  0.99999998245E-14  0.12509000000E+03  0.12509000000E+03 0.  0.
        -13    1    3    3    0    0 -0.27313858160E+02  0.17114577274E+02  0.50938743155E+02  0.60280364308E+02  0.10566000000E+00 0. -1.
         23    2    1    0    0    0 -0.15919966713E+01  0.94866670754E+01  0.27674341489E+02  0.95791527643E+02  0.91200966474E+02 0.  0.
         13    1    3    3    0    0  0.25721861489E+02 -0.76279101985E+01 -0.23264401667E+02  0.35511163335E+02  0.10566000000E+00 0.  1.
         22    1    1    0    0    0  0.15919966713E+01 -0.94866670754E+01 -0.27674341489E+02  0.29298472357E+02  0.00000000000E+00 0. -1.
</event>
<event>
 5    1  0.1261010E-009  0.9118800E+02  0.7561462E-02  0.1125453E+00
         25   -1    0    0    0    0  0.00000000000E+00  0.00000000000E+00  0.99999998245E-14  0.12509000000E+03  0.12509000000E+03 0.  0.
        -13    1    3    3    0    0  0.42266274170E+02  0.20569210617E+02 -0.39236382361E+02  0.61229365687E+02  0.10566000000E+00 0.  1.
         23    2    1    0    0    0  0.18447209428E+02  0.20230094228E+01 -0.23097989009E+02  0.95460467451E+02  0.90745752776E+02 0.  0.
         13    1    3    3    0    0 -0.23819064742E+02 -0.18546201195E+02  0.16138393352E+02  0.34231101764E+02  0.10566000000E+00 0. -1.
         22    1    1    0    0    0 -0.18447209428E+02 -0.20230094228E+01  0.23097989009E+02  0.29629532549E+02  0.00000000000E+00 0.  1.
</event>
<event>
 5    1  0.1261010E-009  0.9118800E+02  0.7561462E-02  0.1125453E+00
         25   -1    0    0    0    0  0.00000000000E+00  0.00000000000E+00  0.99999998245E-14  0.12509000000E+03  0.12509000000E+03 0.  0.
        -13    1    3    3    0    0 -0.15346913754E+02 -0.36838116374E+02 -0.45767731514E+01  0.40168801281E+02  0.10566000000E+00 0. -1.
         23    2    1    0    0    0  0.17197417680E+02  0.35015383756E+01 -0.23860067870E+02  0.95470499926E+02  0.90759581156E+02 0.  0.
         13    1    3    3    0    0  0.32544331434E+02  0.40339654750E+02 -0.19283294719E+02  0.55301698646E+02  0.10566000000E+00 0.  1.
         22    1    1    0    0    0 -0.17197417680E+02 -0.35015383756E+01  0.23860067870E+02  0.29619500074E+02  0.00000000000E+00 0.  1.
</event>
<event>
 5    1  0.1261010E-009  0.9118800E+02  0.7561462E-02  0.1125453E+00
         25   -1    0    0    0    0  0.00000000000E+00  0.00000000000E+00  0.99999998245E-14  0.12509000000E+03  0.12509000000E+03 0.  0.
        -13    1    3    3    0    0  0.37973137230E+02 -0.31151603737E+02 -0.18392176348E+02  0.52446781419E+02  0.10566000000E+00 0.  1.
         23    2    1    0    0    0  0.25863341819E+02  0.94816789674E+01 -0.10699047079E+02  0.95538616031E+02  0.90853414127E+02 0.  0.
         13    1    3    3    0    0 -0.12109795410E+02  0.40633282704E+02  0.76931292684E+01  0.43091834611E+02  0.10566000000E+00 0. -1.
         22    1    1    0    0    0 -0.25863341819E+02 -0.94816789674E+01  0.10699047079E+02  0.29551383969E+02  0.00000000000E+00 0. -1.
</event>
<event>
 5    1  0.1261010E-009  0.9118800E+02  0.7561462E-02  0.1125453E+00
         25   -1    0    0    0    0  0.00000000000E+00  0.00000000000E+00  0.99999998245E-14  0.12509000000E+03  0.12509000000E+03 0.  0.
        -13    1    3    3    0    0  0.12201630053E+02 -0.16531862732E+02 -0.58066130442E+02  0.61594390409E+02  0.10566000000E+00 0.  1.
         23    2    1    0    0    0  0.11888564799E+02 -0.11515063740E+02 -0.24572399286E+02  0.95463365487E+02  0.90749747534E+02 0.  0.
         13    1    3    3    0    0 -0.31306525392E+00  0.50167989922E+01  0.33493731156E+02  0.33868975078E+02  0.10566000000E+00 0. -1.
         22    1    1    0    0    0 -0.11888564799E+02  0.11515063740E+02  0.24572399286E+02  0.29626634513E+02  0.00000000000E+00 0.  1.
</event>
<event>
 5    1  0.1261010E-009  0.9118800E+02  0.7561462E-02  0.1125453E+00
         25   -1    0    0    0    0  0.00000000000E+00  0.00000000000E+00  0.99999998245E-14  0.12509000000E+03  0.12509000000E+03 0.  0.
        -13    1    3    3    0    0 -0.49076005596E+02  0.18976732726E+02 -0.21168830664E+02  0.56715970114E+02  0.10566000000E+00 0.  1.
         23    2    1    0    0    0 -0.21559931285E+02 -0.79145283600E+01 -0.19053661169E+02  0.95248545609E+02  0.90453153845E+02 0.  0.
         13    1    3    3    0    0  0.27516074311E+02 -0.26891261086E+02  0.21151694945E+01  0.38532575496E+02  0.10566000000E+00 0. -1.
         22    1    1    0    0    0  0.21559931285E+02  0.79145283600E+01  0.19053661169E+02  0.29841454391E+02  0.00000000000E+00 0.  1.
</event>
<event>
 5    1  0.1261010E-009  0.9118800E+02  0.7561462E-02  0.1125453E+00
         25   -1    0    0    0    0  0.00000000000E+00  0.00000000000E+00  0.99999998245E-14  0.12509000000E+03  0.12509000000E+03 0.  0.
        -13    1    3    3    0    0 -0.41575233486E+02  0.44769141526E+02 -0.55262320417E+01  0.61345957300E+02  0.10566000000E+00 0.  1.
         23    2    1    0    0    0 -0.24495474084E+02  0.14454853215E+02 -0.53913257777E+01  0.96141123930E+02  0.91679214028E+02 0.  0.
         13    1    3    3    0    0  0.17079759402E+02 -0.30314288311E+02  0.13490626399E+00  0.34795166630E+02  0.10566000000E+00 0. -1.
         22    1    1    0    0    0  0.24495474084E+02 -0.14454853215E+02  0.53913257777E+01  0.28948876070E+02  0.00000000000E+00 0.  1.
</event>
<event>
 5    1  0.1261010E-009  0.9118800E+02  0.7561462E-02  0.1125453E+00
         25   -1    0    0    0    0  0.00000000000E+00  0.00000000000E+00  0.99999998245E-14  0.12509000000E+03  0.12509000000E+03 0.  0.
        -13    1    3    3    0    0 -0.19502951222E+02 -0.13138199838E+02 -0.21102896420E+02  0.31596215006E+02  0.10566000000E+00 0.  1.
         23    2    1    0    0    0  0.18631646209E+02 -0.94825380439E+01  0.25623837402E+02  0.92019804787E+02  0.85872036552E+02 0.  0.
         13    1    3    3    0    0  0.38134597431E+02  0.36556617945E+01  0.46726733822E+02  0.60423589781E+02  0.10566000000E+00 0. -1.
         22    1    1    0    0    0 -0.18631646209E+02  0.94825380439E+01 -0.25623837402E+02  0.33070195213E+02  0.00000000000E+00 0. -1.
</event>
<event>
 5    1  0.1261010E-009  0.9118800E+02  0.7561462E-02  0.1125453E+00
         25   -1    0    0    0    0  0.00000000000E+00  0.00000000000E+00  0.99999998245E-14  0.12509000000E+03  0.12509000000E+03 0.  0.
        -13    1    3    3    0    0  0.12861495307E+01  0.27790486352E+02 -0.22455244957E+02  0.35752125844E+02  0.10566000000E+00 0. -1.
         23    2    1    0    0    0  0.95682392256E+00 -0.11885116716E+01  0.29663887883E+02  0.95386897193E+02  0.90644281892E+02 0.  0.
         13    1    3    3    0    0 -0.32932560816E+00 -0.28978998023E+02  0.52119132840E+02  0.59634771349E+02  0.10566000000E+00 0.  1.
         22    1    1    0    0    0 -0.95682392256E+00  0.11885116716E+01 -0.29663887883E+02  0.29703102807E+02  0.00000000000E+00 0.  1.
</event>
<event>
 5    1  0.1261010E-009  0.9118800E+02  0.7561462E-02  0.1125453E+00
         25   -1    0    0    0    0  0.00000000000E+00  0.00000000000E+00  0.99999998245E-14  0.12509000000E+03  0.12509000000E+03 0.  0.
        -13    1    3    3    0    0 -0.93948885481E+01  0.50745443644E+02 -0.14442488019E+02  0.53590676481E+02  0.10566000000E+00 0.  1.
         23    2    1    0    0    0  0.10320015956E+02  0.24194425299E+02  0.12235297331E+02  0.96080080219E+02  0.91595886203E+02 0.  0.
         13    1    3    3    0    0  0.19714904504E+02 -0.26551018345E+02  0.26677785350E+02  0.42489403738E+02  0.10566000000E+00 0. -1.
         22    1    1    0    0    0 -0.10320015956E+02 -0.24194425299E+02 -0.12235297331E+02  0.29009919781E+02  0.00000000000E+00 0.  1.
</event>
<event>
 4    1  0.1261010E-009  0.9118800E+02  0.7561462E-02  0.1125453E+00
         25   -1    0    0    0    0  0.00000000000E+00  0.00000000000E+00  0.99999998245E-14  0.12509000000E+03  0.12509000000E+03 0.  0.
        -13    1    1    0    0    0  0.33696011577E+02  0.68422120268E+01  0.95630776419E+01  0.35688943380E+02  0.10566000000E+00 0.  1.
         13    1    1    0    0    0 -0.88240456223E+01  0.11264214096E+02  0.33528581809E+02  0.36454399769E+02  0.10566000000E+00 0. -1.
         22    1    1    0    0    0 -0.24871965954E+02 -0.18106426123E+02 -0.43091659451E+02  0.52946656850E+02  0.00000000000E+00 0. -1.
</event>
<event>
 5    1  0.1261010E-009  0.9118800E+02  0.7561462E-02  0.1125453E+00
         25   -1    0    0    0    0  0.00000000000E+00  0.00000000000E+00  0.99999998245E-14  0.12509000000E+03  0.12509000000E+03 0.  0.
        -13    1    3    3    0    0 -0.31226964016E+02 -0.33935083399E+02  0.69665767887E+01  0.46639656122E+02  0.10566000000E+00 0.  1.
         23    2    1    0    0    0 -0.25382988041E+02  0.13421597045E+02 -0.52646150645E+01  0.95898365566E+02  0.91347386374E+02 0.  0.
         13    1    3    3    0    0  0.58439759750E+01  0.47356680444E+02 -0.12231191853E+02  0.49258709444E+02  0.10566000000E+00 0. -1.
         22    1    1    0    0    0  0.25382988041E+02 -0.13421597045E+02  0.52646150645E+01  0.29191634434E+02  0.00000000000E+00 0. -1.
</event>
<event>
 5    1  0.1261010E-009  0.9118800E+02  0.7561462E-02  0.1125453E+00
         25   -1    0    0    0    0  0.00000000000E+00  0.00000000000E+00  0.99999998245E-14  0.12509000000E+03  0.12509000000E+03 0.  0.
        -13    1    3    3    0    0  0.76624642246E+01 -0.34483973734E+02  0.47447757222E+02  0.59153686546E+02  0.10566000000E+00 0. -1.
         23    2    1    0    0    0  0.16359797188E+02 -0.18361886560E+02  0.15382690571E+02  0.96082604197E+02  0.91599333065E+02 0.  0.
         13    1    3    3    0    0  0.86973329634E+01  0.16122087174E+02 -0.32065066651E+02  0.36928917651E+02  0.10566000000E+00 0.  1.
         22    1    1    0    0    0 -0.16359797188E+02  0.18361886560E+02 -0.15382690571E+02  0.29007395803E+02  0.00000000000E+00 0. -1.
</event>
<event>
 5    1  0.1261010E-009  0.9118800E+02  0.7561462E-02  0.1125453E+00
         25   -1    0    0    0    0  0.00000000000E+00  0.00000000000E+00  0.99999998245E-14  0.12509000000E+03  0.12509000000E+03 0.  0.
        -13    1    3    3    0    0  0.14210324983E+02  0.15841147752E+02 -0.46850880109E+02  0.51457666379E+02  0.10566000000E+00 0. -1.
         23    2    1    0    0    0  0.32359084244E+00  0.29533229204E+02 -0.87062414180E+01  0.94298524266E+02  0.89129662295E+02 0.  0.
         13    1    3    3    0    0 -0.13886734140E+02  0.13692081452E+02  0.38144638691E+02  0.42840857887E+02  0.10566000000E+00 0.  1.
         22    1    1    0    0    0 -0.32359084244E+00 -0.29533229204E+02  0.87062414180E+01  0.30791475734E+02  0.00000000000E+00 0. -1.
</event>
<event>
 5    1  0.1261010E-009  0.9118800E+02  0.7561462E-02  0.1125453E+00
         25   -1    0    0    0    0  0.00000000000E+00  0.00000000000E+00  0.99999998245E-14  0.12509000000E+03  0.12509000000E+03 0.  0.
        -13    1    3    3    0    0  0.13909299383E+02  0.45792909862E+01  0.32482768196E+02  0.35631164855E+02  0.10566000000E+00 0.  1.
         23    2    1    0    0    0 -0.29688119035E+02 -0.23590277296E+01 -0.65931863788E+01  0.94587220941E+02  0.89533920026E+02 0.  0.
         13    1    3    3    0    0 -0.43597418418E+02 -0.69383187158E+01 -0.39075954574E+02  0.58956056086E+02  0.10566000000E+00 0. -1.
         22    1    1    0    0    0  0.29688119035E+02  0.23590277296E+01  0.65931863788E+01  0.30502779059E+02  0.00000000000E+00 0. -1.
</event>
<event>
 5    1  0.1261010E-009  0.9118800E+02  0.7561462E-02  0.1125453E+00
         25   -1    0    0    0    0  0.00000000000E+00  0.00000000000E+00  0.99999998245E-14  0.12509000000E+03  0.12509000000E+03 0.  0.
        -13    1    3    3    0    0 -0.32743931736E+02 -0.38510765731E+01 -0.77339326505E+01  0.33864741762E+02  0.10566000000E+00 0.  1.
         23    2    1    0    0    0  0.28797120087E+02 -0.52585384929E+01 -0.86637073923E+00  0.95803877849E+02  0.91217904274E+02 0.  0.
         13    1    3    3    0    0  0.61541051823E+02 -0.14074619198E+01  0.68675619113E+01  0.61939136087E+02  0.10566000000E+00 0. -1.
         22    1    1    0    0    0 -0.28797120087E+02  0.52585384929E+01  0.86637073923E+00  0.29286122151E+02  0.00000000000E+00 0. -1.
</event>
<event>
 5    1  0.1261010E-009  0.9118800E+02  0.7561462E-02  0.1125453E+00
         25   -1    0    0    0    0  0.00000000000E+00  0.00000000000E+00  0.99999998245E-14  0.12509000000E+03  0.12509000000E+03 0.  0.
        -13    1    3    3    0    0  0.28747047846E+02 -0.19201625099E+02  0.78516635026E+01  0.35450739768E+02  0.10566000000E+00 0. -1.
         23    2    1    0    0    0 -0.26071217722E+02  0.62577605448E+01 -0.63452934662E+01  0.97537673244E+02  0.93565308700E+02 0.  0.
         13    1    3    3    0    0 -0.54818265567E+02  0.25459385644E+02 -0.14196956969E+02  0.62086933476E+02  0.10566000000E+00 0.  1.
         22    1    1    0    0    0  0.26071217722E+02 -0.62577605448E+01  0.63452934662E+01  0.27552326756E+02  0.00000000000E+00 0.  1.
</event>
<event>
 5    1  0.1261010E-009  0.9118800E+02  0.7561462E-02  0.1125453E+00
         25   -1    0    0    0    0  0.00000000000E+00  0.00000000000E+00  0.99999998245E-14  0.12509000000E+03  0.12509000000E+03 0.  0.
        -13    1    3    3    0    0  0.12119307597E+02  0.44244950934E+02 -0.16297899566E+02  0.48683939796E+02  0.10566000000E+00 0.  1.
         23    2    1    0    0    0  0.16606635089E+02  0.20373972695E+02  0.19792571830E+02  0.92186732807E+02  0.86114857682E+02 0.  0.
         13    1    3    3    0    0  0.44873274920E+01 -0.23870978239E+02  0.36090471396E+02  0.43502793011E+02  0.10566000000E+00 0. -1.
         22    1    1    0    0    0 -0.16606635089E+02 -0.20373972695E+02 -0.19792571830E+02  0.32903267193E+02  0.00000000000E+00 0.  1.
</event>
<event>
 5    1  0.1261010E-009  0.9118800E+02  0.7561462E-02  0.1125453E+00
         25   -1    0    0    0    0  0.00000000000E+00  0.00000000000E+00  0.99999998245E-14  0.12509000000E+03  0.12509000000E+03 0.  0.
        -13    1    3    3    0    0  0.98883789486E+01  0.30908475787E+02  0.40753768235E+02  0.52096014273E+02  0.10566000000E+00 0.  1.
         23    2    1    0    0    0 -0.40921634023E+01  0.30807598274E+02  0.12658272866E+01  0.93986041547E+02  0.88690020714E+02 0.  0.
         13    1    3    3    0    0 -0.13980542351E+02 -0.10087751315E+00 -0.39487940948E+02  0.41890027275E+02  0.10566000000E+00 0. -1.
         22    1    1    0    0    0  0.40921634023E+01 -0.30807598274E+02 -0.12658272866E+01  0.31103958453E+02  0.00000000000E+00 0.  1.
</event>
<event>
 5    1  0.1261010E-009  0.9118800E+02  0.7561462E-02  0.1125453E+00
         25   -1    0    0    0    0  0.00000000000E+00  0.00000000000E+00  0.99999998245E-14  0.12509000000E+03  0.12509000000E+03 0.  0.
        -13    1    3    3    0    0 -0.33822530212E+02  0.10143815645E+01 -0.20153577076E+02  0.39384900062E+02  0.10566000000E+00 0. -1.
         23    2    1    0    0    0 -0.16890022750E+01  0.13236950242E+02  0.25365639262E+02  0.96428436268E+02  0.92070397444E+02 0.  0.
         13    1    3    3    0    0  0.32133527938E+02  0.12222568677E+02  0.45519216338E+02  0.57043536206E+02  0.10566000000E+00 0.  1.
         22    1    1    0    0    0  0.16890022750E+01 -0.13236950242E+02 -0.25365639262E+02  0.28661563732E+02  0.00000000000E+00 0.  1.
</event>
<event>
 5    1  0.1261010E-009  0.9118800E+02  0.7561462E-02  0.1125453E+00
         25   -1    0    0    0    0  0.00000000000E+00  0.00000000000E+00  0.99999998245E-14  0.12509000000E+03  0.12509000000E+03 0.  0.
        -13    1    3    3    0    0 -0.12750326597E+02 -0.50629027999E+01 -0.33966117550E+02  0.36632118674E+02  0.10566000000E+00 0. -1.
         23    2    1    0    0    0 -0.11044697856E+01  0.25860411050E+02  0.14599060888E+02  0.95372777855E+02  0.90624794973E+02 0.  0.
         13    1    3    3    0    0  0.11645856811E+02  0.30923313850E+02  0.48565178438E+02  0.58740659181E+02  0.10566000000E+00 0.  1.
         22    1    1    0    0    0  0.11044697856E+01 -0.25860411050E+02 -0.14599060888E+02  0.29717222145E+02  0.00000000000E+00 0.  1.
</event>
<event>
 5    1  0.1261010E-009  0.9118800E+02  0.7561462E-02  0.1125453E+00
         25   -1    0    0    0    0  0.00000000000E+00  0.00000000000E+00  0.99999998245E-14  0.12509000000E+03  0.12509000000E+03 0.  0.
        -13    1    3    3    0    0  0.17230830949E+02 -0.47016866868E+02  0.17534160283E+02  0.53056057582E+02  0.10566000000E+00 0. -1.
         23    2    1    0    0    0  0.26277189937E+02 -0.48277331466E+01  0.69756172810E+01  0.97477376894E+02  0.93484662118E+02 0.  0.
         13    1    3    3    0    0  0.90463589889E+01  0.42189133721E+02 -0.10558543002E+02  0.44421319312E+02  0.10566000000E+00 0.  1.
         22    1    1    0    0    0 -0.26277189937E+02  0.48277331466E+01 -0.69756172810E+01  0.27612623106E+02  0.00000000000E+00 0. -1.
</event>
<event>
 5    1  0.1261010E-009  0.9118800E+02  0.7561462E-02  0.1125453E+00
         25   -1    0    0    0    0  0.00000000000E+00  0.00000000000E+00  0.99999998245E-14  0.12509000000E+03  0.12509000000E+03 0.  0.
        -13    1    3    3    0    0 -0.85452577314E+01 -0.44614014798E+02 -0.50460945431E+01  0.45704550980E+02  0.10566000000E+00 0.  1.
         23    2    1    0    0    0  0.26068523117E+02 -0.57718364672E+01  0.24877986429E+01  0.98274498218E+02  0.94545258286E+02 0.  0.
         13    1    3    3    0    0  0.34613780849E+02  0.38842178331E+02  0.75338931860E+01  0.52569947239E+02  0.10566000000E+00 0. -1.
         22    1    1    0    0    0 -0.26068523117E+02  0.57718364672E+01 -0.24877986429E+01  0.26815501782E+02  0.00000000000E+00 0. -1.
</event>
<event>
 5    1  0.1261010E-009  0.9118800E+02  0.7561462E-02  0.1125453E+00
         25   -1    0    0    0    0  0.00000000000E+00  0.00000000000E+00  0.99999998245E-14  0.12509000000E+03  0.12509000000E+03 0.  0.
        -13    1    3    3    0    0  0.33090535524E+02 -0.48034063135E+02  0.29468413699E+01  0.58403337238E+02  0.10566000000E+00 0.  1.
         23    2    1    0    0    0  0.14366105477E+01 -0.29570415722E+02  0.48118819657E+01  0.95096208244E+02  0.90242236666E+02 0.  0.
         13    1    3    3    0    0 -0.31653924976E+02  0.18463647413E+02  0.18650405959E+01  0.36692871006E+02  0.10566000000E+00 0. -1.
         22    1    1    0    0    0 -0.14366105477E+01  0.29570415722E+02 -0.48118819657E+01  0.29993791756E+02  0.00000000000E+00 0.  1.
</event>
<event>
 5    1  0.1261010E-009  0.9118800E+02  0.7561462E-02  0.1125453E+00
         25   -1    0    0    0    0  0.00000000000E+00  0.00000000000E+00  0.99999998245E-14  0.12509000000E+03  0.12509000000E+03 0.  0.
        -13    1    3    3    0    0  0.16521380916E+02  0.34736461155E+02 -0.22508216343E+02  0.44566901709E+02  0.10566000000E+00 0.  1.
         23    2    1    0    0    0  0.15980994298E+02 -0.88598088432E+00  0.19639384924E+02  0.99754598265E+02  0.96483663352E+02 0.  0.
         13    1    3    3    0    0 -0.54038661790E+00 -0.35622442039E+02  0.42147601267E+02  0.55187696556E+02  0.10566000000E+00 0. -1.
         22    1    1    0    0    0 -0.15980994298E+02  0.88598088432E+00 -0.19639384924E+02  0.25335401735E+02  0.00000000000E+00 0. -1.
</event>
<event>
 5    1  0.1261010E-009  0.9118800E+02  0.7561462E-02  0.1125453E+00
         25   -1    0    0    0    0  0.00000000000E+00  0.00000000000E+00  0.99999998245E-14  0.12509000000E+03  0.12509000000E+03 0.  0.
        -13    1    3    3    0    0  0.28626226811E+02  0.51899509369E+02 -0.91924059855E+01  0.59979425023E+02  0.10566000000E+00 0.  1.
         23    2    1    0    0    0  0.11064250355E+01  0.27959548398E+02 -0.41984257740E+01  0.96795348528E+02  0.92567554762E+02 0.  0.
         13    1    3    3    0    0 -0.27519801776E+02 -0.23939960972E+02  0.49939802115E+01  0.36815923505E+02  0.10566000000E+00 0. -1.
         22    1    1    0    0    0 -0.11064250355E+01 -0.27959548398E+02  0.41984257740E+01  0.28294651472E+02  0.00000000000E+00 0.  1.
</event>
<event>
 5    1  0.1261010E-009  0.9118800E+02  0.7561462E-02  0.1125453E+00
         25   -1    0    0    0    0  0.00000000000E+00  0.00000000000E+00  0.99999998245E-14  0.12509000000E+03  0.12509000000E+03 0.  0.
        -13    1    3    3    0    0 -0.50122199236E+02  0.46264726428E+01  0.19868938504E+02  0.54114923882E+02  0.10566000000E+00 0. -1.
         23    2    1    0    0    0 -0.24697018238E+02  0.11700209523E+02 -0.11786356940E+02  0.95328349800E+02  0.90563449873E+02 0.  0.
         13    1    3    3    0    0  0.25425180998E+02  0.70737368801E+01 -0.31655295444E+02  0.41213425918E+02  0.10566000000E+00 0.  1.
         22    1    1    0    0    0  0.24697018238E+02 -0.11700209523E+02  0.11786356940E+02  0.29761650200E+02  0.00000000000E+00 0. -1.
</event>
<event>
 5    1  0.1261010E-009  0.9118800E+02  0.7561462E-02  0.1125453E+00
         25   -1    0    0    0    0  0.00000000000E+00  0.00000000000E+00  0.99999998245E-14  0.12509000000E+03  0.12509000000E+03 0.  0.
        -13    1    3    3    0    0 -0.31632051663E+02  0.26740638883E+02  0.22848157666E+02  0.47304311992E+02  0.10566000000E+00 0. -1.
         23    2    1    0    0    0 -0.54402333641E+01  0.16177917696E+02 -0.20109278086E+02  0.98713794337E+02  0.95124702193E+02 0.  0.
         13    1    3    3    0    0  0.26191818299E+02 -0.10562721187E+02 -0.42957435751E+02  0.51409482346E+02  0.10566000000E+00 0.  1.
         22    1    1    0    0    0  0.54402333641E+01 -0.16177917696E+02  0.20109278086E+02  0.26376205663E+02  0.00000000000E+00 0.  1.
</event>
<event>
 5    1  0.1261010E-009  0.9118800E+02  0.7561462E-02  0.1125453E+00
         25   -1    0    0    0    0  0.00000000000E+00  0.00000000000E+00  0.99999998245E-14  0.12509000000E+03  0.12509000000E+03 0.  0.
        -13    1    3    3    0    0 -0.30105734141E+02 -0.39010339486E+02  0.16323677493E+01  0.49303525264E+02  0.10566000000E+00 0. -1.
         23    2    1    0    0    0 -0.13632445490E+02 -0.46494587549E+01  0.26586153540E+02  0.94852860637E+02  0.89904285628E+02 0.  0.
         13    1    3    3    0    0  0.16473288651E+02  0.34360880731E+02  0.24953785791E+02  0.45549335373E+02  0.10566000000E+00 0.  1.
         22    1    1    0    0    0  0.13632445490E+02  0.46494587549E+01 -0.26586153540E+02  0.30237139363E+02  0.00000000000E+00 0. -1.
</event>
<event>
 5    1  0.1261010E-009  0.9118800E+02  0.7561462E-02  0.1125453E+00
         25   -1    0    0    0    0  0.00000000000E+00  0.00000000000E+00  0.99999998245E-14  0.12509000000E+03  0.12509000000E+03 0.  0.
        -13    1    3    3    0    0  0.13456821386E+02 -0.22036979736E+02 -0.33783156591E+02  0.42520904870E+02  0.10566000000E+00 0. -1.
         23    2    1    0    0    0 -0.87583843081E+01 -0.23986304664E+02  0.14514001429E+02  0.95718102809E+02  0.91100202309E+02 0.  0.
         13    1    3    3    0    0 -0.22215205694E+02 -0.19493249287E+01  0.48297158020E+02  0.53197197939E+02  0.10566000000E+00 0.  1.
         22    1    1    0    0    0  0.87583843081E+01  0.23986304664E+02 -0.14514001429E+02  0.29371897191E+02  0.00000000000E+00 0.  1.
</event>
<event>
 5    1  0.1261010E-009  0.9118800E+02  0.7561462E-02  0.1125453E+00
         25   -1    0    0    0    0  0.00000000000E+00  0.00000000000E+00  0.99999998245E-14  0.12509000000E+03  0.12509000000E+03 0.  0.
        -13    1    3    3    0    0  0.41013529405E+01 -0.31844230056E+02 -0.15413236884E+02  0.35615377565E+02  0.10566000000E+00 0.  1.
         23    2    1    0    0    0 -0.54407684472E+01  0.15887980584E+02  0.22286829243E+02  0.97184218412E+02  0.93091566010E+02 0.  0.
         13    1    3    3    0    0 -0.95421213878E+01  0.47732210640E+02  0.37700066128E+02  0.61568840847E+02  0.10566000000E+00 0. -1.
         22    1    1    0    0    0  0.54407684472E+01 -0.15887980584E+02 -0.22286829243E+02  0.27905781588E+02  0.00000000000E+00 0. -1.
</event>
<event>
 5    1  0.1261010E-009  0.9118800E+02  0.7561462E-02  0.1125453E+00
         25   -1    0    0    0    0  0.00000000000E+00  0.00000000000E+00  0.99999998245E-14  0.12509000000E+03  0.12509000000E+03 0.  0.
        -13    1    3    3    0    0 -0.38448740545E+02  0.20790451452E+02  0.27515906343E+02  0.51649634916E+02  0.10566000000E+00 0.  1.
         23    2    1    0    0    0 -0.26412755750E+02  0.75108323597E+01 -0.12062869675E+02  0.95097349337E+02  0.90243818387E+02 0.  0.
         13    1    3    3    0    0  0.12035984795E+02 -0.13279619093E+02 -0.39578776018E+02  0.43447714420E+02  0.10566000000E+00 0. -1.
         22    1    1    0    0    0  0.26412755750E+02 -0.75108323597E+01  0.12062869675E+02  0.29992650663E+02  0.00000000000E+00 0.  1.
</event>
<event>
 5    1  0.1261010E-009  0.9118800E+02  0.7561462E-02  0.1125453E+00
         25   -1    0    0    0    0  0.00000000000E+00  0.00000000000E+00  0.99999998245E-14  0.12509000000E+03  0.12509000000E+03 0.  0.
        -13    1    3    3    0    0  0.30015900001E+01  0.19863247291E+02 -0.27462823721E+02  0.34026107421E+02  0.10566000000E+00 0. -1.
         23    2    1    0    0    0 -0.23522467638E+02 -0.21310119558E+02  0.52432648787E+01  0.92919835158E+02  0.87173254269E+02 0.  0.
         13    1    3    3    0    0 -0.26524057639E+02 -0.41173366848E+02  0.32706088600E+02  0.58893727737E+02  0.10566000000E+00 0.  1.
         22    1    1    0    0    0  0.23522467638E+02  0.21310119558E+02 -0.52432648787E+01  0.32170164842E+02  0.00000000000E+00 0.  1.
</event>
<event>
 5    1  0.1261010E-009  0.9118800E+02  0.7561462E-02  0.1125453E+00
         25   -1    0    0    0    0  0.00000000000E+00  0.00000000000E+00  0.99999998245E-14  0.12509000000E+03  0.12509000000E+03 0.  0.
        -13    1    3    3    0    0 -0.59349562432E+01  0.56652936631E+02  0.67393678412E+01  0.57360344990E+02  0.10566000000E+00 0. -1.
         23    2    1    0    0    0 -0.50660630789E+00  0.74817198500E+01  0.15751495178E+02  0.10764458851E+03  0.10622153761E+03 0.  0.
         13    1    3    3    0    0  0.54283499353E+01 -0.49171216781E+02  0.90121273369E+01  0.50284243515E+02  0.10566000000E+00 0.  1.
         22    1    1    0    0    0  0.50660630789E+00 -0.74817198500E+01 -0.15751495178E+02  0.17445411494E+02  0.00000000000E+00 0. -1.
</event>
<event>
 5    1  0.1261010E-009  0.9118800E+02  0.7561462E-02  0.1125453E+00
         25   -1    0    0    0    0  0.00000000000E+00  0.00000000000E+00  0.99999998245E-14  0.12509000000E+03  0.12509000000E+03 0.  0.
        -13    1    3    3    0    0 -0.32415450122E+02  0.29599420316E+01 -0.10579124686E+02  0.34226476690E+02  0.10566000000E+00 0. -1.
         23    2    1    0    0    0  0.24940313625E+02 -0.15670425782E+02 -0.79116957183E+01  0.94591206302E+02  0.89539487896E+02 0.  0.
         13    1    3    3    0    0  0.57355763747E+02 -0.18630367814E+02  0.26674289679E+01  0.60364729612E+02  0.10566000000E+00 0.  1.
         22    1    1    0    0    0 -0.24940313625E+02  0.15670425782E+02  0.79116957183E+01  0.30498793698E+02  0.00000000000E+00 0.  1.
</event>
<event>
 5    1  0.1261010E-009  0.9118800E+02  0.7561462E-02  0.1125453E+00
         25   -1    0    0    0    0  0.00000000000E+00  0.00000000000E+00  0.99999998245E-14  0.12509000000E+03  0.12509000000E+03 0.  0.
        -13    1    3    3    0    0 -0.92090788633E+01  0.11471707788E+02  0.31686478165E+02  0.34934957787E+02  0.10566000000E+00 0.  1.
         23    2    1    0    0    0  0.74623786665E+01 -0.29695932856E+02 -0.68225670597E+01  0.93719903653E+02  0.88313857327E+02 0.  0.
         13    1    3    3    0    0  0.16671457530E+02 -0.41167640644E+02 -0.38509045224E+02  0.58784945866E+02  0.10566000000E+00 0. -1.
         22    1    1    0    0    0 -0.74623786665E+01  0.29695932856E+02  0.68225670597E+01  0.31370096347E+02  0.00000000000E+00 0. -1.
</event>
<event>
 5    1  0.1261010E-009  0.9118800E+02  0.7561462E-02  0.1125453E+00
         25   -1    0    0    0    0  0.00000000000E+00  0.00000000000E+00  0.99999998245E-14  0.12509000000E+03  0.12509000000E+03 0.  0.
        -13    1    3    3    0    0 -0.11215361224E+02  0.26307636161E+02  0.40375552496E+02  0.49477999668E+02  0.10566000000E+00 0.  1.
         23    2    1    0    0    0 -0.12312589492E+02  0.27142092398E+02 -0.49954093055E+01  0.94870020618E+02  0.89928158317E+02 0.  0.
         13    1    3    3    0    0 -0.10972282678E+01  0.83445623726E+00 -0.45370961802E+02  0.45392020950E+02  0.10566000000E+00 0. -1.
         22    1    1    0    0    0  0.12312589492E+02 -0.27142092398E+02  0.49954093055E+01  0.30219979382E+02  0.00000000000E+00 0. -1.
</event>
<event>
 5    1  0.1261010E-009  0.9118800E+02  0.7561462E-02  0.1125453E+00
         25   -1    0    0    0    0  0.00000000000E+00  0.00000000000E+00  0.99999998245E-14  0.12509000000E+03  0.12509000000E+03 0.  0.
        -13    1    3    3    0    0 -0.21567446642E+02  0.12951490977E+02  0.22757802442E+02  0.33923805936E+02  0.10566000000E+00 0.  1.
         23    2    1    0    0    0  0.23898391934E+02 -0.10613986978E+02 -0.12508832264E+02  0.96102748643E+02  0.91626838620E+02 0.  0.
         13    1    3    3    0    0  0.45465838576E+02 -0.23565477955E+02 -0.35266634706E+02  0.62178942707E+02  0.10566000000E+00 0. -1.
         22    1    1    0    0    0 -0.23898391934E+02  0.10613986978E+02  0.12508832264E+02  0.28987251357E+02  0.00000000000E+00 0. -1.
</event>
<event>
 5    1  0.1261010E-009  0.9118800E+02  0.7561462E-02  0.1125453E+00
         25   -1    0    0    0    0  0.00000000000E+00  0.00000000000E+00  0.99999998245E-14  0.12509000000E+03  0.12509000000E+03 0.  0.
        -13    1    3    3    0    0  0.55901377799E+02  0.14762987504E+02 -0.15865563984E+02  0.59955292715E+02  0.10566000000E+00 0. -1.
         23    2    1    0    0    0  0.32125865046E+02  0.12736161473E+02  0.30389484739E+01  0.90398268682E+02  0.83476528191E+02 0.  0.
         13    1    3    3    0    0 -0.23775512753E+02 -0.20268260313E+01  0.18904512458E+02  0.30442975967E+02  0.10566000000E+00 0.  1.
         22    1    1    0    0    0 -0.32125865046E+02 -0.12736161473E+02 -0.30389484739E+01  0.34691731318E+02  0.00000000000E+00 0. -1.
</event>
<event>
 5    1  0.1261010E-009  0.9118800E+02  0.7561462E-02  0.1125453E+00
         25   -1    0    0    0    0  0.00000000000E+00  0.00000000000E+00  0.99999998245E-14  0.12509000000E+03  0.12509000000E+03 0.  0.
        -13    1    3    3    0    0 -0.82802723366E+01 -0.33261295856E+01  0.27688189758E+02  0.29090772835E+02  0.10566000000E+00 0.  1.
         23    2    1    0    0    0 -0.31000951191E+02  0.10600016434E+02 -0.22105301574E+02  0.85567048683E+02  0.75892398430E+02 0.  0.
         13    1    3    3    0    0 -0.22720678855E+02  0.13926146020E+02 -0.49793491332E+02  0.56476275848E+02  0.10566000000E+00 0. -1.
         22    1    1    0    0    0  0.31000951191E+02 -0.10600016434E+02  0.22105301574E+02  0.39522951317E+02  0.00000000000E+00 0. -1.
</event>
<event>
 5    1  0.1261010E-009  0.9118800E+02  0.7561462E-02  0.1125453E+00
         25   -1    0    0    0    0  0.00000000000E+00  0.00000000000E+00  0.99999998245E-14  0.12509000000E+03  0.12509000000E+03 0.  0.
        -13    1    3    3    0    0 -0.28657352394E+02 -0.21712109113E+02  0.43112899118E+02  0.56137267148E+02  0.10566000000E+00 0. -1.
         23    2    1    0    0    0 -0.18167317400E+02 -0.23593625939E+02  0.60476678017E+01  0.94704396627E+02  0.89697479609E+02 0.  0.
         13    1    3    3    0    0  0.10490034994E+02 -0.18815168260E+01 -0.37065231316E+02  0.38567129480E+02  0.10566000000E+00 0.  1.
         22    1    1    0    0    0  0.18167317400E+02  0.23593625939E+02 -0.60476678017E+01  0.30385603373E+02  0.00000000000E+00 0. -1.
</event>
<event>
 5    1  0.1261010E-009  0.9118800E+02  0.7561462E-02  0.1125453E+00
         25   -1    0    0    0    0  0.00000000000E+00  0.00000000000E+00  0.99999998245E-14  0.12509000000E+03  0.12509000000E+03 0.  0.
        -13    1    3    3    0    0 -0.53761478609E+00 -0.28822005860E+02 -0.20949620106E+02  0.35635583313E+02  0.10566000000E+00 0.  1.
         23    2    1    0    0    0  0.44127045801E+01  0.28745638173E+02 -0.49567243618E+01  0.95588257813E+02  0.90921736893E+02 0.  0.
         13    1    3    3    0    0  0.49503193661E+01  0.57567644033E+02  0.15992895744E+02  0.59952674500E+02  0.10566000000E+00 0. -1.
         22    1    1    0    0    0 -0.44127045801E+01 -0.28745638173E+02  0.49567243618E+01  0.29501742187E+02  0.00000000000E+00 0. -1.
</event>
<event>
 5    1  0.1261010E-009  0.9118800E+02  0.7561462E-02  0.1125453E+00
         25   -1    0    0    0    0  0.00000000000E+00  0.00000000000E+00  0.99999998245E-14  0.12509000000E+03  0.12509000000E+03 0.  0.
        -13    1    3    3    0    0  0.11259972173E+02 -0.33298151709E+02  0.19048252626E+02  0.39980007163E+02  0.10566000000E+00 0. -1.
         23    2    1    0    0    0  0.97928896862E+01 -0.70753760561E+01 -0.28408255310E+02  0.94219454095E+02  0.89018621228E+02 0.  0.
         13    1    3    3    0    0 -0.14670824869E+01  0.26222775653E+02 -0.47456507936E+02  0.54239446932E+02  0.10566000000E+00 0.  1.
         22    1    1    0    0    0 -0.97928896862E+01  0.70753760561E+01  0.28408255310E+02  0.30870545905E+02  0.00000000000E+00 0.  1.
</event>
<event>
 5    1  0.1261010E-009  0.9118800E+02  0.7561462E-02  0.1125453E+00
         25   -1    0    0    0    0  0.00000000000E+00  0.00000000000E+00  0.99999998245E-14  0.12509000000E+03  0.12509000000E+03 0.  0.
        -13    1    3    3    0    0  0.30606469603E+02 -0.31328148979E+02  0.54421004310E+01  0.44134300960E+02  0.10566000000E+00 0.  1.
         23    2    1    0    0    0  0.13665423971E+02  0.92448297303E+01 -0.23209578537E+02  0.96613777903E+02  0.92321865534E+02 0.  0.
         13    1    3    3    0    0 -0.16941045633E+02  0.40572978710E+02 -0.28651678968E+02  0.52479476943E+02  0.10566000000E+00 0. -1.
         22    1    1    0    0    0 -0.13665423971E+02 -0.92448297303E+01  0.23209578537E+02  0.28476222097E+02  0.00000000000E+00 0. -1.
</event>
<event>
 5    1  0.1261010E-009  0.9118800E+02  0.7561462E-02  0.1125453E+00
         25   -1    0    0    0    0  0.00000000000E+00  0.00000000000E+00  0.99999998245E-14  0.12509000000E+03  0.12509000000E+03 0.  0.
        -13    1    3    3    0    0 -0.36223723818E+02  0.37793997463E+01  0.45251069648E+02  0.58087111290E+02  0.10566000000E+00 0.  1.
         23    2    1    0    0    0 -0.27512380403E+02  0.42027593066E+01  0.83094117052E+01  0.96044508369E+02  0.91547293809E+02 0.  0.
         13    1    3    3    0    0  0.87113434159E+01  0.42335956031E+00 -0.36941657943E+02  0.37957397079E+02  0.10566000000E+00 0. -1.
         22    1    1    0    0    0  0.27512380403E+02 -0.42027593066E+01 -0.83094117052E+01  0.29045491631E+02  0.00000000000E+00 0.  1.
</event>
<event>
 5    1  0.1261010E-009  0.9118800E+02  0.7561462E-02  0.1125453E+00
         25   -1    0    0    0    0  0.00000000000E+00  0.00000000000E+00  0.99999998245E-14  0.12509000000E+03  0.12509000000E+03 0.  0.
        -13    1    3    3    0    0 -0.25157087141E+02  0.25644232963E+02  0.44404417903E+02  0.57116277987E+02  0.10566000000E+00 0. -1.
         23    2    1    0    0    0 -0.19010399983E+02 -0.52263164106E+01  0.20557878843E+02  0.96606038315E+02  0.92311378311E+02 0.  0.
         13    1    3    3    0    0  0.61466871581E+01 -0.30870549374E+02 -0.23846539060E+02  0.39489760329E+02  0.10566000000E+00 0.  1.
         22    1    1    0    0    0  0.19010399983E+02  0.52263164106E+01 -0.20557878843E+02  0.28483961685E+02  0.00000000000E+00 0. -1.
</event>
<event>
 5    1  0.1261010E-009  0.9118800E+02  0.7561462E-02  0.1125453E+00
         25   -1    0    0    0    0  0.00000000000E+00  0.00000000000E+00  0.99999998245E-14  0.12509000000E+03  0.12509000000E+03 0.  0.
        -13    1    3    3    0    0 -0.80234167371E+01 -0.17758131131E+02 -0.51203455656E+02  0.54786234334E+02  0.10566000000E+00 0.  1.
         23    2    1    0    0    0  0.18366717347E+02 -0.80477505343E+01 -0.21654613594E+02  0.95576869284E+02  0.90906067220E+02 0.  0.
         13    1    3    3    0    0  0.26390134084E+02  0.97103805971E+01  0.29548842062E+02  0.40790634949E+02  0.10566000000E+00 0. -1.
         22    1    1    0    0    0 -0.18366717347E+02  0.80477505343E+01  0.21654613594E+02  0.29513130716E+02  0.00000000000E+00 0.  1.
</event>
<event>
 5    1  0.1261010E-009  0.9118800E+02  0.7561462E-02  0.1125453E+00
         25   -1    0    0    0    0  0.00000000000E+00  0.00000000000E+00  0.99999998245E-14  0.12509000000E+03  0.12509000000E+03 0.  0.
        -13    1    3    3    0    0  0.52819092671E+02 -0.10118810334E+02 -0.17647381333E+02  0.56601131660E+02  0.10566000000E+00 0.  1.
         23    2    1    0    0    0  0.13051509046E+02 -0.46757604914E+01 -0.24131075553E+02  0.97259918579E+02  0.93193231139E+02 0.  0.
         13    1    3    3    0    0 -0.39767583625E+02  0.54430498428E+01 -0.64836942198E+01  0.40658786919E+02  0.10566000000E+00 0. -1.
         22    1    1    0    0    0 -0.13051509046E+02  0.46757604914E+01  0.24131075553E+02  0.27830081421E+02  0.00000000000E+00 0.  1.
</event>
<event>
 5    1  0.1261010E-009  0.9118800E+02  0.7561462E-02  0.1125453E+00
         25   -1    0    0    0    0  0.00000000000E+00  0.00000000000E+00  0.99999998245E-14  0.12509000000E+03  0.12509000000E+03 0.  0.
        -13    1    3    3    0    0  0.34941003124E+02  0.15431828684E+02  0.48446324088E+00  0.38200273618E+02  0.10566000000E+00 0.  1.
         23    2    1    0    0    0 -0.51849191918E+01 -0.11347707396E+02 -0.28149419796E+02  0.94299681959E+02  0.89131287058E+02 0.  0.
         13    1    3    3    0    0 -0.40125922316E+02 -0.26779536080E+02 -0.28633883037E+02  0.56099408341E+02  0.10566000000E+00 0. -1.
         22    1    1    0    0    0  0.51849191918E+01  0.11347707396E+02  0.28149419796E+02  0.30790318041E+02  0.00000000000E+00 0. -1.
</event>
<event>
 5    1  0.1261010E-009  0.9118800E+02  0.7561462E-02  0.1125453E+00
         25   -1    0    0    0    0  0.00000000000E+00  0.00000000000E+00  0.99999998245E-14  0.12509000000E+03  0.12509000000E+03 0.  0.
        -13    1    3    3    0    0  0.47594590188E+02 -0.37020452636E+02  0.14617581791E+02  0.62043886000E+02  0.10566000000E+00 0. -1.
         23    2    1    0    0    0  0.17134509111E+02 -0.20250415070E+02  0.53536086169E+01  0.98028369631E+02  0.94219050167E+02 0.  0.
         13    1    3    3    0    0 -0.30460081077E+02  0.16770037566E+02 -0.92639731743E+01  0.35984483631E+02  0.10566000000E+00 0.  1.
         22    1    1    0    0    0 -0.17134509111E+02  0.20250415070E+02 -0.53536086169E+01  0.27061630369E+02  0.00000000000E+00 0. -1.
</event>
<event>
 5    1  0.1261010E-009  0.9118800E+02  0.7561462E-02  0.1125453E+00
         25   -1    0    0    0    0  0.00000000000E+00  0.00000000000E+00  0.99999998245E-14  0.12509000000E+03  0.12509000000E+03 0.  0.
        -13    1    3    3    0    0  0.16623914179E+02  0.90154101427E+01  0.28835320462E+02  0.34483604987E+02  0.10566000000E+00 0.  1.
         23    2    1    0    0    0 -0.24150584718E+02  0.26724132611E+02 -0.26721992325E+01  0.88971159283E+02  0.81309879654E+02 0.  0.
         13    1    3    3    0    0 -0.40774498897E+02  0.17708722468E+02 -0.31507519695E+02  0.54487554296E+02  0.10566000000E+00 0. -1.
         22    1    1    0    0    0  0.24150584718E+02 -0.26724132611E+02  0.26721992325E+01  0.36118840717E+02  0.00000000000E+00 0. -1.
</event>
<event>
 5    1  0.1261010E-009  0.9118800E+02  0.7561462E-02  0.1125453E+00
         25   -1    0    0    0    0  0.00000000000E+00  0.00000000000E+00  0.99999998245E-14  0.12509000000E+03  0.12509000000E+03 0.  0.
        -13    1    3    3    0    0 -0.71703637563E+01  0.42634817304E+00 -0.56225920569E+02  0.56682988604E+02  0.10566000000E+00 0. -1.
         23    2    1    0    0    0  0.13755710290E+02  0.86674349308E+01 -0.27178097764E+02  0.93419935397E+02  0.87887947625E+02 0.  0.
         13    1    3    3    0    0  0.20926074047E+02  0.82410867578E+01  0.29047822805E+02  0.36736946794E+02  0.10566000000E+00 0.  1.
         22    1    1    0    0    0 -0.13755710290E+02 -0.86674349308E+01  0.27178097764E+02  0.31670064603E+02  0.00000000000E+00 0. -1.
</event>
<event>
 5    1  0.1261010E-009  0.9118800E+02  0.7561462E-02  0.1125453E+00
         25   -1    0    0    0    0  0.00000000000E+00  0.00000000000E+00  0.99999998245E-14  0.12509000000E+03  0.12509000000E+03 0.  0.
        -13    1    3    3    0    0  0.23298161264E+02  0.36103676035E+02  0.40741942882E+02  0.59213147318E+02  0.10566000000E+00 0. -1.
         23    2    1    0    0    0 -0.12813010543E+01  0.24579881023E+02  0.18830668261E+02  0.94099576469E+02  0.88850008109E+02 0.  0.
         13    1    3    3    0    0 -0.24579462318E+02 -0.11523795012E+02 -0.21911274621E+02  0.34886429151E+02  0.10566000000E+00 0.  1.
         22    1    1    0    0    0  0.12813010543E+01 -0.24579881023E+02 -0.18830668261E+02  0.30990423531E+02  0.00000000000E+00 0. -1.
</event>
<event>
 5    1  0.1261010E-009  0.9118800E+02  0.7561462E-02  0.1125453E+00
         25   -1    0    0    0    0  0.00000000000E+00  0.00000000000E+00  0.99999998245E-14  0.12509000000E+03  0.12509000000E+03 0.  0.
        -13    1    3    3    0    0  0.24496762053E+02  0.30387850159E+00  0.26980508366E+02  0.36443692032E+02  0.10566000000E+00 0. -1.
         23    2    1    0    0    0 -0.29348006132E+02  0.47248144367E+01  0.42294816241E+01  0.95064713153E+02  0.90198568928E+02 0.  0.
         13    1    3    3    0    0 -0.53844768185E+02  0.44209359351E+01 -0.22751026742E+02  0.58621021121E+02  0.10566000000E+00 0.  1.
         22    1    1    0    0    0  0.29348006132E+02 -0.47248144367E+01 -0.42294816241E+01  0.30025286847E+02  0.00000000000E+00 0.  1.
</event>
<event>
 5    1  0.1261010E-009  0.9118800E+02  0.7561462E-02  0.1125453E+00
         25   -1    0    0    0    0  0.00000000000E+00  0.00000000000E+00  0.99999998245E-14  0.12509000000E+03  0.12509000000E+03 0.  0.
        -13    1    3    3    0    0  0.11297313331E+02 -0.28475390075E+01 -0.58034732810E+02  0.59192728805E+02  0.10566000000E+00 0. -1.
         23    2    1    0    0    0  0.56625977222E+00 -0.14957865727E+02 -0.25751796723E+02  0.95303871825E+02  0.90529633563E+02 0.  0.
         13    1    3    3    0    0 -0.10731053559E+02 -0.12110326719E+02  0.32282936088E+02  0.36111143020E+02  0.10566000000E+00 0.  1.
         22    1    1    0    0    0 -0.56625977222E+00  0.14957865727E+02  0.25751796723E+02  0.29786128175E+02  0.00000000000E+00 0. -1.
</event>
<event>
 5    1  0.1261010E-009  0.9118800E+02  0.7561462E-02  0.1125453E+00
         25   -1    0    0    0    0  0.00000000000E+00  0.00000000000E+00  0.99999998245E-14  0.12509000000E+03  0.12509000000E+03 0.  0.
        -13    1    3    3    0    0  0.31610757256E+02 -0.42018818021E+02 -0.24423729540E+02  0.57977157320E+02  0.10566000000E+00 0. -1.
         23    2    1    0    0    0  0.24049918695E+02 -0.48112641523E+01 -0.10335658357E+02  0.98474728338E+02  0.94809806643E+02 0.  0.
         13    1    3    3    0    0 -0.75608385613E+01  0.37207553869E+02  0.14088071183E+02  0.40497571018E+02  0.10566000000E+00 0.  1.
         22    1    1    0    0    0 -0.24049918695E+02  0.48112641523E+01  0.10335658357E+02  0.26615271662E+02  0.00000000000E+00 0. -1.
</event>
<event>
 5    1  0.1261010E-009  0.9118800E+02  0.7561462E-02  0.1125453E+00
         25   -1    0    0    0    0  0.00000000000E+00  0.00000000000E+00  0.99999998245E-14  0.12509000000E+03  0.12509000000E+03 0.  0.
        -13    1    3    3    0    0  0.26213676840E+02 -0.28678854879E+02  0.16870240212E+02  0.42358585192E+02  0.10566000000E+00 0.  1.
         23    2    1    0    0    0  0.18224800814E+02  0.11759086685E+02 -0.18430028556E+02  0.96628000124E+02  0.92341133690E+02 0.  0.
         13    1    3    3    0    0 -0.79888760259E+01  0.40437941563E+02 -0.35300268768E+02  0.54269414933E+02  0.10566000000E+00 0. -1.
         22    1    1    0    0    0 -0.18224800814E+02 -0.11759086685E+02  0.18430028556E+02  0.28461999876E+02  0.00000000000E+00 0. -1.
</event>
<event>
 5    1  0.1261010E-009  0.9118800E+02  0.7561462E-02  0.1125453E+00
         25   -1    0    0    0    0  0.00000000000E+00  0.00000000000E+00  0.99999998245E-14  0.12509000000E+03  0.12509000000E+03 0.  0.
        -13    1    3    3    0    0  0.43747262320E+02  0.31513104802E+02 -0.45156861374E+01  0.54104540661E+02  0.10566000000E+00 0. -1.
         23    2    1    0    0    0  0.18525987359E+02  0.13133967688E+02  0.20804238315E+02  0.94291791501E+02  0.89120212622E+02 0.  0.
         13    1    3    3    0    0 -0.25221274961E+02 -0.18379137115E+02  0.25319924453E+02  0.40187250840E+02  0.10566000000E+00 0.  1.
         22    1    1    0    0    0 -0.18525987359E+02 -0.13133967688E+02 -0.20804238315E+02  0.30798208499E+02  0.00000000000E+00 0. -1.
</event>
<event>
 5    1  0.1261010E-009  0.9118800E+02  0.7561462E-02  0.1125453E+00
         25   -1    0    0    0    0  0.00000000000E+00  0.00000000000E+00  0.99999998245E-14  0.12509000000E+03  0.12509000000E+03 0.  0.
        -13    1    3    3    0    0  0.91582399230E+01 -0.45814909015E+01 -0.42135485750E+02  0.43362123343E+02  0.10566000000E+00 0. -1.
         23    2    1    0    0    0 -0.26143731960E+02 -0.69760394777E+01 -0.46616008699E+00  0.98027532396E+02  0.94217938605E+02 0.  0.
         13    1    3    3    0    0 -0.35301971883E+02 -0.23945485762E+01  0.41669325663E+02  0.54665409053E+02  0.10566000000E+00 0.  1.
         22    1    1    0    0    0  0.26143731960E+02  0.69760394777E+01  0.46616008699E+00  0.27062467604E+02  0.00000000000E+00 0.  1.
</event>
<event>
 5    1  0.1261010E-009  0.9118800E+02  0.7561462E-02  0.1125453E+00
         25   -1    0    0    0    0  0.00000000000E+00  0.00000000000E+00  0.99999998245E-14  0.12509000000E+03  0.12509000000E+03 0.  0.
        -13    1    3    3    0    0  0.34020084983E+02 -0.44161973967E+02 -0.12232374526E+02  0.57072657879E+02  0.10566000000E+00 0. -1.
         23    2    1    0    0    0  0.20805087193E+02 -0.19978895167E+02 -0.24506224105E+02  0.87240786995E+02  0.78602747982E+02 0.  0.
         13    1    3    3    0    0 -0.13214997789E+02  0.24183078799E+02 -0.12273849579E+02  0.30168129115E+02  0.10566000000E+00 0.  1.
         22    1    1    0    0    0 -0.20805087193E+02  0.19978895167E+02  0.24506224105E+02  0.37849213005E+02  0.00000000000E+00 0. -1.
</event>
<event>
 5    1  0.1261010E-009  0.9118800E+02  0.7561462E-02  0.1125453E+00
         25   -1    0    0    0    0  0.00000000000E+00  0.00000000000E+00  0.99999998245E-14  0.12509000000E+03  0.12509000000E+03 0.  0.
        -13    1    3    3    0    0  0.21591353782E+02  0.11782872474E+02 -0.38307907237E+02  0.45525043248E+02  0.10566000000E+00 0. -1.
         23    2    1    0    0    0  0.19179132513E+02 -0.22254478658E+02 -0.15638153480E+01  0.95669828982E+02  0.91033893219E+02 0.  0.
         13    1    3    3    0    0 -0.24122212692E+01 -0.34037351132E+02  0.36744091889E+02  0.50144785734E+02  0.10566000000E+00 0.  1.
         22    1    1    0    0    0 -0.19179132513E+02  0.22254478658E+02  0.15638153480E+01  0.29420171018E+02  0.00000000000E+00 0.  1.
</event>
<event>
 5    1  0.1261010E-009  0.9118800E+02  0.7561462E-02  0.1125453E+00
         25   -1    0    0    0    0  0.00000000000E+00  0.00000000000E+00  0.99999998245E-14  0.12509000000E+03  0.12509000000E+03 0.  0.
        -13    1    3    3    0    0 -0.10499562772E+02 -0.22653050333E+02 -0.26381427303E+02  0.36323441169E+02  0.10566000000E+00 0.  1.
         23    2    1    0    0    0 -0.37833324443E+01  0.28580732102E+02  0.35556544459E+01  0.96041514146E+02  0.91543202418E+02 0.  0.
         13    1    3    3    0    0  0.67162303279E+01  0.51233782435E+02  0.29937081749E+02  0.59718072977E+02  0.10566000000E+00 0. -1.
         22    1    1    0    0    0  0.37833324443E+01 -0.28580732102E+02 -0.35556544459E+01  0.29048485854E+02  0.00000000000E+00 0. -1.
</event>
<event>
 5    1  0.1261010E-009  0.9118800E+02  0.7561462E-02  0.1125453E+00
         25   -1    0    0    0    0  0.00000000000E+00  0.00000000000E+00  0.99999998245E-14  0.12509000000E+03  0.12509000000E+03 0.  0.
        -13    1    3    3    0    0 -0.31555599122E+02 -0.19509028020E+02 -0.45717270236E+02  0.58876463651E+02  0.10566000000E+00 0. -1.
         23    2    1    0    0    0 -0.18830372835E+02 -0.17508880632E+02 -0.89028122471E+01  0.97879636018E+02  0.94021376501E+02 0.  0.
         13    1    3    3    0    0  0.12725226287E+02  0.20001473874E+01  0.36814457989E+02  0.39003172367E+02  0.10566000000E+00 0.  1.
         22    1    1    0    0    0  0.18830372835E+02  0.17508880632E+02  0.89028122471E+01  0.27210363982E+02  0.00000000000E+00 0. -1.
</event>
<event>
 5    1  0.1261010E-009  0.9118800E+02  0.7561462E-02  0.1125453E+00
         25   -1    0    0    0    0  0.00000000000E+00  0.00000000000E+00  0.99999998245E-14  0.12509000000E+03  0.12509000000E+03 0.  0.
        -13    1    3    3    0    0  0.53095208919E+02 -0.73233083920E+00  0.14276393675E+02  0.54986035491E+02  0.10566000000E+00 0. -1.
         23    2    1    0    0    0  0.13227995382E+02 -0.84899963432E+01  0.23673003631E+02  0.96673965783E+02  0.92403380130E+02 0.  0.
         13    1    3    3    0    0 -0.39867213537E+02 -0.77576655040E+01  0.93966099562E+01  0.41687930292E+02  0.10566000000E+00 0.  1.
         22    1    1    0    0    0 -0.13227995382E+02  0.84899963432E+01 -0.23673003631E+02  0.28416034217E+02  0.00000000000E+00 0. -1.
</event>
<event>
 5    1  0.1261010E-009  0.9118800E+02  0.7561462E-02  0.1125453E+00
         25   -1    0    0    0    0  0.00000000000E+00  0.00000000000E+00  0.99999998245E-14  0.12509000000E+03  0.12509000000E+03 0.  0.
        -13    1    3    3    0    0  0.15272651907E+02  0.59759481138E+02 -0.31481326254E+01  0.61760597351E+02  0.10566000000E+00 0.  1.
         23    2    1    0    0    0  0.77705651182E+01  0.28611378664E+02  0.54776358659E+01  0.94940420136E+02  0.90026030734E+02 0.  0.
         13    1    3    3    0    0 -0.75020867891E+01 -0.31148102474E+02  0.86257684914E+01  0.33179822785E+02  0.10566000000E+00 0. -1.
         22    1    1    0    0    0 -0.77705651182E+01 -0.28611378664E+02 -0.54776358659E+01  0.30149579864E+02  0.00000000000E+00 0.  1.
</event>
<event>
 5    1  0.1261010E-009  0.9118800E+02  0.7561462E-02  0.1125453E+00
         25   -1    0    0    0    0  0.00000000000E+00  0.00000000000E+00  0.99999998245E-14  0.12509000000E+03  0.12509000000E+03 0.  0.
        -13    1    3    3    0    0 -0.21561592319E+02  0.13046244646E+02  0.30576351811E+02  0.39623619431E+02  0.10566000000E+00 0. -1.
         23    2    1    0    0    0  0.28425081537E+02  0.15669401161E+01  0.12419254944E+02  0.94030726746E+02  0.88753023144E+02 0.  0.
         13    1    3    3    0    0  0.49986673856E+02 -0.11479304530E+02 -0.18157096867E+02  0.54407107315E+02  0.10566000000E+00 0.  1.
         22    1    1    0    0    0 -0.28425081537E+02 -0.15669401161E+01 -0.12419254944E+02  0.31059273254E+02  0.00000000000E+00 0.  1.
</event>
<event>
 5    1  0.1261010E-009  0.9118800E+02  0.7561462E-02  0.1125453E+00
         25   -1    0    0    0    0  0.00000000000E+00  0.00000000000E+00  0.99999998245E-14  0.12509000000E+03  0.12509000000E+03 0.  0.
        -13    1    3    3    0    0  0.25903666196E+02 -0.20809291616E+02 -0.65778621032E+01  0.33871905377E+02  0.10566000000E+00 0.  1.
         23    2    1    0    0    0 -0.29024487248E+02  0.62776600522E+01 -0.34345198619E+01  0.95196425399E+02  0.90381046720E+02 0.  0.
         13    1    3    3    0    0 -0.54928153444E+02  0.27086951668E+02  0.31433422413E+01  0.61324520022E+02  0.10566000000E+00 0. -1.
         22    1    1    0    0    0  0.29024487248E+02 -0.62776600522E+01  0.34345198619E+01  0.29893574601E+02  0.00000000000E+00 0. -1.
</event>
<event>
 5    1  0.1261010E-009  0.9118800E+02  0.7561462E-02  0.1125453E+00
         25   -1    0    0    0    0  0.00000000000E+00  0.00000000000E+00  0.99999998245E-14  0.12509000000E+03  0.12509000000E+03 0.  0.
        -13    1    3    3    0    0  0.61248299397E+00  0.42063532387E+02 -0.21173644594E+02  0.47096181180E+02  0.10566000000E+00 0. -1.
         23    2    1    0    0    0  0.26624714422E+02  0.11058708312E+02  0.57326973127E+01  0.95695540215E+02  0.91069216264E+02 0.  0.
         13    1    3    3    0    0  0.26012231428E+02 -0.31004824075E+02  0.26906341907E+02  0.48599359035E+02  0.10566000000E+00 0.  1.
         22    1    1    0    0    0 -0.26624714422E+02 -0.11058708312E+02 -0.57326973127E+01  0.29394459785E+02  0.00000000000E+00 0. -1.
</event>
<event>
 5    1  0.1261010E-009  0.9118800E+02  0.7561462E-02  0.1125453E+00
         25   -1    0    0    0    0  0.00000000000E+00  0.00000000000E+00  0.99999998245E-14  0.12509000000E+03  0.12509000000E+03 0.  0.
        -13    1    3    3    0    0  0.20558997722E+02  0.39705954585E+01  0.25634611778E+02  0.33099584600E+02  0.10566000000E+00 0.  1.
         23    2    1    0    0    0 -0.44876335844E+01 -0.77776607982E+01 -0.29212271572E+02  0.94528788095E+02  0.89452244833E+02 0.  0.
         13    1    3    3    0    0 -0.25046631307E+02 -0.11748256257E+02 -0.54846883350E+02  0.61429203496E+02  0.10566000000E+00 0. -1.
         22    1    1    0    0    0  0.44876335844E+01  0.77776607982E+01  0.29212271572E+02  0.30561211905E+02  0.00000000000E+00 0. -1.
</event>
<event>
 5    1  0.1261010E-009  0.9118800E+02  0.7561462E-02  0.1125453E+00
         25   -1    0    0    0    0  0.00000000000E+00  0.00000000000E+00  0.99999998245E-14  0.12509000000E+03  0.12509000000E+03 0.  0.
        -13    1    3    3    0    0 -0.40724791522E+02 -0.23749088844E+02 -0.21720786444E+01  0.47193823273E+02  0.10566000000E+00 0.  1.
         23    2    1    0    0    0 -0.19373758793E+02  0.16030856852E+02  0.15357208310E+02  0.95625194753E+02  0.90972540490E+02 0.  0.
         13    1    3    3    0    0  0.21351032729E+02  0.39779945697E+02  0.17529286954E+02  0.48431371480E+02  0.10566000000E+00 0. -1.
         22    1    1    0    0    0  0.19373758793E+02 -0.16030856852E+02 -0.15357208310E+02  0.29464805247E+02  0.00000000000E+00 0. -1.
</event>
<event>
 5    1  0.1261010E-009  0.9118800E+02  0.7561462E-02  0.1125453E+00
         25   -1    0    0    0    0  0.00000000000E+00  0.00000000000E+00  0.99999998245E-14  0.12509000000E+03  0.12509000000E+03 0.  0.
        -13    1    3    3    0    0 -0.34218696193E+02  0.15017477135E+02  0.44388617116E+02  0.58024169810E+02  0.10566000000E+00 0.  1.
         23    2    1    0    0    0 -0.17807480615E+02 -0.95310683964E+01  0.22967733784E+02  0.94504637066E+02  0.89418465661E+02 0.  0.
         13    1    3    3    0    0  0.16411215578E+02 -0.24548545532E+02 -0.21420883331E+02  0.36480467256E+02  0.10566000000E+00 0. -1.
         22    1    1    0    0    0  0.17807480615E+02  0.95310683964E+01 -0.22967733784E+02  0.30585362934E+02  0.00000000000E+00 0.  1.
</event>
<event>
 5    1  0.1261010E-009  0.9118800E+02  0.7561462E-02  0.1125453E+00
         25   -1    0    0    0    0  0.00000000000E+00  0.00000000000E+00  0.99999998245E-14  0.12509000000E+03  0.12509000000E+03 0.  0.
        -13    1    3    3    0    0  0.36375896134E+02 -0.30339506345E+02  0.20492802678E+02  0.51610634471E+02  0.10566000000E+00 0. -1.
         23    2    1    0    0    0  0.44272678219E+01 -0.17869634935E+01  0.29341138960E+02  0.95362968961E+02  0.90611254680E+02 0.  0.
         13    1    3    3    0    0 -0.31948628313E+02  0.28552542852E+02  0.88483362823E+01  0.43752334490E+02  0.10566000000E+00 0.  1.
         22    1    1    0    0    0 -0.44272678219E+01  0.17869634935E+01 -0.29341138960E+02  0.29727031039E+02  0.00000000000E+00 0. -1.
</event>
<event>
 5    1  0.1261010E-009  0.9118800E+02  0.7561462E-02  0.1125453E+00
         25   -1    0    0    0    0  0.00000000000E+00  0.00000000000E+00  0.99999998245E-14  0.12509000000E+03  0.12509000000E+03 0.  0.
        -13    1    3    3    0    0 -0.47794860540E+02  0.38125719418E+01  0.20657327508E+02  0.52207477843E+02  0.10566000000E+00 0. -1.
         23    2    1    0    0    0 -0.19350703702E+02 -0.15023294500E+02 -0.10525199297E+02  0.98426749417E+02  0.94746483149E+02 0.  0.
         13    1    3    3    0    0  0.28444156839E+02 -0.18835866442E+02 -0.31182526805E+02  0.46219271574E+02  0.10566000000E+00 0.  1.
         22    1    1    0    0    0  0.19350703702E+02  0.15023294500E+02  0.10525199297E+02  0.26663250583E+02  0.00000000000E+00 0. -1.
</event>
<event>
 5    1  0.1261010E-009  0.9118800E+02  0.7561462E-02  0.1125453E+00
         25   -1    0    0    0    0  0.00000000000E+00  0.00000000000E+00  0.99999998245E-14  0.12509000000E+03  0.12509000000E+03 0.  0.
        -13    1    3    3    0    0  0.32386994113E+02 -0.29187646391E+01 -0.31173455124E+02  0.45046998158E+02  0.10566000000E+00 0.  1.
         23    2    1    0    0    0  0.37504014710E+02 -0.23739810958E+02 -0.27930479865E+01  0.80616065379E+02  0.67238524199E+02 0.  0.
         13    1    3    3    0    0  0.51170205968E+01 -0.20821046319E+02  0.28380407137E+02  0.35569067220E+02  0.10566000000E+00 0. -1.
         22    1    1    0    0    0 -0.37504014710E+02  0.23739810958E+02  0.27930479865E+01  0.44473934621E+02  0.00000000000E+00 0.  1.
</event>
<event>
 5    1  0.1261010E-009  0.9118800E+02  0.7561462E-02  0.1125453E+00
         25   -1    0    0    0    0  0.00000000000E+00  0.00000000000E+00  0.99999998245E-14  0.12509000000E+03  0.12509000000E+03 0.  0.
        -13    1    3    3    0    0  0.29349556210E+02 -0.47521409574E+02  0.16736170516E+02  0.58307730064E+02  0.10566000000E+00 0.  1.
         23    2    1    0    0    0  0.70882214613E+01 -0.21033866914E+02  0.22613486196E+02  0.93403469758E+02  0.87864509127E+02 0.  0.
         13    1    3    3    0    0 -0.22261334749E+02  0.26487542660E+02  0.58773156802E+01  0.35095739694E+02  0.10566000000E+00 0. -1.
         22    1    1    0    0    0 -0.70882214613E+01  0.21033866914E+02 -0.22613486196E+02  0.31686530242E+02  0.00000000000E+00 0.  1.
</event>
<event>
 5    1  0.1261010E-009  0.9118800E+02  0.7561462E-02  0.1125453E+00
         25   -1    0    0    0    0  0.00000000000E+00  0.00000000000E+00  0.99999998245E-14  0.12509000000E+03  0.12509000000E+03 0.  0.
        -13    1    3    3    0    0  0.90756788577E+01 -0.39122896831E+01 -0.36148096047E+02  0.37474924538E+02  0.10566000000E+00 0. -1.
         23    2    1    0    0    0  0.27690917876E+02  0.10636571806E+02  0.13531095223E+02  0.92486102525E+02  0.86548628122E+02 0.  0.
         13    1    3    3    0    0  0.18615239019E+02  0.14548861489E+02  0.49679191269E+02  0.55011177987E+02  0.10566000000E+00 0.  1.
         22    1    1    0    0    0 -0.27690917876E+02 -0.10636571806E+02 -0.13531095223E+02  0.32603897475E+02  0.00000000000E+00 0. -1.
</event>
<event>
 5    1  0.1261010E-009  0.9118800E+02  0.7561462E-02  0.1125453E+00
         25   -1    0    0    0    0  0.00000000000E+00  0.00000000000E+00  0.99999998245E-14  0.12509000000E+03  0.12509000000E+03 0.  0.
        -13    1    3    3    0    0 -0.47536238505E+02 -0.25978598260E+02  0.19208340902E+02  0.57476543589E+02  0.10566000000E+00 0. -1.
         23    2    1    0    0    0 -0.28891709510E+02 -0.12650871901E+01 -0.36253514469E+01  0.95944254219E+02  0.91410204138E+02 0.  0.
         13    1    3    3    0    0  0.18644528994E+02  0.24713511070E+02 -0.22833692349E+02  0.38467710630E+02  0.10566000000E+00 0.  1.
         22    1    1    0    0    0  0.28891709510E+02  0.12650871901E+01  0.36253514469E+01  0.29145745781E+02  0.00000000000E+00 0. -1.
</event>
<event>
 5    1  0.1261010E-009  0.9118800E+02  0.7561462E-02  0.1125453E+00
         25   -1    0    0    0    0  0.00000000000E+00  0.00000000000E+00  0.99999998245E-14  0.12509000000E+03  0.12509000000E+03 0.  0.
        -13    1    3    3    0    0 -0.72213861591E+01  0.20694868027E+02 -0.46158906481E+02  0.51098745506E+02  0.10566000000E+00 0.  1.
         23    2    1    0    0    0 -0.65781861590E+00  0.29635002829E+02 -0.34227220693E+01  0.95250744909E+02  0.90456195262E+02 0.  0.
         13    1    3    3    0    0  0.65635675432E+01  0.89401348022E+01  0.42736184412E+02  0.44151999403E+02  0.10566000000E+00 0. -1.
         22    1    1    0    0    0  0.65781861590E+00 -0.29635002829E+02  0.34227220693E+01  0.29839255091E+02  0.00000000000E+00 0.  1.
</event>
<event>
 5    1  0.1261010E-009  0.9118800E+02  0.7561462E-02  0.1125453E+00
         25   -1    0    0    0    0  0.00000000000E+00  0.00000000000E+00  0.99999998245E-14  0.12509000000E+03  0.12509000000E+03 0.  0.
        -13    1    3    3    0    0 -0.56317885839E+02 -0.11752853095E+02  0.32334595567E+01  0.57622046527E+02  0.10566000000E+00 0. -1.
         23    2    1    0    0    0 -0.27570411922E+02  0.10810955888E+02  0.78375881483E+01  0.94456159746E+02  0.89350623642E+02 0.  0.
         13    1    3    3    0    0  0.28747473917E+02  0.22563808983E+02  0.46041285916E+01  0.36834113218E+02  0.10566000000E+00 0.  1.
         22    1    1    0    0    0  0.27570411922E+02 -0.10810955888E+02 -0.78375881483E+01  0.30633840254E+02  0.00000000000E+00 0. -1.
</event>
<event>
 5    1  0.1261010E-009  0.9118800E+02  0.7561462E-02  0.1125453E+00
         25   -1    0    0    0    0  0.00000000000E+00  0.00000000000E+00  0.99999998245E-14  0.12509000000E+03  0.12509000000E+03 0.  0.
        -13    1    3    3    0    0  0.15260273959E+01 -0.85053537638E+01 -0.57698401627E+02  0.58341979025E+02  0.10566000000E+00 0. -1.
         23    2    1    0    0    0 -0.11831497727E+02 -0.13948534148E+02 -0.24701808136E+02  0.94353616535E+02  0.89206948635E+02 0.  0.
         13    1    3    3    0    0 -0.13357525122E+02 -0.54431803840E+01  0.32996593491E+02  0.36011637510E+02  0.10566000000E+00 0.  1.
         22    1    1    0    0    0  0.11831497727E+02  0.13948534148E+02  0.24701808136E+02  0.30736383465E+02  0.00000000000E+00 0. -1.
</event>
<event>
 5    1  0.1261010E-009  0.9118800E+02  0.7561462E-02  0.1125453E+00
         25   -1    0    0    0    0  0.00000000000E+00  0.00000000000E+00  0.99999998245E-14  0.12509000000E+03  0.12509000000E+03 0.  0.
        -13    1    3    3    0    0 -0.86894194693E+01  0.24947430620E+02 -0.49810350216E+02  0.56382288513E+02  0.10566000000E+00 0. -1.
         23    2    1    0    0    0 -0.19585643401E+02  0.17023671728E+02 -0.12041500233E+02  0.96482299037E+02  0.92143548190E+02 0.  0.
         13    1    3    3    0    0 -0.10896223932E+02 -0.79237588921E+01  0.37768849984E+02  0.40100010524E+02  0.10566000000E+00 0.  1.
         22    1    1    0    0    0  0.19585643401E+02 -0.17023671728E+02  0.12041500233E+02  0.28607700963E+02  0.00000000000E+00 0. -1.
</event>
<event>
 5    1  0.1261010E-009  0.9118800E+02  0.7561462E-02  0.1125453E+00
         25   -1    0    0    0    0  0.00000000000E+00  0.00000000000E+00  0.99999998245E-14  0.12509000000E+03  0.12509000000E+03 0.  0.
        -13    1    3    3    0    0 -0.34225719492E+02 -0.19775724736E+02  0.39752380644E+02  0.56060164952E+02  0.10566000000E+00 0.  1.
         23    2    1    0    0    0  0.45596903225E+01 -0.16004841828E+02  0.17526347927E+02  0.10092145413E+03  0.97984801345E+02 0.  0.
         13    1    3    3    0    0  0.38785409815E+02  0.37708829081E+01 -0.22226032717E+02  0.44861289179E+02  0.10566000000E+00 0. -1.
         22    1    1    0    0    0 -0.45596903225E+01  0.16004841828E+02 -0.17526347927E+02  0.24168545869E+02  0.00000000000E+00 0.  1.
</event>
<event>
 5    1  0.1261010E-009  0.9118800E+02  0.7561462E-02  0.1125453E+00
         25   -1    0    0    0    0  0.00000000000E+00  0.00000000000E+00  0.99999998245E-14  0.12509000000E+03  0.12509000000E+03 0.  0.
        -13    1    3    3    0    0 -0.17269845112E+02 -0.28231326166E+02 -0.12004010769E+02  0.35204584444E+02  0.10566000000E+00 0.  1.
         23    2    1    0    0    0  0.19423515811E+02  0.19752571393E+02 -0.99805011392E+01  0.95644330605E+02  0.90998849063E+02 0.  0.
         13    1    3    3    0    0  0.36693360923E+02  0.47983897559E+02  0.20235096299E+01  0.60439746161E+02  0.10566000000E+00 0. -1.
         22    1    1    0    0    0 -0.19423515811E+02 -0.19752571393E+02  0.99805011392E+01  0.29445669395E+02  0.00000000000E+00 0. -1.
</event>
<event>
 5    1  0.1261010E-009  0.9118800E+02  0.7561462E-02  0.1125453E+00
         25   -1    0    0    0    0  0.00000000000E+00  0.00000000000E+00  0.99999998245E-14  0.12509000000E+03  0.12509000000E+03 0.  0.
        -13    1    3    3    0    0 -0.53100713443E+00  0.35018936496E+02 -0.22928092627E+02  0.41860679371E+02  0.10566000000E+00 0.  1.
         23    2    1    0    0    0 -0.16454415079E+02  0.79673462033E+01  0.21884690518E+02  0.96573933297E+02  0.92267862944E+02 0.  0.
         13    1    3    3    0    0 -0.15923407945E+02 -0.27051590293E+02  0.44812783145E+02  0.54713253926E+02  0.10566000000E+00 0. -1.
         22    1    1    0    0    0  0.16454415079E+02 -0.79673462033E+01 -0.21884690518E+02  0.28516066703E+02  0.00000000000E+00 0. -1.
</event>
<event>
 5    1  0.1261010E-009  0.9118800E+02  0.7561462E-02  0.1125453E+00
         25   -1    0    0    0    0  0.00000000000E+00  0.00000000000E+00  0.99999998245E-14  0.12509000000E+03  0.12509000000E+03 0.  0.
        -13    1    3    3    0    0 -0.22733994978E+02 -0.44526224174E+02  0.36831810860E+00  0.49995659703E+02  0.10566000000E+00 0.  1.
         23    2    1    0    0    0  0.40803907131E+01 -0.14457219253E+02  0.24053805858E+02  0.96730762472E+02  0.92480236025E+02 0.  0.
         13    1    3    3    0    0  0.26814385691E+02  0.30069004921E+02  0.23685487750E+02  0.46735102770E+02  0.10566000000E+00 0. -1.
         22    1    1    0    0    0 -0.40803907131E+01  0.14457219253E+02 -0.24053805858E+02  0.28359237528E+02  0.00000000000E+00 0. -1.
</event>
<event>
 5    1  0.1261010E-009  0.9118800E+02  0.7561462E-02  0.1125453E+00
         25   -1    0    0    0    0  0.00000000000E+00  0.00000000000E+00  0.99999998245E-14  0.12509000000E+03  0.12509000000E+03 0.  0.
        -13    1    3    3    0    0 -0.19212542660E+02  0.48632756829E+02  0.25779275907E+02  0.58299648906E+02  0.10566000000E+00 0.  1.
         23    2    1    0    0    0 -0.15080032985E+02  0.78367739668E+01  0.18541247368E+02  0.99938453825E+02  0.96721736326E+02 0.  0.
         13    1    3    3    0    0  0.41325096758E+01 -0.40795982862E+02 -0.72380285386E+01  0.41638804919E+02  0.10566000000E+00 0. -1.
         22    1    1    0    0    0  0.15080032985E+02 -0.78367739668E+01 -0.18541247368E+02  0.25151546175E+02  0.00000000000E+00 0.  1.
</event>
<event>
 5    1  0.1261010E-009  0.9118800E+02  0.7561462E-02  0.1125453E+00
         25   -1    0    0    0    0  0.00000000000E+00  0.00000000000E+00  0.99999998245E-14  0.12509000000E+03  0.12509000000E+03 0.  0.
        -13    1    3    3    0    0  0.29843128569E+02  0.10405356098E+02 -0.29448176272E+02  0.43198263947E+02  0.10566000000E+00 0. -1.
         23    2    1    0    0    0  0.20091884618E+02 -0.13629072893E+02  0.16341869335E+02  0.95824112883E+02  0.91245648998E+02 0.  0.
         13    1    3    3    0    0 -0.97512439513E+01 -0.24034428991E+02  0.45790045606E+02  0.52625848935E+02  0.10566000000E+00 0.  1.
         22    1    1    0    0    0 -0.20091884618E+02  0.13629072893E+02 -0.16341869335E+02  0.29265887117E+02  0.00000000000E+00 0.  1.
</event>
<event>
 5    1  0.1261010E-009  0.9118800E+02  0.7561462E-02  0.1125453E+00
         25   -1    0    0    0    0  0.00000000000E+00  0.00000000000E+00  0.99999998245E-14  0.12509000000E+03  0.12509000000E+03 0.  0.
        -13    1    3    3    0    0  0.27450323683E+02  0.75012373201E+01  0.15456466686E+02  0.32383674252E+02  0.10566000000E+00 0. -1.
         23    2    1    0    0    0 -0.16226702909E+02 -0.94130449421E+01 -0.24696358286E+02  0.94076754201E+02  0.88817871322E+02 0.  0.
         13    1    3    3    0    0 -0.43677026592E+02 -0.16914282262E+02 -0.40152824972E+02  0.61693079949E+02  0.10566000000E+00 0.  1.
         22    1    1    0    0    0  0.16226702909E+02  0.94130449421E+01  0.24696358286E+02  0.31013245799E+02  0.00000000000E+00 0.  1.
</event>
<event>
 5    1  0.1261010E-009  0.9118800E+02  0.7561462E-02  0.1125453E+00
         25   -1    0    0    0    0  0.00000000000E+00  0.00000000000E+00  0.99999998245E-14  0.12509000000E+03  0.12509000000E+03 0.  0.
        -13    1    3    3    0    0  0.21341076239E+01 -0.22029893835E+02 -0.48431283999E+02  0.53249141510E+02  0.10566000000E+00 0. -1.
         23    2    1    0    0    0  0.15683594545E+02  0.92904364130E+01 -0.22633297200E+02  0.96028797534E+02  0.91525824045E+02 0.  0.
         13    1    3    3    0    0  0.13549486921E+02  0.31320330248E+02  0.25797986799E+02  0.42779656024E+02  0.10566000000E+00 0.  1.
         22    1    1    0    0    0 -0.15683594545E+02 -0.92904364130E+01  0.22633297200E+02  0.29061202466E+02  0.00000000000E+00 0.  1.
</event>
<event>
 5    1  0.1261010E-009  0.9118800E+02  0.7561462E-02  0.1125453E+00
         25   -1    0    0    0    0  0.00000000000E+00  0.00000000000E+00  0.99999998245E-14  0.12509000000E+03  0.12509000000E+03 0.  0.
        -13    1    3    3    0    0  0.85337541599E+01 -0.31264410819E+02 -0.20266724315E+02  0.38223548009E+02  0.10566000000E+00 0. -1.
         23    2    1    0    0    0  0.70112201454E+01  0.65678036163E+00  0.28059301142E+02  0.96160552218E+02  0.91705718763E+02 0.  0.
         13    1    3    3    0    0 -0.15225340144E+01  0.31921191181E+02  0.48326025457E+02  0.57937004209E+02  0.10566000000E+00 0.  1.
         22    1    1    0    0    0 -0.70112201454E+01 -0.65678036163E+00 -0.28059301142E+02  0.28929447782E+02  0.00000000000E+00 0.  1.
</event>
<event>
 5    1  0.1261010E-009  0.9118800E+02  0.7561462E-02  0.1125453E+00
         25   -1    0    0    0    0  0.00000000000E+00  0.00000000000E+00  0.99999998245E-14  0.12509000000E+03  0.12509000000E+03 0.  0.
        -13    1    3    3    0    0 -0.83768857333E+01 -0.11003091022E+02 -0.35317624054E+02  0.37928695726E+02  0.10566000000E+00 0. -1.
         23    2    1    0    0    0  0.67565221329E+01  0.30731288671E+02 -0.17654352053E+01  0.93575250180E+02  0.88108728229E+02 0.  0.
         13    1    3    3    0    0  0.15133407866E+02  0.41734379694E+02  0.33552188849E+02  0.55646554454E+02  0.10566000000E+00 0.  1.
         22    1    1    0    0    0 -0.67565221329E+01 -0.30731288671E+02  0.17654352053E+01  0.31514749820E+02  0.00000000000E+00 0.  1.
</event>
<event>
 5    1  0.1261010E-009  0.9118800E+02  0.7561462E-02  0.1125453E+00
         25   -1    0    0    0    0  0.00000000000E+00  0.00000000000E+00  0.99999998245E-14  0.12509000000E+03  0.12509000000E+03 0.  0.
        -13    1    3    3    0    0  0.58685544933E+02  0.13139587121E+02 -0.42047031275E+00  0.60140085577E+02  0.10566000000E+00 0.  1.
         23    2    1    0    0    0  0.21097078208E+02  0.17085707762E+02 -0.59179974735E+00  0.97935656966E+02  0.94095879611E+02 0.  0.
         13    1    3    3    0    0 -0.37588466725E+02  0.39461206414E+01 -0.17132943460E+00  0.37795571390E+02  0.10566000000E+00 0. -1.
         22    1    1    0    0    0 -0.21097078208E+02 -0.17085707762E+02  0.59179974735E+00  0.27154343034E+02  0.00000000000E+00 0.  1.
</event>
<event>
 5    1  0.1261010E-009  0.9118800E+02  0.7561462E-02  0.1125453E+00
         25   -1    0    0    0    0  0.00000000000E+00  0.00000000000E+00  0.99999998245E-14  0.12509000000E+03  0.12509000000E+03 0.  0.
        -13    1    3    3    0    0  0.21351918303E+01 -0.50221823163E+02  0.74386716640E+01  0.50814718007E+02  0.10566000000E+00 0.  1.
         23    2    1    0    0    0  0.16722731532E+02 -0.92054796325E+01  0.21286989340E+02  0.96497579320E+02  0.92164289691E+02 0.  0.
         13    1    3    3    0    0  0.14587539702E+02  0.41016343531E+02  0.13848317676E+02  0.45682861313E+02  0.10566000000E+00 0. -1.
         22    1    1    0    0    0 -0.16722731532E+02  0.92054796325E+01 -0.21286989340E+02  0.28592420680E+02  0.00000000000E+00 0.  1.
</event>
<event>
 5    1  0.1261010E-009  0.9118800E+02  0.7561462E-02  0.1125453E+00
         25   -1    0    0    0    0  0.00000000000E+00  0.00000000000E+00  0.99999998245E-14  0.12509000000E+03  0.12509000000E+03 0.  0.
        -13    1    3    3    0    0 -0.53729135224E+02 -0.27763141597E+02  0.96972440385E+01  0.61250793540E+02  0.10566000000E+00 0.  1.
         23    2    1    0    0    0 -0.28079105126E+02 -0.24104223480E+02  0.80864314887E+01  0.87210716632E+02  0.78554878824E+02 0.  0.
         13    1    3    3    0    0  0.25650030099E+02  0.36589181177E+01 -0.16108125499E+01  0.25959923092E+02  0.10566000000E+00 0. -1.
         22    1    1    0    0    0  0.28079105126E+02  0.24104223480E+02 -0.80864314887E+01  0.37879283368E+02  0.00000000000E+00 0.  1.
</event>
<event>
 5    1  0.1261010E-009  0.9118800E+02  0.7561462E-02  0.1125453E+00
         25   -1    0    0    0    0  0.00000000000E+00  0.00000000000E+00  0.99999998245E-14  0.12509000000E+03  0.12509000000E+03 0.  0.
        -13    1    3    3    0    0  0.29910601683E+02 -0.50045639819E+02 -0.54360607676E+01  0.58555717728E+02  0.10566000000E+00 0. -1.
         23    2    1    0    0    0 -0.81558476391E+00 -0.28196654498E+02 -0.59455474297E+01  0.96261784002E+02  0.91843698867E+02 0.  0.
         13    1    3    3    0    0 -0.30726186447E+02  0.21848985321E+02 -0.50948666214E+00  0.37706066273E+02  0.10566000000E+00 0.  1.
         22    1    1    0    0    0  0.81558476391E+00  0.28196654498E+02  0.59455474297E+01  0.28828215998E+02  0.00000000000E+00 0. -1.
</event>
<event>
 5    1  0.1261010E-009  0.9118800E+02  0.7561462E-02  0.1125453E+00
         25   -1    0    0    0    0  0.00000000000E+00  0.00000000000E+00  0.99999998245E-14  0.12509000000E+03  0.12509000000E+03 0.  0.
        -13    1    3    3    0    0 -0.16306102267E+02 -0.30366046358E+02  0.14175331569E+02  0.37268444181E+02  0.10566000000E+00 0.  1.
         23    2    1    0    0    0  0.22604748989E+02 -0.14741642608E+01 -0.18603648243E+02  0.95777143348E+02  0.91181235037E+02 0.  0.
         13    1    3    3    0    0  0.38910851256E+02  0.28891882098E+02 -0.32778979812E+02  0.58508699167E+02  0.10566000000E+00 0. -1.
         22    1    1    0    0    0 -0.22604748989E+02  0.14741642608E+01  0.18603648243E+02  0.29312856652E+02  0.00000000000E+00 0. -1.
</event>
<event>
 5    1  0.1261010E-009  0.9118800E+02  0.7561462E-02  0.1125453E+00
         25   -1    0    0    0    0  0.00000000000E+00  0.00000000000E+00  0.99999998245E-14  0.12509000000E+03  0.12509000000E+03 0.  0.
        -13    1    3    3    0    0  0.20007004008E+02 -0.20484438311E+02  0.53449527889E+02  0.60636256628E+02  0.10566000000E+00 0.  1.
         23    2    1    0    0    0  0.48872246304E+01 -0.19208892447E+02  0.22504292422E+02  0.95101507357E+02  0.90249581775E+02 0.  0.
         13    1    3    3    0    0 -0.15119779377E+02  0.12755458647E+01 -0.30945235467E+02  0.34465250729E+02  0.10566000000E+00 0. -1.
         22    1    1    0    0    0 -0.48872246304E+01  0.19208892447E+02 -0.22504292422E+02  0.29988492643E+02  0.00000000000E+00 0.  1.
</event>
<event>
 5    1  0.1261010E-009  0.9118800E+02  0.7561462E-02  0.1125453E+00
         25   -1    0    0    0    0  0.00000000000E+00  0.00000000000E+00  0.99999998245E-14  0.12509000000E+03  0.12509000000E+03 0.  0.
        -13    1    3    3    0    0  0.45326004850E+02 -0.24120801032E+02  0.70172617058E+01  0.51821934391E+02  0.10566000000E+00 0. -1.
         23    2    1    0    0    0  0.16851871792E+01 -0.13235935955E+02 -0.17527978843E+02  0.10306138455E+03  0.10067963591E+03 0.  0.
         13    1    3    3    0    0 -0.43640817671E+02  0.10884865078E+02 -0.24545240549E+02  0.51239450157E+02  0.10566000000E+00 0.  1.
         22    1    1    0    0    0 -0.16851871792E+01  0.13235935955E+02  0.17527978843E+02  0.22028615452E+02  0.00000000000E+00 0.  1.
</event>
<event>
 5    1  0.1261010E-009  0.9118800E+02  0.7561462E-02  0.1125453E+00
         25   -1    0    0    0    0  0.00000000000E+00  0.00000000000E+00  0.99999998245E-14  0.12509000000E+03  0.12509000000E+03 0.  0.
        -13    1    3    3    0    0 -0.11251225805E+02  0.35098807785E+02 -0.93561564816E+01  0.38027164214E+02  0.10566000000E+00 0.  1.
         23    2    1    0    0    0  0.49023495542E+01 -0.77654412594E+01  0.27039841805E+02  0.96533246790E+02  0.92212686664E+02 0.  0.
         13    1    3    3    0    0  0.16153575359E+02 -0.42864249044E+02  0.36395998286E+02  0.58506082575E+02  0.10566000000E+00 0. -1.
         22    1    1    0    0    0 -0.49023495542E+01  0.77654412594E+01 -0.27039841805E+02  0.28556753210E+02  0.00000000000E+00 0. -1.
</event>
<event>
 5    1  0.1261010E-009  0.9118800E+02  0.7561462E-02  0.1125453E+00
         25   -1    0    0    0    0  0.00000000000E+00  0.00000000000E+00  0.99999998245E-14  0.12509000000E+03  0.12509000000E+03 0.  0.
        -13    1    3    3    0    0 -0.53514970825E+01 -0.47718660019E+02 -0.69566984329E+01  0.48519231777E+02  0.10566000000E+00 0.  1.
         23    2    1    0    0    0  0.86112093590E+01 -0.15018078358E+02 -0.29689447808E+02  0.90722007400E+02  0.83960250782E+02 0.  0.
         13    1    3    3    0    0  0.13962706441E+02  0.32700581661E+02 -0.22732749375E+02  0.42202775624E+02  0.10566000000E+00 0. -1.
         22    1    1    0    0    0 -0.86112093590E+01  0.15018078358E+02  0.29689447808E+02  0.34367992600E+02  0.00000000000E+00 0. -1.
</event>
<event>
 5    1  0.1261010E-009  0.9118800E+02  0.7561462E-02  0.1125453E+00
         25   -1    0    0    0    0  0.00000000000E+00  0.00000000000E+00  0.99999998245E-14  0.12509000000E+03  0.12509000000E+03 0.  0.
        -13    1    3    3    0    0 -0.35405030181E+02  0.13450315830E+02 -0.44781307038E+02  0.58649840427E+02  0.10566000000E+00 0.  1.
         23    2    1    0    0    0 -0.18167174325E+02 -0.92383419404E+01 -0.21698153732E+02  0.95320837093E+02  0.90553072416E+02 0.  0.
         13    1    3    3    0    0  0.17237855856E+02 -0.22688657770E+02  0.23083153306E+02  0.36670996666E+02  0.10566000000E+00 0. -1.
         22    1    1    0    0    0  0.18167174325E+02  0.92383419404E+01  0.21698153732E+02  0.29769162907E+02  0.00000000000E+00 0.  1.
</event>
<event>
 5    1  0.1261010E-009  0.9118800E+02  0.7561462E-02  0.1125453E+00
         25   -1    0    0    0    0  0.00000000000E+00  0.00000000000E+00  0.99999998245E-14  0.12509000000E+03  0.12509000000E+03 0.  0.
        -13    1    3    3    0    0 -0.80907746697E+01  0.47061681020E+02  0.19492704369E+02  0.51577506171E+02  0.10566000000E+00 0.  1.
         23    2    1    0    0    0  0.21948558919E+02  0.16333082827E+02  0.12073222630E+02  0.95185626776E+02  0.90366099876E+02 0.  0.
         13    1    3    3    0    0  0.30039333589E+02 -0.30728598192E+02 -0.74194817395E+01  0.43608120605E+02  0.10566000000E+00 0. -1.
         22    1    1    0    0    0 -0.21948558919E+02 -0.16333082827E+02 -0.12073222630E+02  0.29904373224E+02  0.00000000000E+00 0. -1.
</event>
<event>
 5    1  0.1261010E-009  0.9118800E+02  0.7561462E-02  0.1125453E+00
         25   -1    0    0    0    0  0.00000000000E+00  0.00000000000E+00  0.99999998245E-14  0.12509000000E+03  0.12509000000E+03 0.  0.
        -13    1    3    3    0    0 -0.62843993678E+01 -0.69051082728E+01  0.60973671013E+02  0.61684470627E+02  0.10566000000E+00 0.  1.
         23    2    1    0    0    0 -0.24707940918E+01 -0.10292575820E+02  0.26165409256E+02  0.96864646468E+02  0.92661152342E+02 0.  0.
         13    1    3    3    0    0  0.38136052759E+01 -0.33874675476E+01 -0.34808261757E+02  0.35180175841E+02  0.10566000000E+00 0. -1.
         22    1    1    0    0    0  0.24707940918E+01  0.10292575820E+02 -0.26165409256E+02  0.28225353532E+02  0.00000000000E+00 0.  1.
</event>
<event>
 5    1  0.1261010E-009  0.9118800E+02  0.7561462E-02  0.1125453E+00
         25   -1    0    0    0    0  0.00000000000E+00  0.00000000000E+00  0.99999998245E-14  0.12509000000E+03  0.12509000000E+03 0.  0.
        -13    1    3    3    0    0  0.16443973676E+02  0.23652313376E+02 -0.26388124183E+02  0.39066359700E+02  0.10566000000E+00 0.  1.
         23    2    1    0    0    0  0.54464605280E+01 -0.28061076112E+02 -0.51374672665E+01  0.96047247121E+02  0.91551035957E+02 0.  0.
         13    1    3    3    0    0 -0.10997513148E+02 -0.51713389489E+02  0.21250656916E+02  0.56980887421E+02  0.10566000000E+00 0. -1.
         22    1    1    0    0    0 -0.54464605280E+01  0.28061076112E+02  0.51374672665E+01  0.29042752879E+02  0.00000000000E+00 0. -1.
</event>
<event>
 5    1  0.1261010E-009  0.9118800E+02  0.7561462E-02  0.1125453E+00
         25   -1    0    0    0    0  0.00000000000E+00  0.00000000000E+00  0.99999998245E-14  0.12509000000E+03  0.12509000000E+03 0.  0.
        -13    1    3    3    0    0  0.51205588087E+02 -0.31407400121E+02 -0.82975409917E+01  0.60640723810E+02  0.10566000000E+00 0. -1.
         23    2    1    0    0    0  0.26820395245E+02 -0.10605960296E+02  0.58250071016E+01  0.95666358100E+02  0.91029123744E+02 0.  0.
         13    1    3    3    0    0 -0.24385192842E+02  0.20801439825E+02  0.14122548093E+02  0.35025634290E+02  0.10566000000E+00 0.  1.
         22    1    1    0    0    0 -0.26820395245E+02  0.10605960296E+02 -0.58250071016E+01  0.29423641900E+02  0.00000000000E+00 0. -1.
</event>
<event>
 5    1  0.1261010E-009  0.9118800E+02  0.7561462E-02  0.1125453E+00
         25   -1    0    0    0    0  0.00000000000E+00  0.00000000000E+00  0.99999998245E-14  0.12509000000E+03  0.12509000000E+03 0.  0.
        -13    1    3    3    0    0  0.41870725153E+01 -0.53718391919E+02  0.16300592890E+02  0.56293140783E+02  0.10566000000E+00 0.  1.
         23    2    1    0    0    0  0.17518176769E+02 -0.23043213282E+02 -0.46687159319E+01  0.95769817461E+02  0.91171184221E+02 0.  0.
         13    1    3    3    0    0  0.13331104254E+02  0.30675178637E+02 -0.20969308822E+02  0.39476676678E+02  0.10566000000E+00 0. -1.
         22    1    1    0    0    0 -0.17518176769E+02  0.23043213282E+02  0.46687159319E+01  0.29320182539E+02  0.00000000000E+00 0.  1.
</event>
<event>
 5    1  0.1261010E-009  0.9118800E+02  0.7561462E-02  0.1125453E+00
         25   -1    0    0    0    0  0.00000000000E+00  0.00000000000E+00  0.99999998245E-14  0.12509000000E+03  0.12509000000E+03 0.  0.
        -13    1    3    3    0    0  0.18949181647E+02 -0.33417655338E+02 -0.23066805435E+02  0.44809595517E+02  0.10566000000E+00 0.  1.
         23    2    1    0    0    0 -0.10111157051E+02  0.72826685299E+01 -0.27382279292E+02  0.95005752011E+02  0.90116762804E+02 0.  0.
         13    1    3    3    0    0 -0.29060338697E+02  0.40700323868E+02 -0.43154738571E+01  0.50196156495E+02  0.10566000000E+00 0. -1.
         22    1    1    0    0    0  0.10111157051E+02 -0.72826685299E+01  0.27382279292E+02  0.30084247989E+02  0.00000000000E+00 0. -1.
</event>
<event>
 5    1  0.1261010E-009  0.9118800E+02  0.7561462E-02  0.1125453E+00
         25   -1    0    0    0    0  0.00000000000E+00  0.00000000000E+00  0.99999998245E-14  0.12509000000E+03  0.12509000000E+03 0.  0.
        -13    1    3    3    0    0  0.15403366102E+01  0.23085853071E+01 -0.40729930509E+02  0.40824509872E+02  0.10566000000E+00 0.  1.
         23    2    1    0    0    0  0.20053859293E+02 -0.20099624735E+02  0.62011235666E+01  0.96027892015E+02  0.91524586447E+02 0.  0.
         13    1    3    3    0    0  0.18513522683E+02 -0.22408210042E+02  0.46931054075E+02  0.55203382143E+02  0.10566000000E+00 0. -1.
         22    1    1    0    0    0 -0.20053859293E+02  0.20099624735E+02 -0.62011235666E+01  0.29062107985E+02  0.00000000000E+00 0.  1.
</event>
<event>
 5    1  0.1261010E-009  0.9118800E+02  0.7561462E-02  0.1125453E+00
         25   -1    0    0    0    0  0.00000000000E+00  0.00000000000E+00  0.99999998245E-14  0.12509000000E+03  0.12509000000E+03 0.  0.
        -13    1    3    3    0    0  0.22200269077E+02  0.15747986234E+02 -0.26955480911E+02  0.38307442263E+02  0.10566000000E+00 0.  1.
         23    2    1    0    0    0  0.50653467853E+01 -0.15611620310E+02  0.21203225286E+02  0.98276622941E+02  0.94548069401E+02 0.  0.
         13    1    3    3    0    0 -0.17134922292E+02 -0.31359606544E+02  0.48158706198E+02  0.59969180678E+02  0.10566000000E+00 0. -1.
         22    1    1    0    0    0 -0.50653467853E+01  0.15611620310E+02 -0.21203225286E+02  0.26813377059E+02  0.00000000000E+00 0. -1.
</event>
<event>
 5    1  0.1261010E-009  0.9118800E+02  0.7561462E-02  0.1125453E+00
         25   -1    0    0    0    0  0.00000000000E+00  0.00000000000E+00  0.99999998245E-14  0.12509000000E+03  0.12509000000E+03 0.  0.
        -13    1    3    3    0    0  0.27713321083E+02  0.28463933361E+01 -0.26689392734E+02  0.38580629453E+02  0.10566000000E+00 0. -1.
         23    2    1    0    0    0  0.80311846674E+01 -0.18091788345E+02  0.22235221862E+02  0.95320589123E+02  0.90552729870E+02 0.  0.
         13    1    3    3    0    0 -0.19682136415E+02 -0.20938181681E+02  0.48924614596E+02  0.56739959670E+02  0.10566000000E+00 0.  1.
         22    1    1    0    0    0 -0.80311846674E+01  0.18091788345E+02 -0.22235221862E+02  0.29769410877E+02  0.00000000000E+00 0.  1.
</event>
<event>
 5    1  0.1261010E-009  0.9118800E+02  0.7561462E-02  0.1125453E+00
         25   -1    0    0    0    0  0.00000000000E+00  0.00000000000E+00  0.99999998245E-14  0.12509000000E+03  0.12509000000E+03 0.  0.
        -13    1    3    3    0    0  0.35734171385E+02  0.18421716386E+01 -0.34077066665E+02  0.49412369276E+02  0.10566000000E+00 0.  1.
         23    2    1    0    0    0 -0.89091145684E+01  0.14964219554E+02 -0.21122053730E+02  0.97714073659E+02  0.93800846734E+02 0.  0.
         13    1    3    3    0    0 -0.44643285953E+02  0.13122047915E+02  0.12955012936E+02  0.48301704384E+02  0.10566000000E+00 0. -1.
         22    1    1    0    0    0  0.89091145684E+01 -0.14964219554E+02  0.21122053730E+02  0.27375926341E+02  0.00000000000E+00 0. -1.
</event>
<event>
 5    1  0.1261010E-009  0.9118800E+02  0.7561462E-02  0.1125453E+00
         25   -1    0    0    0    0  0.00000000000E+00  0.00000000000E+00  0.99999998245E-14  0.12509000000E+03  0.12509000000E+03 0.  0.
        -13    1    3    3    0    0  0.33656720449E+02 -0.11267501016E+02 -0.10333284883E+02  0.36966462517E+02  0.10566000000E+00 0. -1.
         23    2    1    0    0    0 -0.49330449858E+01  0.11340550207E+02  0.27107866980E+02  0.95294371730E+02  0.90516505784E+02 0.  0.
         13    1    3    3    0    0 -0.38589765434E+02  0.22608051222E+02  0.37441151863E+02  0.58327909213E+02  0.10566000000E+00 0.  1.
         22    1    1    0    0    0  0.49330449858E+01 -0.11340550207E+02 -0.27107866980E+02  0.29795628270E+02  0.00000000000E+00 0.  1.
</event>
<event>
 5    1  0.1261010E-009  0.9118800E+02  0.7561462E-02  0.1125453E+00
         25   -1    0    0    0    0  0.00000000000E+00  0.00000000000E+00  0.99999998245E-14  0.12509000000E+03  0.12509000000E+03 0.  0.
        -13    1    3    3    0    0 -0.91957159060E+01  0.31347887340E+02 -0.14782874879E+02  0.35857994721E+02  0.10566000000E+00 0.  1.
         23    2    1    0    0    0  0.49762850556E+01 -0.16390094535E+02  0.21594361156E+02  0.97527071172E+02  0.93551133429E+02 0.  0.
         13    1    3    3    0    0  0.14172000962E+02 -0.47737981875E+02  0.36377236035E+02  0.61669076451E+02  0.10566000000E+00 0. -1.
         22    1    1    0    0    0 -0.49762850556E+01  0.16390094535E+02 -0.21594361156E+02  0.27562928828E+02  0.00000000000E+00 0. -1.
</event>
<event>
 5    1  0.1261010E-009  0.9118800E+02  0.7561462E-02  0.1125453E+00
         25   -1    0    0    0    0  0.00000000000E+00  0.00000000000E+00  0.99999998245E-14  0.12509000000E+03  0.12509000000E+03 0.  0.
        -13    1    3    3    0    0 -0.29101004560E+02  0.40086123284E+02  0.38463521597E+01  0.49684719335E+02  0.10566000000E+00 0. -1.
         23    2    1    0    0    0 -0.28330948898E+02 -0.44479987727E+01 -0.70899498031E+01  0.95548592675E+02  0.90867149265E+02 0.  0.
         13    1    3    3    0    0  0.77005566290E+00 -0.44534122057E+02 -0.10936301963E+02  0.45863873340E+02  0.10566000000E+00 0.  1.
         22    1    1    0    0    0  0.28330948898E+02  0.44479987727E+01  0.70899498031E+01  0.29541407325E+02  0.00000000000E+00 0. -1.
</event>
<event>
 5    1  0.1261010E-009  0.9118800E+02  0.7561462E-02  0.1125453E+00
         25   -1    0    0    0    0  0.00000000000E+00  0.00000000000E+00  0.99999998245E-14  0.12509000000E+03  0.12509000000E+03 0.  0.
        -13    1    3    3    0    0 -0.29633779013E+02 -0.26807484257E+02 -0.27330054284E+01  0.40053496146E+02  0.10566000000E+00 0. -1.
         23    2    1    0    0    0  0.23250025124E+02 -0.16811937777E+02  0.87675103129E+01  0.95088764073E+02  0.90231917278E+02 0.  0.
         13    1    3    3    0    0  0.52883804137E+02  0.99955464805E+01  0.11500515741E+02  0.55035267927E+02  0.10566000000E+00 0.  1.
         22    1    1    0    0    0 -0.23250025124E+02  0.16811937777E+02 -0.87675103129E+01  0.30001235927E+02  0.00000000000E+00 0.  1.
</event>
<event>
 5    1  0.1261010E-009  0.9118800E+02  0.7561462E-02  0.1125453E+00
         25   -1    0    0    0    0  0.00000000000E+00  0.00000000000E+00  0.99999998245E-14  0.12509000000E+03  0.12509000000E+03 0.  0.
        -13    1    3    3    0    0  0.33032404776E+02 -0.30708825904E+02 -0.42681531402E+02  0.62095861703E+02  0.10566000000E+00 0.  1.
         23    2    1    0    0    0  0.13930827875E+02 -0.12090763784E+02 -0.24689296863E+02  0.94270916404E+02  0.89090907313E+02 0.  0.
         13    1    3    3    0    0 -0.19101576902E+02  0.18618062121E+02  0.17992234539E+02  0.32175054701E+02  0.10566000000E+00 0. -1.
         22    1    1    0    0    0 -0.13930827875E+02  0.12090763784E+02  0.24689296863E+02  0.30819083596E+02  0.00000000000E+00 0.  1.
</event>
<event>
 5    1  0.1261010E-009  0.9118800E+02  0.7561462E-02  0.1125453E+00
         25   -1    0    0    0    0  0.00000000000E+00  0.00000000000E+00  0.99999998245E-14  0.12509000000E+03  0.12509000000E+03 0.  0.
        -13    1    3    3    0    0 -0.48702437478E+01  0.31856725174E+02  0.35151080195E+02  0.47688361430E+02  0.10566000000E+00 0.  1.
         23    2    1    0    0    0  0.42465256569E+01 -0.17255655918E+02  0.30654551062E+01  0.10705703972E+03  0.10552735237E+03 0.  0.
         13    1    3    3    0    0  0.91167694048E+01 -0.49112381092E+02 -0.32085625089E+02  0.59368678293E+02  0.10566000000E+00 0. -1.
         22    1    1    0    0    0 -0.42465256569E+01  0.17255655918E+02 -0.30654551062E+01  0.18032960276E+02  0.00000000000E+00 0. -1.
</event>
<event>
 5    1  0.1261010E-009  0.9118800E+02  0.7561462E-02  0.1125453E+00
         25   -1    0    0    0    0  0.00000000000E+00  0.00000000000E+00  0.99999998245E-14  0.12509000000E+03  0.12509000000E+03 0.  0.
        -13    1    3    3    0    0  0.76448744823E+01 -0.47455205148E+02 -0.14849424756E+01  0.48090090660E+02  0.10566000000E+00 0. -1.
         23    2    1    0    0    0  0.15705631793E+02 -0.61517396978E+01  0.22839540752E+02  0.96697124255E+02  0.92434725326E+02 0.  0.
         13    1    3    3    0    0  0.80607573103E+01  0.41303465450E+02  0.24324483227E+02  0.48607033595E+02  0.10566000000E+00 0.  1.
         22    1    1    0    0    0 -0.15705631793E+02  0.61517396978E+01 -0.22839540752E+02  0.28392875745E+02  0.00000000000E+00 0.  1.
</event>
<event>
 5    1  0.1261010E-009  0.9118800E+02  0.7561462E-02  0.1125453E+00
         25   -1    0    0    0    0  0.00000000000E+00  0.00000000000E+00  0.99999998245E-14  0.12509000000E+03  0.12509000000E+03 0.  0.
        -13    1    3    3    0    0 -0.16167040326E+02 -0.34451097552E+02  0.29027198443E+02  0.47862727972E+02  0.10566000000E+00 0. -1.
         23    2    1    0    0    0  0.11424817227E+02 -0.25853939664E+02 -0.88178148551E+01  0.95480769959E+02  0.90773734793E+02 0.  0.
         13    1    3    3    0    0  0.27591857553E+02  0.85971578878E+01 -0.37845013299E+02  0.47618041986E+02  0.10566000000E+00 0.  1.
         22    1    1    0    0    0 -0.11424817227E+02  0.25853939664E+02  0.88178148551E+01  0.29609230041E+02  0.00000000000E+00 0. -1.
</event>
<event>
 5    1  0.1261010E-009  0.9118800E+02  0.7561462E-02  0.1125453E+00
         25   -1    0    0    0    0  0.00000000000E+00  0.00000000000E+00  0.99999998245E-14  0.12509000000E+03  0.12509000000E+03 0.  0.
        -13    1    3    3    0    0 -0.30632823405E+02  0.30952293760E+02 -0.31618266133E+02  0.53815799502E+02  0.10566000000E+00 0.  1.
         23    2    1    0    0    0 -0.36819028905E+01  0.32456255939E+02 -0.44325945261E+01  0.92126188741E+02  0.86026866729E+02 0.  0.
         13    1    3    3    0    0  0.26950920514E+02  0.15039621792E+01  0.27185671607E+02  0.38310389238E+02  0.10566000000E+00 0. -1.
         22    1    1    0    0    0  0.36819028905E+01 -0.32456255939E+02  0.44325945261E+01  0.32963811259E+02  0.00000000000E+00 0.  1.
</event>
<event>
 5    1  0.1261010E-009  0.9118800E+02  0.7561462E-02  0.1125453E+00
         25   -1    0    0    0    0  0.00000000000E+00  0.00000000000E+00  0.99999998245E-14  0.12509000000E+03  0.12509000000E+03 0.  0.
        -13    1    3    3    0    0  0.19515221407E+02  0.32444677682E+02  0.12695329226E+02  0.39933488761E+02  0.10566000000E+00 0. -1.
         23    2    1    0    0    0  0.58438483932E+01 -0.22685163288E+02 -0.79243560248E+01  0.10036020793E+03  0.97265660537E+02 0.  0.
         13    1    3    3    0    0 -0.13671373014E+02 -0.55129840971E+02 -0.20619685250E+02  0.60426719168E+02  0.10566000000E+00 0.  1.
         22    1    1    0    0    0 -0.58438483932E+01  0.22685163288E+02  0.79243560248E+01  0.24729792071E+02  0.00000000000E+00 0.  1.
</event>
<event>
 5    1  0.1261010E-009  0.9118800E+02  0.7561462E-02  0.1125453E+00
         25   -1    0    0    0    0  0.00000000000E+00  0.00000000000E+00  0.99999998245E-14  0.12509000000E+03  0.12509000000E+03 0.  0.
        -13    1    3    3    0    0 -0.30939014252E+02 -0.40985064602E+02 -0.18075334019E+02  0.54440122954E+02  0.10566000000E+00 0.  1.
         23    2    1    0    0    0 -0.22504093316E+02 -0.29988634965E+01 -0.21908301246E+02  0.93540022794E+02  0.88058700890E+02 0.  0.
         13    1    3    3    0    0  0.84349209361E+01  0.37986201106E+02 -0.38329672268E+01  0.39099899839E+02  0.10566000000E+00 0. -1.
         22    1    1    0    0    0  0.22504093316E+02  0.29988634965E+01  0.21908301246E+02  0.31549977206E+02  0.00000000000E+00 0.  1.
</event>
<event>
 5    1  0.1261010E-009  0.9118800E+02  0.7561462E-02  0.1125453E+00
         25   -1    0    0    0    0  0.00000000000E+00  0.00000000000E+00  0.99999998245E-14  0.12509000000E+03  0.12509000000E+03 0.  0.
        -13    1    3    3    0    0  0.14791329138E+02  0.49957180955E+02  0.13974261986E+02  0.53942511146E+02  0.10566000000E+00 0. -1.
         23    2    1    0    0    0  0.14109681003E+02  0.96615175373E+01  0.24140327966E+02  0.95506500318E+02  0.90809185382E+02 0.  0.
         13    1    3    3    0    0 -0.68164813482E+00 -0.40295663417E+02  0.10166065980E+02  0.41563989173E+02  0.10566000000E+00 0.  1.
         22    1    1    0    0    0 -0.14109681003E+02 -0.96615175373E+01 -0.24140327966E+02  0.29583499682E+02  0.00000000000E+00 0. -1.
</event>
<event>
 5    1  0.1261010E-009  0.9118800E+02  0.7561462E-02  0.1125453E+00
         25   -1    0    0    0    0  0.00000000000E+00  0.00000000000E+00  0.99999998245E-14  0.12509000000E+03  0.12509000000E+03 0.  0.
        -13    1    3    3    0    0  0.25791281166E+02  0.19002180051E+02 -0.41535015446E+02  0.52454186706E+02  0.10566000000E+00 0.  1.
         23    2    1    0    0    0  0.16831893995E+02 -0.16114800016E+02 -0.14895176123E+02  0.97433794427E+02  0.93426327069E+02 0.  0.
         13    1    3    3    0    0 -0.89593871710E+01 -0.35116980067E+02  0.26639839323E+02  0.44979607721E+02  0.10566000000E+00 0. -1.
         22    1    1    0    0    0 -0.16831893995E+02  0.16114800016E+02  0.14895176123E+02  0.27656205573E+02  0.00000000000E+00 0.  1.
</event>
<event>
 5    1  0.1261010E-009  0.9118800E+02  0.7561462E-02  0.1125453E+00
         25   -1    0    0    0    0  0.00000000000E+00  0.00000000000E+00  0.99999998245E-14  0.12509000000E+03  0.12509000000E+03 0.  0.
        -13    1    3    3    0    0 -0.75202027746E+01 -0.22802975131E+02 -0.54544402679E+02  0.59595571582E+02  0.10566000000E+00 0. -1.
         23    2    1    0    0    0 -0.52719307231E+01  0.24094085712E+01 -0.28847950345E+02  0.95665473796E+02  0.91027908546E+02 0.  0.
         13    1    3    3    0    0  0.22482720516E+01  0.25212383702E+02  0.25696452334E+02  0.36069902214E+02  0.10566000000E+00 0.  1.
         22    1    1    0    0    0  0.52719307231E+01 -0.24094085712E+01  0.28847950345E+02  0.29424526204E+02  0.00000000000E+00 0. -1.
</event>
<event>
 5    1  0.1261010E-009  0.9118800E+02  0.7561462E-02  0.1125453E+00
         25   -1    0    0    0    0  0.00000000000E+00  0.00000000000E+00  0.99999998245E-14  0.12509000000E+03  0.12509000000E+03 0.  0.
        -13    1    3    3    0    0 -0.93838256340E+00 -0.10971680687E+02  0.34366080524E+02  0.36087352266E+02  0.10566000000E+00 0.  1.
         23    2    1    0    0    0  0.15597540115E+02  0.19647401577E+02 -0.14528137908E+02  0.96100856559E+02  0.91624255489E+02 0.  0.
         13    1    3    3    0    0  0.16535922678E+02  0.30619082263E+02 -0.48894218432E+02  0.60013504294E+02  0.10566000000E+00 0. -1.
         22    1    1    0    0    0 -0.15597540115E+02 -0.19647401577E+02  0.14528137908E+02  0.28989143441E+02  0.00000000000E+00 0. -1.
</event>
<event>
 5    1  0.1261010E-009  0.9118800E+02  0.7561462E-02  0.1125453E+00
         25   -1    0    0    0    0  0.00000000000E+00  0.00000000000E+00  0.99999998245E-14  0.12509000000E+03  0.12509000000E+03 0.  0.
        -13    1    3    3    0    0 -0.22373765973E+02 -0.26986815584E+02 -0.11346594141E+02  0.36846030747E+02  0.10566000000E+00 0. -1.
         23    2    1    0    0    0  0.28923642947E+02  0.89640349846E+00 -0.10459408424E+01  0.96133573204E+02  0.91668911002E+02 0.  0.
         13    1    3    3    0    0  0.51297408920E+02  0.27883219082E+02  0.10300653298E+02  0.59287542457E+02  0.10566000000E+00 0.  1.
         22    1    1    0    0    0 -0.28923642947E+02 -0.89640349846E+00  0.10459408424E+01  0.28956426796E+02  0.00000000000E+00 0.  1.
</event>
<event>
 5    1  0.1261010E-009  0.9118800E+02  0.7561462E-02  0.1125453E+00
         25   -1    0    0    0    0  0.00000000000E+00  0.00000000000E+00  0.99999998245E-14  0.12509000000E+03  0.12509000000E+03 0.  0.
        -13    1    3    3    0    0 -0.49893434426E+02  0.28200383247E+02 -0.80253238205E+01  0.57870833765E+02  0.10566000000E+00 0.  1.
         23    2    1    0    0    0 -0.14073170869E+02  0.25432776385E+02 -0.11204542233E+02  0.93938402615E+02  0.88622804437E+02 0.  0.
         13    1    3    3    0    0  0.35820263557E+02 -0.27676068617E+01 -0.31792184120E+01  0.36067568850E+02  0.10566000000E+00 0. -1.
         22    1    1    0    0    0  0.14073170869E+02 -0.25432776385E+02  0.11204542233E+02  0.31151597385E+02  0.00000000000E+00 0.  1.
</event>
<event>
 5    1  0.1261010E-009  0.9118800E+02  0.7561462E-02  0.1125453E+00
         25   -1    0    0    0    0  0.00000000000E+00  0.00000000000E+00  0.99999998245E-14  0.12509000000E+03  0.12509000000E+03 0.  0.
        -13    1    3    3    0    0  0.31143796766E+02 -0.16214862476E+01  0.13637415797E+02  0.34037561139E+02  0.10566000000E+00 0.  1.
         23    2    1    0    0    0 -0.28680440215E+02  0.60589856305E+01  0.47348011016E+00  0.95772715999E+02  0.91175161028E+02 0.  0.
         13    1    3    3    0    0 -0.59824236981E+02  0.76804718782E+01 -0.13163935687E+02  0.61735154859E+02  0.10566000000E+00 0. -1.
         22    1    1    0    0    0  0.28680440215E+02 -0.60589856305E+01 -0.47348011016E+00  0.29317284001E+02  0.00000000000E+00 0. -1.
</event>
<event>
 5    1  0.1261010E-009  0.9118800E+02  0.7561462E-02  0.1125453E+00
         25   -1    0    0    0    0  0.00000000000E+00  0.00000000000E+00  0.99999998245E-14  0.12509000000E+03  0.12509000000E+03 0.  0.
        -13    1    3    3    0    0 -0.42933918926E+01 -0.54350938836E+02 -0.59991824754E+01  0.54849422246E+02  0.10566000000E+00 0. -1.
         23    2    1    0    0    0  0.25618696177E+01 -0.17493995431E+02 -0.23054915338E+02  0.96036047200E+02  0.91535731758E+02 0.  0.
         13    1    3    3    0    0  0.68552615103E+01  0.36856943405E+02 -0.17055732863E+02  0.41186624954E+02  0.10566000000E+00 0.  1.
         22    1    1    0    0    0 -0.25618696177E+01  0.17493995431E+02  0.23054915338E+02  0.29053952800E+02  0.00000000000E+00 0. -1.
</event>
<event>
 5    1  0.1261010E-009  0.9118800E+02  0.7561462E-02  0.1125453E+00
         25   -1    0    0    0    0  0.00000000000E+00  0.00000000000E+00  0.99999998245E-14  0.12509000000E+03  0.12509000000E+03 0.  0.
        -13    1    3    3    0    0 -0.17072954023E+02  0.25996396386E+02  0.24212558884E+02  0.39415194480E+02  0.10566000000E+00 0. -1.
         23    2    1    0    0    0  0.99972050532E+01 -0.22404107897E+02  0.16778932609E+02  0.95367605429E+02  0.90617655157E+02 0.  0.
         13    1    3    3    0    0  0.27070159076E+02 -0.48400504284E+02 -0.74336262751E+01  0.55952410948E+02  0.10566000000E+00 0.  1.
         22    1    1    0    0    0 -0.99972050532E+01  0.22404107897E+02 -0.16778932609E+02  0.29722394571E+02  0.00000000000E+00 0. -1.
</event>
<event>
 5    1  0.1261010E-009  0.9118800E+02  0.7561462E-02  0.1125453E+00
         25   -1    0    0    0    0  0.00000000000E+00  0.00000000000E+00  0.99999998245E-14  0.12509000000E+03  0.12509000000E+03 0.  0.
        -13    1    3    3    0    0  0.26341032221E+02 -0.23824770419E+02 -0.11436790265E+00  0.35517515511E+02  0.10566000000E+00 0.  1.
         23    2    1    0    0    0 -0.26031612713E+02  0.25023225777E+00  0.14916804464E+02  0.95086358021E+02  0.90228581667E+02 0.  0.
         13    1    3    3    0    0 -0.52372644934E+02  0.24075002677E+02  0.15031172366E+02  0.59568842510E+02  0.10566000000E+00 0. -1.
         22    1    1    0    0    0  0.26031612713E+02 -0.25023225777E+00 -0.14916804464E+02  0.30003641979E+02  0.00000000000E+00 0. -1.
</event>
<event>
 5    1  0.1261010E-009  0.9118800E+02  0.7561462E-02  0.1125453E+00
         25   -1    0    0    0    0  0.00000000000E+00  0.00000000000E+00  0.99999998245E-14  0.12509000000E+03  0.12509000000E+03 0.  0.
        -13    1    3    3    0    0  0.14267710376E+02 -0.85510749232E+01 -0.33745666803E+02  0.37622727622E+02  0.10566000000E+00 0. -1.
         23    2    1    0    0    0 -0.28667251635E+02 -0.19250075682E+02 -0.54833366368E+01  0.90126537490E+02  0.83068339632E+02 0.  0.
         13    1    3    3    0    0 -0.42934962011E+02 -0.10699000758E+02  0.28262330167E+02  0.52503809867E+02  0.10566000000E+00 0.  1.
         22    1    1    0    0    0  0.28667251635E+02  0.19250075682E+02  0.54833366368E+01  0.34963462510E+02  0.00000000000E+00 0.  1.
</event>
<event>
 5    1  0.1261010E-009  0.9118800E+02  0.7561462E-02  0.1125453E+00
         25   -1    0    0    0    0  0.00000000000E+00  0.00000000000E+00  0.99999998245E-14  0.12509000000E+03  0.12509000000E+03 0.  0.
        -13    1    3    3    0    0  0.30998431447E+01 -0.23548072509E+02  0.28453650700E+02  0.37064027691E+02  0.10566000000E+00 0. -1.
         23    2    1    0    0    0 -0.15630428159E+02  0.24317925378E+02 -0.73282036587E+00  0.96172724802E+02  0.91722321117E+02 0.  0.
         13    1    3    3    0    0 -0.18730271304E+02  0.47865997888E+02 -0.29186471066E+02  0.59108697112E+02  0.10566000000E+00 0.  1.
         22    1    1    0    0    0  0.15630428159E+02 -0.24317925378E+02  0.73282036587E+00  0.28917275198E+02  0.00000000000E+00 0.  1.
</event>
<event>
 5    1  0.1261010E-009  0.9118800E+02  0.7561462E-02  0.1125453E+00
         25   -1    0    0    0    0  0.00000000000E+00  0.00000000000E+00  0.99999998245E-14  0.12509000000E+03  0.12509000000E+03 0.  0.
        -13    1    3    3    0    0  0.30429834433E+02  0.88415959209E+01 -0.10561116181E+02  0.33402050552E+02  0.10566000000E+00 0.  1.
         23    2    1    0    0    0 -0.24001943918E+02  0.83240566295E+01  0.17105206397E+02  0.94463682616E+02  0.89361154966E+02 0.  0.
         13    1    3    3    0    0 -0.54431778351E+02 -0.51753929145E+00  0.27666322578E+02  0.61061632064E+02  0.10566000000E+00 0. -1.
         22    1    1    0    0    0  0.24001943918E+02 -0.83240566295E+01 -0.17105206397E+02  0.30626317384E+02  0.00000000000E+00 0. -1.
</event>
<event>
 5    1  0.1261010E-009  0.9118800E+02  0.7561462E-02  0.1125453E+00
         25   -1    0    0    0    0  0.00000000000E+00  0.00000000000E+00  0.99999998245E-14  0.12509000000E+03  0.12509000000E+03 0.  0.
        -13    1    3    3    0    0  0.41812691742E+02 -0.23284951764E+02 -0.23402552620E+02  0.53274579328E+02  0.10566000000E+00 0.  1.
         23    2    1    0    0    0  0.26091347259E+02 -0.22565197478E+02  0.91236280729E+01  0.89408252170E+02  0.81979561037E+02 0.  0.
         13    1    3    3    0    0 -0.15721344483E+02  0.71975428681E+00  0.32526180693E+02  0.36133672842E+02  0.10566000000E+00 0. -1.
         22    1    1    0    0    0 -0.26091347259E+02  0.22565197478E+02 -0.91236280729E+01  0.35681747830E+02  0.00000000000E+00 0.  1.
</event>
<event>
 5    1  0.1261010E-009  0.9118800E+02  0.7561462E-02  0.1125453E+00
         25   -1    0    0    0    0  0.00000000000E+00  0.00000000000E+00  0.99999998245E-14  0.12509000000E+03  0.12509000000E+03 0.  0.
        -13    1    3    3    0    0 -0.54258483142E+02  0.67201783154E+01  0.94663351428E+01  0.55486633116E+02  0.10566000000E+00 0.  1.
         23    2    1    0    0    0 -0.15828731889E+02  0.20738743682E+02  0.11792112699E+02  0.96459628632E+02  0.92112766711E+02 0.  0.
         13    1    3    3    0    0  0.38429751253E+02  0.14018565367E+02  0.23257775566E+01  0.40972995517E+02  0.10566000000E+00 0. -1.
         22    1    1    0    0    0  0.15828731889E+02 -0.20738743682E+02 -0.11792112699E+02  0.28630371368E+02  0.00000000000E+00 0.  1.
</event>
<event>
 5    1  0.1261010E-009  0.9118800E+02  0.7561462E-02  0.1125453E+00
         25   -1    0    0    0    0  0.00000000000E+00  0.00000000000E+00  0.99999998245E-14  0.12509000000E+03  0.12509000000E+03 0.  0.
        -13    1    3    3    0    0  0.47220251075E+02  0.38935935289E+02 -0.11860951631E+02  0.62341418864E+02  0.10566000000E+00 0.  1.
         23    2    1    0    0    0  0.20838899366E+02  0.21295224586E+02 -0.40858633201E+01  0.95016081133E+02  0.90131099394E+02 0.  0.
         13    1    3    3    0    0 -0.26381351709E+02 -0.17640710703E+02  0.77750883108E+01  0.32674662269E+02  0.10566000000E+00 0. -1.
         22    1    1    0    0    0 -0.20838899366E+02 -0.21295224586E+02  0.40858633201E+01  0.30073918867E+02  0.00000000000E+00 0.  1.
</event>
<event>
 5    1  0.1261010E-009  0.9118800E+02  0.7561462E-02  0.1125453E+00
         25   -1    0    0    0    0  0.00000000000E+00  0.00000000000E+00  0.99999998245E-14  0.12509000000E+03  0.12509000000E+03 0.  0.
        -13    1    3    3    0    0  0.24275848043E+02  0.21553229475E+01  0.38115363983E+02  0.45241069294E+02  0.10566000000E+00 0.  1.
         23    2    1    0    0    0 -0.25332566457E+01 -0.26427497822E+02  0.21115541403E+01  0.98457525626E+02  0.94787107041E+02 0.  0.
         13    1    3    3    0    0 -0.26809104688E+02 -0.28582820770E+02 -0.36003809843E+02  0.53216456333E+02  0.10566000000E+00 0. -1.
         22    1    1    0    0    0  0.25332566457E+01  0.26427497822E+02 -0.21115541403E+01  0.26632474374E+02  0.00000000000E+00 0.  1.
</event>
<event>
 5    1  0.1261010E-009  0.9118800E+02  0.7561462E-02  0.1125453E+00
         25   -1    0    0    0    0  0.00000000000E+00  0.00000000000E+00  0.99999998245E-14  0.12509000000E+03  0.12509000000E+03 0.  0.
        -13    1    3    3    0    0 -0.13318125755E+02 -0.32221280501E+02 -0.42479046814E+02  0.54955108707E+02  0.10566000000E+00 0. -1.
         23    2    1    0    0    0 -0.22905396674E+02 -0.21669143938E+01 -0.25364216875E+02  0.90845347681E+02  0.84143811316E+02 0.  0.
         13    1    3    3    0    0 -0.95872709186E+01  0.30054366107E+02  0.17114829939E+02  0.35890238974E+02  0.10566000000E+00 0.  1.
         22    1    1    0    0    0  0.22905396674E+02  0.21669143938E+01  0.25364216875E+02  0.34244652319E+02  0.00000000000E+00 0. -1.
</event>
<event>
 5    1  0.1261010E-009  0.9118800E+02  0.7561462E-02  0.1125453E+00
         25   -1    0    0    0    0  0.00000000000E+00  0.00000000000E+00  0.99999998245E-14  0.12509000000E+03  0.12509000000E+03 0.  0.
        -13    1    3    3    0    0 -0.42091307754E+02 -0.13758055948E+01  0.25990066134E+02  0.49488036243E+02  0.10566000000E+00 0.  1.
         23    2    1    0    0    0 -0.27555988138E+02 -0.21199520066E+02 -0.59761197363E+01  0.89813008343E+02  0.82594856542E+02 0.  0.
         13    1    3    3    0    0  0.14535319616E+02 -0.19823714471E+02 -0.31966185870E+02  0.40324972100E+02  0.10566000000E+00 0. -1.
         22    1    1    0    0    0  0.27555988138E+02  0.21199520066E+02  0.59761197363E+01  0.35276991657E+02  0.00000000000E+00 0.  1.
</event>
<event>
 5    1  0.1261010E-009  0.9118800E+02  0.7561462E-02  0.1125453E+00
         25   -1    0    0    0    0  0.00000000000E+00  0.00000000000E+00  0.99999998245E-14  0.12509000000E+03  0.12509000000E+03 0.  0.
        -13    1    3    3    0    0  0.51960865148E+01  0.60910200609E+02 -0.83811568497E+01  0.61703377602E+02  0.10566000000E+00 0. -1.
         23    2    1    0    0    0  0.49042254006E+01  0.26971120484E+02 -0.10558319443E+02  0.95713634051E+02  0.91094066035E+02 0.  0.
         13    1    3    3    0    0 -0.29186111419E+00 -0.33939080126E+02 -0.21771625935E+01  0.34010256448E+02  0.10566000000E+00 0.  1.
         22    1    1    0    0    0 -0.49042254006E+01 -0.26971120484E+02  0.10558319443E+02  0.29376365949E+02  0.00000000000E+00 0. -1.
</event>
<event>
 5    1  0.1261010E-009  0.9118800E+02  0.7561462E-02  0.1125453E+00
         25   -1    0    0    0    0  0.00000000000E+00  0.00000000000E+00  0.99999998245E-14  0.12509000000E+03  0.12509000000E+03 0.  0.
        -13    1    3    3    0    0 -0.55115053771E+02  0.18217945538E+02 -0.17288190349E+02  0.60567775107E+02  0.10566000000E+00 0.  1.
         23    2    1    0    0    0 -0.28334505995E+02 -0.19981023196E+01 -0.53296950883E+01  0.96189441310E+02  0.91745116094E+02 0.  0.
         13    1    3    3    0    0  0.26780547776E+02 -0.20216047858E+02  0.11958495261E+02  0.35621666204E+02  0.10566000000E+00 0. -1.
         22    1    1    0    0    0  0.28334505995E+02  0.19981023196E+01  0.53296950883E+01  0.28900558690E+02  0.00000000000E+00 0.  1.
</event>
<event>
 5    1  0.1261010E-009  0.9118800E+02  0.7561462E-02  0.1125453E+00
         25   -1    0    0    0    0  0.00000000000E+00  0.00000000000E+00  0.99999998245E-14  0.12509000000E+03  0.12509000000E+03 0.  0.
        -13    1    3    3    0    0 -0.19576415287E+02 -0.45057729831E+02 -0.37357820111E+02  0.61717525392E+02  0.10566000000E+00 0.  1.
         23    2    1    0    0    0 -0.50159974537E+01 -0.25339338031E+02 -0.13412090266E+02  0.95984563264E+02  0.91465348287E+02 0.  0.
         13    1    3    3    0    0  0.14560417834E+02  0.19718391800E+02  0.23945729845E+02  0.34267037872E+02  0.10566000000E+00 0. -1.
         22    1    1    0    0    0  0.50159974537E+01  0.25339338031E+02  0.13412090266E+02  0.29105436736E+02  0.00000000000E+00 0.  1.
</event>
<event>
 5    1  0.1261010E-009  0.9118800E+02  0.7561462E-02  0.1125453E+00
         25   -1    0    0    0    0  0.00000000000E+00  0.00000000000E+00  0.99999998245E-14  0.12509000000E+03  0.12509000000E+03 0.  0.
        -13    1    3    3    0    0 -0.38109067143E+01  0.36535058722E+02  0.24829191443E+02  0.44337720257E+02  0.10566000000E+00 0.  1.
         23    2    1    0    0    0  0.17107599708E+02 -0.10975068691E+02  0.20165596542E+02  0.96458315026E+02  0.92110982805E+02 0.  0.
         13    1    3    3    0    0  0.20918506422E+02 -0.47510127413E+02 -0.46635949009E+01  0.52120594770E+02  0.10566000000E+00 0. -1.
         22    1    1    0    0    0 -0.17107599708E+02  0.10975068691E+02 -0.20165596542E+02  0.28631684974E+02  0.00000000000E+00 0.  1.
</event>
<event>
 5    1  0.1261010E-009  0.9118800E+02  0.7561462E-02  0.1125453E+00
         25   -1    0    0    0    0  0.00000000000E+00  0.00000000000E+00  0.99999998245E-14  0.12509000000E+03  0.12509000000E+03 0.  0.
        -13    1    3    3    0    0 -0.16672365922E+01  0.65444170318E+01 -0.30268113147E+02  0.31012560514E+02  0.10566000000E+00 0.  1.
         23    2    1    0    0    0  0.41711618124E+00 -0.23211704266E+01  0.31526820650E+02  0.93475094680E+02  0.87966420224E+02 0.  0.
         13    1    3    3    0    0  0.20843527735E+01 -0.88655874584E+01  0.61794933797E+02  0.62462534166E+02  0.10566000000E+00 0. -1.
         22    1    1    0    0    0 -0.41711618124E+00  0.23211704266E+01 -0.31526820650E+02  0.31614905320E+02  0.00000000000E+00 0. -1.
</event>
<event>
 5    1  0.1261010E-009  0.9118800E+02  0.7561462E-02  0.1125453E+00
         25   -1    0    0    0    0  0.00000000000E+00  0.00000000000E+00  0.99999998245E-14  0.12509000000E+03  0.12509000000E+03 0.  0.
        -13    1    3    3    0    0 -0.16915755943E+02  0.50043855506E+02  0.29540629580E+02  0.60524294568E+02  0.10566000000E+00 0.  1.
         23    2    1    0    0    0  0.29096700340E+01  0.20679534772E+02  0.17177056241E+02  0.98050018506E+02  0.94247787931E+02 0.  0.
         13    1    3    3    0    0  0.19825425977E+02 -0.29364320733E+02 -0.12363573339E+02  0.37525723938E+02  0.10566000000E+00 0. -1.
         22    1    1    0    0    0 -0.29096700340E+01 -0.20679534772E+02 -0.17177056241E+02  0.27039981494E+02  0.00000000000E+00 0.  1.
</event>
<event>
 5    1  0.1261010E-009  0.9118800E+02  0.7561462E-02  0.1125453E+00
         25   -1    0    0    0    0  0.00000000000E+00  0.00000000000E+00  0.99999998245E-14  0.12509000000E+03  0.12509000000E+03 0.  0.
        -13    1    3    3    0    0 -0.16979845493E+02  0.56468588618E+01 -0.39172922411E+02  0.43066590092E+02  0.10566000000E+00 0.  1.
         23    2    1    0    0    0  0.25683268029E+02  0.10478678689E+02 -0.76996180636E+01  0.96302553395E+02  0.91899209509E+02 0.  0.
         13    1    3    3    0    0  0.42663113522E+02  0.48318198272E+01  0.31473304347E+02  0.53235963303E+02  0.10566000000E+00 0. -1.
         22    1    1    0    0    0 -0.25683268029E+02 -0.10478678689E+02  0.76996180636E+01  0.28787446605E+02  0.00000000000E+00 0.  1.
</event>
<event>
 5    1  0.1261010E-009  0.9118800E+02  0.7561462E-02  0.1125453E+00
         25   -1    0    0    0    0  0.00000000000E+00  0.00000000000E+00  0.99999998245E-14  0.12509000000E+03  0.12509000000E+03 0.  0.
        -13    1    3    3    0    0  0.30822355925E+02 -0.21379627917E+02  0.50865123200E+01  0.37854852876E+02  0.10566000000E+00 0.  1.
         23    2    1    0    0    0 -0.26272686576E+02 -0.12285252645E+02  0.49353623396E+01  0.95669950818E+02  0.91034060634E+02 0.  0.
         13    1    3    3    0    0 -0.57095042500E+02  0.90943752715E+01 -0.15114998037E+00  0.57815097942E+02  0.10566000000E+00 0. -1.
         22    1    1    0    0    0  0.26272686576E+02  0.12285252645E+02 -0.49353623396E+01  0.29420049182E+02  0.00000000000E+00 0. -1.
</event>
<event>
 5    1  0.1261010E-009  0.9118800E+02  0.7561462E-02  0.1125453E+00
         25   -1    0    0    0    0  0.00000000000E+00  0.00000000000E+00  0.99999998245E-14  0.12509000000E+03  0.12509000000E+03 0.  0.
        -13    1    3    3    0    0  0.43709301056E+02  0.62294340879E+01 -0.66332585232E+01  0.44646613875E+02  0.10566000000E+00 0.  1.
         23    2    1    0    0    0  0.11677139684E+02  0.18947546983E+02  0.25133564422E+02  0.91518268015E+02  0.85138312128E+02 0.  0.
         13    1    3    3    0    0 -0.32032161372E+02  0.12718112895E+02  0.31766822946E+02  0.46871654140E+02  0.10566000000E+00 0. -1.
         22    1    1    0    0    0 -0.11677139684E+02 -0.18947546983E+02 -0.25133564422E+02  0.33571731985E+02  0.00000000000E+00 0.  1.
</event>
<event>
 5    1  0.1261010E-009  0.9118800E+02  0.7561462E-02  0.1125453E+00
         25   -1    0    0    0    0  0.00000000000E+00  0.00000000000E+00  0.99999998245E-14  0.12509000000E+03  0.12509000000E+03 0.  0.
        -13    1    3    3    0    0  0.10137520803E+02  0.59307555989E+02  0.12289949000E+02  0.61410174531E+02  0.10566000000E+00 0. -1.
         23    2    1    0    0    0  0.12811808270E+02  0.25236288305E+02  0.59359528783E+01  0.96172043379E+02  0.91721391794E+02 0.  0.
         13    1    3    3    0    0  0.26742874677E+01 -0.34071267684E+02 -0.63539961216E+01  0.34761868848E+02  0.10566000000E+00 0.  1.
         22    1    1    0    0    0 -0.12811808270E+02 -0.25236288305E+02 -0.59359528783E+01  0.28917956621E+02  0.00000000000E+00 0. -1.
</event>
<event>
 5    1  0.1261010E-009  0.9118800E+02  0.7561462E-02  0.1125453E+00
         25   -1    0    0    0    0  0.00000000000E+00  0.00000000000E+00  0.99999998245E-14  0.12509000000E+03  0.12509000000E+03 0.  0.
        -13    1    3    3    0    0  0.11526566966E+02  0.17629792636E+02 -0.29047985466E+02  0.35881303741E+02  0.10566000000E+00 0. -1.
         23    2    1    0    0    0  0.31393978726E+01  0.12137138260E+02  0.28320206775E+02  0.94119044962E+02  0.88877413153E+02 0.  0.
         13    1    3    3    0    0 -0.83871690939E+01 -0.54926543760E+01  0.57368192242E+02  0.58237741222E+02  0.10566000000E+00 0.  1.
         22    1    1    0    0    0 -0.31393978726E+01 -0.12137138260E+02 -0.28320206775E+02  0.30970955038E+02  0.00000000000E+00 0.  1.
</event>
<event>
 5    1  0.1261010E-009  0.9118800E+02  0.7561462E-02  0.1125453E+00
         25   -1    0    0    0    0  0.00000000000E+00  0.00000000000E+00  0.99999998245E-14  0.12509000000E+03  0.12509000000E+03 0.  0.
        -13    1    3    3    0    0  0.45549110577E+02  0.15951251689E+02 -0.16988760766E+02  0.51164372968E+02  0.10566000000E+00 0.  1.
         23    2    1    0    0    0  0.20058315189E+02  0.87333540786E+01  0.19178298283E+02  0.95996794493E+02  0.91482074453E+02 0.  0.
         13    1    3    3    0    0 -0.25490795389E+02 -0.72178976102E+01  0.36167059049E+02  0.44832421524E+02  0.10566000000E+00 0. -1.
         22    1    1    0    0    0 -0.20058315189E+02 -0.87333540786E+01 -0.19178298283E+02  0.29093205507E+02  0.00000000000E+00 0.  1.
</event>
<event>
 5    1  0.1261010E-009  0.9118800E+02  0.7561462E-02  0.1125453E+00
         25   -1    0    0    0    0  0.00000000000E+00  0.00000000000E+00  0.99999998245E-14  0.12509000000E+03  0.12509000000E+03 0.  0.
        -13    1    3    3    0    0  0.17235371819E+02 -0.38930504279E+02 -0.17135900555E+02  0.45894361931E+02  0.10566000000E+00 0.  1.
         23    2    1    0    0    0 -0.26849900511E+01 -0.76550024101E+01  0.23097572119E+02  0.10060927143E+03  0.97585446797E+02 0.  0.
         13    1    3    3    0    0 -0.19920361870E+02  0.31275501869E+02  0.40233472674E+02  0.54714909500E+02  0.10566000000E+00 0. -1.
         22    1    1    0    0    0  0.26849900511E+01  0.76550024101E+01 -0.23097572119E+02  0.24480728569E+02  0.00000000000E+00 0. -1.
</event>
<event>
 5    1  0.1261010E-009  0.9118800E+02  0.7561462E-02  0.1125453E+00
         25   -1    0    0    0    0  0.00000000000E+00  0.00000000000E+00  0.99999998245E-14  0.12509000000E+03  0.12509000000E+03 0.  0.
        -13    1    3    3    0    0 -0.55016140652E+00 -0.12059240337E+02 -0.21329750943E+02  0.24509128798E+02  0.10566000000E+00 0. -1.
         23    2    1    0    0    0 -0.11568286551E+02  0.12530444460E+01  0.37500926019E+02  0.85825323427E+02  0.76316913688E+02 0.  0.
         13    1    3    3    0    0 -0.11018125145E+02  0.13312284783E+02  0.58830676963E+02  0.61316194629E+02  0.10566000000E+00 0.  1.
         22    1    1    0    0    0  0.11568286551E+02 -0.12530444460E+01 -0.37500926019E+02  0.39264676573E+02  0.00000000000E+00 0.  1.
</event>
<event>
 5    1  0.1261010E-009  0.9118800E+02  0.7561462E-02  0.1125453E+00
         25   -1    0    0    0    0  0.00000000000E+00  0.00000000000E+00  0.99999998245E-14  0.12509000000E+03  0.12509000000E+03 0.  0.
        -13    1    3    3    0    0 -0.20130795449E+02 -0.23072925901E+02 -0.13727850316E+02  0.33557024203E+02  0.10566000000E+00 0. -1.
         23    2    1    0    0    0  0.56426164978E+01  0.28547203943E+02  0.75076079044E+01  0.95037609906E+02  0.90160973522E+02 0.  0.
         13    1    3    3    0    0  0.25773411947E+02  0.51620129844E+02  0.21235458221E+02  0.61480585703E+02  0.10566000000E+00 0.  1.
         22    1    1    0    0    0 -0.56426164978E+01 -0.28547203943E+02 -0.75076079044E+01  0.30052390094E+02  0.00000000000E+00 0.  1.
</event>
<event>
 5    1  0.1261010E-009  0.9118800E+02  0.7561462E-02  0.1125453E+00
         25   -1    0    0    0    0  0.00000000000E+00  0.00000000000E+00  0.99999998245E-14  0.12509000000E+03  0.12509000000E+03 0.  0.
        -13    1    3    3    0    0 -0.38545561205E+02  0.69299793058E+01 -0.27975347878E+01  0.39263497892E+02  0.10566000000E+00 0.  1.
         23    2    1    0    0    0  0.51840917053E+01 -0.25639263194E+02 -0.14715968483E+02  0.95076563803E+02  0.90215002257E+02 0.  0.
         13    1    3    3    0    0  0.43729652910E+02 -0.32569242500E+02 -0.11918433695E+02  0.55813065911E+02  0.10566000000E+00 0. -1.
         22    1    1    0    0    0 -0.51840917053E+01  0.25639263194E+02  0.14715968483E+02  0.30013436197E+02  0.00000000000E+00 0. -1.
</event>
<event>
 5    1  0.1261010E-009  0.9118800E+02  0.7561462E-02  0.1125453E+00
         25   -1    0    0    0    0  0.00000000000E+00  0.00000000000E+00  0.99999998245E-14  0.12509000000E+03  0.12509000000E+03 0.  0.
        -13    1    3    3    0    0 -0.46478608022E+02  0.18732788062E+02  0.88619295282E+01  0.50889324138E+02  0.10566000000E+00 0.  1.
         23    2    1    0    0    0 -0.44998172043E+01  0.21201327938E+02  0.21259595502E+02  0.94730239426E+02  0.89733512132E+02 0.  0.
         13    1    3    3    0    0  0.41978790818E+02  0.24685398761E+01  0.12397665974E+02  0.43840915288E+02  0.10566000000E+00 0. -1.
         22    1    1    0    0    0  0.44998172043E+01 -0.21201327938E+02 -0.21259595502E+02  0.30359760574E+02  0.00000000000E+00 0. -1.
</event>
<event>
 5    1  0.1261010E-009  0.9118800E+02  0.7561462E-02  0.1125453E+00
         25   -1    0    0    0    0  0.00000000000E+00  0.00000000000E+00  0.99999998245E-14  0.12509000000E+03  0.12509000000E+03 0.  0.
        -13    1    3    3    0    0 -0.30513972174E+02  0.15771413491E+02  0.21718628883E+01  0.34417555605E+02  0.10566000000E+00 0. -1.
         23    2    1    0    0    0  0.22128085558E+02 -0.17589022880E+02 -0.80769804336E+00  0.96811416717E+02  0.92589265762E+02 0.  0.
         13    1    3    3    0    0  0.52642057732E+02 -0.33360436371E+02 -0.29795609317E+01  0.62393861113E+02  0.10566000000E+00 0.  1.
         22    1    1    0    0    0 -0.22128085558E+02  0.17589022880E+02  0.80769804336E+00  0.28278583283E+02  0.00000000000E+00 0.  1.
</event>
<event>
 5    1  0.1261010E-009  0.9118800E+02  0.7561462E-02  0.1125453E+00
         25   -1    0    0    0    0  0.00000000000E+00  0.00000000000E+00  0.99999998245E-14  0.12509000000E+03  0.12509000000E+03 0.  0.
        -13    1    3    3    0    0 -0.24931407898E+02  0.24950230571E+02 -0.29839659221E+01  0.35397801089E+02  0.10566000000E+00 0. -1.
         23    2    1    0    0    0  0.82456062718E+01 -0.22453286337E+02 -0.17975955399E+02  0.95168852585E+02  0.90342877084E+02 0.  0.
         13    1    3    3    0    0  0.33177014169E+02 -0.47403516908E+02 -0.14991989477E+02  0.59771051496E+02  0.10566000000E+00 0.  1.
         22    1    1    0    0    0 -0.82456062718E+01  0.22453286337E+02  0.17975955399E+02  0.29921147415E+02  0.00000000000E+00 0.  1.
</event>
<event>
 5    1  0.1261010E-009  0.9118800E+02  0.7561462E-02  0.1125453E+00
         25   -1    0    0    0    0  0.00000000000E+00  0.00000000000E+00  0.99999998245E-14  0.12509000000E+03  0.12509000000E+03 0.  0.
        -13    1    3    3    0    0  0.38379973169E+02 -0.18324808445E+02 -0.40734092707E+02  0.58890563062E+02  0.10566000000E+00 0. -1.
         23    2    1    0    0    0  0.15260291331E+02  0.48278412035E+01 -0.25500217709E+02  0.94982764236E+02  0.90084848096E+02 0.  0.
         13    1    3    3    0    0 -0.23119681838E+02  0.23152649649E+02  0.15233874998E+02  0.36092201174E+02  0.10566000000E+00 0.  1.
         22    1    1    0    0    0 -0.15260291331E+02 -0.48278412035E+01  0.25500217709E+02  0.30107235764E+02  0.00000000000E+00 0. -1.
</event>
<event>
 5    1  0.1261010E-009  0.9118800E+02  0.7561462E-02  0.1125453E+00
         25   -1    0    0    0    0  0.00000000000E+00  0.00000000000E+00  0.99999998245E-14  0.12509000000E+03  0.12509000000E+03 0.  0.
        -13    1    3    3    0    0  0.33772401467E+01  0.44151675261E+02 -0.12883854230E+02  0.46117036366E+02  0.10566000000E+00 0. -1.
         23    2    1    0    0    0 -0.54796143618E+01 -0.77730152810E+01  0.16212721349E+02  0.10629376970E+03  0.10461867521E+03 0.  0.
         13    1    3    3    0    0 -0.88568545086E+01 -0.51924690542E+02  0.29096575579E+02  0.60176733329E+02  0.10566000000E+00 0.  1.
         22    1    1    0    0    0  0.54796143618E+01  0.77730152810E+01 -0.16212721349E+02  0.18796230304E+02  0.00000000000E+00 0.  1.
</event>
<event>
 5    1  0.1261010E-009  0.9118800E+02  0.7561462E-02  0.1125453E+00
         25   -1    0    0    0    0  0.00000000000E+00  0.00000000000E+00  0.99999998245E-14  0.12509000000E+03  0.12509000000E+03 0.  0.
        -13    1    3    3    0    0  0.32959397628E+02 -0.18292050072E+02 -0.59057427389E+01  0.38155077632E+02  0.10566000000E+00 0.  1.
         23    2    1    0    0    0 -0.89907580901E+01  0.44766162964E+01  0.27101635841E+02  0.96187188896E+02  0.91742044984E+02 0.  0.
         13    1    3    3    0    0 -0.41950155718E+02  0.22768666368E+02  0.33007378580E+02  0.58032111263E+02  0.10566000000E+00 0. -1.
         22    1    1    0    0    0  0.89907580901E+01 -0.44766162964E+01 -0.27101635841E+02  0.28902811104E+02  0.00000000000E+00 0. -1.
</event>
<event>
 5    1  0.1261010E-009  0.9118800E+02  0.7561462E-02  0.1125453E+00
         25   -1    0    0    0    0  0.00000000000E+00  0.00000000000E+00  0.99999998245E-14  0.12509000000E+03  0.12509000000E+03 0.  0.
        -13    1    3    3    0    0 -0.28254474741E+02 -0.27331257146E+02 -0.12689052035E+02  0.41307822088E+02  0.10566000000E+00 0.  1.
         23    2    1    0    0    0 -0.37848871054E+01  0.19498141327E+02 -0.22531453881E+02  0.95053866767E+02  0.90183525589E+02 0.  0.
         13    1    3    3    0    0  0.24469587635E+02  0.46829398473E+02 -0.98424018459E+01  0.53746044678E+02  0.10566000000E+00 0. -1.
         22    1    1    0    0    0  0.37848871054E+01 -0.19498141327E+02  0.22531453881E+02  0.30036133233E+02  0.00000000000E+00 0. -1.
</event>
<event>
 5    1  0.1261010E-009  0.9118800E+02  0.7561462E-02  0.1125453E+00
         25   -1    0    0    0    0  0.00000000000E+00  0.00000000000E+00  0.99999998245E-14  0.12509000000E+03  0.12509000000E+03 0.  0.
        -13    1    3    3    0    0  0.11574832090E+02 -0.58561962639E+02  0.17179590049E+02  0.62117869283E+02  0.10566000000E+00 0.  1.
         23    2    1    0    0    0  0.20017496853E+01 -0.24154653286E+02  0.11431927944E+02  0.98291805029E+02  0.94568153636E+02 0.  0.
         13    1    3    3    0    0 -0.95730824050E+01  0.34407309353E+02 -0.57476621049E+01  0.36173935746E+02  0.10566000000E+00 0. -1.
         22    1    1    0    0    0 -0.20017496853E+01  0.24154653286E+02 -0.11431927944E+02  0.26798194971E+02  0.00000000000E+00 0.  1.
</event>
<event>
 5    1  0.1261010E-009  0.9118800E+02  0.7561462E-02  0.1125453E+00
         25   -1    0    0    0    0  0.00000000000E+00  0.00000000000E+00  0.99999998245E-14  0.12509000000E+03  0.12509000000E+03 0.  0.
        -13    1    3    3    0    0 -0.22186394982E+02 -0.12153757994E+02  0.22303230813E+02  0.33725290576E+02  0.10566000000E+00 0. -1.
         23    2    1    0    0    0  0.46947791860E+01  0.68667765164E+01 -0.29129166831E+02  0.94796404445E+02  0.89825699909E+02 0.  0.
         13    1    3    3    0    0  0.26881174168E+02  0.19020534511E+02 -0.51432397645E+02  0.61071113869E+02  0.10566000000E+00 0.  1.
         22    1    1    0    0    0 -0.46947791860E+01 -0.68667765164E+01  0.29129166831E+02  0.30293595555E+02  0.00000000000E+00 0.  1.
</event>
<event>
 5    1  0.1261010E-009  0.9118800E+02  0.7561462E-02  0.1125453E+00
         25   -1    0    0    0    0  0.00000000000E+00  0.00000000000E+00  0.99999998245E-14  0.12509000000E+03  0.12509000000E+03 0.  0.
        -13    1    3    3    0    0 -0.29590540135E+02  0.32861759395E+02 -0.19985972306E+02  0.48527781209E+02  0.10566000000E+00 0.  1.
         23    2    1    0    0    0  0.13076312725E+02  0.25321495587E+02  0.79214076632E+00  0.96580430024E+02  0.92276670309E+02 0.  0.
         13    1    3    3    0    0  0.42666852860E+02 -0.75402638084E+01  0.20778113072E+02  0.48052648815E+02  0.10566000000E+00 0. -1.
         22    1    1    0    0    0 -0.13076312725E+02 -0.25321495587E+02 -0.79214076632E+00  0.28509569976E+02  0.00000000000E+00 0.  1.
</event>
<event>
 5    1  0.1261010E-009  0.9118800E+02  0.7561462E-02  0.1125453E+00
         25   -1    0    0    0    0  0.00000000000E+00  0.00000000000E+00  0.99999998245E-14  0.12509000000E+03  0.12509000000E+03 0.  0.
        -13    1    3    3    0    0  0.17514759774E+02  0.22129475427E+02 -0.21047302735E+02  0.35206258095E+02  0.10566000000E+00 0.  1.
         23    2    1    0    0    0 -0.16690149335E+02 -0.24139761974E+02 -0.26163056093E+01  0.95625882025E+02  0.90973485506E+02 0.  0.
         13    1    3    3    0    0 -0.34204909109E+02 -0.46269237401E+02  0.18430997125E+02  0.60419623930E+02  0.10566000000E+00 0. -1.
         22    1    1    0    0    0  0.16690149335E+02  0.24139761974E+02  0.26163056093E+01  0.29464117975E+02  0.00000000000E+00 0. -1.
</event>
<event>
 5    1  0.1261010E-009  0.9118800E+02  0.7561462E-02  0.1125453E+00
         25   -1    0    0    0    0  0.00000000000E+00  0.00000000000E+00  0.99999998245E-14  0.12509000000E+03  0.12509000000E+03 0.  0.
        -13    1    3    3    0    0  0.32417627144E+02 -0.85624734328E+01  0.16649822179E+02  0.37435895122E+02  0.10566000000E+00 0. -1.
         23    2    1    0    0    0 -0.24339317235E+02 -0.15069991538E+02  0.21140370635E+01  0.96385015048E+02  0.92011384973E+02 0.  0.
         13    1    3    3    0    0 -0.56756944379E+02 -0.65075181052E+01 -0.14535785115E+02  0.58949119926E+02  0.10566000000E+00 0.  1.
         22    1    1    0    0    0  0.24339317235E+02  0.15069991538E+02 -0.21140370635E+01  0.28704984952E+02  0.00000000000E+00 0.  1.
</event>
<event>
 5    1  0.1261010E-009  0.9118800E+02  0.7561462E-02  0.1125453E+00
         25   -1    0    0    0    0  0.00000000000E+00  0.00000000000E+00  0.99999998245E-14  0.12509000000E+03  0.12509000000E+03 0.  0.
        -13    1    3    3    0    0  0.52657008291E+02  0.19813135936E+02  0.35894731679E+01  0.56375671699E+02  0.10566000000E+00 0.  1.
         23    2    1    0    0    0  0.15278643391E+02  0.16224085447E+02  0.17843976506E+02  0.96540649919E+02  0.92222728743E+02 0.  0.
         13    1    3    3    0    0 -0.37378364900E+02 -0.35890504892E+01  0.14254503338E+02  0.40164978221E+02  0.10566000000E+00 0. -1.
         22    1    1    0    0    0 -0.15278643391E+02 -0.16224085447E+02 -0.17843976506E+02  0.28549350081E+02  0.00000000000E+00 0.  1.
</event>
<event>
 5    1  0.1261010E-009  0.9118800E+02  0.7561462E-02  0.1125453E+00
         25   -1    0    0    0    0  0.00000000000E+00  0.00000000000E+00  0.99999998245E-14  0.12509000000E+03  0.12509000000E+03 0.  0.
        -13    1    3    3    0    0  0.15634735775E+02 -0.36029157560E+02  0.37505512339E+02  0.54306719447E+02  0.10566000000E+00 0.  1.
         23    2    1    0    0    0  0.13516766405E+02 -0.25356293463E+02 -0.29545243491E+01  0.96204470641E+02  0.91765605566E+02 0.  0.
         13    1    3    3    0    0 -0.21179693694E+01  0.10672864096E+02 -0.40460036688E+02  0.41897751194E+02  0.10566000000E+00 0. -1.
         22    1    1    0    0    0 -0.13516766405E+02  0.25356293463E+02  0.29545243491E+01  0.28885529359E+02  0.00000000000E+00 0.  1.
</event>
<event>
 5    1  0.1261010E-009  0.9118800E+02  0.7561462E-02  0.1125453E+00
         25   -1    0    0    0    0  0.00000000000E+00  0.00000000000E+00  0.99999998245E-14  0.12509000000E+03  0.12509000000E+03 0.  0.
        -13    1    3    3    0    0  0.19687119584E+02 -0.23656099283E+02 -0.18310488804E+02  0.35811714216E+02  0.10566000000E+00 0. -1.
         23    2    1    0    0    0  0.21343738313E+01  0.13710382096E+02  0.25531277157E+02  0.96031847234E+02  0.91529992031E+02 0.  0.
         13    1    3    3    0    0 -0.17552745753E+02  0.37366481379E+02  0.43841765962E+02  0.60220133018E+02  0.10566000000E+00 0.  1.
         22    1    1    0    0    0 -0.21343738313E+01 -0.13710382096E+02 -0.25531277157E+02  0.29058152766E+02  0.00000000000E+00 0.  1.
</event>
<event>
 5    1  0.1261010E-009  0.9118800E+02  0.7561462E-02  0.1125453E+00
         25   -1    0    0    0    0  0.00000000000E+00  0.00000000000E+00  0.99999998245E-14  0.12509000000E+03  0.12509000000E+03 0.  0.
        -13    1    3    3    0    0 -0.31828235876E+02 -0.49694832554E+02 -0.68300790938E+01  0.59407694166E+02  0.10566000000E+00 0.  1.
         23    2    1    0    0    0 -0.23522738763E+02 -0.13916422303E+02 -0.92985813716E+01  0.96220471702E+02  0.91787414771E+02 0.  0.
         13    1    3    3    0    0  0.83054971137E+01  0.35778410251E+02 -0.24685022778E+01  0.36812777536E+02  0.10566000000E+00 0. -1.
         22    1    1    0    0    0  0.23522738763E+02  0.13916422303E+02  0.92985813716E+01  0.28869528298E+02  0.00000000000E+00 0.  1.
</event>
<event>
 5    1  0.1261010E-009  0.9118800E+02  0.7561462E-02  0.1125453E+00
         25   -1    0    0    0    0  0.00000000000E+00  0.00000000000E+00  0.99999998245E-14  0.12509000000E+03  0.12509000000E+03 0.  0.
        -13    1    3    3    0    0  0.35784479842E+02  0.37784113395E+02 -0.37398594937E+01  0.52174380070E+02  0.10566000000E+00 0.  1.
         23    2    1    0    0    0  0.17242832006E+02  0.79846191038E+01  0.22237749841E+02  0.95839582638E+02  0.91266854249E+02 0.  0.
         13    1    3    3    0    0 -0.18541647836E+02 -0.29799494291E+02  0.25977609335E+02  0.43665202568E+02  0.10566000000E+00 0. -1.
         22    1    1    0    0    0 -0.17242832006E+02 -0.79846191038E+01 -0.22237749841E+02  0.29250417362E+02  0.00000000000E+00 0.  1.
</event>
<event>
 5    1  0.1261010E-009  0.9118800E+02  0.7561462E-02  0.1125453E+00
         25   -1    0    0    0    0  0.00000000000E+00  0.00000000000E+00  0.99999998245E-14  0.12509000000E+03  0.12509000000E+03 0.  0.
        -13    1    3    3    0    0 -0.12248728444E+02 -0.54211963324E+02 -0.19447876578E+02  0.58882929473E+02  0.10566000000E+00 0. -1.
         23    2    1    0    0    0 -0.19807419763E+02 -0.19814568202E+02 -0.72973865594E+01  0.96138267042E+02  0.91675315917E+02 0.  0.
         13    1    3    3    0    0 -0.75586913187E+01  0.34397395122E+02  0.12150490018E+02  0.37255337569E+02  0.10566000000E+00 0.  1.
         22    1    1    0    0    0  0.19807419763E+02  0.19814568202E+02  0.72973865594E+01  0.28951732958E+02  0.00000000000E+00 0. -1.
</event>
<event>
 5    1  0.1261010E-009  0.9118800E+02  0.7561462E-02  0.1125453E+00
         25   -1    0    0    0    0  0.00000000000E+00  0.00000000000E+00  0.99999998245E-14  0.12509000000E+03  0.12509000000E+03 0.  0.
        -13    1    3    3    0    0  0.31227133457E+02 -0.21865175653E+02 -0.16590369845E+02  0.41574887925E+02  0.10566000000E+00 0. -1.
         23    2    1    0    0    0 -0.15906591331E+02 -0.19698595455E+01 -0.26912139551E+02  0.93766474502E+02  0.88379796848E+02 0.  0.
         13    1    3    3    0    0 -0.47133724789E+02  0.19895316108E+02 -0.10321769706E+02  0.52191586577E+02  0.10566000000E+00 0.  1.
         22    1    1    0    0    0  0.15906591331E+02  0.19698595455E+01  0.26912139551E+02  0.31323525498E+02  0.00000000000E+00 0.  1.
</event>
<event>
 5    1  0.1261010E-009  0.9118800E+02  0.7561462E-02  0.1125453E+00
         25   -1    0    0    0    0  0.00000000000E+00  0.00000000000E+00  0.99999998245E-14  0.12509000000E+03  0.12509000000E+03 0.  0.
        -13    1    3    3    0    0  0.69783529842E+00 -0.58421026050E+01 -0.28557001930E+02  0.29157000193E+02  0.10566000000E+00 0.  1.
         23    2    1    0    0    0 -0.21190116597E+02  0.24146024658E+01  0.27727225774E+02  0.90109285376E+02  0.83042356153E+02 0.  0.
         13    1    3    3    0    0 -0.21887951895E+02  0.82567050708E+01  0.56284227704E+02  0.60952285184E+02  0.10566000000E+00 0. -1.
         22    1    1    0    0    0  0.21190116597E+02 -0.24146024658E+01 -0.27727225774E+02  0.34980714624E+02  0.00000000000E+00 0. -1.
</event>
<event>
 5    1  0.1261010E-009  0.9118800E+02  0.7561462E-02  0.1125453E+00
         25   -1    0    0    0    0  0.00000000000E+00  0.00000000000E+00  0.99999998245E-14  0.12509000000E+03  0.12509000000E+03 0.  0.
        -13    1    3    3    0    0  0.11471909822E+02  0.20357169475E+02  0.48503751826E+02  0.53839058027E+02  0.10566000000E+00 0.  1.
         23    2    1    0    0    0 -0.13623669892E+02  0.21082675333E+02  0.14518191781E+02  0.96092388493E+02  0.91612693734E+02 0.  0.
         13    1    3    3    0    0 -0.25095579714E+02  0.72550585781E+00 -0.33985560044E+02  0.42253330466E+02  0.10566000000E+00 0. -1.
         22    1    1    0    0    0  0.13623669892E+02 -0.21082675333E+02 -0.14518191781E+02  0.28997611507E+02  0.00000000000E+00 0.  1.
</event>
<event>
 5    1  0.1261010E-009  0.9118800E+02  0.7561462E-02  0.1125453E+00
         25   -1    0    0    0    0  0.00000000000E+00  0.00000000000E+00  0.99999998245E-14  0.12509000000E+03  0.12509000000E+03 0.  0.
        -13    1    3    3    0    0 -0.21236624824E+02 -0.34165551978E+02  0.83495533582E+01  0.41085342656E+02  0.10566000000E+00 0. -1.
         23    2    1    0    0    0  0.26789829501E+02 -0.45874406285E+01  0.31401460461E+01  0.97729442743E+02  0.93821340245E+02 0.  0.
         13    1    3    3    0    0  0.48026454325E+02  0.29578111349E+02 -0.52094073122E+01  0.56644100087E+02  0.10566000000E+00 0.  1.
         22    1    1    0    0    0 -0.26789829501E+02  0.45874406285E+01 -0.31401460461E+01  0.27360557257E+02  0.00000000000E+00 0.  1.
</event>
<event>
 4    1  0.1261010E-009  0.9118800E+02  0.7561462E-02  0.1125453E+00
         25   -1    0    0    0    0  0.00000000000E+00  0.00000000000E+00  0.99999998245E-14  0.12509000000E+03  0.12509000000E+03 0.  0.
        -13    1    1    0    0    0  0.42231664576E+02  0.12667416191E+02 -0.73893948181E+01  0.44705606423E+02  0.10566000000E+00 0. -1.
         13    1    1    0    0    0  0.96463538421E+01  0.12368580285E+02  0.15690164413E+02  0.22186174615E+02  0.10566000000E+00 0.  1.
         22    1    1    0    0    0 -0.51878018418E+02 -0.25035996476E+02 -0.83007695953E+01  0.58198218962E+02  0.00000000000E+00 0. -1.
</event>
<event>
 5    1  0.1261010E-009  0.9118800E+02  0.7561462E-02  0.1125453E+00
         25   -1    0    0    0    0  0.00000000000E+00  0.00000000000E+00  0.99999998245E-14  0.12509000000E+03  0.12509000000E+03 0.  0.
        -13    1    3    3    0    0 -0.15602564537E+02 -0.11971092456E+02  0.23821084389E+02  0.30890165106E+02  0.10566000000E+00 0.  1.
         23    2    1    0    0    0  0.22483570927E+02 -0.22919362259E+01 -0.23557346297E+02  0.92444747699E+02  0.86488836732E+02 0.  0.
         13    1    3    3    0    0  0.38086135464E+02  0.96791562306E+01 -0.47378430686E+02  0.61554582593E+02  0.10566000000E+00 0. -1.
         22    1    1    0    0    0 -0.22483570927E+02  0.22919362259E+01  0.23557346297E+02  0.32645252301E+02  0.00000000000E+00 0. -1.
</event>
<event>
 5    1  0.1261010E-009  0.9118800E+02  0.7561462E-02  0.1125453E+00
         25   -1    0    0    0    0  0.00000000000E+00  0.00000000000E+00  0.99999998245E-14  0.12509000000E+03  0.12509000000E+03 0.  0.
        -13    1    3    3    0    0  0.36094232531E+02  0.20515358334E+02 -0.13449926763E+02  0.43641554091E+02  0.10566000000E+00 0.  1.
         23    2    1    0    0    0  0.52250071051E+01 -0.17832799414E+02 -0.24739839256E+02  0.94148618638E+02  0.88919026709E+02 0.  0.
         13    1    3    3    0    0 -0.30869225425E+02 -0.38348157747E+02 -0.11289912493E+02  0.50507064547E+02  0.10566000000E+00 0. -1.
         22    1    1    0    0    0 -0.52250071051E+01  0.17832799414E+02  0.24739839256E+02  0.30941381362E+02  0.00000000000E+00 0.  1.
</event>
<event>
 5    1  0.1261010E-009  0.9118800E+02  0.7561462E-02  0.1125453E+00
         25   -1    0    0    0    0  0.00000000000E+00  0.00000000000E+00  0.99999998245E-14  0.12509000000E+03  0.12509000000E+03 0.  0.
        -13    1    3    3    0    0 -0.24150833496E+02  0.91350146089E+01 -0.27351770929E+02  0.37614382721E+02  0.10566000000E+00 0.  1.
         23    2    1    0    0    0  0.26239287241E+02  0.12331833334E+02  0.20191684453E+01  0.96027113882E+02  0.91523522938E+02 0.  0.
         13    1    3    3    0    0  0.50390120738E+02  0.31968187246E+01  0.29370939374E+02  0.58412731161E+02  0.10566000000E+00 0. -1.
         22    1    1    0    0    0 -0.26239287241E+02 -0.12331833334E+02 -0.20191684453E+01  0.29062886118E+02  0.00000000000E+00 0. -1.
</event>
<event>
 5    1  0.1261010E-009  0.9118800E+02  0.7561462E-02  0.1125453E+00
         25   -1    0    0    0    0  0.00000000000E+00  0.00000000000E+00  0.99999998245E-14  0.12509000000E+03  0.12509000000E+03 0.  0.
        -13    1    3    3    0    0  0.29109667332E+00 -0.32187943235E+02 -0.45820026541E+02  0.55996735826E+02  0.10566000000E+00 0. -1.
         23    2    1    0    0    0  0.19853779906E+02 -0.17989311117E+02 -0.18196550983E+02  0.92703237910E+02  0.86861890149E+02 0.  0.
         13    1    3    3    0    0  0.19562683232E+02  0.14198632118E+02  0.27623475558E+02  0.36706502083E+02  0.10566000000E+00 0.  1.
         22    1    1    0    0    0 -0.19853779906E+02  0.17989311117E+02  0.18196550983E+02  0.32386762090E+02  0.00000000000E+00 0. -1.
</event>
<event>
 4    1  0.1261010E-009  0.9118800E+02  0.7561462E-02  0.1125453E+00
         25   -1    0    0    0    0  0.00000000000E+00  0.00000000000E+00  0.99999998245E-14  0.12509000000E+03  0.12509000000E+03 0.  0.
        -13    1    1    0    0    0  0.17219384366E+02  0.58726324371E+02 -0.11110611940E+02  0.62199238209E+02  0.10566000000E+00 0.  1.
         13    1    1    0    0    0 -0.33246755897E+01 -0.95646199461E+01 -0.15838976028E+01  0.10249649659E+02  0.10566000000E+00 0. -1.
         22    1    1    0    0    0 -0.13894708776E+02 -0.49161704425E+02  0.12694509543E+02  0.52641112132E+02  0.00000000000E+00 0.  1.
</event>
<event>
 5    1  0.1261010E-009  0.9118800E+02  0.7561462E-02  0.1125453E+00
         25   -1    0    0    0    0  0.00000000000E+00  0.00000000000E+00  0.99999998245E-14  0.12509000000E+03  0.12509000000E+03 0.  0.
        -13    1    3    3    0    0 -0.34163332068E+02 -0.49846796171E+01 -0.27499931753E+02  0.44138845696E+02  0.10566000000E+00 0.  1.
         23    2    1    0    0    0 -0.24464015772E+01 -0.26439441139E+02  0.90136900481E+01  0.97049394859E+02  0.92910222827E+02 0.  0.
         13    1    3    3    0    0  0.31716930491E+02 -0.21454761521E+02  0.36513621801E+02  0.52910549163E+02  0.10566000000E+00 0. -1.
         22    1    1    0    0    0  0.24464015772E+01  0.26439441139E+02 -0.90136900481E+01  0.28040605141E+02  0.00000000000E+00 0. -1.
</event>
<event>
 5    1  0.1261010E-009  0.9118800E+02  0.7561462E-02  0.1125453E+00
         25   -1    0    0    0    0  0.00000000000E+00  0.00000000000E+00  0.99999998245E-14  0.12509000000E+03  0.12509000000E+03 0.  0.
        -13    1    3    3    0    0 -0.14286097368E+01  0.37109458966E+02  0.20380065965E+02  0.42361670450E+02  0.10566000000E+00 0.  1.
         23    2    1    0    0    0 -0.11393991760E+02  0.10816115346E+02 -0.24891735147E+02  0.95655158773E+02  0.91013732600E+02 0.  0.
         13    1    3    3    0    0 -0.99653820235E+01 -0.26293343620E+02 -0.45271801113E+02  0.53293488323E+02  0.10566000000E+00 0. -1.
         22    1    1    0    0    0  0.11393991760E+02 -0.10816115346E+02  0.24891735147E+02  0.29434841227E+02  0.00000000000E+00 0. -1.
</event>
<event>
 5    1  0.1261010E-009  0.9118800E+02  0.7561462E-02  0.1125453E+00
         25   -1    0    0    0    0  0.00000000000E+00  0.00000000000E+00  0.99999998245E-14  0.12509000000E+03  0.12509000000E+03 0.  0.
        -13    1    3    3    0    0  0.29199111962E+02 -0.27530115553E+02 -0.43212164908E+01  0.40363095492E+02  0.10566000000E+00 0.  1.
         23    2    1    0    0    0  0.47924852206E+01  0.88169002236E+01 -0.31591568045E+02  0.91942861124E+02  0.85759879291E+02 0.  0.
         13    1    3    3    0    0 -0.24406626741E+02  0.36347015777E+02 -0.27270351554E+02  0.51579765632E+02  0.10566000000E+00 0. -1.
         22    1    1    0    0    0 -0.47924852206E+01 -0.88169002236E+01  0.31591568045E+02  0.33147138876E+02  0.00000000000E+00 0.  1.
</event>
<event>
 5    1  0.1261010E-009  0.9118800E+02  0.7561462E-02  0.1125453E+00
         25   -1    0    0    0    0  0.00000000000E+00  0.00000000000E+00  0.99999998245E-14  0.12509000000E+03  0.12509000000E+03 0.  0.
        -13    1    3    3    0    0  0.89183477352E+01 -0.48671885330E+01 -0.33559261481E+02  0.35063679865E+02  0.10566000000E+00 0.  1.
         23    2    1    0    0    0 -0.10459044969E+01 -0.11978379653E+02  0.26305188437E+02  0.96167025843E+02  0.91714548603E+02 0.  0.
         13    1    3    3    0    0 -0.99642522321E+01 -0.71111911203E+01  0.59864449918E+02  0.61103345978E+02  0.10566000000E+00 0. -1.
         22    1    1    0    0    0  0.10459044969E+01  0.11978379653E+02 -0.26305188437E+02  0.28922974157E+02  0.00000000000E+00 0. -1.
</event>
<event>
 5    1  0.1261010E-009  0.9118800E+02  0.7561462E-02  0.1125453E+00
         25   -1    0    0    0    0  0.00000000000E+00  0.00000000000E+00  0.99999998245E-14  0.12509000000E+03  0.12509000000E+03 0.  0.
        -13    1    3    3    0    0  0.23321152482E+02 -0.45270608912E+02 -0.21701090729E+02  0.55355692455E+02  0.10566000000E+00 0.  1.
         23    2    1    0    0    0  0.64158195245E+01 -0.25820901119E+02  0.10402340693E+02  0.96522704596E+02  0.92198384671E+02 0.  0.
         13    1    3    3    0    0 -0.16905332957E+02  0.19449707792E+02  0.32103431421E+02  0.41167012142E+02  0.10566000000E+00 0. -1.
         22    1    1    0    0    0 -0.64158195245E+01  0.25820901119E+02 -0.10402340693E+02  0.28567295404E+02  0.00000000000E+00 0. -1.
</event>
<event>
 5    1  0.1261010E-009  0.9118800E+02  0.7561462E-02  0.1125453E+00
         25   -1    0    0    0    0  0.00000000000E+00  0.00000000000E+00  0.99999998245E-14  0.12509000000E+03  0.12509000000E+03 0.  0.
        -13    1    3    3    0    0 -0.66582724368E+01 -0.34007208900E+02  0.39722349641E+02  0.52713367129E+02  0.10566000000E+00 0.  1.
         23    2    1    0    0    0 -0.57235200927E+00 -0.28932339867E+02 -0.28453250874E+01  0.96012452789E+02  0.91503482658E+02 0.  0.
         13    1    3    3    0    0  0.60859204275E+01  0.50748690336E+01 -0.42567674728E+02  0.43299085660E+02  0.10566000000E+00 0. -1.
         22    1    1    0    0    0  0.57235200927E+00  0.28932339867E+02  0.28453250874E+01  0.29077547211E+02  0.00000000000E+00 0.  1.
</event>
<event>
 5    1  0.1261010E-009  0.9118800E+02  0.7561462E-02  0.1125453E+00
         25   -1    0    0    0    0  0.00000000000E+00  0.00000000000E+00  0.99999998245E-14  0.12509000000E+03  0.12509000000E+03 0.  0.
        -13    1    3    3    0    0  0.68976560573E+01  0.44688041122E+02  0.33408222189E+02  0.56220273499E+02  0.10566000000E+00 0.  1.
         23    2    1    0    0    0  0.71694611163E+01  0.26418713618E+02 -0.35871010280E+01  0.97481724144E+02  0.93490478908E+02 0.  0.
         13    1    3    3    0    0  0.27180505899E+00 -0.18269327503E+02 -0.36995323217E+02  0.41261450646E+02  0.10566000000E+00 0. -1.
         22    1    1    0    0    0 -0.71694611163E+01 -0.26418713618E+02  0.35871010280E+01  0.27608275856E+02  0.00000000000E+00 0.  1.
</event>
<event>
 5    1  0.1261010E-009  0.9118800E+02  0.7561462E-02  0.1125453E+00
         25   -1    0    0    0    0  0.00000000000E+00  0.00000000000E+00  0.99999998245E-14  0.12509000000E+03  0.12509000000E+03 0.  0.
        -13    1    3    3    0    0  0.55701911839E+01 -0.18431678503E+02 -0.40660992178E+02  0.44989790522E+02  0.10566000000E+00 0. -1.
         23    2    1    0    0    0 -0.27239006100E+02 -0.38111059238E+01 -0.23818418301E+01  0.97482733707E+02  0.93491829690E+02 0.  0.
         13    1    3    3    0    0 -0.32809197284E+02  0.14620572579E+02  0.38279150348E+02  0.52492943186E+02  0.10566000000E+00 0.  1.
         22    1    1    0    0    0  0.27239006100E+02  0.38111059238E+01  0.23818418301E+01  0.27607266293E+02  0.00000000000E+00 0.  1.
</event>
<event>
 5    1  0.1261010E-009  0.9118800E+02  0.7561462E-02  0.1125453E+00
         25   -1    0    0    0    0  0.00000000000E+00  0.00000000000E+00  0.99999998245E-14  0.12509000000E+03  0.12509000000E+03 0.  0.
        -13    1    3    3    0    0  0.11449090599E+02  0.27043827614E+02  0.38357777435E+02  0.48309217975E+02  0.10566000000E+00 0. -1.
         23    2    1    0    0    0 -0.24427312818E+02  0.12399482092E+02  0.11946393245E+02  0.95204266293E+02  0.90391898094E+02 0.  0.
         13    1    3    3    0    0 -0.35876403417E+02 -0.14644345521E+02 -0.26411384190E+02  0.46895048318E+02  0.10566000000E+00 0.  1.
         22    1    1    0    0    0  0.24427312818E+02 -0.12399482092E+02 -0.11946393245E+02  0.29885733707E+02  0.00000000000E+00 0.  1.
</event>
<event>
 5    1  0.1261010E-009  0.9118800E+02  0.7561462E-02  0.1125453E+00
         25   -1    0    0    0    0  0.00000000000E+00  0.00000000000E+00  0.99999998245E-14  0.12509000000E+03  0.12509000000E+03 0.  0.
        -13    1    3    3    0    0  0.27831774293E+02  0.10485316548E+02 -0.23937799649E+02  0.38178252180E+02  0.10566000000E+00 0.  1.
         23    2    1    0    0    0 -0.23687120159E+02  0.17733261487E+02  0.12566496171E+00  0.95500069008E+02  0.90800325795E+02 0.  0.
         13    1    3    3    0    0 -0.51518894453E+02  0.72479449388E+01  0.24063464610E+02  0.57321816829E+02  0.10566000000E+00 0. -1.
         22    1    1    0    0    0  0.23687120159E+02 -0.17733261487E+02 -0.12566496171E+00  0.29589930992E+02  0.00000000000E+00 0.  1.
</event>
<event>
 5    1  0.1261010E-009  0.9118800E+02  0.7561462E-02  0.1125453E+00
         25   -1    0    0    0    0  0.00000000000E+00  0.00000000000E+00  0.99999998245E-14  0.12509000000E+03  0.12509000000E+03 0.  0.
        -13    1    3    3    0    0 -0.27435929215E+02 -0.75212785100E+01 -0.32930278089E+02  0.43516826876E+02  0.10566000000E+00 0. -1.
         23    2    1    0    0    0 -0.24214651123E+01  0.28347728633E+02 -0.30598027866E+01  0.96474975886E+02  0.92133606069E+02 0.  0.
         13    1    3    3    0    0  0.25014464103E+02  0.35869007143E+02  0.29870475302E+02  0.52958149010E+02  0.10566000000E+00 0.  1.
         22    1    1    0    0    0  0.24214651123E+01 -0.28347728633E+02  0.30598027866E+01  0.28615024114E+02  0.00000000000E+00 0.  1.
</event>
<event>
 5    1  0.1261010E-009  0.9118800E+02  0.7561462E-02  0.1125453E+00
         25   -1    0    0    0    0  0.00000000000E+00  0.00000000000E+00  0.99999998245E-14  0.12509000000E+03  0.12509000000E+03 0.  0.
        -13    1    3    3    0    0 -0.79359209859E+01 -0.33321326521E+02 -0.17166265776E+02  0.38314246537E+02  0.10566000000E+00 0.  1.
         23    2    1    0    0    0 -0.25742198096E+02 -0.24009048255E+02  0.22871278155E+02  0.83111546892E+02  0.71731016314E+02 0.  0.
         13    1    3    3    0    0 -0.17806277110E+02  0.93122782661E+01  0.40037543930E+02  0.44797300355E+02  0.10566000000E+00 0. -1.
         22    1    1    0    0    0  0.25742198096E+02  0.24009048255E+02 -0.22871278155E+02  0.41978453108E+02  0.00000000000E+00 0. -1.
</event>
<event>
 5    1  0.1261010E-009  0.9118800E+02  0.7561462E-02  0.1125453E+00
         25   -1    0    0    0    0  0.00000000000E+00  0.00000000000E+00  0.99999998245E-14  0.12509000000E+03  0.12509000000E+03 0.  0.
        -13    1    3    3    0    0  0.26697102466E+02 -0.32522340784E+02 -0.24116316139E+02  0.48497894782E+02  0.10566000000E+00 0. -1.
         23    2    1    0    0    0  0.29083533809E+02  0.87996288085E+01 -0.42532754296E+01  0.94408152633E+02  0.89283388856E+02 0.  0.
         13    1    3    3    0    0  0.23864313433E+01  0.41321969593E+02  0.19863040710E+02  0.45910257850E+02  0.10566000000E+00 0.  1.
         22    1    1    0    0    0 -0.29083533809E+02 -0.87996288085E+01  0.42532754296E+01  0.30681847367E+02  0.00000000000E+00 0. -1.
</event>
<event>
 5    1  0.1261010E-009  0.9118800E+02  0.7561462E-02  0.1125453E+00
         25   -1    0    0    0    0  0.00000000000E+00  0.00000000000E+00  0.99999998245E-14  0.12509000000E+03  0.12509000000E+03 0.  0.
        -13    1    3    3    0    0 -0.12869927723E+02  0.29928523320E+02  0.25458848610E+02  0.41346289849E+02  0.10566000000E+00 0.  1.
         23    2    1    0    0    0 -0.20107146161E+02  0.51305983517E+01 -0.21667425992E+02  0.95088371455E+02  0.90231372985E+02 0.  0.
         13    1    3    3    0    0 -0.72372184380E+01 -0.24797924968E+02 -0.47126274602E+02  0.53742081606E+02  0.10566000000E+00 0. -1.
         22    1    1    0    0    0  0.20107146161E+02 -0.51305983517E+01  0.21667425992E+02  0.30001628545E+02  0.00000000000E+00 0. -1.
</event>
<event>
 5    1  0.1261010E-009  0.9118800E+02  0.7561462E-02  0.1125453E+00
         25   -1    0    0    0    0  0.00000000000E+00  0.00000000000E+00  0.99999998245E-14  0.12509000000E+03  0.12509000000E+03 0.  0.
        -13    1    3    3    0    0  0.27818192819E+02 -0.41165442860E+02 -0.31466305749E+02  0.58809736431E+02  0.10566000000E+00 0. -1.
         23    2    1    0    0    0  0.97575333259E+01 -0.10047786598E+02 -0.26481598060E+02  0.95132655192E+02  0.90292743761E+02 0.  0.
         13    1    3    3    0    0 -0.18060659493E+02  0.31117656262E+02  0.49847076886E+01  0.36322918761E+02  0.10566000000E+00 0.  1.
         22    1    1    0    0    0 -0.97575333259E+01  0.10047786598E+02  0.26481598060E+02  0.29957344808E+02  0.00000000000E+00 0. -1.
</event>
<event>
 5    1  0.1261010E-009  0.9118800E+02  0.7561462E-02  0.1125453E+00
         25   -1    0    0    0    0  0.00000000000E+00  0.00000000000E+00  0.99999998245E-14  0.12509000000E+03  0.12509000000E+03 0.  0.
        -13    1    3    3    0    0 -0.17990550395E+02 -0.39953876995E+02 -0.36438549697E+02  0.56989045074E+02  0.10566000000E+00 0.  1.
         23    2    1    0    0    0  0.70625067747E+01 -0.29142534296E+02 -0.15841742975E+02  0.91176475742E+02  0.84634641850E+02 0.  0.
         13    1    3    3    0    0  0.25053057169E+02  0.10811342699E+02  0.20596806722E+02  0.34187430668E+02  0.10566000000E+00 0. -1.
         22    1    1    0    0    0 -0.70625067747E+01  0.29142534296E+02  0.15841742975E+02  0.33913524258E+02  0.00000000000E+00 0.  1.
</event>
<event>
 5    1  0.1261010E-009  0.9118800E+02  0.7561462E-02  0.1125453E+00
         25   -1    0    0    0    0  0.00000000000E+00  0.00000000000E+00  0.99999998245E-14  0.12509000000E+03  0.12509000000E+03 0.  0.
        -13    1    3    3    0    0 -0.18239876766E+02 -0.14186111392E+02 -0.24135697901E+02  0.33413798618E+02  0.10566000000E+00 0.  1.
         23    2    1    0    0    0  0.75786257483E+01  0.50415165301E+01  0.28532377842E+02  0.95140892460E+02  0.90304154808E+02 0.  0.
         13    1    3    3    0    0  0.25818502515E+02  0.19227627922E+02  0.52668075743E+02  0.61727093842E+02  0.10566000000E+00 0. -1.
         22    1    1    0    0    0 -0.75786257483E+01 -0.50415165301E+01 -0.28532377842E+02  0.29949107540E+02  0.00000000000E+00 0. -1.
</event>
<event>
 5    1  0.1261010E-009  0.9118800E+02  0.7561462E-02  0.1125453E+00
         25   -1    0    0    0    0  0.00000000000E+00  0.00000000000E+00  0.99999998245E-14  0.12509000000E+03  0.12509000000E+03 0.  0.
        -13    1    3    3    0    0 -0.71690202490E+01  0.29513184933E+02 -0.29549388791E+02  0.42374526288E+02  0.10566000000E+00 0.  1.
         23    2    1    0    0    0 -0.76786958423E+01 -0.22690042800E+02 -0.15913224783E+02  0.96331850979E+02  0.91939079710E+02 0.  0.
         13    1    3    3    0    0 -0.50967559332E+00 -0.52203227733E+02  0.13636164008E+02  0.53957324691E+02  0.10566000000E+00 0. -1.
         22    1    1    0    0    0  0.76786958423E+01  0.22690042800E+02  0.15913224783E+02  0.28758149021E+02  0.00000000000E+00 0. -1.
</event>
<event>
 5    1  0.1261010E-009  0.9118800E+02  0.7561462E-02  0.1125453E+00
         25   -1    0    0    0    0  0.00000000000E+00  0.00000000000E+00  0.99999998245E-14  0.12509000000E+03  0.12509000000E+03 0.  0.
        -13    1    3    3    0    0  0.30101303438E+02 -0.32852925460E+02  0.24450799420E+02  0.50825740882E+02  0.10566000000E+00 0.  1.
         23    2    1    0    0    0  0.26791017366E+02  0.89042851248E+01  0.10203564370E+02  0.95070712351E+02  0.90206888407E+02 0.  0.
         13    1    3    3    0    0 -0.33102860724E+01  0.41757210585E+02 -0.14247235050E+02  0.44244971469E+02  0.10566000000E+00 0. -1.
         22    1    1    0    0    0 -0.26791017366E+02 -0.89042851248E+01 -0.10203564370E+02  0.30019287649E+02  0.00000000000E+00 0.  1.
</event>
<event>
 5    1  0.1261010E-009  0.9118800E+02  0.7561462E-02  0.1125453E+00
         25   -1    0    0    0    0  0.00000000000E+00  0.00000000000E+00  0.99999998245E-14  0.12509000000E+03  0.12509000000E+03 0.  0.
        -13    1    3    3    0    0  0.39698254947E+02 -0.28613899536E+02  0.83164051639E+01  0.49637490381E+02  0.10566000000E+00 0.  1.
         23    2    1    0    0    0  0.23663168279E+02  0.14985755139E+02  0.74765074194E+01  0.96100061172E+02  0.91623169580E+02 0.  0.
         13    1    3    3    0    0 -0.16035086668E+02  0.43599654675E+02 -0.83989774450E+00  0.46462570790E+02  0.10566000000E+00 0. -1.
         22    1    1    0    0    0 -0.23663168279E+02 -0.14985755139E+02 -0.74765074194E+01  0.28989938828E+02  0.00000000000E+00 0.  1.
</event>
<event>
 5    1  0.1261010E-009  0.9118800E+02  0.7561462E-02  0.1125453E+00
         25   -1    0    0    0    0  0.00000000000E+00  0.00000000000E+00  0.99999998245E-14  0.12509000000E+03  0.12509000000E+03 0.  0.
        -13    1    3    3    0    0 -0.30976886573E+02 -0.20489997401E+02  0.61714349421E+01  0.37649771162E+02  0.10566000000E+00 0. -1.
         23    2    1    0    0    0  0.21066414940E+02  0.13404912521E+02 -0.50335769234E+00  0.10011523499E+03  0.96950097426E+02 0.  0.
         13    1    3    3    0    0  0.52043301513E+02  0.33894909922E+02 -0.66747926344E+01  0.62465463832E+02  0.10566000000E+00 0.  1.
         22    1    1    0    0    0 -0.21066414940E+02 -0.13404912521E+02  0.50335769234E+00  0.24974765006E+02  0.00000000000E+00 0.  1.
</event>
<event>
 5    1  0.1261010E-009  0.9118800E+02  0.7561462E-02  0.1125453E+00
         25   -1    0    0    0    0  0.00000000000E+00  0.00000000000E+00  0.99999998245E-14  0.12509000000E+03  0.12509000000E+03 0.  0.
        -13    1    3    3    0    0 -0.25038918991E+02  0.28420815213E+02 -0.41500690666E+02  0.56187264495E+02  0.10566000000E+00 0.  1.
         23    2    1    0    0    0  0.66384355348E+01  0.11419010121E+02 -0.27150370611E+02  0.94897198825E+02  0.89965955239E+02 0.  0.
         13    1    3    3    0    0  0.31677354525E+02 -0.17001805092E+02  0.14350320055E+02  0.38709934330E+02  0.10566000000E+00 0. -1.
         22    1    1    0    0    0 -0.66384355348E+01 -0.11419010121E+02  0.27150370611E+02  0.30192801175E+02  0.00000000000E+00 0.  1.
</event>
<event>
 5    1  0.1261010E-009  0.9118800E+02  0.7561462E-02  0.1125453E+00
         25   -1    0    0    0    0  0.00000000000E+00  0.00000000000E+00  0.99999998245E-14  0.12509000000E+03  0.12509000000E+03 0.  0.
        -13    1    3    3    0    0 -0.37239169504E+02 -0.58658480552E+01 -0.11401885110E+02  0.39384997993E+02  0.10566000000E+00 0. -1.
         23    2    1    0    0    0  0.72945580124E+01 -0.40671842276E+01  0.26133061073E+02  0.97654813739E+02  0.93721786161E+02 0.  0.
         13    1    3    3    0    0  0.44533727517E+02  0.17986638276E+01  0.37534946183E+02  0.58269815746E+02  0.10566000000E+00 0.  1.
         22    1    1    0    0    0 -0.72945580124E+01  0.40671842276E+01 -0.26133061073E+02  0.27435186261E+02  0.00000000000E+00 0.  1.
</event>
<event>
 5    1  0.1261010E-009  0.9118800E+02  0.7561462E-02  0.1125453E+00
         25   -1    0    0    0    0  0.00000000000E+00  0.00000000000E+00  0.99999998245E-14  0.12509000000E+03  0.12509000000E+03 0.  0.
        -13    1    3    3    0    0  0.34573313928E+02 -0.37851605645E+02  0.12853938883E+02  0.52851612981E+02  0.10566000000E+00 0.  1.
         23    2    1    0    0    0  0.25318127089E+02  0.13295003074E+01  0.18772023824E+02  0.93543779801E+02  0.88064037669E+02 0.  0.
         13    1    3    3    0    0 -0.92551868390E+01  0.39181105952E+02  0.59180849413E+01  0.40692166820E+02  0.10566000000E+00 0. -1.
         22    1    1    0    0    0 -0.25318127089E+02 -0.13295003074E+01 -0.18772023824E+02  0.31546220199E+02  0.00000000000E+00 0. -1.
</event>
<event>
 5    1  0.1261010E-009  0.9118800E+02  0.7561462E-02  0.1125453E+00
         25   -1    0    0    0    0  0.00000000000E+00  0.00000000000E+00  0.99999998245E-14  0.12509000000E+03  0.12509000000E+03 0.  0.
        -13    1    3    3    0    0 -0.54939004236E+02  0.34856567672E+01 -0.14796543386E+02  0.57003445946E+02  0.10566000000E+00 0.  1.
         23    2    1    0    0    0 -0.27012292579E+02 -0.67122058366E+01  0.97914379455E+01  0.95584239298E+02  0.90916208058E+02 0.  0.
         13    1    3    3    0    0  0.27926711657E+02 -0.10197862604E+02  0.24587981331E+02  0.38580793352E+02  0.10566000000E+00 0. -1.
         22    1    1    0    0    0  0.27012292579E+02  0.67122058366E+01 -0.97914379455E+01  0.29505760702E+02  0.00000000000E+00 0.  1.
</event>
<event>
 5    1  0.1261010E-009  0.9118800E+02  0.7561462E-02  0.1125453E+00
         25   -1    0    0    0    0  0.00000000000E+00  0.00000000000E+00  0.99999998245E-14  0.12509000000E+03  0.12509000000E+03 0.  0.
        -13    1    3    3    0    0  0.25313480402E+02 -0.20288894727E+02 -0.71512941934E+01  0.33219929440E+02  0.10566000000E+00 0. -1.
         23    2    1    0    0    0 -0.14420833417E+02  0.25351741626E+02  0.63942713363E+01  0.95231032405E+02  0.90428931140E+02 0.  0.
         13    1    3    3    0    0 -0.39734313819E+02  0.45640636353E+02  0.13545565530E+02  0.62011102965E+02  0.10566000000E+00 0.  1.
         22    1    1    0    0    0  0.14420833417E+02 -0.25351741626E+02 -0.63942713363E+01  0.29858967595E+02  0.00000000000E+00 0.  1.
</event>
<event>
 5    1  0.1261010E-009  0.9118800E+02  0.7561462E-02  0.1125453E+00
         25   -1    0    0    0    0  0.00000000000E+00  0.00000000000E+00  0.99999998245E-14  0.12509000000E+03  0.12509000000E+03 0.  0.
        -13    1    3    3    0    0  0.28106512977E+02 -0.38290659728E+01 -0.16599192769E+02  0.32866125153E+02  0.10566000000E+00 0.  1.
         23    2    1    0    0    0 -0.28220228345E+02  0.20365034677E+01  0.95296135857E+01  0.95234645886E+02  0.90433929516E+02 0.  0.
         13    1    3    3    0    0 -0.56326741322E+02  0.58655694405E+01  0.26128806355E+02  0.62368520733E+02  0.10566000000E+00 0. -1.
         22    1    1    0    0    0  0.28220228345E+02 -0.20365034677E+01 -0.95296135857E+01  0.29855354114E+02  0.00000000000E+00 0. -1.
</event>
<event>
 5    1  0.1261010E-009  0.9118800E+02  0.7561462E-02  0.1125453E+00
         25   -1    0    0    0    0  0.00000000000E+00  0.00000000000E+00  0.99999998245E-14  0.12509000000E+03  0.12509000000E+03 0.  0.
        -13    1    3    3    0    0  0.34471811615E+01 -0.47086084328E+02 -0.10600572876E+02  0.48387660665E+02  0.10566000000E+00 0. -1.
         23    2    1    0    0    0  0.27485606031E+02 -0.66281142885E+01  0.78351767818E+00  0.96805652069E+02  0.92581477277E+02 0.  0.
         13    1    3    3    0    0  0.24038424869E+02  0.40457970039E+02  0.11384090554E+02  0.48417991405E+02  0.10566000000E+00 0.  1.
         22    1    1    0    0    0 -0.27485606031E+02  0.66281142885E+01 -0.78351767818E+00  0.28284347931E+02  0.00000000000E+00 0.  1.
</event>
<event>
 5    1  0.1261010E-009  0.9118800E+02  0.7561462E-02  0.1125453E+00
         25   -1    0    0    0    0  0.00000000000E+00  0.00000000000E+00  0.99999998245E-14  0.12509000000E+03  0.12509000000E+03 0.  0.
        -13    1    3    3    0    0  0.31846238539E+02  0.11729238161E+02 -0.20312434037E+02  0.39552042646E+02  0.10566000000E+00 0. -1.
         23    2    1    0    0    0 -0.10573763916E+02 -0.24603909734E+02 -0.10824660538E+02  0.96205226619E+02  0.91766636069E+02 0.  0.
         13    1    3    3    0    0 -0.42420002455E+02 -0.36333147895E+02  0.94877734996E+01  0.56653183973E+02  0.10566000000E+00 0.  1.
         22    1    1    0    0    0  0.10573763916E+02  0.24603909734E+02  0.10824660538E+02  0.28884773381E+02  0.00000000000E+00 0.  1.
</event>
<event>
 5    1  0.1261010E-009  0.9118800E+02  0.7561462E-02  0.1125453E+00
         25   -1    0    0    0    0  0.00000000000E+00  0.00000000000E+00  0.99999998245E-14  0.12509000000E+03  0.12509000000E+03 0.  0.
        -13    1    3    3    0    0  0.42455201255E+01 -0.57154794363E+02 -0.42738583607E+01  0.57471488489E+02  0.10566000000E+00 0.  1.
         23    2    1    0    0    0  0.55277258950E+01 -0.24624935161E+02  0.15414479794E+02  0.95517219059E+02  0.90823949287E+02 0.  0.
         13    1    3    3    0    0  0.12822057695E+01  0.32529859201E+02  0.19688338155E+02  0.38045730570E+02  0.10566000000E+00 0. -1.
         22    1    1    0    0    0 -0.55277258950E+01  0.24624935161E+02 -0.15414479794E+02  0.29572780941E+02  0.00000000000E+00 0.  1.
</event>
<event>
 5    1  0.1261010E-009  0.9118800E+02  0.7561462E-02  0.1125453E+00
         25   -1    0    0    0    0  0.00000000000E+00  0.00000000000E+00  0.99999998245E-14  0.12509000000E+03  0.12509000000E+03 0.  0.
        -13    1    3    3    0    0 -0.23136264542E+02  0.39879470297E+02  0.37143210295E+02  0.59205473761E+02  0.10566000000E+00 0. -1.
         23    2    1    0    0    0  0.34816489418E+01  0.15069520661E+02  0.20989588608E+02  0.99017501803E+02  0.95523245867E+02 0.  0.
         13    1    3    3    0    0  0.26617913484E+02 -0.24809949636E+02 -0.16153621687E+02  0.39812028042E+02  0.10566000000E+00 0.  1.
         22    1    1    0    0    0 -0.34816489418E+01 -0.15069520661E+02 -0.20989588608E+02  0.26072498197E+02  0.00000000000E+00 0. -1.
</event>
<event>
 5    1  0.1261010E-009  0.9118800E+02  0.7561462E-02  0.1125453E+00
         25   -1    0    0    0    0  0.00000000000E+00  0.00000000000E+00  0.99999998245E-14  0.12509000000E+03  0.12509000000E+03 0.  0.
        -13    1    3    3    0    0  0.28929042298E+02  0.43606814622E+02  0.34165564735E+02  0.62495925847E+02  0.10566000000E+00 0.  1.
         23    2    1    0    0    0  0.13514871364E+02  0.18820681343E+02  0.16932534854E+02  0.96391907192E+02  0.92020754406E+02 0.  0.
         13    1    3    3    0    0 -0.15414170933E+02 -0.24786133279E+02 -0.17233029881E+02  0.33895981346E+02  0.10566000000E+00 0. -1.
         22    1    1    0    0    0 -0.13514871364E+02 -0.18820681343E+02 -0.16932534854E+02  0.28698092808E+02  0.00000000000E+00 0.  1.
</event>
<event>
 5    1  0.1261010E-009  0.9118800E+02  0.7561462E-02  0.1125453E+00
         25   -1    0    0    0    0  0.00000000000E+00  0.00000000000E+00  0.99999998245E-14  0.12509000000E+03  0.12509000000E+03 0.  0.
        -13    1    3    3    0    0  0.45182807037E+02  0.33139347512E+02 -0.83554932027E+01  0.56652694869E+02  0.10566000000E+00 0. -1.
         23    2    1    0    0    0  0.83097972013E+01  0.29755824816E+02 -0.41148982803E+01  0.93922802054E+02  0.88600781699E+02 0.  0.
         13    1    3    3    0    0 -0.36873009836E+02 -0.33835226968E+01  0.42405949224E+01  0.37270107184E+02  0.10566000000E+00 0.  1.
         22    1    1    0    0    0 -0.83097972013E+01 -0.29755824816E+02  0.41148982803E+01  0.31167197946E+02  0.00000000000E+00 0. -1.
</event>
<event>
 5    1  0.1261010E-009  0.9118800E+02  0.7561462E-02  0.1125453E+00
         25   -1    0    0    0    0  0.00000000000E+00  0.00000000000E+00  0.99999998245E-14  0.12509000000E+03  0.12509000000E+03 0.  0.
        -13    1    3    3    0    0  0.12912820413E+02 -0.53103190336E+02  0.12585694919E+02  0.56081196808E+02  0.10566000000E+00 0. -1.
         23    2    1    0    0    0  0.22527491659E+02 -0.18857355276E+02 -0.41999194006E+01  0.95412954132E+02  0.90680233595E+02 0.  0.
         13    1    3    3    0    0  0.96146712465E+01  0.34245835059E+02 -0.16785614319E+02  0.39331757324E+02  0.10566000000E+00 0.  1.
         22    1    1    0    0    0 -0.22527491659E+02  0.18857355276E+02  0.41999194006E+01  0.29677045868E+02  0.00000000000E+00 0.  1.
</event>
<event>
 5    1  0.1261010E-009  0.9118800E+02  0.7561462E-02  0.1125453E+00
         25   -1    0    0    0    0  0.00000000000E+00  0.00000000000E+00  0.99999998245E-14  0.12509000000E+03  0.12509000000E+03 0.  0.
        -13    1    3    3    0    0  0.32980496436E+01  0.45618438251E+02  0.41149409040E+01  0.45922357764E+02  0.10566000000E+00 0.  1.
         23    2    1    0    0    0 -0.16013859778E+02  0.52131273231E+01 -0.21706414568E+02  0.97616579484E+02  0.93670741191E+02 0.  0.
         13    1    3    3    0    0 -0.19311909421E+02 -0.40405310928E+02 -0.25821355472E+02  0.51694221719E+02  0.10566000000E+00 0. -1.
         22    1    1    0    0    0  0.16013859778E+02 -0.52131273231E+01  0.21706414568E+02  0.27473420516E+02  0.00000000000E+00 0.  1.
</event>
<event>
 5    1  0.1261010E-009  0.9118800E+02  0.7561462E-02  0.1125453E+00
         25   -1    0    0    0    0  0.00000000000E+00  0.00000000000E+00  0.99999998245E-14  0.12509000000E+03  0.12509000000E+03 0.  0.
        -13    1    3    3    0    0  0.37777690232E+02 -0.12240658279E+02 -0.12666769496E+01  0.39731640149E+02  0.10566000000E+00 0. -1.
         23    2    1    0    0    0 -0.23578341267E+01  0.18108338218E+02 -0.23988030649E+02  0.94942082838E+02  0.90028341006E+02 0.  0.
         13    1    3    3    0    0 -0.40135524359E+02  0.30348996497E+02 -0.22721353700E+02  0.55210442689E+02  0.10566000000E+00 0.  1.
         22    1    1    0    0    0  0.23578341267E+01 -0.18108338218E+02  0.23988030649E+02  0.30147917162E+02  0.00000000000E+00 0.  1.
</event>
<event>
 5    1  0.1261010E-009  0.9118800E+02  0.7561462E-02  0.1125453E+00
         25   -1    0    0    0    0  0.00000000000E+00  0.00000000000E+00  0.99999998245E-14  0.12509000000E+03  0.12509000000E+03 0.  0.
        -13    1    3    3    0    0  0.10739341385E+02 -0.59002461752E+01  0.22519761541E+02  0.25637807672E+02  0.10566000000E+00 0.  1.
         23    2    1    0    0    0 -0.33267941399E+02  0.14195286550E+02 -0.14054334060E+02  0.86285536455E+02  0.77067550956E+02 0.  0.
         13    1    3    3    0    0 -0.44007282784E+02  0.20095532725E+02 -0.36574095601E+02  0.60647728783E+02  0.10566000000E+00 0. -1.
         22    1    1    0    0    0  0.33267941399E+02 -0.14195286550E+02  0.14054334060E+02  0.38804463545E+02  0.00000000000E+00 0. -1.
</event>
<event>
 5    1  0.1261010E-009  0.9118800E+02  0.7561462E-02  0.1125453E+00
         25   -1    0    0    0    0  0.00000000000E+00  0.00000000000E+00  0.99999998245E-14  0.12509000000E+03  0.12509000000E+03 0.  0.
        -13    1    3    3    0    0 -0.50247088727E+02 -0.34950565498E+00 -0.23363032228E+02  0.55414208635E+02  0.10566000000E+00 0. -1.
         23    2    1    0    0    0 -0.26107835733E+02 -0.91571439171E+01  0.83118075291E+01  0.96201273553E+02  0.91761247362E+02 0.  0.
         13    1    3    3    0    0  0.24139252995E+02 -0.88076382622E+01  0.31674839757E+02  0.40787064917E+02  0.10566000000E+00 0.  1.
         22    1    1    0    0    0  0.26107835733E+02  0.91571439171E+01 -0.83118075291E+01  0.28888726447E+02  0.00000000000E+00 0. -1.
</event>
<event>
 5    1  0.1261010E-009  0.9118800E+02  0.7561462E-02  0.1125453E+00
         25   -1    0    0    0    0  0.00000000000E+00  0.00000000000E+00  0.99999998245E-14  0.12509000000E+03  0.12509000000E+03 0.  0.
        -13    1    3    3    0    0  0.21316571356E+02  0.21612453623E+02  0.53858286679E+02  0.61824109974E+02  0.10566000000E+00 0.  1.
         23    2    1    0    0    0  0.16765154962E+02  0.82622592821E+01  0.25763720807E+02  0.93260694963E+02  0.87661009382E+02 0.  0.
         13    1    3    3    0    0 -0.45514163947E+01 -0.13350194341E+02 -0.28094565873E+02  0.31436584989E+02  0.10566000000E+00 0. -1.
         22    1    1    0    0    0 -0.16765154962E+02 -0.82622592821E+01 -0.25763720807E+02  0.31829305037E+02  0.00000000000E+00 0.  1.
</event>
<event>
 5    1  0.1261010E-009  0.9118800E+02  0.7561462E-02  0.1125453E+00
         25   -1    0    0    0    0  0.00000000000E+00  0.00000000000E+00  0.99999998245E-14  0.12509000000E+03  0.12509000000E+03 0.  0.
        -13    1    3    3    0    0  0.72111037756E+01 -0.50607681089E+02 -0.98975128610E+01  0.52068314047E+02  0.10566000000E+00 0. -1.
         23    2    1    0    0    0  0.26010182475E+02 -0.10893125880E+02 -0.65845668376E+01  0.96132336002E+02  0.91667222718E+02 0.  0.
         13    1    3    3    0    0  0.18799078699E+02  0.39714555209E+02  0.33129460234E+01  0.44064021954E+02  0.10566000000E+00 0.  1.
         22    1    1    0    0    0 -0.26010182475E+02  0.10893125880E+02  0.65845668376E+01  0.28957663998E+02  0.00000000000E+00 0. -1.
</event>
<event>
 5    1  0.1261010E-009  0.9118800E+02  0.7561462E-02  0.1125453E+00
         25   -1    0    0    0    0  0.00000000000E+00  0.00000000000E+00  0.99999998245E-14  0.12509000000E+03  0.12509000000E+03 0.  0.
        -13    1    3    3    0    0 -0.49833381302E+02  0.27472754375E+02  0.89847220193E+00  0.56911655584E+02  0.10566000000E+00 0. -1.
         23    2    1    0    0    0 -0.15300183095E+02  0.18303134617E+02 -0.15927965905E+02  0.96405501792E+02  0.92039232604E+02 0.  0.
         13    1    3    3    0    0  0.34533198207E+02 -0.91696197578E+01 -0.16826438107E+02  0.39493846208E+02  0.10566000000E+00 0.  1.
         22    1    1    0    0    0  0.15300183095E+02 -0.18303134617E+02  0.15927965905E+02  0.28684498208E+02  0.00000000000E+00 0. -1.
</event>
<event>
 5    1  0.1261010E-009  0.9118800E+02  0.7561462E-02  0.1125453E+00
         25   -1    0    0    0    0  0.00000000000E+00  0.00000000000E+00  0.99999998245E-14  0.12509000000E+03  0.12509000000E+03 0.  0.
        -13    1    3    3    0    0  0.34107775952E+02 -0.29367448590E+02 -0.14570807171E+02  0.47308635604E+02  0.10566000000E+00 0. -1.
         23    2    1    0    0    0  0.14506942735E+02 -0.81272399350E+01  0.24237373515E+02  0.95696910823E+02  0.91071098872E+02 0.  0.
         13    1    3    3    0    0 -0.19600833217E+02  0.21240208655E+02  0.38808180686E+02  0.48388275219E+02  0.10566000000E+00 0.  1.
         22    1    1    0    0    0 -0.14506942735E+02  0.81272399350E+01 -0.24237373515E+02  0.29393089177E+02  0.00000000000E+00 0. -1.
</event>
<event>
 5    1  0.1261010E-009  0.9118800E+02  0.7561462E-02  0.1125453E+00
         25   -1    0    0    0    0  0.00000000000E+00  0.00000000000E+00  0.99999998245E-14  0.12509000000E+03  0.12509000000E+03 0.  0.
        -13    1    3    3    0    0  0.15689613948E+01  0.21655332301E+02  0.47338006022E+02  0.52079871689E+02  0.10566000000E+00 0. -1.
         23    2    1    0    0    0  0.17619107909E+02 -0.95170101961E+01  0.22012936804E+02  0.95331373800E+02  0.90567626652E+02 0.  0.
         13    1    3    3    0    0  0.16050146514E+02 -0.31172342498E+02 -0.25325069219E+02  0.43251502111E+02  0.10566000000E+00 0.  1.
         22    1    1    0    0    0 -0.17619107909E+02  0.95170101961E+01 -0.22012936804E+02  0.29758626200E+02  0.00000000000E+00 0. -1.
</event>
<event>
 5    1  0.1261010E-009  0.9118800E+02  0.7561462E-02  0.1125453E+00
         25   -1    0    0    0    0  0.00000000000E+00  0.00000000000E+00  0.99999998245E-14  0.12509000000E+03  0.12509000000E+03 0.  0.
        -13    1    3    3    0    0 -0.73830680303E+00 -0.40576210118E+02  0.18865614727E+02  0.44753731772E+02  0.10566000000E+00 0.  1.
         23    2    1    0    0    0  0.12099555902E+02  0.72508835201E+01  0.26702935717E+02  0.94890308929E+02  0.89956374915E+02 0.  0.
         13    1    3    3    0    0  0.12837862705E+02  0.47827093638E+02  0.78373209903E+01  0.50136577157E+02  0.10566000000E+00 0. -1.
         22    1    1    0    0    0 -0.12099555902E+02 -0.72508835201E+01 -0.26702935717E+02  0.30199691071E+02  0.00000000000E+00 0. -1.
</event>
<event>
 5    1  0.1261010E-009  0.9118800E+02  0.7561462E-02  0.1125453E+00
         25   -1    0    0    0    0  0.00000000000E+00  0.00000000000E+00  0.99999998245E-14  0.12509000000E+03  0.12509000000E+03 0.  0.
        -13    1    3    3    0    0  0.24904922839E+02  0.23301061517E+02 -0.21979250535E+02  0.40574539647E+02  0.10566000000E+00 0. -1.
         23    2    1    0    0    0 -0.20125280416E+02 -0.94901219004E+01 -0.18088075176E+02  0.96414787899E+02  0.92051852434E+02 0.  0.
         13    1    3    3    0    0 -0.45030203255E+02 -0.32791183417E+02  0.38911753594E+01  0.55840248252E+02  0.10566000000E+00 0.  1.
         22    1    1    0    0    0  0.20125280416E+02  0.94901219004E+01  0.18088075176E+02  0.28675212101E+02  0.00000000000E+00 0.  1.
</event>
<event>
 5    1  0.1261010E-009  0.9118800E+02  0.7561462E-02  0.1125453E+00
         25   -1    0    0    0    0  0.00000000000E+00  0.00000000000E+00  0.99999998245E-14  0.12509000000E+03  0.12509000000E+03 0.  0.
        -13    1    3    3    0    0  0.18463227902E+02 -0.20801556851E+02 -0.20194012613E+02  0.34371570541E+02  0.10566000000E+00 0. -1.
         23    2    1    0    0    0 -0.16432746638E+02  0.24025639907E+02  0.31964833538E+01  0.95807171570E+02  0.91222420947E+02 0.  0.
         13    1    3    3    0    0 -0.34895974540E+02  0.44827196758E+02  0.23390495967E+02  0.61435601030E+02  0.10566000000E+00 0.  1.
         22    1    1    0    0    0  0.16432746638E+02 -0.24025639907E+02 -0.31964833538E+01  0.29282828430E+02  0.00000000000E+00 0.  1.
</event>
<event>
 5    1  0.1261010E-009  0.9118800E+02  0.7561462E-02  0.1125453E+00
         25   -1    0    0    0    0  0.00000000000E+00  0.00000000000E+00  0.99999998245E-14  0.12509000000E+03  0.12509000000E+03 0.  0.
        -13    1    3    3    0    0  0.46682247105E+02  0.32867432816E+02 -0.22629217099E+02  0.61413296323E+02  0.10566000000E+00 0. -1.
         23    2    1    0    0    0  0.15725644061E+02  0.20428516458E+02 -0.13433261621E+02  0.96019866124E+02  0.91513616511E+02 0.  0.
         13    1    3    3    0    0 -0.30956603044E+02 -0.12438916358E+02  0.91959554778E+01  0.34606569801E+02  0.10566000000E+00 0.  1.
         22    1    1    0    0    0 -0.15725644061E+02 -0.20428516458E+02  0.13433261621E+02  0.29070133876E+02  0.00000000000E+00 0. -1.
</event>
<event>
 5    1  0.1261010E-009  0.9118800E+02  0.7561462E-02  0.1125453E+00
         25   -1    0    0    0    0  0.00000000000E+00  0.00000000000E+00  0.99999998245E-14  0.12509000000E+03  0.12509000000E+03 0.  0.
        -13    1    3    3    0    0  0.32598945924E+02 -0.15222567330E+02  0.18669274606E+02  0.40533576326E+02  0.10566000000E+00 0.  1.
         23    2    1    0    0    0 -0.84707662883E+01  0.23864665446E+02  0.98786266094E+01  0.97907958097E+02  0.94059049839E+02 0.  0.
         13    1    3    3    0    0 -0.41069712212E+02  0.39087232776E+02 -0.87906479963E+01  0.57374381770E+02  0.10566000000E+00 0. -1.
         22    1    1    0    0    0  0.84707662883E+01 -0.23864665446E+02 -0.98786266094E+01  0.27182041903E+02  0.00000000000E+00 0. -1.
</event>
<event>
 5    1  0.1261010E-009  0.9118800E+02  0.7561462E-02  0.1125453E+00
         25   -1    0    0    0    0  0.00000000000E+00  0.00000000000E+00  0.99999998245E-14  0.12509000000E+03  0.12509000000E+03 0.  0.
        -13    1    3    3    0    0 -0.13787753024E+02  0.25166929309E+02 -0.55254276833E+02  0.62261727704E+02  0.10566000000E+00 0.  1.
         23    2    1    0    0    0 -0.34846801298E+01  0.14324615308E+02 -0.23747967645E+02  0.97138192069E+02  0.93029698440E+02 0.  0.
         13    1    3    3    0    0  0.10303072894E+02 -0.10842314001E+02  0.31506309188E+02  0.34876464365E+02  0.10566000000E+00 0. -1.
         22    1    1    0    0    0  0.34846801298E+01 -0.14324615308E+02  0.23747967645E+02  0.27951807931E+02  0.00000000000E+00 0.  1.
</event>
<event>
 5    1  0.1261010E-009  0.9118800E+02  0.7561462E-02  0.1125453E+00
         25   -1    0    0    0    0  0.00000000000E+00  0.00000000000E+00  0.99999998245E-14  0.12509000000E+03  0.12509000000E+03 0.  0.
        -13    1    3    3    0    0  0.10643177267E+02 -0.39722574958E+02 -0.18956311949E+02  0.45282591692E+02  0.10566000000E+00 0. -1.
         23    2    1    0    0    0 -0.12279348035E+02 -0.13436218464E+02  0.20320247020E+02  0.97809479592E+02  0.93927991059E+02 0.  0.
         13    1    3    3    0    0 -0.22922525303E+02  0.26286356494E+02  0.39276558969E+02  0.52526887900E+02  0.10566000000E+00 0.  1.
         22    1    1    0    0    0  0.12279348035E+02  0.13436218464E+02 -0.20320247020E+02  0.27280520408E+02  0.00000000000E+00 0. -1.
</event>
<event>
 5    1  0.1261010E-009  0.9118800E+02  0.7561462E-02  0.1125453E+00
         25   -1    0    0    0    0  0.00000000000E+00  0.00000000000E+00  0.99999998245E-14  0.12509000000E+03  0.12509000000E+03 0.  0.
        -13    1    3    3    0    0  0.48619888420E+02  0.23029185342E+02  0.24032670729E+02  0.58922129577E+02  0.10566000000E+00 0. -1.
         23    2    1    0    0    0  0.20566207824E+02  0.20975480250E+02  0.32006399497E+00  0.95712421527E+02  0.91092400987E+02 0.  0.
         13    1    3    3    0    0 -0.28053680596E+02 -0.20537050921E+01 -0.23712606734E+02  0.36790291950E+02  0.10566000000E+00 0.  1.
         22    1    1    0    0    0 -0.20566207824E+02 -0.20975480250E+02 -0.32006399497E+00  0.29377578473E+02  0.00000000000E+00 0. -1.
</event>
<event>
 5    1  0.1261010E-009  0.9118800E+02  0.7561462E-02  0.1125453E+00
         25   -1    0    0    0    0  0.00000000000E+00  0.00000000000E+00  0.99999998245E-14  0.12509000000E+03  0.12509000000E+03 0.  0.
        -13    1    3    3    0    0 -0.57099309114E+01 -0.47130425436E+02 -0.23678409561E+02  0.53052413293E+02  0.10566000000E+00 0.  1.
         23    2    1    0    0    0  0.76900565089E+01 -0.12367036142E+02 -0.30833845067E+02  0.90990050533E+02  0.84358655408E+02 0.  0.
         13    1    3    3    0    0  0.13399987420E+02  0.34763389294E+02 -0.71554355055E+01  0.37937637240E+02  0.10566000000E+00 0. -1.
         22    1    1    0    0    0 -0.76900565089E+01  0.12367036142E+02  0.30833845067E+02  0.34099949467E+02  0.00000000000E+00 0.  1.
</event>
<event>
 5    1  0.1261010E-009  0.9118800E+02  0.7561462E-02  0.1125453E+00
         25   -1    0    0    0    0  0.00000000000E+00  0.00000000000E+00  0.99999998245E-14  0.12509000000E+03  0.12509000000E+03 0.  0.
        -13    1    3    3    0    0 -0.83893333272E+00  0.34533082242E+02  0.43908429552E+02  0.55867691272E+02  0.10566000000E+00 0.  1.
         23    2    1    0    0    0 -0.64201940220E+01 -0.32903980979E+01  0.26037887707E+02  0.98071169397E+02  0.94275856186E+02 0.  0.
         13    1    3    3    0    0 -0.55812606893E+01 -0.37823480340E+02 -0.17870541845E+02  0.42203478125E+02  0.10566000000E+00 0. -1.
         22    1    1    0    0    0  0.64201940220E+01  0.32903980979E+01 -0.26037887707E+02  0.27018830603E+02  0.00000000000E+00 0.  1.
</event>
<event>
 5    1  0.1261010E-009  0.9118800E+02  0.7561462E-02  0.1125453E+00
         25   -1    0    0    0    0  0.00000000000E+00  0.00000000000E+00  0.99999998245E-14  0.12509000000E+03  0.12509000000E+03 0.  0.
        -13    1    3    3    0    0 -0.36894307112E+02 -0.48707073609E+01  0.36122700592E+02  0.51863034520E+02  0.10566000000E+00 0. -1.
         23    2    1    0    0    0 -0.24117779705E+02  0.74233271950E+01 -0.73452910322E+01  0.98808326063E+02  0.95248931304E+02 0.  0.
         13    1    3    3    0    0  0.12776527407E+02  0.12294034556E+02 -0.43467991624E+02  0.46945291544E+02  0.10566000000E+00 0.  1.
         22    1    1    0    0    0  0.24117779705E+02 -0.74233271950E+01  0.73452910322E+01  0.26281673937E+02  0.00000000000E+00 0.  1.
</event>
<event>
 5    1  0.1261010E-009  0.9118800E+02  0.7561462E-02  0.1125453E+00
         25   -1    0    0    0    0  0.00000000000E+00  0.00000000000E+00  0.99999998245E-14  0.12509000000E+03  0.12509000000E+03 0.  0.
        -13    1    3    3    0    0  0.28860302108E+01  0.30885645397E+02  0.21683900262E+02  0.37847786680E+02  0.10566000000E+00 0. -1.
         23    2    1    0    0    0 -0.12565010161E+02  0.22103233942E+02 -0.25993058474E+02  0.88729698573E+02  0.80937555492E+02 0.  0.
         13    1    3    3    0    0 -0.15451040372E+02 -0.87824114549E+01 -0.47676958736E+02  0.50881911893E+02  0.10566000000E+00 0.  1.
         22    1    1    0    0    0  0.12565010161E+02 -0.22103233942E+02  0.25993058474E+02  0.36360301427E+02  0.00000000000E+00 0.  1.
</event>
<event>
 5    1  0.1261010E-009  0.9118800E+02  0.7561462E-02  0.1125453E+00
         25   -1    0    0    0    0  0.00000000000E+00  0.00000000000E+00  0.99999998245E-14  0.12509000000E+03  0.12509000000E+03 0.  0.
        -13    1    3    3    0    0 -0.74713839674E+01  0.30243490436E+02 -0.12229746959E+02  0.33467419483E+02  0.10566000000E+00 0.  1.
         23    2    1    0    0    0  0.17862329827E+02 -0.21351293543E+02  0.10583694777E+02  0.95308207610E+02  0.90535624369E+02 0.  0.
         13    1    3    3    0    0  0.25333713795E+02 -0.51594783978E+02  0.22813441736E+02  0.61840788128E+02  0.10566000000E+00 0. -1.
         22    1    1    0    0    0 -0.17862329827E+02  0.21351293543E+02 -0.10583694777E+02  0.29781792390E+02  0.00000000000E+00 0. -1.
</event>
<event>
 5    1  0.1261010E-009  0.9118800E+02  0.7561462E-02  0.1125453E+00
         25   -1    0    0    0    0  0.00000000000E+00  0.00000000000E+00  0.99999998245E-14  0.12509000000E+03  0.12509000000E+03 0.  0.
        -13    1    3    3    0    0  0.18818332268E+02  0.35952211308E+02  0.15850432475E+02  0.43565336002E+02  0.10566000000E+00 0. -1.
         23    2    1    0    0    0  0.20487520494E+01 -0.11801403771E+02  0.27142268178E+02  0.95422286273E+02  0.90693106022E+02 0.  0.
         13    1    3    3    0    0 -0.16769580219E+02 -0.47753615079E+02  0.11291835703E+02  0.51856950271E+02  0.10566000000E+00 0.  1.
         22    1    1    0    0    0 -0.20487520494E+01  0.11801403771E+02 -0.27142268178E+02  0.29667713727E+02  0.00000000000E+00 0.  1.
</event>
<event>
 5    1  0.1261010E-009  0.9118800E+02  0.7561462E-02  0.1125453E+00
         25   -1    0    0    0    0  0.00000000000E+00  0.00000000000E+00  0.99999998245E-14  0.12509000000E+03  0.12509000000E+03 0.  0.
        -13    1    3    3    0    0 -0.57150742590E+01 -0.65292128284E+01  0.43402710581E+02  0.44261711939E+02  0.10566000000E+00 0.  1.
         23    2    1    0    0    0 -0.15034577507E+02 -0.28404160787E+02  0.92817445399E+00  0.92938851052E+02  0.87200537018E+02 0.  0.
         13    1    3    3    0    0 -0.93195032483E+01 -0.21874947959E+02 -0.42474536127E+02  0.48677139113E+02  0.10566000000E+00 0. -1.
         22    1    1    0    0    0  0.15034577507E+02  0.28404160787E+02 -0.92817445399E+00  0.32151148948E+02  0.00000000000E+00 0.  1.
</event>
<event>
 5    1  0.1261010E-009  0.9118800E+02  0.7561462E-02  0.1125453E+00
         25   -1    0    0    0    0  0.00000000000E+00  0.00000000000E+00  0.99999998245E-14  0.12509000000E+03  0.12509000000E+03 0.  0.
        -13    1    3    3    0    0 -0.16260512677E+01  0.34135819490E+02 -0.30624188964E+02  0.45888455288E+02  0.10566000000E+00 0.  1.
         23    2    1    0    0    0  0.20506584077E+02  0.18907816595E+02  0.10731026695E+02  0.95203875246E+02  0.90391356938E+02 0.  0.
         13    1    3    3    0    0  0.22132635344E+02 -0.15228002895E+02  0.41355215659E+02  0.49315419959E+02  0.10566000000E+00 0. -1.
         22    1    1    0    0    0 -0.20506584077E+02 -0.18907816595E+02 -0.10731026695E+02  0.29886124754E+02  0.00000000000E+00 0. -1.
</event>
<event>
 5    1  0.1261010E-009  0.9118800E+02  0.7561462E-02  0.1125453E+00
         25   -1    0    0    0    0  0.00000000000E+00  0.00000000000E+00  0.99999998245E-14  0.12509000000E+03  0.12509000000E+03 0.  0.
        -13    1    3    3    0    0  0.13358748904E+02  0.21898008600E+02 -0.51374653416E+02  0.57422514144E+02  0.10566000000E+00 0.  1.
         23    2    1    0    0    0 -0.73165369730E+01 -0.22744514587E+01 -0.25615397554E+02  0.98353256845E+02  0.94649404105E+02 0.  0.
         13    1    3    3    0    0 -0.20675285877E+02 -0.24172460059E+02  0.25759255862E+02  0.40930742701E+02  0.10566000000E+00 0. -1.
         22    1    1    0    0    0  0.73165369730E+01  0.22744514587E+01  0.25615397554E+02  0.26736743155E+02  0.00000000000E+00 0.  1.
</event>
<event>
 5    1  0.1261010E-009  0.9118800E+02  0.7561462E-02  0.1125453E+00
         25   -1    0    0    0    0  0.00000000000E+00  0.00000000000E+00  0.99999998245E-14  0.12509000000E+03  0.12509000000E+03 0.  0.
        -13    1    3    3    0    0 -0.24358525220E+01  0.17576752036E+02  0.28497288544E+02  0.33570555671E+02  0.10566000000E+00 0.  1.
         23    2    1    0    0    0 -0.25156604317E+00  0.83730130560E+01 -0.30571272907E+02  0.93391839797E+02  0.87847950349E+02 0.  0.
         13    1    3    3    0    0  0.21842864788E+01 -0.92037389802E+01 -0.59068561451E+02  0.59821284126E+02  0.10566000000E+00 0. -1.
         22    1    1    0    0    0  0.25156604317E+00 -0.83730130560E+01  0.30571272907E+02  0.31698160203E+02  0.00000000000E+00 0. -1.
</event>
<event>
 5    1  0.1261010E-009  0.9118800E+02  0.7561462E-02  0.1125453E+00
         25   -1    0    0    0    0  0.00000000000E+00  0.00000000000E+00  0.99999998245E-14  0.12509000000E+03  0.12509000000E+03 0.  0.
        -13    1    3    3    0    0  0.14388293023E+02 -0.22748186715E+02  0.30872966137E+02  0.40959176958E+02  0.10566000000E+00 0.  1.
         23    2    1    0    0    0 -0.18887506989E+02 -0.17527775062E+02 -0.12966293452E+02  0.96244106275E+02  0.91819618862E+02 0.  0.
         13    1    3    3    0    0 -0.33275800012E+02  0.52204116526E+01 -0.43839259589E+02  0.55284929318E+02  0.10566000000E+00 0. -1.
         22    1    1    0    0    0  0.18887506989E+02  0.17527775062E+02  0.12966293452E+02  0.28845893725E+02  0.00000000000E+00 0. -1.
</event>
<event>
 5    1  0.1261010E-009  0.9118800E+02  0.7561462E-02  0.1125453E+00
         25   -1    0    0    0    0  0.00000000000E+00  0.00000000000E+00  0.99999998245E-14  0.12509000000E+03  0.12509000000E+03 0.  0.
        -13    1    3    3    0    0 -0.43033672380E+02  0.33183601638E+02 -0.26963056712E+02  0.60663547271E+02  0.10566000000E+00 0.  1.
         23    2    1    0    0    0 -0.13765231966E+02  0.24265367408E+02 -0.12064137010E+02  0.94695377642E+02  0.89684901061E+02 0.  0.
         13    1    3    3    0    0  0.29268440414E+02 -0.89182342308E+01  0.14898919702E+02  0.34031830370E+02  0.10566000000E+00 0. -1.
         22    1    1    0    0    0  0.13765231966E+02 -0.24265367408E+02  0.12064137010E+02  0.30394622358E+02  0.00000000000E+00 0.  1.
</event>
<event>
 5    1  0.1261010E-009  0.9118800E+02  0.7561462E-02  0.1125453E+00
         25   -1    0    0    0    0  0.00000000000E+00  0.00000000000E+00  0.99999998245E-14  0.12509000000E+03  0.12509000000E+03 0.  0.
        -13    1    3    3    0    0 -0.37402796261E+02  0.10041177753E+02  0.16095416333E+02  0.41938860378E+02  0.10566000000E+00 0.  1.
         23    2    1    0    0    0  0.13835254705E+02  0.23273921059E+02  0.13279798252E+02  0.94933032051E+02  0.90015764501E+02 0.  0.
         13    1    3    3    0    0  0.51238050966E+02  0.13232743307E+02 -0.28156180807E+01  0.52994171674E+02  0.10566000000E+00 0. -1.
         22    1    1    0    0    0 -0.13835254705E+02 -0.23273921059E+02 -0.13279798252E+02  0.30156967949E+02  0.00000000000E+00 0. -1.
</event>
<event>
 5    1  0.1261010E-009  0.9118800E+02  0.7561462E-02  0.1125453E+00
         25   -1    0    0    0    0  0.00000000000E+00  0.00000000000E+00  0.99999998245E-14  0.12509000000E+03  0.12509000000E+03 0.  0.
        -13    1    3    3    0    0 -0.40336946329E+01 -0.12362326337E+02 -0.34512412920E+02  0.36881101047E+02  0.10566000000E+00 0. -1.
         23    2    1    0    0    0  0.44186692612E+01 -0.17535100728E+02  0.23333374711E+02  0.95569654965E+02  0.90896139517E+02 0.  0.
         13    1    3    3    0    0  0.84523638941E+01 -0.51727743911E+01  0.57845787631E+02  0.58688553918E+02  0.10566000000E+00 0.  1.
         22    1    1    0    0    0 -0.44186692612E+01  0.17535100728E+02 -0.23333374711E+02  0.29520345035E+02  0.00000000000E+00 0.  1.
</event>
<event>
 5    1  0.1261010E-009  0.9118800E+02  0.7561462E-02  0.1125453E+00
         25   -1    0    0    0    0  0.00000000000E+00  0.00000000000E+00  0.99999998245E-14  0.12509000000E+03  0.12509000000E+03 0.  0.
        -13    1    3    3    0    0  0.89694235864E+01  0.38936757799E+02 -0.12751269589E+02  0.41941956410E+02  0.10566000000E+00 0.  1.
         23    2    1    0    0    0 -0.16289969952E+02  0.64087153841E+01  0.22797949384E+02  0.96346631199E+02  0.91959187107E+02 0.  0.
         13    1    3    3    0    0 -0.25259393539E+02 -0.32528042415E+02  0.35549218973E+02  0.54404674789E+02  0.10566000000E+00 0. -1.
         22    1    1    0    0    0  0.16289969952E+02 -0.64087153841E+01 -0.22797949384E+02  0.28743368801E+02  0.00000000000E+00 0.  1.
</event>
<event>
 5    1  0.1261010E-009  0.9118800E+02  0.7561462E-02  0.1125453E+00
         25   -1    0    0    0    0  0.00000000000E+00  0.00000000000E+00  0.99999998245E-14  0.12509000000E+03  0.12509000000E+03 0.  0.
        -13    1    3    3    0    0  0.32707877511E+02  0.23877790513E+02 -0.69919149191E+01  0.41095646599E+02  0.10566000000E+00 0.  1.
         23    2    1    0    0    0 -0.17440430716E+02 -0.61550000415E+01  0.12561236302E+02  0.10273295846E+03  0.10027075071E+03 0.  0.
         13    1    3    3    0    0 -0.50148308227E+02 -0.30032790555E+02  0.19553151221E+02  0.61637311860E+02  0.10566000000E+00 0. -1.
         22    1    1    0    0    0  0.17440430716E+02  0.61550000415E+01 -0.12561236302E+02  0.22357041542E+02  0.00000000000E+00 0. -1.
</event>
<event>
 5    1  0.1261010E-009  0.9118800E+02  0.7561462E-02  0.1125453E+00
         25   -1    0    0    0    0  0.00000000000E+00  0.00000000000E+00  0.99999998245E-14  0.12509000000E+03  0.12509000000E+03 0.  0.
        -13    1    3    3    0    0  0.53190859837E+01 -0.55121431677E+02  0.26010816777E+02  0.61182012547E+02  0.10566000000E+00 0.  1.
         23    2    1    0    0    0  0.64014368578E+01 -0.21208283584E+02  0.19166998908E+02  0.95795912993E+02  0.91206981162E+02 0.  0.
         13    1    3    3    0    0  0.10823508741E+01  0.33913148094E+02 -0.68438178690E+01  0.34613900446E+02  0.10566000000E+00 0. -1.
         22    1    1    0    0    0 -0.64014368578E+01  0.21208283584E+02 -0.19166998908E+02  0.29294087007E+02  0.00000000000E+00 0.  1.
</event>
<event>
 5    1  0.1261010E-009  0.9118800E+02  0.7561462E-02  0.1125453E+00
         25   -1    0    0    0    0  0.00000000000E+00  0.00000000000E+00  0.99999998245E-14  0.12509000000E+03  0.12509000000E+03 0.  0.
        -13    1    3    3    0    0 -0.47391050868E+02 -0.95640509434E+01  0.11745421824E+02  0.49752878014E+02  0.10566000000E+00 0.  1.
         23    2    1    0    0    0 -0.17917789160E+02 -0.68582239612E+01 -0.22831821260E+02  0.95267618030E+02  0.90479525744E+02 0.  0.
         13    1    3    3    0    0  0.29473261708E+02  0.27058269822E+01 -0.34577243084E+02  0.45514740016E+02  0.10566000000E+00 0. -1.
         22    1    1    0    0    0  0.17917789160E+02  0.68582239612E+01  0.22831821260E+02  0.29822381970E+02  0.00000000000E+00 0. -1.
</event>
<event>
 5    1  0.1261010E-009  0.9118800E+02  0.7561462E-02  0.1125453E+00
         25   -1    0    0    0    0  0.00000000000E+00  0.00000000000E+00  0.99999998245E-14  0.12509000000E+03  0.12509000000E+03 0.  0.
        -13    1    3    3    0    0  0.25190593946E+02  0.33687610502E+02 -0.23807683561E+02  0.48334646841E+02  0.10566000000E+00 0. -1.
         23    2    1    0    0    0  0.12749137392E+02  0.18551913262E+02  0.19141287962E+02  0.95541685416E+02  0.90857640060E+02 0.  0.
         13    1    3    3    0    0 -0.12441456553E+02 -0.15135697240E+02  0.42948971523E+02  0.47207038575E+02  0.10566000000E+00 0.  1.
         22    1    1    0    0    0 -0.12749137392E+02 -0.18551913262E+02 -0.19141287962E+02  0.29548314584E+02  0.00000000000E+00 0.  1.
</event>
<event>
 5    1  0.1261010E-009  0.9118800E+02  0.7561462E-02  0.1125453E+00
         25   -1    0    0    0    0  0.00000000000E+00  0.00000000000E+00  0.99999998245E-14  0.12509000000E+03  0.12509000000E+03 0.  0.
        -13    1    3    3    0    0  0.29058406776E+02 -0.15753606566E+02  0.20829536759E+02  0.39069782310E+02  0.10566000000E+00 0. -1.
         23    2    1    0    0    0 -0.23351617161E+02 -0.81173206539E+01 -0.76583584026E+01  0.99208744775E+02  0.95773355730E+02 0.  0.
         13    1    3    3    0    0 -0.52410023936E+02  0.76362859117E+01 -0.28487895161E+02  0.60138962464E+02  0.10566000000E+00 0.  1.
         22    1    1    0    0    0  0.23351617161E+02  0.81173206539E+01  0.76583584026E+01  0.25881255225E+02  0.00000000000E+00 0.  1.
</event>
<event>
 5    1  0.1261010E-009  0.9118800E+02  0.7561462E-02  0.1125453E+00
         25   -1    0    0    0    0  0.00000000000E+00  0.00000000000E+00  0.99999998245E-14  0.12509000000E+03  0.12509000000E+03 0.  0.
        -13    1    3    3    0    0 -0.13083517975E+02  0.11434054948E+02 -0.55200292923E+02  0.57870541366E+02  0.10566000000E+00 0. -1.
         23    2    1    0    0    0  0.85462321595E+01  0.14170245837E+02 -0.24512785713E+02  0.95514492995E+02  0.90820194657E+02 0.  0.
         13    1    3    3    0    0  0.21629750134E+02  0.27361908888E+01  0.30687507210E+02  0.37643951629E+02  0.10566000000E+00 0.  1.
         22    1    1    0    0    0 -0.85462321595E+01 -0.14170245837E+02  0.24512785713E+02  0.29575507005E+02  0.00000000000E+00 0. -1.
</event>
<event>
 5    1  0.1261010E-009  0.9118800E+02  0.7561462E-02  0.1125453E+00
         25   -1    0    0    0    0  0.00000000000E+00  0.00000000000E+00  0.99999998245E-14  0.12509000000E+03  0.12509000000E+03 0.  0.
        -13    1    3    3    0    0  0.12004785806E+02  0.23273093129E+02  0.26604784102E+02  0.37330650238E+02  0.10566000000E+00 0. -1.
         23    2    1    0    0    0  0.41208933380E+01  0.50687243217E+01 -0.28475562296E+02  0.95874740696E+02  0.91315029033E+02 0.  0.
         13    1    3    3    0    0 -0.78838924682E+01 -0.18204368807E+02 -0.55080346398E+02  0.58544090458E+02  0.10566000000E+00 0.  1.
         22    1    1    0    0    0 -0.41208933380E+01 -0.50687243217E+01  0.28475562296E+02  0.29215259304E+02  0.00000000000E+00 0.  1.
</event>
<event>
 5    1  0.1261010E-009  0.9118800E+02  0.7561462E-02  0.1125453E+00
         25   -1    0    0    0    0  0.00000000000E+00  0.00000000000E+00  0.99999998245E-14  0.12509000000E+03  0.12509000000E+03 0.  0.
        -13    1    3    3    0    0 -0.51094887825E+02  0.17561209287E+02 -0.31082026585E+02  0.62331269634E+02  0.10566000000E+00 0.  1.
         23    2    1    0    0    0 -0.23105735925E+02  0.43064678377E+01 -0.12105403848E+02  0.98652119975E+02  0.95043565145E+02 0.  0.
         13    1    3    3    0    0  0.27989151900E+02 -0.13254741450E+02  0.18976622737E+02  0.36320850341E+02  0.10566000000E+00 0. -1.
         22    1    1    0    0    0  0.23105735925E+02 -0.43064678377E+01  0.12105403848E+02  0.26437880025E+02  0.00000000000E+00 0.  1.
</event>
<event>
 5    1  0.1261010E-009  0.9118800E+02  0.7561462E-02  0.1125453E+00
         25   -1    0    0    0    0  0.00000000000E+00  0.00000000000E+00  0.99999998245E-14  0.12509000000E+03  0.12509000000E+03 0.  0.
        -13    1    3    3    0    0 -0.20992581364E+02  0.23535618017E+02  0.30360041845E+02  0.43776216061E+02  0.10566000000E+00 0.  1.
         23    2    1    0    0    0 -0.93650932502E+01  0.21348576593E+02 -0.19299322587E+02  0.94825655526E+02  0.89866425319E+02 0.  0.
         13    1    3    3    0    0  0.11627488113E+02 -0.21870414242E+01 -0.49659364431E+02  0.51049439466E+02  0.10566000000E+00 0. -1.
         22    1    1    0    0    0  0.93650932502E+01 -0.21348576593E+02  0.19299322587E+02  0.30264344474E+02  0.00000000000E+00 0.  1.
</event>
<event>
 5    1  0.1261010E-009  0.9118800E+02  0.7561462E-02  0.1125453E+00
         25   -1    0    0    0    0  0.00000000000E+00  0.00000000000E+00  0.99999998245E-14  0.12509000000E+03  0.12509000000E+03 0.  0.
        -13    1    3    3    0    0 -0.30629108863E+02 -0.10733772533E+02  0.39662217164E+02  0.51248988448E+02  0.10566000000E+00 0. -1.
         23    2    1    0    0    0  0.86060584352E+01 -0.19260001788E+02  0.20257069850E+02  0.95843448245E+02  0.91272152280E+02 0.  0.
         13    1    3    3    0    0  0.39235167298E+02 -0.85262292553E+01 -0.19405147314E+02  0.44594459797E+02  0.10566000000E+00 0.  1.
         22    1    1    0    0    0 -0.86060584352E+01  0.19260001788E+02 -0.20257069850E+02  0.29246551755E+02  0.00000000000E+00 0. -1.
</event>
<event>
 5    1  0.1261010E-009  0.9118800E+02  0.7561462E-02  0.1125453E+00
         25   -1    0    0    0    0  0.00000000000E+00  0.00000000000E+00  0.99999998245E-14  0.12509000000E+03  0.12509000000E+03 0.  0.
        -13    1    3    3    0    0 -0.12365855921E+01 -0.86069352839E+01  0.51973808199E+02  0.52696265348E+02  0.10566000000E+00 0.  1.
         23    2    1    0    0    0 -0.10380110361E+02  0.18642634883E+02  0.18203396720E+02  0.97042572691E+02  0.92901037324E+02 0.  0.
         13    1    3    3    0    0 -0.91435247690E+01  0.27249570167E+02 -0.33770411479E+02  0.44346307343E+02  0.10566000000E+00 0. -1.
         22    1    1    0    0    0  0.10380110361E+02 -0.18642634883E+02 -0.18203396720E+02  0.28047427309E+02  0.00000000000E+00 0.  1.
</event>
<event>
 5    1  0.1261010E-009  0.9118800E+02  0.7561462E-02  0.1125453E+00
         25   -1    0    0    0    0  0.00000000000E+00  0.00000000000E+00  0.99999998245E-14  0.12509000000E+03  0.12509000000E+03 0.  0.
        -13    1    3    3    0    0 -0.95061814635E+01  0.10260572618E+02 -0.59912957493E+02  0.61524145472E+02  0.10566000000E+00 0.  1.
         23    2    1    0    0    0 -0.72825380011E+01  0.12094955121E+02 -0.26478871339E+02  0.95082435512E+02  0.90223143463E+02 0.  0.
         13    1    3    3    0    0  0.22236434624E+01  0.18343825034E+01  0.33434086154E+02  0.33558290040E+02  0.10566000000E+00 0. -1.
         22    1    1    0    0    0  0.72825380011E+01 -0.12094955121E+02  0.26478871339E+02  0.30007564488E+02  0.00000000000E+00 0.  1.
</event>
<event>
 5    1  0.1261010E-009  0.9118800E+02  0.7561462E-02  0.1125453E+00
         25   -1    0    0    0    0  0.00000000000E+00  0.00000000000E+00  0.99999998245E-14  0.12509000000E+03  0.12509000000E+03 0.  0.
        -13    1    3    3    0    0  0.14850489899E+02  0.30298664057E+02 -0.45457732648E+02  0.56612390122E+02  0.10566000000E+00 0.  1.
         23    2    1    0    0    0 -0.57123001918E+01  0.28302718739E+02 -0.17669615453E+02  0.91239009294E+02  0.84727016030E+02 0.  0.
         13    1    3    3    0    0 -0.20562790090E+02 -0.19959453180E+01  0.27788117195E+02  0.34626619172E+02  0.10566000000E+00 0. -1.
         22    1    1    0    0    0  0.57123001918E+01 -0.28302718739E+02  0.17669615453E+02  0.33850990706E+02  0.00000000000E+00 0. -1.
</event>
<event>
 5    1  0.1261010E-009  0.9118800E+02  0.7561462E-02  0.1125453E+00
         25   -1    0    0    0    0  0.00000000000E+00  0.00000000000E+00  0.99999998245E-14  0.12509000000E+03  0.12509000000E+03 0.  0.
        -13    1    3    3    0    0  0.20753334595E+02 -0.98904375400E+01 -0.32856800314E+02  0.40101148892E+02  0.10566000000E+00 0.  1.
         23    2    1    0    0    0 -0.18102253759E+02  0.21619962516E+02 -0.92867903682E+01  0.95402311547E+02  0.90665551356E+02 0.  0.
         13    1    3    3    0    0 -0.38855588355E+02  0.31510400056E+02  0.23570009946E+02  0.55301162655E+02  0.10566000000E+00 0. -1.
         22    1    1    0    0    0  0.18102253759E+02 -0.21619962516E+02  0.92867903682E+01  0.29687688453E+02  0.00000000000E+00 0. -1.
</event>
<event>
 5    1  0.1261010E-009  0.9118800E+02  0.7561462E-02  0.1125453E+00
         25   -1    0    0    0    0  0.00000000000E+00  0.00000000000E+00  0.99999998245E-14  0.12509000000E+03  0.12509000000E+03 0.  0.
        -13    1    3    3    0    0  0.14534612441E+01 -0.51831348140E+02 -0.23002589017E+02  0.56725051478E+02  0.10566000000E+00 0. -1.
         23    2    1    0    0    0 -0.13325648845E+02 -0.36737232059E+02 -0.28726361115E+01  0.85905192041E+02  0.76447713143E+02 0.  0.
         13    1    3    3    0    0 -0.14779110089E+02  0.15094116081E+02  0.20129952905E+02  0.29180140563E+02  0.10566000000E+00 0.  1.
         22    1    1    0    0    0  0.13325648845E+02  0.36737232059E+02  0.28726361115E+01  0.39184807959E+02  0.00000000000E+00 0. -1.
</event>
<event>
 5    1  0.1261010E-009  0.9118800E+02  0.7561462E-02  0.1125453E+00
         25   -1    0    0    0    0  0.00000000000E+00  0.00000000000E+00  0.99999998245E-14  0.12509000000E+03  0.12509000000E+03 0.  0.
        -13    1    3    3    0    0 -0.21228795812E+01  0.15112578343E+02 -0.30067104486E+02  0.33718519809E+02  0.10566000000E+00 0. -1.
         23    2    1    0    0    0 -0.23075311502E+02 -0.11032428355E+02  0.19066331735E+02  0.93188440757E+02  0.87557843786E+02 0.  0.
         13    1    3    3    0    0 -0.20952431921E+02 -0.26145006698E+02  0.49133436221E+02  0.59469920948E+02  0.10566000000E+00 0.  1.
         22    1    1    0    0    0  0.23075311502E+02  0.11032428355E+02 -0.19066331735E+02  0.31901559243E+02  0.00000000000E+00 0.  1.
</event>
<event>
 5    1  0.1261010E-009  0.9118800E+02  0.7561462E-02  0.1125453E+00
         25   -1    0    0    0    0  0.00000000000E+00  0.00000000000E+00  0.99999998245E-14  0.12509000000E+03  0.12509000000E+03 0.  0.
        -13    1    3    3    0    0 -0.50299722486E+02  0.12851109810E+02 -0.20255800671E+02  0.55727208169E+02  0.10566000000E+00 0.  1.
         23    2    1    0    0    0 -0.13516546575E+02  0.21392049167E+02 -0.18887400427E+02  0.93513890458E+02  0.88021571304E+02 0.  0.
         13    1    3    3    0    0  0.36783175910E+02  0.85409393573E+01  0.13684002441E+01  0.37786682289E+02  0.10566000000E+00 0. -1.
         22    1    1    0    0    0  0.13516546575E+02 -0.21392049167E+02  0.18887400427E+02  0.31576109542E+02  0.00000000000E+00 0.  1.
</event>
<event>
 5    1  0.1261010E-009  0.9118800E+02  0.7561462E-02  0.1125453E+00
         25   -1    0    0    0    0  0.00000000000E+00  0.00000000000E+00  0.99999998245E-14  0.12509000000E+03  0.12509000000E+03 0.  0.
        -13    1    3    3    0    0 -0.27065713434E+02  0.27027362169E+02 -0.47508508468E+02  0.60992628164E+02  0.10566000000E+00 0. -1.
         23    2    1    0    0    0 -0.17266872211E+02  0.17925685934E+02 -0.15283355493E+02  0.95882876772E+02  0.91326173744E+02 0.  0.
         13    1    3    3    0    0  0.97988412229E+01 -0.91016762357E+01  0.32225152975E+02  0.34890248607E+02  0.10566000000E+00 0.  1.
         22    1    1    0    0    0  0.17266872211E+02 -0.17925685934E+02  0.15283355493E+02  0.29207123228E+02  0.00000000000E+00 0. -1.
</event>
<event>
 5    1  0.1261010E-009  0.9118800E+02  0.7561462E-02  0.1125453E+00
         25   -1    0    0    0    0  0.00000000000E+00  0.00000000000E+00  0.99999998245E-14  0.12509000000E+03  0.12509000000E+03 0.  0.
        -13    1    3    3    0    0  0.35216761698E+02 -0.23628686670E+02 -0.16434153736E+02  0.45482169158E+02  0.10566000000E+00 0.  1.
         23    2    1    0    0    0  0.39204989010E+01 -0.20679739416E+02  0.21670748149E+02  0.94880013915E+02  0.89942057910E+02 0.  0.
         13    1    3    3    0    0 -0.31296262797E+02  0.29489472536E+01  0.38104901884E+02  0.49397844757E+02  0.10566000000E+00 0. -1.
         22    1    1    0    0    0 -0.39204989010E+01  0.20679739416E+02 -0.21670748149E+02  0.30209986085E+02  0.00000000000E+00 0.  1.
</event>
<event>
 5    1  0.1261010E-009  0.9118800E+02  0.7561462E-02  0.1125453E+00
         25   -1    0    0    0    0  0.00000000000E+00  0.00000000000E+00  0.99999998245E-14  0.12509000000E+03  0.12509000000E+03 0.  0.
        -13    1    3    3    0    0 -0.93778776388E+01  0.92198574342E+01 -0.41856790924E+02  0.43874280286E+02  0.10566000000E+00 0.  1.
         23    2    1    0    0    0  0.21185342419E+02 -0.17463985457E+02 -0.86488907018E+01  0.96304364141E+02  0.91901674200E+02 0.  0.
         13    1    3    3    0    0  0.30563220058E+02 -0.26683842891E+02  0.33207900223E+02  0.52430083854E+02  0.10566000000E+00 0. -1.
         22    1    1    0    0    0 -0.21185342419E+02  0.17463985457E+02  0.86488907018E+01  0.28785635859E+02  0.00000000000E+00 0. -1.
</event>
<event>
 5    1  0.1261010E-009  0.9118800E+02  0.7561462E-02  0.1125453E+00
         25   -1    0    0    0    0  0.00000000000E+00  0.00000000000E+00  0.99999998245E-14  0.12509000000E+03  0.12509000000E+03 0.  0.
        -13    1    3    3    0    0 -0.41940281850E+02  0.44623074821E+02 -0.11034157080E+02  0.62225154356E+02  0.10566000000E+00 0.  1.
         23    2    1    0    0    0 -0.25133335606E+02  0.21171389298E+02 -0.82265556603E+01  0.91213924349E+02  0.84689972805E+02 0.  0.
         13    1    3    3    0    0  0.16806946244E+02 -0.23451685523E+02  0.28076014197E+01  0.28988769993E+02  0.10566000000E+00 0. -1.
         22    1    1    0    0    0  0.25133335606E+02 -0.21171389298E+02  0.82265556603E+01  0.33876075651E+02  0.00000000000E+00 0.  1.
</event>
<event>
 5    1  0.1261010E-009  0.9118800E+02  0.7561462E-02  0.1125453E+00
         25   -1    0    0    0    0  0.00000000000E+00  0.00000000000E+00  0.99999998245E-14  0.12509000000E+03  0.12509000000E+03 0.  0.
        -13    1    3    3    0    0  0.50661876037E+01  0.44696219237E+02 -0.25498148373E+02  0.51706721086E+02  0.10566000000E+00 0.  1.
         23    2    1    0    0    0  0.88467354546E+01  0.10090823640E+01 -0.28078887344E+02  0.95633135097E+02  0.90983458049E+02 0.  0.
         13    1    3    3    0    0  0.37805478509E+01 -0.43687136873E+02 -0.25807389713E+01  0.43926414011E+02  0.10566000000E+00 0. -1.
         22    1    1    0    0    0 -0.88467354546E+01 -0.10090823640E+01  0.28078887344E+02  0.29456864903E+02  0.00000000000E+00 0.  1.
</event>
<event>
 5    1  0.1261010E-009  0.9118800E+02  0.7561462E-02  0.1125453E+00
         25   -1    0    0    0    0  0.00000000000E+00  0.00000000000E+00  0.99999998245E-14  0.12509000000E+03  0.12509000000E+03 0.  0.
        -13    1    3    3    0    0  0.37560062562E+02  0.30202953699E+02 -0.53738564570E+01  0.48496043231E+02  0.10566000000E+00 0.  1.
         23    2    1    0    0    0 -0.44487683067E+01  0.23436336973E+02  0.16250428436E+02  0.96226011112E+02  0.91794963697E+02 0.  0.
         13    1    3    3    0    0 -0.42008830868E+02 -0.67666167255E+01  0.21624284893E+02  0.47729967882E+02  0.10566000000E+00 0. -1.
         22    1    1    0    0    0  0.44487683067E+01 -0.23436336973E+02 -0.16250428436E+02  0.28863988888E+02  0.00000000000E+00 0.  1.
</event>
<event>
 5    1  0.1261010E-009  0.9118800E+02  0.7561462E-02  0.1125453E+00
         25   -1    0    0    0    0  0.00000000000E+00  0.00000000000E+00  0.99999998245E-14  0.12509000000E+03  0.12509000000E+03 0.  0.
        -13    1    3    3    0    0  0.19033124955E+02  0.12344560563E+02 -0.53309218936E+02  0.57935584994E+02  0.10566000000E+00 0. -1.
         23    2    1    0    0    0  0.30786778227E+00 -0.86207245232E+01 -0.28106248340E+02  0.95689781129E+02  0.91061305410E+02 0.  0.
         13    1    3    3    0    0 -0.18725257173E+02 -0.20965285086E+02  0.25202970595E+02  0.37754196135E+02  0.10566000000E+00 0.  1.
         22    1    1    0    0    0 -0.30786778227E+00  0.86207245232E+01  0.28106248340E+02  0.29400218871E+02  0.00000000000E+00 0. -1.
</event>
<event>
 5    1  0.1261010E-009  0.9118800E+02  0.7561462E-02  0.1125453E+00
         25   -1    0    0    0    0  0.00000000000E+00  0.00000000000E+00  0.99999998245E-14  0.12509000000E+03  0.12509000000E+03 0.  0.
        -13    1    3    3    0    0  0.23853302749E+02  0.43736323022E+02 -0.31128100983E+01  0.49915395964E+02  0.10566000000E+00 0.  1.
         23    2    1    0    0    0  0.21324567804E+02  0.19919944708E+02  0.24870252525E+02  0.86748497032E+02  0.77815364083E+02 0.  0.
         13    1    3    3    0    0 -0.25287349449E+01 -0.23816378314E+02  0.27983062623E+02  0.36833101067E+02  0.10566000000E+00 0. -1.
         22    1    1    0    0    0 -0.21324567804E+02 -0.19919944708E+02 -0.24870252525E+02  0.38341502968E+02  0.00000000000E+00 0. -1.
</event>
<event>
 5    1  0.1261010E-009  0.9118800E+02  0.7561462E-02  0.1125453E+00
         25   -1    0    0    0    0  0.00000000000E+00  0.00000000000E+00  0.99999998245E-14  0.12509000000E+03  0.12509000000E+03 0.  0.
        -13    1    3    3    0    0 -0.75559489899E+01  0.55062391872E+02 -0.73171181605E+01  0.56058101519E+02  0.10566000000E+00 0.  1.
         23    2    1    0    0    0  0.15282954686E+02  0.23478615576E+02 -0.10518733380E+02  0.95165798336E+02  0.90338648029E+02 0.  0.
         13    1    3    3    0    0  0.22838903676E+02 -0.31583776296E+02 -0.32016152200E+01  0.39107696816E+02  0.10566000000E+00 0. -1.
         22    1    1    0    0    0 -0.15282954686E+02 -0.23478615576E+02  0.10518733380E+02  0.29924201664E+02  0.00000000000E+00 0.  1.
</event>
<event>
 5    1  0.1261010E-009  0.9118800E+02  0.7561462E-02  0.1125453E+00
         25   -1    0    0    0    0  0.00000000000E+00  0.00000000000E+00  0.99999998245E-14  0.12509000000E+03  0.12509000000E+03 0.  0.
        -13    1    3    3    0    0  0.40491727604E+02 -0.51999612832E+00 -0.13773183622E+02  0.42773381343E+02  0.10566000000E+00 0.  1.
         23    2    1    0    0    0  0.91342927349E+01  0.23162229099E+02  0.18862062184E+02  0.93853778230E+02  0.88503277553E+02 0.  0.
         13    1    3    3    0    0 -0.31357434869E+02  0.23682225227E+02  0.32635245807E+02  0.51080396888E+02  0.10566000000E+00 0. -1.
         22    1    1    0    0    0 -0.91342927349E+01 -0.23162229099E+02 -0.18862062184E+02  0.31236221770E+02  0.00000000000E+00 0. -1.
</event>
<event>
 5    1  0.1261010E-009  0.9118800E+02  0.7561462E-02  0.1125453E+00
         25   -1    0    0    0    0  0.00000000000E+00  0.00000000000E+00  0.99999998245E-14  0.12509000000E+03  0.12509000000E+03 0.  0.
        -13    1    3    3    0    0 -0.14790676961E+02  0.32629738978E+02 -0.39368592603E+02  0.53229326864E+02  0.10566000000E+00 0.  1.
         23    2    1    0    0    0  0.10410920786E+02  0.27195383116E+02 -0.60661464217E+01  0.95344844649E+02  0.90586230380E+02 0.  0.
         13    1    3    3    0    0  0.25201597747E+02 -0.54343558628E+01  0.33302446181E+02  0.42115517786E+02  0.10566000000E+00 0. -1.
         22    1    1    0    0    0 -0.10410920786E+02 -0.27195383116E+02  0.60661464217E+01  0.29745155351E+02  0.00000000000E+00 0.  1.
</event>
<event>
 5    1  0.1261010E-009  0.9118800E+02  0.7561462E-02  0.1125453E+00
         25   -1    0    0    0    0  0.00000000000E+00  0.00000000000E+00  0.99999998245E-14  0.12509000000E+03  0.12509000000E+03 0.  0.
        -13    1    3    3    0    0  0.45801979632E+02 -0.14817410273E+02 -0.17744532652E+02  0.51305522007E+02  0.10566000000E+00 0.  1.
         23    2    1    0    0    0  0.23733991019E+02  0.10761063183E+02  0.12077329118E+02  0.96367801457E+02  0.91987980021E+02 0.  0.
         13    1    3    3    0    0 -0.22067988612E+02  0.25578473456E+02  0.29821861770E+02  0.45062279449E+02  0.10566000000E+00 0. -1.
         22    1    1    0    0    0 -0.23733991019E+02 -0.10761063183E+02 -0.12077329118E+02  0.28722198543E+02  0.00000000000E+00 0.  1.
</event>
<event>
 5    1  0.1261010E-009  0.9118800E+02  0.7561462E-02  0.1125453E+00
         25   -1    0    0    0    0  0.00000000000E+00  0.00000000000E+00  0.99999998245E-14  0.12509000000E+03  0.12509000000E+03 0.  0.
        -13    1    3    3    0    0  0.37236255332E+02  0.49103307021E+01 -0.79031019116E+00  0.37567084170E+02  0.10566000000E+00 0.  1.
         23    2    1    0    0    0 -0.66619847440E+01 -0.30384639218E+02  0.15684771578E+01  0.93944077928E+02  0.88630814709E+02 0.  0.
         13    1    3    3    0    0 -0.43898240076E+02 -0.35294969920E+02  0.23587873489E+01  0.56376993758E+02  0.10566000000E+00 0. -1.
         22    1    1    0    0    0  0.66619847440E+01  0.30384639218E+02 -0.15684771578E+01  0.31145922072E+02  0.00000000000E+00 0. -1.
</event>
<event>
 5    1  0.1261010E-009  0.9118800E+02  0.7561462E-02  0.1125453E+00
         25   -1    0    0    0    0  0.00000000000E+00  0.00000000000E+00  0.99999998245E-14  0.12509000000E+03  0.12509000000E+03 0.  0.
        -13    1    3    3    0    0  0.30531323828E+02 -0.33281554340E+01 -0.16063373829E+02  0.34659508019E+02  0.10566000000E+00 0.  1.
         23    2    1    0    0    0 -0.10231842899E+02 -0.38295845705E+01  0.28207344447E+02  0.94840857734E+02  0.89887583613E+02 0.  0.
         13    1    3    3    0    0 -0.40763166727E+02 -0.50142913655E+00  0.44270718276E+02  0.60181349715E+02  0.10566000000E+00 0. -1.
         22    1    1    0    0    0  0.10231842899E+02  0.38295845705E+01 -0.28207344447E+02  0.30249142266E+02  0.00000000000E+00 0. -1.
</event>
<event>
 5    1  0.1261010E-009  0.9118800E+02  0.7561462E-02  0.1125453E+00
         25   -1    0    0    0    0  0.00000000000E+00  0.00000000000E+00  0.99999998245E-14  0.12509000000E+03  0.12509000000E+03 0.  0.
        -13    1    3    3    0    0 -0.23036459305E+02  0.11427007714E+02  0.29822203446E+02  0.39378038867E+02  0.10566000000E+00 0.  1.
         23    2    1    0    0    0  0.25567048694E+02 -0.90958230616E+01  0.58399087274E+01  0.97331892895E+02  0.93289789712E+02 0.  0.
         13    1    3    3    0    0  0.48603507998E+02 -0.20522830775E+02 -0.23982294718E+02  0.57953854029E+02  0.10566000000E+00 0. -1.
         22    1    1    0    0    0 -0.25567048694E+02  0.90958230616E+01 -0.58399087274E+01  0.27758107105E+02  0.00000000000E+00 0. -1.
</event>
<event>
 5    1  0.1261010E-009  0.9118800E+02  0.7561462E-02  0.1125453E+00
         25   -1    0    0    0    0  0.00000000000E+00  0.00000000000E+00  0.99999998245E-14  0.12509000000E+03  0.12509000000E+03 0.  0.
        -13    1    3    3    0    0  0.24370327914E+02  0.38127127601E+02  0.20600073480E+02  0.49718858929E+02  0.10566000000E+00 0.  1.
         23    2    1    0    0    0  0.29158976618E+02 -0.22334531753E+01 -0.11628976166E+01  0.95822499913E+02  0.91243437727E+02 0.  0.
         13    1    3    3    0    0  0.47886487032E+01 -0.40360580777E+02 -0.21762971096E+02  0.46103640984E+02  0.10566000000E+00 0. -1.
         22    1    1    0    0    0 -0.29158976618E+02  0.22334531753E+01  0.11628976166E+01  0.29267500087E+02  0.00000000000E+00 0. -1.
</event>
<event>
 5    1  0.1261010E-009  0.9118800E+02  0.7561462E-02  0.1125453E+00
         25   -1    0    0    0    0  0.00000000000E+00  0.00000000000E+00  0.99999998245E-14  0.12509000000E+03  0.12509000000E+03 0.  0.
        -13    1    3    3    0    0 -0.54557631800E+02  0.21572698343E+02  0.10152997118E+02  0.59539995095E+02  0.10566000000E+00 0.  1.
         23    2    1    0    0    0 -0.28562461837E+02 -0.31302741280E+01  0.21976611007E+01  0.96272599759E+02  0.91858428616E+02 0.  0.
         13    1    3    3    0    0  0.25995169962E+02 -0.24702972471E+02 -0.79553360178E+01  0.36732604664E+02  0.10566000000E+00 0. -1.
         22    1    1    0    0    0  0.28562461837E+02  0.31302741280E+01 -0.21976611007E+01  0.28817400241E+02  0.00000000000E+00 0.  1.
</event>
<event>
 5    1  0.1261010E-009  0.9118800E+02  0.7561462E-02  0.1125453E+00
         25   -1    0    0    0    0  0.00000000000E+00  0.00000000000E+00  0.99999998245E-14  0.12509000000E+03  0.12509000000E+03 0.  0.
        -13    1    3    3    0    0  0.12899832177E+02 -0.13486601987E+01  0.39971691843E+02  0.42023468055E+02  0.10566000000E+00 0.  1.
         23    2    1    0    0    0  0.20734085396E+02 -0.15322091266E+02 -0.12177269822E+02  0.96577639903E+02  0.92272887952E+02 0.  0.
         13    1    3    3    0    0  0.78342532190E+01 -0.13973431067E+02 -0.52148961665E+02  0.54554171848E+02  0.10566000000E+00 0. -1.
         22    1    1    0    0    0 -0.20734085396E+02  0.15322091266E+02  0.12177269822E+02  0.28512360097E+02  0.00000000000E+00 0. -1.
</event>
<event>
 5    1  0.1261010E-009  0.9118800E+02  0.7561462E-02  0.1125453E+00
         25   -1    0    0    0    0  0.00000000000E+00  0.00000000000E+00  0.99999998245E-14  0.12509000000E+03  0.12509000000E+03 0.  0.
        -13    1    3    3    0    0 -0.15812025116E+02 -0.30144463832E+02  0.71897355775E+01  0.34790980148E+02  0.10566000000E+00 0. -1.
         23    2    1    0    0    0  0.90380888991E+01  0.18303425486E+02 -0.20742993768E+02  0.95987178385E+02  0.91468924714E+02 0.  0.
         13    1    3    3    0    0  0.24850114015E+02  0.48447889318E+02 -0.27932729346E+02  0.61196198237E+02  0.10566000000E+00 0.  1.
         22    1    1    0    0    0 -0.90380888991E+01 -0.18303425486E+02  0.20742993768E+02  0.29102821615E+02  0.00000000000E+00 0.  1.
</event>
<event>
 5    1  0.1261010E-009  0.9118800E+02  0.7561462E-02  0.1125453E+00
         25   -1    0    0    0    0  0.00000000000E+00  0.00000000000E+00  0.99999998245E-14  0.12509000000E+03  0.12509000000E+03 0.  0.
        -13    1    3    3    0    0  0.66710235910E+01 -0.10928720875E+02  0.32951314684E+02  0.35351659072E+02  0.10566000000E+00 0.  1.
         23    2    1    0    0    0 -0.36328044948E+01  0.23045075133E+02 -0.16706742126E+02  0.96395262001E+02  0.92025314709E+02 0.  0.
         13    1    3    3    0    0 -0.10303828086E+02  0.33973796008E+02 -0.49658056809E+02  0.61043602929E+02  0.10566000000E+00 0. -1.
         22    1    1    0    0    0  0.36328044948E+01 -0.23045075133E+02  0.16706742126E+02  0.28694737999E+02  0.00000000000E+00 0. -1.
</event>
<event>
 5    1  0.1261010E-009  0.9118800E+02  0.7561462E-02  0.1125453E+00
         25   -1    0    0    0    0  0.00000000000E+00  0.00000000000E+00  0.99999998245E-14  0.12509000000E+03  0.12509000000E+03 0.  0.
        -13    1    3    3    0    0 -0.12610890613E+02 -0.59235096857E+02  0.76867829715E+00  0.60567592755E+02  0.10566000000E+00 0.  1.
         23    2    1    0    0    0 -0.86047278253E+01 -0.25606793057E+02  0.10965127001E+02  0.95935528614E+02  0.91398262832E+02 0.  0.
         13    1    3    3    0    0  0.40061627872E+01  0.33628303800E+02  0.10196448704E+02  0.35367935860E+02  0.10566000000E+00 0. -1.
         22    1    1    0    0    0  0.86047278253E+01  0.25606793057E+02 -0.10965127001E+02  0.29154471386E+02  0.00000000000E+00 0.  1.
</event>
<event>
 5    1  0.1261010E-009  0.9118800E+02  0.7561462E-02  0.1125453E+00
         25   -1    0    0    0    0  0.00000000000E+00  0.00000000000E+00  0.99999998245E-14  0.12509000000E+03  0.12509000000E+03 0.  0.
        -13    1    3    3    0    0 -0.60166298556E+02 -0.91809582986E+00 -0.35502471388E+01  0.60278037465E+02  0.10566000000E+00 0.  1.
         23    2    1    0    0    0 -0.28222353453E+02  0.97607900343E+01 -0.77964067654E+01  0.94226458159E+02  0.89028462877E+02 0.  0.
         13    1    3    3    0    0  0.31943945103E+02  0.10678885864E+02 -0.42461596266E+01  0.33948420694E+02  0.10566000000E+00 0. -1.
         22    1    1    0    0    0  0.28222353453E+02 -0.97607900343E+01  0.77964067654E+01  0.30863541841E+02  0.00000000000E+00 0.  1.
</event>
<event>
 5    1  0.1261010E-009  0.9118800E+02  0.7561462E-02  0.1125453E+00
         25   -1    0    0    0    0  0.00000000000E+00  0.00000000000E+00  0.99999998245E-14  0.12509000000E+03  0.12509000000E+03 0.  0.
        -13    1    3    3    0    0  0.33714102496E+02  0.20439996504E+02 -0.16286881645E+02  0.42658033733E+02  0.10566000000E+00 0.  1.
         23    2    1    0    0    0 -0.14646448079E+01  0.34861251646E+02  0.98962748551E+01  0.88821717621E+02  0.81079647350E+02 0.  0.
         13    1    3    3    0    0 -0.35178747304E+02  0.14421255142E+02  0.26183156500E+02  0.46163683888E+02  0.10566000000E+00 0. -1.
         22    1    1    0    0    0  0.14646448079E+01 -0.34861251646E+02 -0.98962748551E+01  0.36268282379E+02  0.00000000000E+00 0. -1.
</event>
<event>
 5    1  0.1261010E-009  0.9118800E+02  0.7561462E-02  0.1125453E+00
         25   -1    0    0    0    0  0.00000000000E+00  0.00000000000E+00  0.99999998245E-14  0.12509000000E+03  0.12509000000E+03 0.  0.
        -13    1    3    3    0    0 -0.25788020331E+01 -0.31712045247E+02 -0.11862839007E+02  0.33956474302E+02  0.10566000000E+00 0.  1.
         23    2    1    0    0    0  0.65023818107E+01  0.15099816463E+02  0.25646866659E+02  0.94626132947E+02  0.89588268432E+02 0.  0.
         13    1    3    3    0    0  0.90811838438E+01  0.46811861710E+02  0.37509705666E+02  0.60669658644E+02  0.10566000000E+00 0. -1.
         22    1    1    0    0    0 -0.65023818107E+01 -0.15099816463E+02 -0.25646866659E+02  0.30463867053E+02  0.00000000000E+00 0. -1.
</event>
<event>
 5    1  0.1261010E-009  0.9118800E+02  0.7561462E-02  0.1125453E+00
         25   -1    0    0    0    0  0.00000000000E+00  0.00000000000E+00  0.99999998245E-14  0.12509000000E+03  0.12509000000E+03 0.  0.
        -13    1    3    3    0    0  0.22802399293E+02  0.31303602153E+02  0.56079625547E+01  0.39132152117E+02  0.10566000000E+00 0.  1.
         23    2    1    0    0    0  0.86333846246E+01 -0.25657770094E+02  0.22474907918E+01  0.97925543238E+02  0.94082433575E+02 0.  0.
         13    1    3    3    0    0 -0.14169014668E+02 -0.56961372248E+02 -0.33604717629E+01  0.58793391121E+02  0.10566000000E+00 0. -1.
         22    1    1    0    0    0 -0.86333846246E+01  0.25657770094E+02 -0.22474907918E+01  0.27164456762E+02  0.00000000000E+00 0. -1.
</event>
<event>
 5    1  0.1261010E-009  0.9118800E+02  0.7561462E-02  0.1125453E+00
         25   -1    0    0    0    0  0.00000000000E+00  0.00000000000E+00  0.99999998245E-14  0.12509000000E+03  0.12509000000E+03 0.  0.
        -13    1    3    3    0    0 -0.21226398634E+02 -0.51905331842E+02  0.11430929809E+02  0.57231117348E+02  0.10566000000E+00 0.  1.
         23    2    1    0    0    0 -0.39423564792E+01 -0.32638545937E+02 -0.98830169015E+01  0.90760845064E+02  0.84018093993E+02 0.  0.
         13    1    3    3    0    0  0.17284042155E+02  0.19266785905E+02 -0.21313946710E+02  0.33529727716E+02  0.10566000000E+00 0. -1.
         22    1    1    0    0    0  0.39423564792E+01  0.32638545937E+02  0.98830169015E+01  0.34329154936E+02  0.00000000000E+00 0.  1.
</event>
<event>
 5    1  0.1261010E-009  0.9118800E+02  0.7561462E-02  0.1125453E+00
         25   -1    0    0    0    0  0.00000000000E+00  0.00000000000E+00  0.99999998245E-14  0.12509000000E+03  0.12509000000E+03 0.  0.
        -13    1    3    3    0    0  0.38316073697E+02  0.16015458773E+02 -0.24286574907E+02  0.48108890114E+02  0.10566000000E+00 0.  1.
         23    2    1    0    0    0  0.61637427198E+01 -0.19517280778E+02 -0.20409172703E+02  0.96185842796E+02  0.91740209563E+02 0.  0.
         13    1    3    3    0    0 -0.32152330977E+02 -0.35532739551E+02  0.38774022037E+01  0.48076952682E+02  0.10566000000E+00 0. -1.
         22    1    1    0    0    0 -0.61637427198E+01  0.19517280778E+02  0.20409172703E+02  0.28904157204E+02  0.00000000000E+00 0.  1.
</event>
<event>
 5    1  0.1261010E-009  0.9118800E+02  0.7561462E-02  0.1125453E+00
         25   -1    0    0    0    0  0.00000000000E+00  0.00000000000E+00  0.99999998245E-14  0.12509000000E+03  0.12509000000E+03 0.  0.
        -13    1    3    3    0    0 -0.15927014603E+02  0.36899758689E+02 -0.80285190399E+01  0.40984512532E+02  0.10566000000E+00 0.  1.
         23    2    1    0    0    0 -0.22281427451E+02 -0.17813008019E+02 -0.66034710599E+00  0.96555786812E+02  0.92243257990E+02 0.  0.
         13    1    3    3    0    0 -0.63544128476E+01 -0.54712766708E+02  0.73681719340E+01  0.55571274280E+02  0.10566000000E+00 0. -1.
         22    1    1    0    0    0  0.22281427451E+02  0.17813008019E+02  0.66034710599E+00  0.28534213188E+02  0.00000000000E+00 0. -1.
</event>
<event>
 5    1  0.1261010E-009  0.9118800E+02  0.7561462E-02  0.1125453E+00
         25   -1    0    0    0    0  0.00000000000E+00  0.00000000000E+00  0.99999998245E-14  0.12509000000E+03  0.12509000000E+03 0.  0.
        -13    1    3    3    0    0 -0.37981277137E+02 -0.25325015194E+02 -0.46757574952E+01  0.45889080180E+02  0.10566000000E+00 0. -1.
         23    2    1    0    0    0  0.16869039923E+02  0.21727671288E+01  0.33063098241E+01  0.10776322564E+03  0.10636115687E+03 0.  0.
         13    1    3    3    0    0  0.54850317060E+02  0.27497782323E+02  0.79820673193E+01  0.61874145465E+02  0.10566000000E+00 0.  1.
         22    1    1    0    0    0 -0.16869039923E+02 -0.21727671288E+01 -0.33063098241E+01  0.17326774356E+02  0.00000000000E+00 0.  1.
</event>
<event>
 5    1  0.1261010E-009  0.9118800E+02  0.7561462E-02  0.1125453E+00
         25   -1    0    0    0    0  0.00000000000E+00  0.00000000000E+00  0.99999998245E-14  0.12509000000E+03  0.12509000000E+03 0.  0.
        -13    1    3    3    0    0 -0.40372457671E+02  0.10913352039E+02 -0.40305224986E+01  0.42015388453E+02  0.10566000000E+00 0. -1.
         23    2    1    0    0    0  0.91422080617E+01  0.24372600528E+02  0.12887100813E+02  0.96043812778E+02  0.91546343350E+02 0.  0.
         13    1    3    3    0    0  0.49514665733E+02  0.13459248489E+02  0.16917623312E+02  0.54028424326E+02  0.10566000000E+00 0.  1.
         22    1    1    0    0    0 -0.91422080617E+01 -0.24372600528E+02 -0.12887100813E+02  0.29046187222E+02  0.00000000000E+00 0.  1.
</event>
<event>
 5    1  0.1261010E-009  0.9118800E+02  0.7561462E-02  0.1125453E+00
         25   -1    0    0    0    0  0.00000000000E+00  0.00000000000E+00  0.99999998245E-14  0.12509000000E+03  0.12509000000E+03 0.  0.
        -13    1    3    3    0    0  0.26874305049E+01 -0.34885662805E+02 -0.20516887927E+02  0.40560887642E+02  0.10566000000E+00 0. -1.
         23    2    1    0    0    0  0.28108108999E+02  0.89557376457E+01  0.89306981947E+00  0.95576128651E+02  0.90905048078E+02 0.  0.
         13    1    3    3    0    0  0.25420678494E+02  0.43841400451E+02  0.21409957746E+02  0.55015241009E+02  0.10566000000E+00 0.  1.
         22    1    1    0    0    0 -0.28108108999E+02 -0.89557376457E+01 -0.89306981947E+00  0.29513871349E+02  0.00000000000E+00 0. -1.
</event>
<event>
 5    1  0.1261010E-009  0.9118800E+02  0.7561462E-02  0.1125453E+00
         25   -1    0    0    0    0  0.00000000000E+00  0.00000000000E+00  0.99999998245E-14  0.12509000000E+03  0.12509000000E+03 0.  0.
        -13    1    3    3    0    0  0.18422179838E+02  0.24292997648E+02  0.16865479682E+02  0.34842244670E+02  0.10566000000E+00 0.  1.
         23    2    1    0    0    0 -0.24305138354E+02 -0.16542373247E+02  0.31047743476E+01  0.95526010303E+02  0.90836056484E+02 0.  0.
         13    1    3    3    0    0 -0.42727318192E+02 -0.40835370895E+02 -0.13760705334E+02  0.60683765633E+02  0.10566000000E+00 0. -1.
         22    1    1    0    0    0  0.24305138354E+02  0.16542373247E+02 -0.31047743476E+01  0.29563989697E+02  0.00000000000E+00 0. -1.
</event>
<event>
 5    1  0.1261010E-009  0.9118800E+02  0.7561462E-02  0.1125453E+00
         25   -1    0    0    0    0  0.00000000000E+00  0.00000000000E+00  0.99999998245E-14  0.12509000000E+03  0.12509000000E+03 0.  0.
        -13    1    3    3    0    0 -0.12201707413E+02  0.37651969700E+02  0.24270549664E+02  0.46428689742E+02  0.10566000000E+00 0.  1.
         23    2    1    0    0    0 -0.18735632046E+02  0.19425409268E+02 -0.17813128897E+02  0.92753055269E+02  0.86933602636E+02 0.  0.
         13    1    3    3    0    0 -0.65339246329E+01 -0.18226560431E+02 -0.42083678561E+02  0.46324365528E+02  0.10566000000E+00 0. -1.
         22    1    1    0    0    0  0.18735632046E+02 -0.19425409268E+02  0.17813128897E+02  0.32336944731E+02  0.00000000000E+00 0. -1.
</event>
<event>
 5    1  0.1261010E-009  0.9118800E+02  0.7561462E-02  0.1125453E+00
         25   -1    0    0    0    0  0.00000000000E+00  0.00000000000E+00  0.99999998245E-14  0.12509000000E+03  0.12509000000E+03 0.  0.
        -13    1    3    3    0    0  0.71592889038E+01  0.29433452383E+02  0.36274356713E+02  0.47259111881E+02  0.10566000000E+00 0.  1.
         23    2    1    0    0    0  0.20418500453E+02 -0.13090362091E+02  0.14393315997E+02  0.96886449056E+02  0.92690580562E+02 0.  0.
         13    1    3    3    0    0  0.13259211550E+02 -0.42523814474E+02 -0.21881040716E+02  0.49627337176E+02  0.10566000000E+00 0. -1.
         22    1    1    0    0    0 -0.20418500453E+02  0.13090362091E+02 -0.14393315997E+02  0.28203550944E+02  0.00000000000E+00 0.  1.
</event>
<event>
 5    1  0.1261010E-009  0.9118800E+02  0.7561462E-02  0.1125453E+00
         25   -1    0    0    0    0  0.00000000000E+00  0.00000000000E+00  0.99999998245E-14  0.12509000000E+03  0.12509000000E+03 0.  0.
        -13    1    3    3    0    0 -0.33455183986E+01  0.25371246769E+02  0.26935054179E+02  0.37153747640E+02  0.10566000000E+00 0.  1.
         23    2    1    0    0    0 -0.14181547747E+02  0.34040838344E+01 -0.25886193265E+02  0.95378064940E+02  0.90632092476E+02 0.  0.
         13    1    3    3    0    0 -0.10836029348E+02 -0.21967162935E+02 -0.52821247445E+02  0.58224317300E+02  0.10566000000E+00 0. -1.
         22    1    1    0    0    0  0.14181547747E+02 -0.34040838344E+01  0.25886193265E+02  0.29711935060E+02  0.00000000000E+00 0. -1.
</event>
<event>
 5    1  0.1261010E-009  0.9118800E+02  0.7561462E-02  0.1125453E+00
         25   -1    0    0    0    0  0.00000000000E+00  0.00000000000E+00  0.99999998245E-14  0.12509000000E+03  0.12509000000E+03 0.  0.
        -13    1    3    3    0    0 -0.72982498951E+01  0.11548477378E+01 -0.31163215433E+02  0.32027414585E+02  0.10566000000E+00 0. -1.
         23    2    1    0    0    0  0.20081668067E+02 -0.81283513747E+01  0.23043299718E+02  0.93461893033E+02  0.87947645216E+02 0.  0.
         13    1    3    3    0    0  0.27379917962E+02 -0.92831991125E+01  0.54206515151E+02  0.61434478448E+02  0.10566000000E+00 0.  1.
         22    1    1    0    0    0 -0.20081668067E+02  0.81283513747E+01 -0.23043299718E+02  0.31628106967E+02  0.00000000000E+00 0.  1.
</event>
<event>
 5    1  0.1261010E-009  0.9118800E+02  0.7561462E-02  0.1125453E+00
         25   -1    0    0    0    0  0.00000000000E+00  0.00000000000E+00  0.99999998245E-14  0.12509000000E+03  0.12509000000E+03 0.  0.
        -13    1    3    3    0    0  0.14499502242E+02 -0.43887394472E+02 -0.42025458422E+02  0.62469906983E+02  0.10566000000E+00 0. -1.
         23    2    1    0    0    0  0.46933287669E+01 -0.21015905125E+02 -0.19057234623E+02  0.96334586690E+02  0.91942801775E+02 0.  0.
         13    1    3    3    0    0 -0.98061734755E+01  0.22871489347E+02  0.22968223799E+02  0.33864679708E+02  0.10566000000E+00 0.  1.
         22    1    1    0    0    0 -0.46933287669E+01  0.21015905125E+02  0.19057234623E+02  0.28755413310E+02  0.00000000000E+00 0. -1.
</event>
<event>
 5    1  0.1261010E-009  0.9118800E+02  0.7561462E-02  0.1125453E+00
         25   -1    0    0    0    0  0.00000000000E+00  0.00000000000E+00  0.99999998245E-14  0.12509000000E+03  0.12509000000E+03 0.  0.
        -13    1    3    3    0    0 -0.27080253054E+02 -0.27975950978E+02 -0.35522635586E+02  0.52705433701E+02  0.10566000000E+00 0.  1.
         23    2    1    0    0    0  0.22941546675E+00  0.46379629454E+01 -0.28975810791E+02  0.95744456169E+02  0.91136381014E+02 0.  0.
         13    1    3    3    0    0  0.27309668521E+02  0.32613913923E+02  0.65468247951E+01  0.43039022468E+02  0.10566000000E+00 0. -1.
         22    1    1    0    0    0 -0.22941546675E+00 -0.46379629454E+01  0.28975810791E+02  0.29345543831E+02  0.00000000000E+00 0. -1.
</event>
<event>
 5    1  0.1261010E-009  0.9118800E+02  0.7561462E-02  0.1125453E+00
         25   -1    0    0    0    0  0.00000000000E+00  0.00000000000E+00  0.99999998245E-14  0.12509000000E+03  0.12509000000E+03 0.  0.
        -13    1    3    3    0    0 -0.76212660416E+01 -0.23239786193E+02 -0.49166144299E+02  0.54913498046E+02  0.10566000000E+00 0. -1.
         23    2    1    0    0    0  0.10928272726E+00 -0.29462595554E+02 -0.12178617429E+02  0.93209360076E+02  0.87587725189E+02 0.  0.
         13    1    3    3    0    0  0.77305487689E+01 -0.62228093606E+01  0.36987526870E+02  0.38295862030E+02  0.10566000000E+00 0.  1.
         22    1    1    0    0    0 -0.10928272726E+00  0.29462595554E+02  0.12178617429E+02  0.31880639924E+02  0.00000000000E+00 0. -1.
</event>
<event>
 5    1  0.1261010E-009  0.9118800E+02  0.7561462E-02  0.1125453E+00
         25   -1    0    0    0    0  0.00000000000E+00  0.00000000000E+00  0.99999998245E-14  0.12509000000E+03  0.12509000000E+03 0.  0.
        -13    1    3    3    0    0 -0.11177021511E+02 -0.25646613059E+02  0.21876887982E+02  0.35514559874E+02  0.10566000000E+00 0.  1.
         23    2    1    0    0    0 -0.20698917539E+02  0.12315727082E+02 -0.20688611112E+02  0.93338764582E+02  0.87772342016E+02 0.  0.
         13    1    3    3    0    0 -0.95218960276E+01  0.37962340141E+02 -0.42565499094E+02  0.57824204708E+02  0.10566000000E+00 0. -1.
         22    1    1    0    0    0  0.20698917539E+02 -0.12315727082E+02  0.20688611112E+02  0.31751235418E+02  0.00000000000E+00 0. -1.
</event>
<event>
 5    1  0.1261010E-009  0.9118800E+02  0.7561462E-02  0.1125453E+00
         25   -1    0    0    0    0  0.00000000000E+00  0.00000000000E+00  0.99999998245E-14  0.12509000000E+03  0.12509000000E+03 0.  0.
        -13    1    3    3    0    0  0.18985035869E+02 -0.31943884051E+02 -0.10141863547E+02  0.38518980717E+02  0.10566000000E+00 0. -1.
         23    2    1    0    0    0 -0.12841601732E+01 -0.12985208445E+02  0.32879527695E+02  0.89715884504E+02  0.82447631168E+02 0.  0.
         13    1    3    3    0    0 -0.20269196042E+02  0.18958675606E+02  0.43021391242E+02  0.51196903787E+02  0.10566000000E+00 0.  1.
         22    1    1    0    0    0  0.12841601732E+01  0.12985208445E+02 -0.32879527695E+02  0.35374115496E+02  0.00000000000E+00 0.  1.
</event>
<event>
 5    1  0.1261010E-009  0.9118800E+02  0.7561462E-02  0.1125453E+00
         25   -1    0    0    0    0  0.00000000000E+00  0.00000000000E+00  0.99999998245E-14  0.12509000000E+03  0.12509000000E+03 0.  0.
        -13    1    3    3    0    0  0.33954459063E+02  0.48709627458E+02  0.17354111430E+02  0.61860402884E+02  0.10566000000E+00 0. -1.
         23    2    1    0    0    0  0.12442412181E+02  0.26782328170E+02  0.42590795056E+01  0.95253001470E+02  0.90459315759E+02 0.  0.
         13    1    3    3    0    0 -0.21512046882E+02 -0.21927299289E+02 -0.13095031924E+02  0.33392598586E+02  0.10566000000E+00 0.  1.
         22    1    1    0    0    0 -0.12442412181E+02 -0.26782328170E+02 -0.42590795056E+01  0.29836998530E+02  0.00000000000E+00 0. -1.
</event>
<event>
 5    1  0.1261010E-009  0.9118800E+02  0.7561462E-02  0.1125453E+00
         25   -1    0    0    0    0  0.00000000000E+00  0.00000000000E+00  0.99999998245E-14  0.12509000000E+03  0.12509000000E+03 0.  0.
        -13    1    3    3    0    0  0.29668856656E+02 -0.43339466628E+02  0.16649736501E+02  0.55097870308E+02  0.10566000000E+00 0. -1.
         23    2    1    0    0    0  0.24666683058E+01 -0.14732612945E+02  0.25484768145E+02  0.95550065266E+02  0.90869176447E+02 0.  0.
         13    1    3    3    0    0 -0.27202188350E+02  0.28606853683E+02  0.88350316431E+01  0.40452194957E+02  0.10566000000E+00 0.  1.
         22    1    1    0    0    0 -0.24666683058E+01  0.14732612945E+02 -0.25484768145E+02  0.29539934734E+02  0.00000000000E+00 0. -1.
</event>
<event>
 4    1  0.1261010E-009  0.9118800E+02  0.7561462E-02  0.1125453E+00
         25   -1    0    0    0    0  0.00000000000E+00  0.00000000000E+00  0.99999998245E-14  0.12509000000E+03  0.12509000000E+03 0.  0.
        -13    1    1    0    0    0 -0.61007048480E+01  0.96069931911E+01 -0.23823786755E+01  0.11627545313E+02  0.10566000000E+00 0.  1.
         13    1    1    0    0    0  0.17390157500E+02 -0.14748887450E+02  0.54927622803E+02  0.59472701046E+02  0.10566000000E+00 0. -1.
         22    1    1    0    0    0 -0.11289452652E+02  0.51418942593E+01 -0.52545244128E+02  0.53989753641E+02  0.00000000000E+00 0. -1.
</event>
<event>
 5    1  0.1261010E-009  0.9118800E+02  0.7561462E-02  0.1125453E+00
         25   -1    0    0    0    0  0.00000000000E+00  0.00000000000E+00  0.99999998245E-14  0.12509000000E+03  0.12509000000E+03 0.  0.
        -13    1    3    3    0    0  0.24329748784E+01  0.16978332284E+02 -0.39143841652E+02  0.42736806586E+02  0.10566000000E+00 0. -1.
         23    2    1    0    0    0  0.22210460168E+02  0.17858845384E+02  0.93334306963E+01  0.95100738124E+02  0.90248515577E+02 0.  0.
         13    1    3    3    0    0  0.19777485289E+02  0.88051310075E+00  0.48477272348E+02  0.52363931537E+02  0.10566000000E+00 0.  1.
         22    1    1    0    0    0 -0.22210460168E+02 -0.17858845384E+02 -0.93334306963E+01  0.29989261876E+02  0.00000000000E+00 0.  1.
</event>
<event>
 5    1  0.1261010E-009  0.9118800E+02  0.7561462E-02  0.1125453E+00
         25   -1    0    0    0    0  0.00000000000E+00  0.00000000000E+00  0.99999998245E-14  0.12509000000E+03  0.12509000000E+03 0.  0.
        -13    1    3    3    0    0  0.17523438697E+02 -0.39661569849E+02 -0.20817720467E+02  0.48098853169E+02  0.10566000000E+00 0. -1.
         23    2    1    0    0    0 -0.91682932762E+01 -0.22818456564E+02  0.15349610377E+02  0.96101207333E+02  0.91624734383E+02 0.  0.
         13    1    3    3    0    0 -0.26691731974E+02  0.16843113286E+02  0.36167330844E+02  0.48002354164E+02  0.10566000000E+00 0.  1.
         22    1    1    0    0    0  0.91682932762E+01  0.22818456564E+02 -0.15349610377E+02  0.28988792667E+02  0.00000000000E+00 0. -1.
</event>
<event>
 5    1  0.1261010E-009  0.9118800E+02  0.7561462E-02  0.1125453E+00
         25   -1    0    0    0    0  0.00000000000E+00  0.00000000000E+00  0.99999998245E-14  0.12509000000E+03  0.12509000000E+03 0.  0.
        -13    1    3    3    0    0  0.12836231808E+02  0.42539404966E+02 -0.35452308687E+02  0.56844060175E+02  0.10566000000E+00 0.  1.
         23    2    1    0    0    0  0.18671360485E+02  0.30278802138E+02 -0.63547522130E+01  0.88954028491E+02  0.81283520764E+02 0.  0.
         13    1    3    3    0    0  0.58351286768E+01 -0.12260602829E+02  0.29097556474E+02  0.32109968315E+02  0.10566000000E+00 0. -1.
         22    1    1    0    0    0 -0.18671360485E+02 -0.30278802138E+02  0.63547522130E+01  0.36135971509E+02  0.00000000000E+00 0.  1.
</event>
<event>
 5    1  0.1261010E-009  0.9118800E+02  0.7561462E-02  0.1125453E+00
         25   -1    0    0    0    0  0.00000000000E+00  0.00000000000E+00  0.99999998245E-14  0.12509000000E+03  0.12509000000E+03 0.  0.
        -13    1    3    3    0    0 -0.26293041177E+02  0.26409535534E+02 -0.58572648582E+01  0.37724081130E+02  0.10566000000E+00 0.  1.
         23    2    1    0    0    0  0.24690393620E+02  0.14987509268E+01 -0.16362290827E+02  0.95432178898E+02  0.90706749565E+02 0.  0.
         13    1    3    3    0    0  0.50983434796E+02 -0.24910784607E+02 -0.10505025968E+02  0.57708097768E+02  0.10566000000E+00 0. -1.
         22    1    1    0    0    0 -0.24690393620E+02 -0.14987509268E+01  0.16362290827E+02  0.29657821102E+02  0.00000000000E+00 0. -1.
</event>
<event>
 5    1  0.1261010E-009  0.9118800E+02  0.7561462E-02  0.1125453E+00
         25   -1    0    0    0    0  0.00000000000E+00  0.00000000000E+00  0.99999998245E-14  0.12509000000E+03  0.12509000000E+03 0.  0.
        -13    1    3    3    0    0 -0.29922497902E+02  0.15200332467E+02  0.11342936253E+02  0.35427099157E+02  0.10566000000E+00 0.  1.
         23    2    1    0    0    0  0.28630252185E+02  0.79044802268E+01  0.72953690617E+00  0.95379658838E+02  0.90634292341E+02 0.  0.
         13    1    3    3    0    0  0.58552750087E+02 -0.72958522406E+01 -0.10613399347E+02  0.59952559682E+02  0.10566000000E+00 0. -1.
         22    1    1    0    0    0 -0.28630252185E+02 -0.79044802268E+01 -0.72953690617E+00  0.29710341162E+02  0.00000000000E+00 0. -1.
</event>
<event>
 5    1  0.1261010E-009  0.9118800E+02  0.7561462E-02  0.1125453E+00
         25   -1    0    0    0    0  0.00000000000E+00  0.00000000000E+00  0.99999998245E-14  0.12509000000E+03  0.12509000000E+03 0.  0.
        -13    1    3    3    0    0  0.19902898711E+01  0.51259570090E+02 -0.89256944592E+01  0.52069030769E+02  0.10566000000E+00 0. -1.
         23    2    1    0    0    0  0.18744896840E+02  0.13222640151E+02 -0.19528875086E+02  0.94963826459E+02  0.90058547643E+02 0.  0.
         13    1    3    3    0    0  0.16754606969E+02 -0.38036929939E+02 -0.10603180627E+02  0.42894795690E+02  0.10566000000E+00 0.  1.
         22    1    1    0    0    0 -0.18744896840E+02 -0.13222640151E+02  0.19528875086E+02  0.30126173541E+02  0.00000000000E+00 0. -1.
</event>
<event>
 5    1  0.1261010E-009  0.9118800E+02  0.7561462E-02  0.1125453E+00
         25   -1    0    0    0    0  0.00000000000E+00  0.00000000000E+00  0.99999998245E-14  0.12509000000E+03  0.12509000000E+03 0.  0.
        -13    1    3    3    0    0  0.19024023106E+02  0.19347319180E+02  0.36577733580E+02  0.45543100163E+02  0.10566000000E+00 0.  1.
         23    2    1    0    0    0  0.28633940494E+02  0.67478604303E+01 -0.94251373649E+01  0.94198749087E+02  0.88989521555E+02 0.  0.
         13    1    3    3    0    0  0.96099173886E+01 -0.12599458750E+02 -0.46002870945E+02  0.48655648924E+02  0.10566000000E+00 0. -1.
         22    1    1    0    0    0 -0.28633940494E+02 -0.67478604303E+01  0.94251373649E+01  0.30891250913E+02  0.00000000000E+00 0.  1.
</event>
<event>
 5    1  0.1261010E-009  0.9118800E+02  0.7561462E-02  0.1125453E+00
         25   -1    0    0    0    0  0.00000000000E+00  0.00000000000E+00  0.99999998245E-14  0.12509000000E+03  0.12509000000E+03 0.  0.
        -13    1    3    3    0    0  0.24939732645E+02  0.13284229990E+02  0.13271970692E+02  0.31218862902E+02  0.10566000000E+00 0.  1.
         23    2    1    0    0    0 -0.16753673455E+02 -0.26505066480E+02 -0.81298357245E+01  0.92697124977E+02  0.86853086455E+02 0.  0.
         13    1    3    3    0    0 -0.41693406100E+02 -0.39789296470E+02 -0.21401806416E+02  0.61478262075E+02  0.10566000000E+00 0. -1.
         22    1    1    0    0    0  0.16753673455E+02  0.26505066480E+02  0.81298357245E+01  0.32392875023E+02  0.00000000000E+00 0. -1.
</event>
<event>
 5    1  0.1261010E-009  0.9118800E+02  0.7561462E-02  0.1125453E+00
         25   -1    0    0    0    0  0.00000000000E+00  0.00000000000E+00  0.99999998245E-14  0.12509000000E+03  0.12509000000E+03 0.  0.
        -13    1    3    3    0    0  0.32027420781E+02  0.22968278817E+02 -0.30337451375E+02  0.49735999373E+02  0.10566000000E+00 0.  1.
         23    2    1    0    0    0 -0.15734381788E+01  0.64914517331E+01 -0.36778664951E+02  0.87709726474E+02  0.79345518268E+02 0.  0.
         13    1    3    3    0    0 -0.33600858960E+02 -0.16476827084E+02 -0.64412135759E+01  0.37973727101E+02  0.10566000000E+00 0. -1.
         22    1    1    0    0    0  0.15734381788E+01 -0.64914517331E+01  0.36778664951E+02  0.37380273526E+02  0.00000000000E+00 0.  1.
</event>
<event>
 5    1  0.1261010E-009  0.9118800E+02  0.7561462E-02  0.1125453E+00
         25   -1    0    0    0    0  0.00000000000E+00  0.00000000000E+00  0.99999998245E-14  0.12509000000E+03  0.12509000000E+03 0.  0.
        -13    1    3    3    0    0 -0.19210999475E+02 -0.47807098221E+01  0.27449490594E+02  0.33843808668E+02  0.10566000000E+00 0. -1.
         23    2    1    0    0    0  0.11097470559E+01 -0.45299233478E+01 -0.29972932613E+02  0.94756381134E+02  0.89769946709E+02 0.  0.
         13    1    3    3    0    0  0.20320746531E+02  0.25078647430E+00 -0.57422423207E+02  0.60912572466E+02  0.10566000000E+00 0.  1.
         22    1    1    0    0    0 -0.11097470559E+01  0.45299233478E+01  0.29972932613E+02  0.30333618866E+02  0.00000000000E+00 0.  1.
</event>
<event>
 5    1  0.1261010E-009  0.9118800E+02  0.7561462E-02  0.1125453E+00
         25   -1    0    0    0    0  0.00000000000E+00  0.00000000000E+00  0.99999998245E-14  0.12509000000E+03  0.12509000000E+03 0.  0.
        -13    1    3    3    0    0  0.13073615869E+02 -0.33411612500E+02 -0.49981262801E+02  0.61525548164E+02  0.10566000000E+00 0.  1.
         23    2    1    0    0    0 -0.16485432015E+01 -0.17068953102E+02 -0.24456589844E+02  0.95220422811E+02  0.90414253737E+02 0.  0.
         13    1    3    3    0    0 -0.14722159070E+02  0.16342659398E+02  0.25524672956E+02  0.33694874647E+02  0.10566000000E+00 0. -1.
         22    1    1    0    0    0  0.16485432015E+01  0.17068953102E+02  0.24456589844E+02  0.29869577189E+02  0.00000000000E+00 0.  1.
</event>
<event>
 5    1  0.1261010E-009  0.9118800E+02  0.7561462E-02  0.1125453E+00
         25   -1    0    0    0    0  0.00000000000E+00  0.00000000000E+00  0.99999998245E-14  0.12509000000E+03  0.12509000000E+03 0.  0.
        -13    1    3    3    0    0  0.69435669905E+01 -0.38647646644E+02 -0.98066807309E+01  0.40472655765E+02  0.10566000000E+00 0.  1.
         23    2    1    0    0    0  0.34045227223E+01  0.11141922290E+01  0.28836441909E+02  0.96031910227E+02  0.91530078119E+02 0.  0.
         13    1    3    3    0    0 -0.35390442681E+01  0.39761838873E+02  0.38643122640E+02  0.55559254462E+02  0.10566000000E+00 0. -1.
         22    1    1    0    0    0 -0.34045227223E+01 -0.11141922290E+01 -0.28836441909E+02  0.29058089773E+02  0.00000000000E+00 0. -1.
</event>
<event>
 5    1  0.1261010E-009  0.9118800E+02  0.7561462E-02  0.1125453E+00
         25   -1    0    0    0    0  0.00000000000E+00  0.00000000000E+00  0.99999998245E-14  0.12509000000E+03  0.12509000000E+03 0.  0.
        -13    1    3    3    0    0 -0.46348928566E+02  0.38236704522E+02  0.11941513847E+02  0.61260751456E+02  0.10566000000E+00 0.  1.
         23    2    1    0    0    0 -0.25510572866E+02  0.10505050371E+02  0.89844606500E+01  0.96075073765E+02  0.91589048769E+02 0.  0.
         13    1    3    3    0    0  0.20838355700E+02 -0.27731654151E+02 -0.29570531974E+01  0.34814322309E+02  0.10566000000E+00 0. -1.
         22    1    1    0    0    0  0.25510572866E+02 -0.10505050371E+02 -0.89844606500E+01  0.29014926235E+02  0.00000000000E+00 0.  1.
</event>
<event>
 5    1  0.1261010E-009  0.9118800E+02  0.7561462E-02  0.1125453E+00
         25   -1    0    0    0    0  0.00000000000E+00  0.00000000000E+00  0.99999998245E-14  0.12509000000E+03  0.12509000000E+03 0.  0.
        -13    1    3    3    0    0 -0.14418449800E+02  0.28541276598E+02 -0.17081149889E+02  0.36252903471E+02  0.10566000000E+00 0.  1.
         23    2    1    0    0    0  0.11657035470E+02  0.30930293245E+02  0.23489415583E+02  0.84539757577E+02  0.74179838571E+02 0.  0.
         13    1    3    3    0    0  0.26075485271E+02  0.23890166472E+01  0.40570565472E+02  0.48286854106E+02  0.10566000000E+00 0. -1.
         22    1    1    0    0    0 -0.11657035470E+02 -0.30930293245E+02 -0.23489415583E+02  0.40550242423E+02  0.00000000000E+00 0. -1.
</event>
<event>
 5    1  0.1261010E-009  0.9118800E+02  0.7561462E-02  0.1125453E+00
         25   -1    0    0    0    0  0.00000000000E+00  0.00000000000E+00  0.99999998245E-14  0.12509000000E+03  0.12509000000E+03 0.  0.
        -13    1    3    3    0    0 -0.31162885380E+01 -0.58366294642E+01 -0.40096757882E+02  0.40639127137E+02  0.10566000000E+00 0. -1.
         23    2    1    0    0    0 -0.13670595564E+02  0.25640940414E+02  0.39161836086E+01  0.95769708350E+02  0.91171034518E+02 0.  0.
         13    1    3    3    0    0 -0.10554307026E+02  0.31477569878E+02  0.44012941491E+02  0.55130581213E+02  0.10566000000E+00 0.  1.
         22    1    1    0    0    0  0.13670595564E+02 -0.25640940414E+02 -0.39161836086E+01  0.29320291650E+02  0.00000000000E+00 0.  1.
</event>
<event>
 5    1  0.1261010E-009  0.9118800E+02  0.7561462E-02  0.1125453E+00
         25   -1    0    0    0    0  0.00000000000E+00  0.00000000000E+00  0.99999998245E-14  0.12509000000E+03  0.12509000000E+03 0.  0.
        -13    1    3    3    0    0  0.19190119974E+02  0.48108575223E+02 -0.26448289155E+02  0.58156847214E+02  0.10566000000E+00 0. -1.
         23    2    1    0    0    0 -0.60623537024E+01  0.20036924814E+02 -0.19362164221E+02  0.96574672687E+02  0.92268865349E+02 0.  0.
         13    1    3    3    0    0 -0.25252473676E+02 -0.28071650409E+02  0.70861249338E+01  0.38417825473E+02  0.10566000000E+00 0.  1.
         22    1    1    0    0    0  0.60623537024E+01 -0.20036924814E+02  0.19362164221E+02  0.28515327313E+02  0.00000000000E+00 0. -1.
</event>
<event>
 5    1  0.1261010E-009  0.9118800E+02  0.7561462E-02  0.1125453E+00
         25   -1    0    0    0    0  0.00000000000E+00  0.00000000000E+00  0.99999998245E-14  0.12509000000E+03  0.12509000000E+03 0.  0.
        -13    1    3    3    0    0  0.37082270572E+02 -0.24275050476E+02 -0.37259566339E+02  0.57902152932E+02  0.10566000000E+00 0.  1.
         23    2    1    0    0    0  0.58879868214E+01 -0.79455982090E+01 -0.29526485735E+02  0.93951369979E+02  0.88641105823E+02 0.  0.
         13    1    3    3    0    0 -0.31194283751E+02  0.16329452266E+02  0.77330806043E+01  0.36049217047E+02  0.10566000000E+00 0. -1.
         22    1    1    0    0    0 -0.58879868214E+01  0.79455982090E+01  0.29526485735E+02  0.31138630021E+02  0.00000000000E+00 0.  1.
</event>
<event>
 5    1  0.1261010E-009  0.9118800E+02  0.7561462E-02  0.1125453E+00
         25   -1    0    0    0    0  0.00000000000E+00  0.00000000000E+00  0.99999998245E-14  0.12509000000E+03  0.12509000000E+03 0.  0.
        -13    1    3    3    0    0 -0.30917545283E+02 -0.21540972131E+02 -0.29958312402E+02  0.48139585921E+02  0.10566000000E+00 0. -1.
         23    2    1    0    0    0  0.26778123205E+01 -0.24639889935E+02  0.81149548993E+01  0.99010365266E+02  0.95513899942E+02 0.  0.
         13    1    3    3    0    0  0.33595357604E+02 -0.30989178047E+01  0.38073267301E+02  0.50870779344E+02  0.10566000000E+00 0.  1.
         22    1    1    0    0    0 -0.26778123205E+01  0.24639889935E+02 -0.81149548993E+01  0.26079634734E+02  0.00000000000E+00 0.  1.
</event>
<event>
 5    1  0.1261010E-009  0.9118800E+02  0.7561462E-02  0.1125453E+00
         25   -1    0    0    0    0  0.00000000000E+00  0.00000000000E+00  0.99999998245E-14  0.12509000000E+03  0.12509000000E+03 0.  0.
        -13    1    3    3    0    0 -0.34190025146E+02  0.12754046738E+02  0.14687875474E+02  0.39336603535E+02  0.10566000000E+00 0.  1.
         23    2    1    0    0    0  0.32334446339E+01 -0.26173732694E+02 -0.74312535384E+01  0.97690310650E+02  0.93769151742E+02 0.  0.
         13    1    3    3    0    0  0.37423469780E+02 -0.38927779432E+02 -0.22119129012E+02  0.58353707116E+02  0.10566000000E+00 0. -1.
         22    1    1    0    0    0 -0.32334446339E+01  0.26173732694E+02  0.74312535384E+01  0.27399689350E+02  0.00000000000E+00 0. -1.
</event>
<event>
 5    1  0.1261010E-009  0.9118800E+02  0.7561462E-02  0.1125453E+00
         25   -1    0    0    0    0  0.00000000000E+00  0.00000000000E+00  0.99999998245E-14  0.12509000000E+03  0.12509000000E+03 0.  0.
        -13    1    3    3    0    0  0.25997748296E+02 -0.24620646633E+02  0.97012826456E+01  0.37096970308E+02  0.10566000000E+00 0. -1.
         23    2    1    0    0    0 -0.23897293605E+02 -0.97935635718E+01 -0.15543216124E+02  0.94947238074E+02  0.90035503671E+02 0.  0.
         13    1    3    3    0    0 -0.49895041900E+02  0.14827083061E+02 -0.25244498770E+02  0.57850267765E+02  0.10566000000E+00 0.  1.
         22    1    1    0    0    0  0.23897293605E+02  0.97935635718E+01  0.15543216124E+02  0.30142761926E+02  0.00000000000E+00 0.  1.
</event>
<event>
 5    1  0.1261010E-009  0.9118800E+02  0.7561462E-02  0.1125453E+00
         25   -1    0    0    0    0  0.00000000000E+00  0.00000000000E+00  0.99999998245E-14  0.12509000000E+03  0.12509000000E+03 0.  0.
        -13    1    3    3    0    0  0.77830002466E+01 -0.23061567848E+02 -0.46362726984E+02  0.52363390091E+02  0.10566000000E+00 0. -1.
         23    2    1    0    0    0  0.26672889817E+02 -0.10018298346E+02 -0.10949091346E+02  0.94566370559E+02  0.89504784713E+02 0.  0.
         13    1    3    3    0    0  0.18889889570E+02  0.13043269501E+02  0.35413635638E+02  0.42202980468E+02  0.10566000000E+00 0.  1.
         22    1    1    0    0    0 -0.26672889817E+02  0.10018298346E+02  0.10949091346E+02  0.30523629441E+02  0.00000000000E+00 0.  1.
</event>
<event>
 5    1  0.1261010E-009  0.9118800E+02  0.7561462E-02  0.1125453E+00
         25   -1    0    0    0    0  0.00000000000E+00  0.00000000000E+00  0.99999998245E-14  0.12509000000E+03  0.12509000000E+03 0.  0.
        -13    1    3    3    0    0 -0.33014365282E+02  0.23717238471E+02 -0.34176938867E+02  0.53108662476E+02  0.10566000000E+00 0.  1.
         23    2    1    0    0    0 -0.12169599255E+02 -0.12288650826E+02 -0.23229349010E+02  0.96129462357E+02  0.91663301231E+02 0.  0.
         13    1    3    3    0    0  0.20844766027E+02 -0.36005889296E+02  0.10947589857E+02  0.43020799882E+02  0.10566000000E+00 0. -1.
         22    1    1    0    0    0  0.12169599255E+02  0.12288650826E+02  0.23229349010E+02  0.28960537643E+02  0.00000000000E+00 0.  1.
</event>
<event>
 5    1  0.1261010E-009  0.9118800E+02  0.7561462E-02  0.1125453E+00
         25   -1    0    0    0    0  0.00000000000E+00  0.00000000000E+00  0.99999998245E-14  0.12509000000E+03  0.12509000000E+03 0.  0.
        -13    1    3    3    0    0 -0.91762124449E+01 -0.32418685021E+02 -0.85050849958E+01  0.34749412199E+02  0.10566000000E+00 0.  1.
         23    2    1    0    0    0  0.13908688555E+02  0.24691716341E+02 -0.27287772880E+01  0.96619336174E+02  0.92329396316E+02 0.  0.
         13    1    3    3    0    0  0.23084901000E+02  0.57110401362E+02  0.57763077079E+01  0.61869923975E+02  0.10566000000E+00 0. -1.
         22    1    1    0    0    0 -0.13908688555E+02 -0.24691716341E+02  0.27287772880E+01  0.28470663826E+02  0.00000000000E+00 0. -1.
</event>
<event>
 5    1  0.1261010E-009  0.9118800E+02  0.7561462E-02  0.1125453E+00
         25   -1    0    0    0    0  0.00000000000E+00  0.00000000000E+00  0.99999998245E-14  0.12509000000E+03  0.12509000000E+03 0.  0.
        -13    1    3    3    0    0  0.21653174508E+02 -0.40910995432E+02 -0.35890052149E+02  0.58571977266E+02  0.10566000000E+00 0.  1.
         23    2    1    0    0    0  0.20256000908E+02 -0.72598983312E+01 -0.19595395266E+02  0.95986886555E+02  0.91468525615E+02 0.  0.
         13    1    3    3    0    0 -0.13971736003E+01  0.33651097101E+02  0.16294656882E+02  0.37414909289E+02  0.10566000000E+00 0. -1.
         22    1    1    0    0    0 -0.20256000908E+02  0.72598983312E+01  0.19595395266E+02  0.29103113445E+02  0.00000000000E+00 0.  1.
</event>
<event>
 5    1  0.1261010E-009  0.9118800E+02  0.7561462E-02  0.1125453E+00
         25   -1    0    0    0    0  0.00000000000E+00  0.00000000000E+00  0.99999998245E-14  0.12509000000E+03  0.12509000000E+03 0.  0.
        -13    1    3    3    0    0 -0.44984962504E+01 -0.32103913481E+02  0.22949914650E+02  0.39719107188E+02  0.10566000000E+00 0.  1.
         23    2    1    0    0    0  0.15323651524E+02 -0.18233720531E+02 -0.23209233810E+02  0.91834152477E+02  0.85601169190E+02 0.  0.
         13    1    3    3    0    0  0.19822147774E+02  0.13870192950E+02 -0.46159148460E+02  0.52115045289E+02  0.10566000000E+00 0. -1.
         22    1    1    0    0    0 -0.15323651524E+02  0.18233720531E+02  0.23209233810E+02  0.33255847523E+02  0.00000000000E+00 0.  1.
</event>
<event>
 5    1  0.1261010E-009  0.9118800E+02  0.7561462E-02  0.1125453E+00
         25   -1    0    0    0    0  0.00000000000E+00  0.00000000000E+00  0.99999998245E-14  0.12509000000E+03  0.12509000000E+03 0.  0.
        -13    1    3    3    0    0 -0.86337110530E+01 -0.63700357839E+01  0.30932620025E+02  0.32740746297E+02  0.10566000000E+00 0.  1.
         23    2    1    0    0    0  0.41801417106E+01  0.63113257979E+01 -0.28891956988E+02  0.95222767175E+02  0.90417497155E+02 0.  0.
         13    1    3    3    0    0  0.12813852764E+02  0.12681361582E+02 -0.59824577013E+02  0.62482020878E+02  0.10566000000E+00 0. -1.
         22    1    1    0    0    0 -0.41801417106E+01 -0.63113257979E+01  0.28891956988E+02  0.29867232825E+02  0.00000000000E+00 0. -1.
</event>
<event>
 5    1  0.1261010E-009  0.9118800E+02  0.7561462E-02  0.1125453E+00
         25   -1    0    0    0    0  0.00000000000E+00  0.00000000000E+00  0.99999998245E-14  0.12509000000E+03  0.12509000000E+03 0.  0.
        -13    1    3    3    0    0 -0.13575644526E+02 -0.24727027387E+02 -0.22855046961E+02  0.36305486408E+02  0.10566000000E+00 0.  1.
         23    2    1    0    0    0  0.79023858475E+01 -0.14426482075E+02  0.28086496082E+02  0.92541231216E+02  0.86628269784E+02 0.  0.
         13    1    3    3    0    0  0.21478030373E+02  0.10300545312E+02  0.50941543044E+02  0.56235744808E+02  0.10566000000E+00 0. -1.
         22    1    1    0    0    0 -0.79023858475E+01  0.14426482075E+02 -0.28086496082E+02  0.32548768784E+02  0.00000000000E+00 0. -1.
</event>
<event>
 5    1  0.1261010E-009  0.9118800E+02  0.7561462E-02  0.1125453E+00
         25   -1    0    0    0    0  0.00000000000E+00  0.00000000000E+00  0.99999998245E-14  0.12509000000E+03  0.12509000000E+03 0.  0.
        -13    1    3    3    0    0  0.54649772364E+02 -0.95884619847E+01  0.39154626015E+01  0.55622641380E+02  0.10566000000E+00 0.  1.
         23    2    1    0    0    0  0.19911252750E+02 -0.26130567957E+01  0.21915733763E+02  0.95364834933E+02  0.90613830642E+02 0.  0.
         13    1    3    3    0    0 -0.34738519614E+02  0.69754051891E+01  0.18000271161E+02  0.39742193554E+02  0.10566000000E+00 0. -1.
         22    1    1    0    0    0 -0.19911252750E+02  0.26130567957E+01 -0.21915733763E+02  0.29725165067E+02  0.00000000000E+00 0.  1.
</event>
<event>
 5    1  0.1261010E-009  0.9118800E+02  0.7561462E-02  0.1125453E+00
         25   -1    0    0    0    0  0.00000000000E+00  0.00000000000E+00  0.99999998245E-14  0.12509000000E+03  0.12509000000E+03 0.  0.
        -13    1    3    3    0    0  0.48090791489E+02  0.45781287086E+01 -0.63602971664E+01  0.48725229939E+02  0.10566000000E+00 0. -1.
         23    2    1    0    0    0  0.15967347864E+02 -0.26272337063E+02 -0.80972584189E+01  0.93297587596E+02  0.87713638419E+02 0.  0.
         13    1    3    3    0    0 -0.32123443625E+02 -0.30850465772E+02 -0.17369612525E+01  0.44572357657E+02  0.10566000000E+00 0.  1.
         22    1    1    0    0    0 -0.15967347864E+02  0.26272337063E+02  0.80972584189E+01  0.31792412404E+02  0.00000000000E+00 0.  1.
</event>
<event>
 5    1  0.1261010E-009  0.9118800E+02  0.7561462E-02  0.1125453E+00
         25   -1    0    0    0    0  0.00000000000E+00  0.00000000000E+00  0.99999998245E-14  0.12509000000E+03  0.12509000000E+03 0.  0.
        -13    1    3    3    0    0  0.34372217515E+02  0.35555005301E+02  0.37368970859E+02  0.61984343878E+02  0.10566000000E+00 0.  1.
         23    2    1    0    0    0  0.12333352380E+02  0.14048605791E+02  0.21407772405E+02  0.96668746949E+02  0.92396314925E+02 0.  0.
         13    1    3    3    0    0 -0.22038865135E+02 -0.21506399510E+02 -0.15961198454E+02  0.34684403072E+02  0.10566000000E+00 0. -1.
         22    1    1    0    0    0 -0.12333352380E+02 -0.14048605791E+02 -0.21407772405E+02  0.28421253051E+02  0.00000000000E+00 0.  1.
</event>
<event>
 5    1  0.1261010E-009  0.9118800E+02  0.7561462E-02  0.1125453E+00
         25   -1    0    0    0    0  0.00000000000E+00  0.00000000000E+00  0.99999998245E-14  0.12509000000E+03  0.12509000000E+03 0.  0.
        -13    1    3    3    0    0  0.10717659713E+02  0.27540190196E+02  0.54359167033E+02  0.61872938432E+02  0.10566000000E+00 0.  1.
         23    2    1    0    0    0  0.19239972162E+01  0.68652686865E+01  0.26417920430E+02  0.97726882501E+02  0.93817926667E+02 0.  0.
         13    1    3    3    0    0 -0.87936624969E+01 -0.20674921509E+02 -0.27941246603E+02  0.35853944069E+02  0.10566000000E+00 0. -1.
         22    1    1    0    0    0 -0.19239972162E+01 -0.68652686865E+01 -0.26417920430E+02  0.27363117499E+02  0.00000000000E+00 0.  1.
</event>
<event>
 5    1  0.1261010E-009  0.9118800E+02  0.7561462E-02  0.1125453E+00
         25   -1    0    0    0    0  0.00000000000E+00  0.00000000000E+00  0.99999998245E-14  0.12509000000E+03  0.12509000000E+03 0.  0.
        -13    1    3    3    0    0 -0.14037778160E+02  0.19565444301E+02  0.29000460237E+02  0.37694876102E+02  0.10566000000E+00 0.  1.
         23    2    1    0    0    0  0.26342600312E+02  0.96273157011E+01 -0.10588375276E+02  0.95111149292E+02  0.90262944943E+02 0.  0.
         13    1    3    3    0    0  0.40380378472E+02 -0.99381286002E+01 -0.39588835513E+02  0.57416273189E+02  0.10566000000E+00 0. -1.
         22    1    1    0    0    0 -0.26342600312E+02 -0.96273157011E+01  0.10588375276E+02  0.29978850708E+02  0.00000000000E+00 0. -1.
</event>
<event>
 5    1  0.1261010E-009  0.9118800E+02  0.7561462E-02  0.1125453E+00
         25   -1    0    0    0    0  0.00000000000E+00  0.00000000000E+00  0.99999998245E-14  0.12509000000E+03  0.12509000000E+03 0.  0.
        -13    1    3    3    0    0  0.47209271988E+02 -0.18752957432E+02  0.26856956104E+02  0.57460386609E+02  0.10566000000E+00 0.  1.
         23    2    1    0    0    0  0.18129180158E+02  0.26073831339E+01  0.25661716557E+02  0.93562403887E+02  0.88090488161E+02 0.  0.
         13    1    3    3    0    0 -0.29080091830E+02  0.21360340566E+02 -0.11952395467E+01  0.36102017278E+02  0.10566000000E+00 0. -1.
         22    1    1    0    0    0 -0.18129180158E+02 -0.26073831339E+01 -0.25661716557E+02  0.31527596113E+02  0.00000000000E+00 0.  1.
</event>
<event>
 5    1  0.1261010E-009  0.9118800E+02  0.7561462E-02  0.1125453E+00
         25   -1    0    0    0    0  0.00000000000E+00  0.00000000000E+00  0.99999998245E-14  0.12509000000E+03  0.12509000000E+03 0.  0.
        -13    1    3    3    0    0  0.95127184357E+01  0.19530517847E+02  0.96293469296E+01  0.23762752907E+02  0.10566000000E+00 0.  1.
         23    2    1    0    0    0  0.45732068622E+01 -0.37543861595E+02 -0.12618871491E+02  0.85219062186E+02  0.75316644095E+02 0.  0.
         13    1    3    3    0    0 -0.49395115735E+01 -0.57074379442E+02 -0.22248218421E+02  0.61456309279E+02  0.10566000000E+00 0. -1.
         22    1    1    0    0    0 -0.45732068622E+01  0.37543861595E+02  0.12618871491E+02  0.39870937814E+02  0.00000000000E+00 0. -1.
</event>
<event>
 5    1  0.1261010E-009  0.9118800E+02  0.7561462E-02  0.1125453E+00
         25   -1    0    0    0    0  0.00000000000E+00  0.00000000000E+00  0.99999998245E-14  0.12509000000E+03  0.12509000000E+03 0.  0.
        -13    1    3    3    0    0 -0.60149558406E+02 -0.13041801295E+02  0.28485491527E+01  0.61613175163E+02  0.10566000000E+00 0. -1.
         23    2    1    0    0    0 -0.28126910867E+02  0.34665171876E+00 -0.29630919959E+01  0.96805318695E+02  0.92581026842E+02 0.  0.
         13    1    3    3    0    0  0.32022647538E+02  0.13388453014E+02 -0.58116411486E+01  0.35192143531E+02  0.10566000000E+00 0.  1.
         22    1    1    0    0    0  0.28126910867E+02 -0.34665171876E+00  0.29630919959E+01  0.28284681305E+02  0.00000000000E+00 0. -1.
</event>
<event>
 5    1  0.1261010E-009  0.9118800E+02  0.7561462E-02  0.1125453E+00
         25   -1    0    0    0    0  0.00000000000E+00  0.00000000000E+00  0.99999998245E-14  0.12509000000E+03  0.12509000000E+03 0.  0.
        -13    1    3    3    0    0 -0.49082539894E+02 -0.11187151818E+02  0.24325935872E+02  0.55910736073E+02  0.10566000000E+00 0.  1.
         23    2    1    0    0    0 -0.16602539134E+02 -0.15848563368E+02 -0.68135758967E+01  0.10114744201E+03  0.98272879995E+02 0.  0.
         13    1    3    3    0    0  0.32480000759E+02 -0.46614115490E+01 -0.31139511768E+02  0.45236705938E+02  0.10566000000E+00 0. -1.
         22    1    1    0    0    0  0.16602539134E+02  0.15848563368E+02  0.68135758967E+01  0.23942557988E+02  0.00000000000E+00 0.  1.
</event>
<event>
 5    1  0.1261010E-009  0.9118800E+02  0.7561462E-02  0.1125453E+00
         25   -1    0    0    0    0  0.00000000000E+00  0.00000000000E+00  0.99999998245E-14  0.12509000000E+03  0.12509000000E+03 0.  0.
        -13    1    3    3    0    0  0.31502439510E+02  0.37874893179E+02 -0.19151218433E+02  0.52855383453E+02  0.10566000000E+00 0.  1.
         23    2    1    0    0    0  0.26807033853E+02  0.91349829896E+01  0.10939285873E+02  0.94729944769E+02  0.89733101374E+02 0.  0.
         13    1    3    3    0    0 -0.46954056568E+01 -0.28739910189E+02  0.30090504307E+02  0.41874561316E+02  0.10566000000E+00 0. -1.
         22    1    1    0    0    0 -0.26807033853E+02 -0.91349829896E+01 -0.10939285873E+02  0.30360055231E+02  0.00000000000E+00 0.  1.
</event>
<event>
 5    1  0.1261010E-009  0.9118800E+02  0.7561462E-02  0.1125453E+00
         25   -1    0    0    0    0  0.00000000000E+00  0.00000000000E+00  0.99999998245E-14  0.12509000000E+03  0.12509000000E+03 0.  0.
        -13    1    3    3    0    0 -0.34170887424E+02 -0.47883389473E+02 -0.15362890258E+02  0.60798833014E+02  0.10566000000E+00 0. -1.
         23    2    1    0    0    0 -0.20976764813E+02 -0.17831462003E+02  0.11393480168E+01  0.97534894972E+02  0.93561594280E+02 0.  0.
         13    1    3    3    0    0  0.13194122611E+02  0.30051927470E+02  0.16502238275E+02  0.36736061959E+02  0.10566000000E+00 0.  1.
         22    1    1    0    0    0  0.20976764813E+02  0.17831462003E+02 -0.11393480168E+01  0.27555105028E+02  0.00000000000E+00 0. -1.
</event>
<event>
 5    1  0.1261010E-009  0.9118800E+02  0.7561462E-02  0.1125453E+00
         25   -1    0    0    0    0  0.00000000000E+00  0.00000000000E+00  0.99999998245E-14  0.12509000000E+03  0.12509000000E+03 0.  0.
        -13    1    3    3    0    0  0.61739961635E+01 -0.21058898221E+02 -0.39192557171E+02  0.44918405187E+02  0.10566000000E+00 0.  1.
         23    2    1    0    0    0  0.19966464845E+02  0.18779637990E+02 -0.19508931972E+02  0.91445788787E+02  0.85031754885E+02 0.  0.
         13    1    3    3    0    0  0.13792468681E+02  0.39838536210E+02  0.19683625199E+02  0.46527383600E+02  0.10566000000E+00 0. -1.
         22    1    1    0    0    0 -0.19966464845E+02 -0.18779637990E+02  0.19508931972E+02  0.33644211213E+02  0.00000000000E+00 0. -1.
</event>
<event>
 5    1  0.1261010E-009  0.9118800E+02  0.7561462E-02  0.1125453E+00
         25   -1    0    0    0    0  0.00000000000E+00  0.00000000000E+00  0.99999998245E-14  0.12509000000E+03  0.12509000000E+03 0.  0.
        -13    1    3    3    0    0 -0.11060929738E+02  0.15594536628E+02  0.27567200843E+02  0.33548404816E+02  0.10566000000E+00 0. -1.
         23    2    1    0    0    0  0.31911987314E+02 -0.13919912803E+02  0.15038495210E+02  0.87165136850E+02  0.78482264475E+02 0.  0.
         13    1    3    3    0    0  0.42972917052E+02 -0.29514449431E+02 -0.12528705633E+02  0.53616732034E+02  0.10566000000E+00 0.  1.
         22    1    1    0    0    0 -0.31911987314E+02  0.13919912803E+02 -0.15038495210E+02  0.37924863150E+02  0.00000000000E+00 0.  1.
</event>
<event>
 5    1  0.1261010E-009  0.9118800E+02  0.7561462E-02  0.1125453E+00
         25   -1    0    0    0    0  0.00000000000E+00  0.00000000000E+00  0.99999998245E-14  0.12509000000E+03  0.12509000000E+03 0.  0.
        -13    1    3    3    0    0 -0.20429415796E+02  0.14595752117E+02 -0.26920237306E+02  0.36811782764E+02  0.10566000000E+00 0. -1.
         23    2    1    0    0    0 -0.76391676813E+01  0.82716141518E+01  0.28714354786E+02  0.94246999914E+02  0.89057320521E+02 0.  0.
         13    1    3    3    0    0  0.12790248114E+02 -0.63241379653E+01  0.55634592092E+02  0.57435217150E+02  0.10566000000E+00 0.  1.
         22    1    1    0    0    0  0.76391676813E+01 -0.82716141518E+01 -0.28714354786E+02  0.30843000086E+02  0.00000000000E+00 0.  1.
</event>
<event>
 5    1  0.1261010E-009  0.9118800E+02  0.7561462E-02  0.1125453E+00
         25   -1    0    0    0    0  0.00000000000E+00  0.00000000000E+00  0.99999998245E-14  0.12509000000E+03  0.12509000000E+03 0.  0.
        -13    1    3    3    0    0  0.18625726614E+02  0.24691824582E+02  0.28630913840E+02  0.42146699567E+02  0.10566000000E+00 0.  1.
         23    2    1    0    0    0  0.66437574194E+01 -0.24695914797E+02  0.17297278594E+02  0.94215681108E+02  0.89013319226E+02 0.  0.
         13    1    3    3    0    0 -0.11981969194E+02 -0.49387739379E+02 -0.11333635247E+02  0.52068981540E+02  0.10566000000E+00 0. -1.
         22    1    1    0    0    0 -0.66437574194E+01  0.24695914797E+02 -0.17297278594E+02  0.30874318892E+02  0.00000000000E+00 0. -1.
</event>
<event>
 5    1  0.1261010E-009  0.9118800E+02  0.7561462E-02  0.1125453E+00
         25   -1    0    0    0    0  0.00000000000E+00  0.00000000000E+00  0.99999998245E-14  0.12509000000E+03  0.12509000000E+03 0.  0.
        -13    1    3    3    0    0 -0.13911418532E+02 -0.19372269241E+02 -0.22702672144E+02  0.32927721871E+02  0.10566000000E+00 0. -1.
         23    2    1    0    0    0  0.15263282989E+02  0.13105572100E+02  0.21907941527E+02  0.95346400191E+02  0.90588378392E+02 0.  0.
         13    1    3    3    0    0  0.29174701521E+02  0.32477841341E+02  0.44610613671E+02  0.62418678319E+02  0.10566000000E+00 0.  1.
         22    1    1    0    0    0 -0.15263282989E+02 -0.13105572100E+02 -0.21907941527E+02  0.29743599809E+02  0.00000000000E+00 0.  1.
</event>
<event>
 5    1  0.1261010E-009  0.9118800E+02  0.7561462E-02  0.1125453E+00
         25   -1    0    0    0    0  0.00000000000E+00  0.00000000000E+00  0.99999998245E-14  0.12509000000E+03  0.12509000000E+03 0.  0.
        -13    1    3    3    0    0  0.10559146162E+01 -0.42407811876E+02 -0.43018346515E+02  0.60416278970E+02  0.10566000000E+00 0. -1.
         23    2    1    0    0    0 -0.61566220604E+01 -0.13471147599E+02 -0.27064590923E+02  0.94237643613E+02  0.89044177682E+02 0.  0.
         13    1    3    3    0    0 -0.72125366767E+01  0.28936664276E+02  0.15953755592E+02  0.33821364643E+02  0.10566000000E+00 0.  1.
         22    1    1    0    0    0  0.61566220604E+01  0.13471147599E+02  0.27064590923E+02  0.30852356387E+02  0.00000000000E+00 0. -1.
</event>
<event>
 5    1  0.1261010E-009  0.9118800E+02  0.7561462E-02  0.1125453E+00
         25   -1    0    0    0    0  0.00000000000E+00  0.00000000000E+00  0.99999998245E-14  0.12509000000E+03  0.12509000000E+03 0.  0.
        -13    1    3    3    0    0  0.27492540423E+02  0.10210958097E+02 -0.75353163296E+01  0.30280284021E+02  0.10566000000E+00 0. -1.
         23    2    1    0    0    0 -0.17091951063E+02 -0.28431696954E+02  0.73117187299E+01  0.91120051316E+02  0.84551205422E+02 0.  0.
         13    1    3    3    0    0 -0.44584491486E+02 -0.38642655051E+02  0.14847035059E+02  0.60839767295E+02  0.10566000000E+00 0.  1.
         22    1    1    0    0    0  0.17091951063E+02  0.28431696954E+02 -0.73117187299E+01  0.33969948684E+02  0.00000000000E+00 0.  1.
</event>
<event>
 5    1  0.1261010E-009  0.9118800E+02  0.7561462E-02  0.1125453E+00
         25   -1    0    0    0    0  0.00000000000E+00  0.00000000000E+00  0.99999998245E-14  0.12509000000E+03  0.12509000000E+03 0.  0.
        -13    1    3    3    0    0 -0.92330845021E+01  0.40195436640E+02  0.37231465447E+02  0.55561822859E+02  0.10566000000E+00 0.  1.
         23    2    1    0    0    0 -0.21943429819E+02  0.75150408419E+01  0.19133640361E+02  0.95021974714E+02  0.90139278531E+02 0.  0.
         13    1    3    3    0    0 -0.12710345317E+02 -0.32680395798E+02 -0.18097825085E+02  0.39460151855E+02  0.10566000000E+00 0. -1.
         22    1    1    0    0    0  0.21943429819E+02 -0.75150408419E+01 -0.19133640361E+02  0.30068025286E+02  0.00000000000E+00 0. -1.
</event>
<event>
 5    1  0.1261010E-009  0.9118800E+02  0.7561462E-02  0.1125453E+00
         25   -1    0    0    0    0  0.00000000000E+00  0.00000000000E+00  0.99999998245E-14  0.12509000000E+03  0.12509000000E+03 0.  0.
        -13    1    3    3    0    0  0.26023160780E+02 -0.34692056862E+01  0.23465012836E+02  0.35211621328E+02  0.10566000000E+00 0.  1.
         23    2    1    0    0    0 -0.29635851448E+02  0.18394137345E+01  0.12626058338E+01  0.95370287562E+02  0.90621357539E+02 0.  0.
         13    1    3    3    0    0 -0.55659012228E+02  0.53086194207E+01 -0.22202407002E+02  0.60158666234E+02  0.10566000000E+00 0. -1.
         22    1    1    0    0    0  0.29635851448E+02 -0.18394137345E+01 -0.12626058338E+01  0.29719712438E+02  0.00000000000E+00 0. -1.
</event>
<event>
 5    1  0.1261010E-009  0.9118800E+02  0.7561462E-02  0.1125453E+00
         25   -1    0    0    0    0  0.00000000000E+00  0.00000000000E+00  0.99999998245E-14  0.12509000000E+03  0.12509000000E+03 0.  0.
        -13    1    3    3    0    0  0.40517740937E+02  0.32091406771E+02 -0.18150250235E+02  0.54781278434E+02  0.10566000000E+00 0. -1.
         23    2    1    0    0    0  0.67078599073E+01  0.28447968038E+02  0.43256800382E+01  0.95543531889E+02  0.90860182192E+02 0.  0.
         13    1    3    3    0    0 -0.33809881030E+02 -0.36434387330E+01  0.22475930273E+02  0.40762253455E+02  0.10566000000E+00 0.  1.
         22    1    1    0    0    0 -0.67078599073E+01 -0.28447968038E+02 -0.43256800382E+01  0.29546468111E+02  0.00000000000E+00 0. -1.
</event>
<event>
 5    1  0.1261010E-009  0.9118800E+02  0.7561462E-02  0.1125453E+00
         25   -1    0    0    0    0  0.00000000000E+00  0.00000000000E+00  0.99999998245E-14  0.12509000000E+03  0.12509000000E+03 0.  0.
        -13    1    3    3    0    0  0.16167006282E+02 -0.45023541448E+02  0.45140875288E+01  0.48050801522E+02  0.10566000000E+00 0. -1.
         23    2    1    0    0    0  0.48847359086E+01 -0.42428937277E+01  0.27936720961E+02  0.96413822253E+02  0.92050540201E+02 0.  0.
         13    1    3    3    0    0 -0.11282270373E+02  0.40780647721E+02  0.23422633433E+02  0.48363020731E+02  0.10566000000E+00 0.  1.
         22    1    1    0    0    0 -0.48847359086E+01  0.42428937277E+01 -0.27936720961E+02  0.28676177747E+02  0.00000000000E+00 0.  1.
</event>
<event>
 5    1  0.1261010E-009  0.9118800E+02  0.7561462E-02  0.1125453E+00
         25   -1    0    0    0    0  0.00000000000E+00  0.00000000000E+00  0.99999998245E-14  0.12509000000E+03  0.12509000000E+03 0.  0.
        -13    1    3    3    0    0  0.20173186791E+02  0.69316611898E+01 -0.46444482860E+02  0.51108771697E+02  0.10566000000E+00 0. -1.
         23    2    1    0    0    0  0.92361091886E+01  0.25149476747E+02 -0.47853592589E+01  0.97874167166E+02  0.94014100228E+02 0.  0.
         13    1    3    3    0    0 -0.10937077602E+02  0.18217815557E+02  0.41659123601E+02  0.46765395470E+02  0.10566000000E+00 0.  1.
         22    1    1    0    0    0 -0.92361091886E+01 -0.25149476747E+02  0.47853592589E+01  0.27215832834E+02  0.00000000000E+00 0. -1.
</event>
<event>
 5    1  0.1261010E-009  0.9118800E+02  0.7561462E-02  0.1125453E+00
         25   -1    0    0    0    0  0.00000000000E+00  0.00000000000E+00  0.99999998245E-14  0.12509000000E+03  0.12509000000E+03 0.  0.
        -13    1    3    3    0    0 -0.14180579742E+02  0.35698802890E+02 -0.68400322160E+01  0.39016542317E+02  0.10566000000E+00 0.  1.
         23    2    1    0    0    0  0.17663672366E+02 -0.23787053593E+01  0.22273958331E+02  0.96562946518E+02  0.92252966672E+02 0.  0.
         13    1    3    3    0    0  0.31844252109E+02 -0.38077508250E+02  0.29113990547E+02  0.57546404201E+02  0.10566000000E+00 0. -1.
         22    1    1    0    0    0 -0.17663672366E+02  0.23787053593E+01 -0.22273958331E+02  0.28527053482E+02  0.00000000000E+00 0. -1.
</event>
<event>
 5    1  0.1261010E-009  0.9118800E+02  0.7561462E-02  0.1125453E+00
         25   -1    0    0    0    0  0.00000000000E+00  0.00000000000E+00  0.99999998245E-14  0.12509000000E+03  0.12509000000E+03 0.  0.
        -13    1    3    3    0    0 -0.12272517877E+02  0.32115164975E+02 -0.19275734276E+02  0.39415271308E+02  0.10566000000E+00 0.  1.
         23    2    1    0    0    0 -0.14103762973E+02 -0.49081259543E+01  0.24264871145E+02  0.96598074792E+02  0.92300586409E+02 0.  0.
         13    1    3    3    0    0 -0.18312450953E+01 -0.37023290929E+02  0.43540605421E+02  0.57182803484E+02  0.10566000000E+00 0. -1.
         22    1    1    0    0    0  0.14103762973E+02  0.49081259543E+01 -0.24264871145E+02  0.28491925208E+02  0.00000000000E+00 0. -1.
</event>
<event>
 5    1  0.1261010E-009  0.9118800E+02  0.7561462E-02  0.1125453E+00
         25   -1    0    0    0    0  0.00000000000E+00  0.00000000000E+00  0.99999998245E-14  0.12509000000E+03  0.12509000000E+03 0.  0.
        -13    1    3    3    0    0 -0.17517260603E+02  0.26993022956E+02 -0.34279234913E+02  0.47016537703E+02  0.10566000000E+00 0.  1.
         23    2    1    0    0    0 -0.28894264527E+02 -0.13654359818E+00  0.46627130141E+01  0.95821620144E+02  0.91242231602E+02 0.  0.
         13    1    3    3    0    0 -0.11377003924E+02 -0.27129566554E+02  0.38941947927E+02  0.48805082441E+02  0.10566000000E+00 0. -1.
         22    1    1    0    0    0  0.28894264527E+02  0.13654359818E+00 -0.46627130141E+01  0.29268379856E+02  0.00000000000E+00 0.  1.
</event>
<event>
 5    1  0.1261010E-009  0.9118800E+02  0.7561462E-02  0.1125453E+00
         25   -1    0    0    0    0  0.00000000000E+00  0.00000000000E+00  0.99999998245E-14  0.12509000000E+03  0.12509000000E+03 0.  0.
        -13    1    3    3    0    0 -0.43861753872E+02 -0.29817591927E+02 -0.31870398198E+00  0.53038240707E+02  0.10566000000E+00 0. -1.
         23    2    1    0    0    0  0.89965819268E+00  0.51757960011E+01 -0.12838773525E+02  0.11121800105E+03  0.11034949662E+03 0.  0.
         13    1    3    3    0    0  0.44761412064E+02  0.34993387928E+02 -0.12520069543E+02  0.58179760348E+02  0.10566000000E+00 0.  1.
         22    1    1    0    0    0 -0.89965819268E+00 -0.51757960011E+01  0.12838773525E+02  0.13871998945E+02  0.00000000000E+00 0. -1.
</event>
<event>
 5    1  0.1261010E-009  0.9118800E+02  0.7561462E-02  0.1125453E+00
         25   -1    0    0    0    0  0.00000000000E+00  0.00000000000E+00  0.99999998245E-14  0.12509000000E+03  0.12509000000E+03 0.  0.
        -13    1    3    3    0    0  0.26714133993E+02  0.45352327705E+02  0.33062122834E+02  0.62157812973E+02  0.10566000000E+00 0.  1.
         23    2    1    0    0    0  0.15754451120E+02  0.22454528339E+02  0.11972601088E+02  0.95160887921E+02  0.90331848427E+02 0.  0.
         13    1    3    3    0    0 -0.10959682874E+02 -0.22897799366E+02 -0.21089521746E+02  0.33003074948E+02  0.10566000000E+00 0. -1.
         22    1    1    0    0    0 -0.15754451120E+02 -0.22454528339E+02 -0.11972601088E+02  0.29929112079E+02  0.00000000000E+00 0.  1.
</event>
<event>
 5    1  0.1261010E-009  0.9118800E+02  0.7561462E-02  0.1125453E+00
         25   -1    0    0    0    0  0.00000000000E+00  0.00000000000E+00  0.99999998245E-14  0.12509000000E+03  0.12509000000E+03 0.  0.
        -13    1    3    3    0    0 -0.21670516322E+02 -0.12376664263E+02 -0.54443808703E+02  0.59891005720E+02  0.10566000000E+00 0. -1.
         23    2    1    0    0    0 -0.19039763138E+01  0.37301894350E+01 -0.28559917984E+02  0.96224651322E+02  0.91793110677E+02 0.  0.
         13    1    3    3    0    0  0.19766540009E+02  0.16106853699E+02  0.25883890719E+02  0.36333645602E+02  0.10566000000E+00 0.  1.
         22    1    1    0    0    0  0.19039763138E+01 -0.37301894350E+01  0.28559917984E+02  0.28865348678E+02  0.00000000000E+00 0. -1.
</event>
<event>
 5    1  0.1261010E-009  0.9118800E+02  0.7561462E-02  0.1125453E+00
         25   -1    0    0    0    0  0.00000000000E+00  0.00000000000E+00  0.99999998245E-14  0.12509000000E+03  0.12509000000E+03 0.  0.
        -13    1    3    3    0    0  0.76326736606E+01  0.36115832869E+02  0.38984801785E+02  0.53688332301E+02  0.10566000000E+00 0.  1.
         23    2    1    0    0    0 -0.17846062349E+02  0.21154437737E+02  0.85112259645E+01  0.96134289945E+02  0.91669889051E+02 0.  0.
         13    1    3    3    0    0 -0.25478736010E+02 -0.14961395132E+02 -0.30473575821E+02  0.42445957644E+02  0.10566000000E+00 0. -1.
         22    1    1    0    0    0  0.17846062349E+02 -0.21154437737E+02 -0.85112259645E+01  0.28955710055E+02  0.00000000000E+00 0.  1.
</event>
<event>
 5    1  0.1261010E-009  0.9118800E+02  0.7561462E-02  0.1125453E+00
         25   -1    0    0    0    0  0.00000000000E+00  0.00000000000E+00  0.99999998245E-14  0.12509000000E+03  0.12509000000E+03 0.  0.
        -13    1    3    3    0    0 -0.25424597698E+01 -0.59452831787E+02  0.87624329663E+01  0.60148937686E+02  0.10566000000E+00 0.  1.
         23    2    1    0    0    0 -0.76683884463E+01 -0.27770950242E+02 -0.62956070798E+01  0.95599924937E+02  0.90937787090E+02 0.  0.
         13    1    3    3    0    0 -0.51259286765E+01  0.31681881545E+02 -0.15058040046E+02  0.35450987252E+02  0.10566000000E+00 0. -1.
         22    1    1    0    0    0  0.76683884463E+01  0.27770950242E+02  0.62956070798E+01  0.29490075063E+02  0.00000000000E+00 0.  1.
</event>
<event>
 5    1  0.1261010E-009  0.9118800E+02  0.7561462E-02  0.1125453E+00
         25   -1    0    0    0    0  0.00000000000E+00  0.00000000000E+00  0.99999998245E-14  0.12509000000E+03  0.12509000000E+03 0.  0.
        -13    1    3    3    0    0 -0.13631744695E+02  0.24635630485E+02 -0.41846600369E+02  0.50436969371E+02  0.10566000000E+00 0. -1.
         23    2    1    0    0    0 -0.19115812119E+02  0.20577581808E+02  0.39394160098E+01  0.96728579998E+02  0.92477283935E+02 0.  0.
         13    1    3    3    0    0 -0.54840674242E+01 -0.40580486777E+01  0.45786016379E+02  0.46291610627E+02  0.10566000000E+00 0.  1.
         22    1    1    0    0    0  0.19115812119E+02 -0.20577581808E+02 -0.39394160098E+01  0.28361420002E+02  0.00000000000E+00 0. -1.
</event>
<event>
 5    1  0.1261010E-009  0.9118800E+02  0.7561462E-02  0.1125453E+00
         25   -1    0    0    0    0  0.00000000000E+00  0.00000000000E+00  0.99999998245E-14  0.12509000000E+03  0.12509000000E+03 0.  0.
        -13    1    3    3    0    0 -0.70712828535E+01  0.14318166600E+02 -0.60443518743E+02  0.62517542003E+02  0.10566000000E+00 0.  1.
         23    2    1    0    0    0 -0.24958992002E+01  0.75460172439E+01 -0.27078046788E+02  0.96869572879E+02  0.92667802622E+02 0.  0.
         13    1    3    3    0    0  0.45753836534E+01 -0.67721493566E+01  0.33365471955E+02  0.34352030876E+02  0.10566000000E+00 0. -1.
         22    1    1    0    0    0  0.24958992002E+01 -0.75460172439E+01  0.27078046788E+02  0.28220427121E+02  0.00000000000E+00 0.  1.
</event>
<event>
 5    1  0.1261010E-009  0.9118800E+02  0.7561462E-02  0.1125453E+00
         25   -1    0    0    0    0  0.00000000000E+00  0.00000000000E+00  0.99999998245E-14  0.12509000000E+03  0.12509000000E+03 0.  0.
        -13    1    3    3    0    0 -0.30045585668E+02  0.30944383019E+02  0.21898901649E+01  0.43186790128E+02  0.10566000000E+00 0.  1.
         23    2    1    0    0    0  0.21685437237E+02  0.18675222974E+02 -0.10560425032E+01  0.96451959441E+02  0.92102351289E+02 0.  0.
         13    1    3    3    0    0  0.51731022905E+02 -0.12269160045E+02 -0.32459326682E+01  0.53265169313E+02  0.10566000000E+00 0. -1.
         22    1    1    0    0    0 -0.21685437237E+02 -0.18675222974E+02  0.10560425032E+01  0.28638040559E+02  0.00000000000E+00 0. -1.
</event>
<event>
 5    1  0.1261010E-009  0.9118800E+02  0.7561462E-02  0.1125453E+00
         25   -1    0    0    0    0  0.00000000000E+00  0.00000000000E+00  0.99999998245E-14  0.12509000000E+03  0.12509000000E+03 0.  0.
        -13    1    3    3    0    0  0.27116089551E+01  0.40873448585E+02 -0.16732491984E+02  0.44249057327E+02  0.10566000000E+00 0.  1.
         23    2    1    0    0    0  0.16620659484E+02  0.10180224839E+02  0.22072794705E+02  0.95643581448E+02  0.90997819241E+02 0.  0.
         13    1    3    3    0    0  0.13909050529E+02 -0.30693223746E+02  0.38805286689E+02  0.51394524120E+02  0.10566000000E+00 0. -1.
         22    1    1    0    0    0 -0.16620659484E+02 -0.10180224839E+02 -0.22072794705E+02  0.29446418552E+02  0.00000000000E+00 0.  1.
</event>
<event>
 5    1  0.1261010E-009  0.9118800E+02  0.7561462E-02  0.1125453E+00
         25   -1    0    0    0    0  0.00000000000E+00  0.00000000000E+00  0.99999998245E-14  0.12509000000E+03  0.12509000000E+03 0.  0.
        -13    1    3    3    0    0 -0.94954453766E+01  0.53500491757E+02 -0.22722944933E+02  0.58896600001E+02  0.10566000000E+00 0. -1.
         23    2    1    0    0    0 -0.18092731511E+02  0.19908313126E+02 -0.54242061765E+01  0.97647152522E+02  0.93711560216E+02 0.  0.
         13    1    3    3    0    0 -0.85972861342E+01 -0.33592178632E+02  0.17298738757E+02  0.38750552522E+02  0.10566000000E+00 0.  1.
         22    1    1    0    0    0  0.18092731511E+02 -0.19908313126E+02  0.54242061765E+01  0.27442847478E+02  0.00000000000E+00 0.  1.
</event>
<event>
 5    1  0.1261010E-009  0.9118800E+02  0.7561462E-02  0.1125453E+00
         25   -1    0    0    0    0  0.00000000000E+00  0.00000000000E+00  0.99999998245E-14  0.12509000000E+03  0.12509000000E+03 0.  0.
        -13    1    3    3    0    0 -0.23774905256E+02 -0.29634588011E+02 -0.18234074500E+02  0.42141992874E+02  0.10566000000E+00 0.  1.
         23    2    1    0    0    0 -0.77720162515E+01  0.17927115265E+01  0.25527364857E+02  0.98345572398E+02  0.94639247686E+02 0.  0.
         13    1    3    3    0    0  0.16002889005E+02  0.31427299537E+02  0.43761439357E+02  0.56203579524E+02  0.10566000000E+00 0. -1.
         22    1    1    0    0    0  0.77720162515E+01 -0.17927115265E+01 -0.25527364857E+02  0.26744427602E+02  0.00000000000E+00 0. -1.
</event>
<event>
 5    1  0.1261010E-009  0.9118800E+02  0.7561462E-02  0.1125453E+00
         25   -1    0    0    0    0  0.00000000000E+00  0.00000000000E+00  0.99999998245E-14  0.12509000000E+03  0.12509000000E+03 0.  0.
        -13    1    3    3    0    0 -0.48953477742E+02 -0.59192383813E+01 -0.16750613086E+02  0.52077582210E+02  0.10566000000E+00 0.  1.
         23    2    1    0    0    0 -0.86796954111E+01  0.10062559334E+02 -0.25549704687E+02  0.96291048241E+02  0.91883547760E+02 0.  0.
         13    1    3    3    0    0  0.40273782331E+02  0.15981797716E+02 -0.87990916015E+01  0.44213466031E+02  0.10566000000E+00 0. -1.
         22    1    1    0    0    0  0.86796954111E+01 -0.10062559334E+02  0.25549704687E+02  0.28798951759E+02  0.00000000000E+00 0. -1.
</event>
<event>
 5    1  0.1261010E-009  0.9118800E+02  0.7561462E-02  0.1125453E+00
         25   -1    0    0    0    0  0.00000000000E+00  0.00000000000E+00  0.99999998245E-14  0.12509000000E+03  0.12509000000E+03 0.  0.
        -13    1    3    3    0    0  0.87299579397E+01 -0.37950847405E+02 -0.98574612326E+01  0.40170383249E+02  0.10566000000E+00 0.  1.
         23    2    1    0    0    0 -0.19599886314E+02  0.85027558728E+01 -0.20351044620E+02  0.95583773232E+02  0.90915566803E+02 0.  0.
         13    1    3    3    0    0 -0.28329844254E+02  0.46453603278E+02 -0.10493583388E+02  0.55413389982E+02  0.10566000000E+00 0. -1.
         22    1    1    0    0    0  0.19599886314E+02 -0.85027558728E+01  0.20351044620E+02  0.29506226768E+02  0.00000000000E+00 0. -1.
</event>
<event>
 5    1  0.1261010E-009  0.9118800E+02  0.7561462E-02  0.1125453E+00
         25   -1    0    0    0    0  0.00000000000E+00  0.00000000000E+00  0.99999998245E-14  0.12509000000E+03  0.12509000000E+03 0.  0.
        -13    1    3    3    0    0 -0.68002354297E+01  0.87046370463E+01 -0.38723328681E+02  0.40268117117E+02  0.10566000000E+00 0. -1.
         23    2    1    0    0    0 -0.18116911976E+02 -0.23433657034E+02  0.43106358399E+01  0.95157737091E+02  0.90327485105E+02 0.  0.
         13    1    3    3    0    0 -0.11316676546E+02 -0.32138294080E+02  0.43033964521E+02  0.54889619974E+02  0.10566000000E+00 0.  1.
         22    1    1    0    0    0  0.18116911976E+02  0.23433657034E+02 -0.43106358399E+01  0.29932262909E+02  0.00000000000E+00 0.  1.
</event>
<event>
 5    1  0.1261010E-009  0.9118800E+02  0.7561462E-02  0.1125453E+00
         25   -1    0    0    0    0  0.00000000000E+00  0.00000000000E+00  0.99999998245E-14  0.12509000000E+03  0.12509000000E+03 0.  0.
        -13    1    3    3    0    0 -0.53885859837E+01  0.41634522134E+02  0.37438409198E+02  0.56250475016E+02  0.10566000000E+00 0. -1.
         23    2    1    0    0    0 -0.70210984110E+01  0.28348079454E+02  0.13296160011E+00  0.95885084140E+02  0.91329197139E+02 0.  0.
         13    1    3    3    0    0 -0.16325124272E+01 -0.13286442681E+02 -0.37305447597E+02  0.39634609124E+02  0.10566000000E+00 0.  1.
         22    1    1    0    0    0  0.70210984110E+01 -0.28348079454E+02 -0.13296160011E+00  0.29204915860E+02  0.00000000000E+00 0. -1.
</event>
<event>
 5    1  0.1261010E-009  0.9118800E+02  0.7561462E-02  0.1125453E+00
         25   -1    0    0    0    0  0.00000000000E+00  0.00000000000E+00  0.99999998245E-14  0.12509000000E+03  0.12509000000E+03 0.  0.
        -13    1    3    3    0    0 -0.12520305998E+02  0.52095781245E+02 -0.17294114320E+02  0.56301208157E+02  0.10566000000E+00 0.  1.
         23    2    1    0    0    0 -0.22538773430E+02  0.18476777706E+02  0.11271740605E+01  0.95923955642E+02  0.91382422393E+02 0.  0.
         13    1    3    3    0    0 -0.10018467432E+02 -0.33619003538E+02  0.18421288381E+02  0.39622747485E+02  0.10566000000E+00 0. -1.
         22    1    1    0    0    0  0.22538773430E+02 -0.18476777706E+02 -0.11271740605E+01  0.29166044358E+02  0.00000000000E+00 0.  1.
</event>
<event>
 5    1  0.1261010E-009  0.9118800E+02  0.7561462E-02  0.1125453E+00
         25   -1    0    0    0    0  0.00000000000E+00  0.00000000000E+00  0.99999998245E-14  0.12509000000E+03  0.12509000000E+03 0.  0.
        -13    1    3    3    0    0 -0.47876651911E+02 -0.36817553500E+02 -0.15578963209E+02  0.62373241880E+02  0.10566000000E+00 0.  1.
         23    2    1    0    0    0 -0.20466821508E+02 -0.19201637505E+02 -0.90424029630E+01  0.95605110363E+02  0.90944919653E+02 0.  0.
         13    1    3    3    0    0  0.27409830403E+02  0.17615915994E+02  0.65365602460E+01  0.33231868484E+02  0.10566000000E+00 0. -1.
         22    1    1    0    0    0  0.20466821508E+02  0.19201637505E+02  0.90424029630E+01  0.29484889637E+02  0.00000000000E+00 0.  1.
</event>
<event>
 5    1  0.1261010E-009  0.9118800E+02  0.7561462E-02  0.1125453E+00
         25   -1    0    0    0    0  0.00000000000E+00  0.00000000000E+00  0.99999998245E-14  0.12509000000E+03  0.12509000000E+03 0.  0.
        -13    1    3    3    0    0 -0.46705027531E+02  0.19944834591E+01  0.39037260734E+02  0.60903665330E+02  0.10566000000E+00 0.  1.
         23    2    1    0    0    0 -0.18730631023E+02  0.10365732917E+02  0.20226678543E+02  0.95638285580E+02  0.90990538993E+02 0.  0.
         13    1    3    3    0    0  0.27974396509E+02  0.83712494576E+01 -0.18810582191E+02  0.34734620250E+02  0.10566000000E+00 0. -1.
         22    1    1    0    0    0  0.18730631023E+02 -0.10365732917E+02 -0.20226678543E+02  0.29451714420E+02  0.00000000000E+00 0.  1.
</event>
<event>
 5    1  0.1261010E-009  0.9118800E+02  0.7561462E-02  0.1125453E+00
         25   -1    0    0    0    0  0.00000000000E+00  0.00000000000E+00  0.99999998245E-14  0.12509000000E+03  0.12509000000E+03 0.  0.
        -13    1    3    3    0    0  0.13022434313E+02 -0.25098133306E+02 -0.27079985196E+02  0.39151460421E+02  0.10566000000E+00 0. -1.
         23    2    1    0    0    0  0.49356497709E+01  0.27428103596E+02 -0.46500669454E+01  0.96836068802E+02  0.92622565247E+02 0.  0.
         13    1    3    3    0    0 -0.80867845417E+01  0.52526236902E+02  0.22429918251E+02  0.57684608381E+02  0.10566000000E+00 0.  1.
         22    1    1    0    0    0 -0.49356497709E+01 -0.27428103596E+02  0.46500669454E+01  0.28253931198E+02  0.00000000000E+00 0.  1.
</event>
<event>
 5    1  0.1261010E-009  0.9118800E+02  0.7561462E-02  0.1125453E+00
         25   -1    0    0    0    0  0.00000000000E+00  0.00000000000E+00  0.99999998245E-14  0.12509000000E+03  0.12509000000E+03 0.  0.
        -13    1    3    3    0    0 -0.25482882043E+02 -0.50809040965E+02  0.15897388304E+02  0.59022657005E+02  0.10566000000E+00 0.  1.
         23    2    1    0    0    0  0.47010064084E+00 -0.24935888646E+02  0.15603819971E+02  0.95670640135E+02  0.91035007821E+02 0.  0.
         13    1    3    3    0    0  0.25952982684E+02  0.25873152319E+02 -0.29356833257E+00  0.36647983130E+02  0.10566000000E+00 0. -1.
         22    1    1    0    0    0 -0.47010064084E+00  0.24935888646E+02 -0.15603819971E+02  0.29419359865E+02  0.00000000000E+00 0.  1.
</event>
<event>
 5    1  0.1261010E-009  0.9118800E+02  0.7561462E-02  0.1125453E+00
         25   -1    0    0    0    0  0.00000000000E+00  0.00000000000E+00  0.99999998245E-14  0.12509000000E+03  0.12509000000E+03 0.  0.
        -13    1    3    3    0    0  0.73492284230E+01  0.15916850146E+02 -0.32318113774E+02  0.36767226152E+02  0.10566000000E+00 0.  1.
         23    2    1    0    0    0  0.14706353926E+02 -0.22436219680E+02  0.11883518673E+02  0.95749263551E+02  0.91142979187E+02 0.  0.
         13    1    3    3    0    0  0.73571255031E+01 -0.38353069826E+02  0.44201632447E+02  0.58982037399E+02  0.10566000000E+00 0. -1.
         22    1    1    0    0    0 -0.14706353926E+02  0.22436219680E+02 -0.11883518673E+02  0.29340736449E+02  0.00000000000E+00 0. -1.
</event>
<event>
 5    1  0.1261010E-009  0.9118800E+02  0.7561462E-02  0.1125453E+00
         25   -1    0    0    0    0  0.00000000000E+00  0.00000000000E+00  0.99999998245E-14  0.12509000000E+03  0.12509000000E+03 0.  0.
        -13    1    3    3    0    0  0.12219512826E+02  0.29173373135E+02 -0.33658865176E+02  0.46188013193E+02  0.10566000000E+00 0.  1.
         23    2    1    0    0    0  0.27778539660E+02 -0.59098753072E+00  0.44130183682E+01  0.96956900935E+02  0.92785609746E+02 0.  0.
         13    1    3    3    0    0  0.15559026834E+02 -0.29764360665E+02  0.38071883544E+02  0.50768887741E+02  0.10566000000E+00 0. -1.
         22    1    1    0    0    0 -0.27778539660E+02  0.59098753072E+00 -0.44130183682E+01  0.28133099065E+02  0.00000000000E+00 0. -1.
</event>
<event>
 5    1  0.1261010E-009  0.9118800E+02  0.7561462E-02  0.1125453E+00
         25   -1    0    0    0    0  0.00000000000E+00  0.00000000000E+00  0.99999998245E-14  0.12509000000E+03  0.12509000000E+03 0.  0.
        -13    1    3    3    0    0  0.10412967074E+02 -0.49283639267E+02  0.16064141950E+02  0.52871304157E+02  0.10566000000E+00 0.  1.
         23    2    1    0    0    0  0.16386328071E+02 -0.62025491841E+01  0.22214603668E+02  0.96797386474E+02  0.92570308674E+02 0.  0.
         13    1    3    3    0    0  0.59733609969E+01  0.43081090083E+02  0.61504617179E+01  0.43926082316E+02  0.10566000000E+00 0. -1.
         22    1    1    0    0    0 -0.16386328071E+02  0.62025491841E+01 -0.22214603668E+02  0.28292613526E+02  0.00000000000E+00 0.  1.
</event>
<event>
 5    1  0.1261010E-009  0.9118800E+02  0.7561462E-02  0.1125453E+00
         25   -1    0    0    0    0  0.00000000000E+00  0.00000000000E+00  0.99999998245E-14  0.12509000000E+03  0.12509000000E+03 0.  0.
        -13    1    3    3    0    0  0.26085832971E+01  0.29039041590E+02  0.20512563668E+02  0.35648942138E+02  0.10566000000E+00 0.  1.
         23    2    1    0    0    0 -0.83582478889E+01 -0.27334224088E+02  0.38571021346E+00  0.96503833999E+02  0.92172778465E+02 0.  0.
         13    1    3    3    0    0 -0.10966831186E+02 -0.56373265678E+02 -0.20126853455E+02  0.60854891861E+02  0.10566000000E+00 0. -1.
         22    1    1    0    0    0  0.83582478889E+01  0.27334224088E+02 -0.38571021346E+00  0.28586166001E+02  0.00000000000E+00 0. -1.
</event>
<event>
 5    1  0.1261010E-009  0.9118800E+02  0.7561462E-02  0.1125453E+00
         25   -1    0    0    0    0  0.00000000000E+00  0.00000000000E+00  0.99999998245E-14  0.12509000000E+03  0.12509000000E+03 0.  0.
        -13    1    3    3    0    0 -0.38807990802E+02  0.70264866192E+01 -0.15514142985E+02  0.42380791178E+02  0.10566000000E+00 0.  1.
         23    2    1    0    0    0 -0.11139155424E+02 -0.22869526104E+02  0.16994326555E+02  0.94497465897E+02  0.89408433148E+02 0.  0.
         13    1    3    3    0    0  0.27668835377E+02 -0.29896012724E+02  0.32508469540E+02  0.52116674719E+02  0.10566000000E+00 0. -1.
         22    1    1    0    0    0  0.11139155424E+02  0.22869526104E+02 -0.16994326555E+02  0.30592534103E+02  0.00000000000E+00 0. -1.
</event>
<event>
 5    1  0.1261010E-009  0.9118800E+02  0.7561462E-02  0.1125453E+00
         25   -1    0    0    0    0  0.00000000000E+00  0.00000000000E+00  0.99999998245E-14  0.12509000000E+03  0.12509000000E+03 0.  0.
        -13    1    3    3    0    0 -0.42358879065E+02  0.43032834951E+01  0.39282445194E+02  0.57930255902E+02  0.10566000000E+00 0.  1.
         23    2    1    0    0    0 -0.23540063975E+02 -0.86763413061E+01  0.36269576161E+02  0.80989028749E+02  0.67928838591E+02 0.  0.
         13    1    3    3    0    0  0.18818815089E+02 -0.12979624801E+02 -0.30128690323E+01  0.23058772847E+02  0.10566000000E+00 0. -1.
         22    1    1    0    0    0  0.23540063975E+02  0.86763413061E+01 -0.36269576161E+02  0.44100971251E+02  0.00000000000E+00 0.  1.
</event>
<event>
 5    1  0.1261010E-009  0.9118800E+02  0.7561462E-02  0.1125453E+00
         25   -1    0    0    0    0  0.00000000000E+00  0.00000000000E+00  0.99999998245E-14  0.12509000000E+03  0.12509000000E+03 0.  0.
        -13    1    3    3    0    0  0.10197110290E+02  0.52257320209E+02  0.62251979459E+00  0.53246664390E+02  0.10566000000E+00 0.  1.
         23    2    1    0    0    0 -0.43943911543E+01  0.37303894710E+02 -0.19942002123E+02  0.82562659585E+02  0.70767351758E+02 0.  0.
         13    1    3    3    0    0 -0.14591501445E+02 -0.14953425499E+02 -0.20564521917E+02  0.29315995195E+02  0.10566000000E+00 0. -1.
         22    1    1    0    0    0  0.43943911543E+01 -0.37303894710E+02  0.19942002123E+02  0.42527340415E+02  0.00000000000E+00 0.  1.
</event>
<event>
 5    1  0.1261010E-009  0.9118800E+02  0.7561462E-02  0.1125453E+00
         25   -1    0    0    0    0  0.00000000000E+00  0.00000000000E+00  0.99999998245E-14  0.12509000000E+03  0.12509000000E+03 0.  0.
        -13    1    3    3    0    0  0.10762491854E+02 -0.15517602568E+02  0.32285051521E+02  0.37402712952E+02  0.10566000000E+00 0.  1.
         23    2    1    0    0    0  0.20943708720E+02  0.70869581118E+01 -0.20005361383E+02  0.95272582367E+02  0.90486388792E+02 0.  0.
         13    1    3    3    0    0  0.10181216867E+02  0.22604560680E+02 -0.52290412904E+02  0.57869869415E+02  0.10566000000E+00 0. -1.
         22    1    1    0    0    0 -0.20943708720E+02 -0.70869581118E+01  0.20005361383E+02  0.29817417633E+02  0.00000000000E+00 0. -1.
</event>
<event>
 5    1  0.1261010E-009  0.9118800E+02  0.7561462E-02  0.1125453E+00
         25   -1    0    0    0    0  0.00000000000E+00  0.00000000000E+00  0.99999998245E-14  0.12509000000E+03  0.12509000000E+03 0.  0.
        -13    1    3    3    0    0 -0.78458924299E+01  0.41620431068E+02  0.35246113862E+02  0.55100980179E+02  0.10566000000E+00 0.  1.
         23    2    1    0    0    0  0.13234381003E+02  0.92669459846E+01  0.25459147598E+02  0.94937167217E+02  0.90021510731E+02 0.  0.
         13    1    3    3    0    0  0.21080273433E+02 -0.32353485083E+02 -0.97869662633E+01  0.39836187038E+02  0.10566000000E+00 0. -1.
         22    1    1    0    0    0 -0.13234381003E+02 -0.92669459846E+01 -0.25459147598E+02  0.30152832783E+02  0.00000000000E+00 0.  1.
</event>
<event>
 5    1  0.1261010E-009  0.9118800E+02  0.7561462E-02  0.1125453E+00
         25   -1    0    0    0    0  0.00000000000E+00  0.00000000000E+00  0.99999998245E-14  0.12509000000E+03  0.12509000000E+03 0.  0.
        -13    1    3    3    0    0  0.34132254888E+02  0.13372799683E+02  0.10013467341E+02  0.38001622167E+02  0.10566000000E+00 0.  1.
         23    2    1    0    0    0 -0.24269013921E+02  0.44866263976E+01  0.13086176528E+02  0.97155024266E+02  0.93052328670E+02 0.  0.
         13    1    3    3    0    0 -0.58401268809E+02 -0.88861732850E+01  0.30727091877E+01  0.59153402099E+02  0.10566000000E+00 0. -1.
         22    1    1    0    0    0  0.24269013921E+02 -0.44866263976E+01 -0.13086176528E+02  0.27934975734E+02  0.00000000000E+00 0. -1.
</event>
<event>
 5    1  0.1261010E-009  0.9118800E+02  0.7561462E-02  0.1125453E+00
         25   -1    0    0    0    0  0.00000000000E+00  0.00000000000E+00  0.99999998245E-14  0.12509000000E+03  0.12509000000E+03 0.  0.
        -13    1    3    3    0    0  0.19317824746E+02 -0.20150150029E+02 -0.47452236510E+02  0.55053908244E+02  0.10566000000E+00 0.  1.
         23    2    1    0    0    0 -0.12770429382E+02 -0.72969485541E+01 -0.24391484976E+02  0.96607130339E+02  0.92312858087E+02 0.  0.
         13    1    3    3    0    0 -0.32088254127E+02  0.12853201475E+02  0.23060751534E+02  0.41553222095E+02  0.10566000000E+00 0. -1.
         22    1    1    0    0    0  0.12770429382E+02  0.72969485541E+01  0.24391484976E+02  0.28482869661E+02  0.00000000000E+00 0.  1.
</event>
<event>
 5    1  0.1261010E-009  0.9118800E+02  0.7561462E-02  0.1125453E+00
         25   -1    0    0    0    0  0.00000000000E+00  0.00000000000E+00  0.99999998245E-14  0.12509000000E+03  0.12509000000E+03 0.  0.
        -13    1    3    3    0    0  0.36511632708E+02  0.22862402669E+02  0.43141427204E+02  0.60967062288E+02  0.10566000000E+00 0.  1.
         23    2    1    0    0    0  0.20819532770E+02  0.19932736594E+01  0.23432931202E+02  0.93680951155E+02  0.88258666769E+02 0.  0.
         13    1    3    3    0    0 -0.15692099937E+02 -0.20869129010E+02 -0.19708496003E+02  0.32713888867E+02  0.10566000000E+00 0. -1.
         22    1    1    0    0    0 -0.20819532770E+02 -0.19932736594E+01 -0.23432931202E+02  0.31409048845E+02  0.00000000000E+00 0.  1.
</event>
<event>
 5    1  0.1261010E-009  0.9118800E+02  0.7561462E-02  0.1125453E+00
         25   -1    0    0    0    0  0.00000000000E+00  0.00000000000E+00  0.99999998245E-14  0.12509000000E+03  0.12509000000E+03 0.  0.
        -13    1    3    3    0    0 -0.78939776007E+01 -0.13496984544E+02 -0.47978082767E+02  0.50461778250E+02  0.10566000000E+00 0.  1.
         23    2    1    0    0    0  0.11969519618E+02  0.16857180379E+02 -0.20550235538E+02  0.95939595013E+02  0.91403828040E+02 0.  0.
         13    1    3    3    0    0  0.19863497218E+02  0.30354164923E+02  0.27427847229E+02  0.45477816763E+02  0.10566000000E+00 0. -1.
         22    1    1    0    0    0 -0.11969519618E+02 -0.16857180379E+02  0.20550235538E+02  0.29150404987E+02  0.00000000000E+00 0.  1.
</event>
<event>
 5    1  0.1261010E-009  0.9118800E+02  0.7561462E-02  0.1125453E+00
         25   -1    0    0    0    0  0.00000000000E+00  0.00000000000E+00  0.99999998245E-14  0.12509000000E+03  0.12509000000E+03 0.  0.
        -13    1    3    3    0    0  0.19352713232E+02 -0.50492917412E+02 -0.80771192387E+00  0.54080733915E+02  0.10566000000E+00 0.  1.
         23    2    1    0    0    0 -0.41773408607E+01 -0.18742953763E+02 -0.19434043108E+02  0.97769119268E+02  0.93874225209E+02 0.  0.
         13    1    3    3    0    0 -0.23530054093E+02  0.31749963649E+02 -0.18626331184E+02  0.43688385353E+02  0.10566000000E+00 0. -1.
         22    1    1    0    0    0  0.41773408607E+01  0.18742953763E+02  0.19434043108E+02  0.27320880732E+02  0.00000000000E+00 0.  1.
</event>
<event>
 5    1  0.1261010E-009  0.9118800E+02  0.7561462E-02  0.1125453E+00
         25   -1    0    0    0    0  0.00000000000E+00  0.00000000000E+00  0.99999998245E-14  0.12509000000E+03  0.12509000000E+03 0.  0.
        -13    1    3    3    0    0 -0.49833671378E+01 -0.26802060253E+02 -0.17833208278E+02  0.32576354360E+02  0.10566000000E+00 0.  1.
         23    2    1    0    0    0 -0.20183049016E+02 -0.56057556566E+01  0.30846466591E+02  0.87803481455E+02  0.79493187698E+02 0.  0.
         13    1    3    3    0    0 -0.15199681878E+02  0.21196304596E+02  0.48679674870E+02  0.55227127095E+02  0.10566000000E+00 0. -1.
         22    1    1    0    0    0  0.20183049016E+02  0.56057556566E+01 -0.30846466591E+02  0.37286518545E+02  0.00000000000E+00 0. -1.
</event>
<event>
 5    1  0.1261010E-009  0.9118800E+02  0.7561462E-02  0.1125453E+00
         25   -1    0    0    0    0  0.00000000000E+00  0.00000000000E+00  0.99999998245E-14  0.12509000000E+03  0.12509000000E+03 0.  0.
        -13    1    3    3    0    0 -0.11058113791E+02  0.31890294138E+02 -0.72132723757E+01  0.34515434275E+02  0.10566000000E+00 0.  1.
         23    2    1    0    0    0  0.79960519849E+01 -0.27120117352E+02 -0.19752365072E+01  0.96746761445E+02  0.92501873918E+02 0.  0.
         13    1    3    3    0    0  0.19054165775E+02 -0.59010411489E+02  0.52380358685E+01  0.62231327170E+02  0.10566000000E+00 0. -1.
         22    1    1    0    0    0 -0.79960519849E+01  0.27120117352E+02  0.19752365072E+01  0.28343238555E+02  0.00000000000E+00 0. -1.
</event>
<event>
 5    1  0.1261010E-009  0.9118800E+02  0.7561462E-02  0.1125453E+00
         25   -1    0    0    0    0  0.00000000000E+00  0.00000000000E+00  0.99999998245E-14  0.12509000000E+03  0.12509000000E+03 0.  0.
        -13    1    3    3    0    0 -0.46513689481E+02 -0.57733885612E+01 -0.41143771990E+02  0.62367270761E+02  0.10566000000E+00 0. -1.
         23    2    1    0    0    0 -0.23338423212E+02 -0.31618728708E+00 -0.17541854672E+02  0.95892420686E+02  0.91339245165E+02 0.  0.
         13    1    3    3    0    0  0.23175266269E+02  0.54572012742E+01  0.23601917318E+02  0.33525149925E+02  0.10566000000E+00 0.  1.
         22    1    1    0    0    0  0.23338423212E+02  0.31618728708E+00  0.17541854672E+02  0.29197579314E+02  0.00000000000E+00 0. -1.
</event>
<event>
 5    1  0.1261010E-009  0.9118800E+02  0.7561462E-02  0.1125453E+00
         25   -1    0    0    0    0  0.00000000000E+00  0.00000000000E+00  0.99999998245E-14  0.12509000000E+03  0.12509000000E+03 0.  0.
        -13    1    3    3    0    0  0.29065800175E+02 -0.93651825703E+01 -0.29177812647E+02  0.42236042657E+02  0.10566000000E+00 0.  1.
         23    2    1    0    0    0 -0.22866528408E+02  0.32419910348E+01 -0.15088230131E+02  0.97502986465E+02  0.93518923506E+02 0.  0.
         13    1    3    3    0    0 -0.51932328583E+02  0.12607173605E+02  0.14089582516E+02  0.55266943808E+02  0.10566000000E+00 0. -1.
         22    1    1    0    0    0  0.22866528408E+02 -0.32419910348E+01  0.15088230131E+02  0.27587013535E+02  0.00000000000E+00 0. -1.
</event>
<event>
 5    1  0.1261010E-009  0.9118800E+02  0.7561462E-02  0.1125453E+00
         25   -1    0    0    0    0  0.00000000000E+00  0.00000000000E+00  0.99999998245E-14  0.12509000000E+03  0.12509000000E+03 0.  0.
        -13    1    3    3    0    0 -0.31188925858E+02 -0.30424144419E+02  0.50690009763E+01  0.43864377287E+02  0.10566000000E+00 0. -1.
         23    2    1    0    0    0 -0.20106739223E+02 -0.31877459318E+02 -0.27589056433E+02  0.78382298177E+02  0.62945812076E+02 0.  0.
         13    1    3    3    0    0  0.11082186635E+02 -0.14533148982E+01 -0.32658057409E+02  0.34517920890E+02  0.10566000000E+00 0.  1.
         22    1    1    0    0    0  0.20106739223E+02  0.31877459318E+02  0.27589056433E+02  0.46707701823E+02  0.00000000000E+00 0. -1.
</event>
<event>
 5    1  0.1261010E-009  0.9118800E+02  0.7561462E-02  0.1125453E+00
         25   -1    0    0    0    0  0.00000000000E+00  0.00000000000E+00  0.99999998245E-14  0.12509000000E+03  0.12509000000E+03 0.  0.
        -13    1    3    3    0    0 -0.55069412569E+01  0.20419721014E+02  0.48270984257E+02  0.52700953440E+02  0.10566000000E+00 0. -1.
         23    2    1    0    0    0  0.80744957730E+01 -0.12852916123E+02  0.26010213111E+02  0.94974785890E+02  0.90073768845E+02 0.  0.
         13    1    3    3    0    0  0.13581437030E+02 -0.33272637137E+02 -0.22260771147E+02  0.42273832449E+02  0.10566000000E+00 0.  1.
         22    1    1    0    0    0 -0.80744957730E+01  0.12852916123E+02 -0.26010213111E+02  0.30115214110E+02  0.00000000000E+00 0.  1.
</event>
<event>
 5    1  0.1261010E-009  0.9118800E+02  0.7561462E-02  0.1125453E+00
         25   -1    0    0    0    0  0.00000000000E+00  0.00000000000E+00  0.99999998245E-14  0.12509000000E+03  0.12509000000E+03 0.  0.
        -13    1    3    3    0    0 -0.12256831426E+02  0.38158818209E+00  0.44820077130E+02  0.46467472538E+02  0.10566000000E+00 0. -1.
         23    2    1    0    0    0  0.24014550064E+01 -0.27876636787E+02  0.63542502000E+01  0.96397660250E+02  0.92028574592E+02 0.  0.
         13    1    3    3    0    0  0.14658286433E+02 -0.28258224969E+02 -0.38465826930E+02  0.49930187712E+02  0.10566000000E+00 0.  1.
         22    1    1    0    0    0 -0.24014550064E+01  0.27876636787E+02 -0.63542502000E+01  0.28692339750E+02  0.00000000000E+00 0.  1.
</event>
<event>
 5    1  0.1261010E-009  0.9118800E+02  0.7561462E-02  0.1125453E+00
         25   -1    0    0    0    0  0.00000000000E+00  0.00000000000E+00  0.99999998245E-14  0.12509000000E+03  0.12509000000E+03 0.  0.
        -13    1    3    3    0    0  0.28076931957E+02 -0.61996674568E+01  0.34610109055E+02  0.44995786442E+02  0.10566000000E+00 0.  1.
         23    2    1    0    0    0  0.11008658677E+02 -0.26670588093E+02 -0.79038156118E+01  0.95173764670E+02  0.90349678169E+02 0.  0.
         13    1    3    3    0    0 -0.17068273281E+02 -0.20470920636E+02 -0.42513924667E+02  0.50177978228E+02  0.10566000000E+00 0. -1.
         22    1    1    0    0    0 -0.11008658677E+02  0.26670588093E+02  0.79038156118E+01  0.29916235330E+02  0.00000000000E+00 0.  1.
</event>
<event>
 5    1  0.1261010E-009  0.9118800E+02  0.7561462E-02  0.1125453E+00
         25   -1    0    0    0    0  0.00000000000E+00  0.00000000000E+00  0.99999998245E-14  0.12509000000E+03  0.12509000000E+03 0.  0.
        -13    1    3    3    0    0 -0.45823140046E+02  0.98886710567E+01  0.16350068504E+02  0.49647576810E+02  0.10566000000E+00 0.  1.
         23    2    1    0    0    0 -0.49390345055E+02 -0.23185379729E+00 -0.68662745966E+01  0.75224123213E+02  0.56321071062E+02 0.  0.
         13    1    3    3    0    0 -0.35672050087E+01 -0.10120524854E+02 -0.23216343101E+02  0.25576546403E+02  0.10566000000E+00 0. -1.
         22    1    1    0    0    0  0.49390345055E+02  0.23185379729E+00  0.68662745966E+01  0.49865876787E+02  0.00000000000E+00 0.  1.
</event>
<event>
 5    1  0.1261010E-009  0.9118800E+02  0.7561462E-02  0.1125453E+00
         25   -1    0    0    0    0  0.00000000000E+00  0.00000000000E+00  0.99999998245E-14  0.12509000000E+03  0.12509000000E+03 0.  0.
        -13    1    3    3    0    0 -0.28487430060E+02  0.35310767568E+02  0.27623798223E+02  0.53117505307E+02  0.10566000000E+00 0.  1.
         23    2    1    0    0    0 -0.20061099635E+02  0.20360952434E+02 -0.10271040161E+02  0.94717144214E+02  0.89715255333E+02 0.  0.
         13    1    3    3    0    0  0.84263304249E+01 -0.14949815134E+02 -0.37894838385E+02  0.41599638907E+02  0.10566000000E+00 0. -1.
         22    1    1    0    0    0  0.20061099635E+02 -0.20360952434E+02  0.10271040161E+02  0.30372855786E+02  0.00000000000E+00 0.  1.
</event>
<event>
 5    1  0.1261010E-009  0.9118800E+02  0.7561462E-02  0.1125453E+00
         25   -1    0    0    0    0  0.00000000000E+00  0.00000000000E+00  0.99999998245E-14  0.12509000000E+03  0.12509000000E+03 0.  0.
        -13    1    3    3    0    0  0.26232812321E+02 -0.32620494175E+02  0.38294828333E+02  0.56734135435E+02  0.10566000000E+00 0. -1.
         23    2    1    0    0    0 -0.14871163170E+01 -0.69059363693E+01  0.28409146145E+02  0.95815727050E+02  0.91234152012E+02 0.  0.
         13    1    3    3    0    0 -0.27719928637E+02  0.25714557806E+02 -0.98856821884E+01  0.39081591615E+02  0.10566000000E+00 0.  1.
         22    1    1    0    0    0  0.14871163170E+01  0.69059363693E+01 -0.28409146145E+02  0.29274272950E+02  0.00000000000E+00 0. -1.
</event>
<event>
 5    1  0.1261010E-009  0.9118800E+02  0.7561462E-02  0.1125453E+00
         25   -1    0    0    0    0  0.00000000000E+00  0.00000000000E+00  0.99999998245E-14  0.12509000000E+03  0.12509000000E+03 0.  0.
        -13    1    3    3    0    0  0.29811810948E+01 -0.37396933633E+02 -0.13569883924E+02  0.39894498363E+02  0.10566000000E+00 0.  1.
         23    2    1    0    0    0  0.12653383265E+01 -0.25140634618E+01  0.29562512412E+02  0.95393809398E+02  0.90653820302E+02 0.  0.
         13    1    3    3    0    0 -0.17158427683E+01  0.34882870171E+02  0.43132396335E+02  0.55499311036E+02  0.10566000000E+00 0. -1.
         22    1    1    0    0    0 -0.12653383265E+01  0.25140634618E+01 -0.29562512412E+02  0.29696190602E+02  0.00000000000E+00 0.  1.
</event>
<event>
 5    1  0.1261010E-009  0.9118800E+02  0.7561462E-02  0.1125453E+00
         25   -1    0    0    0    0  0.00000000000E+00  0.00000000000E+00  0.99999998245E-14  0.12509000000E+03  0.12509000000E+03 0.  0.
        -13    1    3    3    0    0  0.90546128349E+01  0.49922720363E+01  0.45696592349E+02  0.46851878404E+02  0.10566000000E+00 0.  1.
         23    2    1    0    0    0 -0.20201771163E+02 -0.17148499306E+02  0.23055001226E+02  0.89965711137E+02  0.82825802213E+02 0.  0.
         13    1    3    3    0    0 -0.29256383998E+02 -0.22140771343E+02 -0.22641591123E+02  0.43113832733E+02  0.10566000000E+00 0. -1.
         22    1    1    0    0    0  0.20201771163E+02  0.17148499306E+02 -0.23055001226E+02  0.35124288863E+02  0.00000000000E+00 0.  1.
</event>
<event>
 5    1  0.1261010E-009  0.9118800E+02  0.7561462E-02  0.1125453E+00
         25   -1    0    0    0    0  0.00000000000E+00  0.00000000000E+00  0.99999998245E-14  0.12509000000E+03  0.12509000000E+03 0.  0.
        -13    1    3    3    0    0  0.28036992607E+02 -0.27331597719E+02  0.36789695533E+02  0.53726921090E+02  0.10566000000E+00 0. -1.
         23    2    1    0    0    0  0.21740152290E+02  0.89000484868E+01  0.20353409673E+02  0.94007748312E+02  0.88720631043E+02 0.  0.
         13    1    3    3    0    0 -0.62968403171E+01  0.36231646206E+02 -0.16436285860E+02  0.40280827222E+02  0.10566000000E+00 0.  1.
         22    1    1    0    0    0 -0.21740152290E+02 -0.89000484868E+01 -0.20353409673E+02  0.31082251688E+02  0.00000000000E+00 0. -1.
</event>
<event>
 5    1  0.1261010E-009  0.9118800E+02  0.7561462E-02  0.1125453E+00
         25   -1    0    0    0    0  0.00000000000E+00  0.00000000000E+00  0.99999998245E-14  0.12509000000E+03  0.12509000000E+03 0.  0.
        -13    1    3    3    0    0 -0.42362521977E+01  0.41683110603E+02 -0.25296470153E+02  0.48942314090E+02  0.10566000000E+00 0. -1.
         23    2    1    0    0    0 -0.12966334750E+02  0.19688617243E+02  0.16042051397E+02  0.96574830374E+02  0.92269079127E+02 0.  0.
         13    1    3    3    0    0 -0.87300825519E+01 -0.21994493361E+02  0.41338521550E+02  0.47632516284E+02  0.10566000000E+00 0.  1.
         22    1    1    0    0    0  0.12966334750E+02 -0.19688617243E+02 -0.16042051397E+02  0.28515169626E+02  0.00000000000E+00 0.  1.
</event>
<event>
 5    1  0.1261010E-009  0.9118800E+02  0.7561462E-02  0.1125453E+00
         25   -1    0    0    0    0  0.00000000000E+00  0.00000000000E+00  0.99999998245E-14  0.12509000000E+03  0.12509000000E+03 0.  0.
        -13    1    3    3    0    0 -0.30366683837E+01 -0.12545124094E+02  0.39684182562E+02  0.41730648247E+02  0.10566000000E+00 0.  1.
         23    2    1    0    0    0 -0.10957942873E+02 -0.26426713337E+02 -0.10666855381E+02  0.94557566531E+02  0.89492479543E+02 0.  0.
         13    1    3    3    0    0 -0.79212744898E+01 -0.13881589243E+02 -0.50351037943E+02  0.52826918285E+02  0.10566000000E+00 0. -1.
         22    1    1    0    0    0  0.10957942873E+02  0.26426713337E+02  0.10666855381E+02  0.30532433469E+02  0.00000000000E+00 0. -1.
</event>
<event>
 5    1  0.1261010E-009  0.9118800E+02  0.7561462E-02  0.1125453E+00
         25   -1    0    0    0    0  0.00000000000E+00  0.00000000000E+00  0.99999998245E-14  0.12509000000E+03  0.12509000000E+03 0.  0.
        -13    1    3    3    0    0 -0.12470730648E+01  0.30256871734E+01 -0.42837520557E+02  0.42962475553E+02  0.10566000000E+00 0.  1.
         23    2    1    0    0    0  0.12436887522E+02  0.26650930854E+02  0.21661452356E+01  0.95600332796E+02  0.90938348121E+02 0.  0.
         13    1    3    3    0    0  0.13683960587E+02  0.23625243680E+02  0.45003665793E+02  0.52637857243E+02  0.10566000000E+00 0. -1.
         22    1    1    0    0    0 -0.12436887522E+02 -0.26650930854E+02 -0.21661452356E+01  0.29489667204E+02  0.00000000000E+00 0. -1.
</event>
<event>
 5    1  0.1261010E-009  0.9118800E+02  0.7561462E-02  0.1125453E+00
         25   -1    0    0    0    0  0.00000000000E+00  0.00000000000E+00  0.99999998245E-14  0.12509000000E+03  0.12509000000E+03 0.  0.
        -13    1    3    3    0    0 -0.14934821834E+02  0.33580709362E+02  0.60394637981E+01  0.37245123594E+02  0.10566000000E+00 0. -1.
         23    2    1    0    0    0 -0.18499132774E+02 -0.23800858205E+02  0.21493825421E+01  0.94868838375E+02  0.89926513802E+02 0.  0.
         13    1    3    3    0    0 -0.35643109399E+01 -0.57381567567E+02 -0.38900812560E+01  0.57623714781E+02  0.10566000000E+00 0.  1.
         22    1    1    0    0    0  0.18499132774E+02  0.23800858205E+02 -0.21493825421E+01  0.30221161625E+02  0.00000000000E+00 0.  1.
</event>
<event>
 5    1  0.1261010E-009  0.9118800E+02  0.7561462E-02  0.1125453E+00
         25   -1    0    0    0    0  0.00000000000E+00  0.00000000000E+00  0.99999998245E-14  0.12509000000E+03  0.12509000000E+03 0.  0.
        -13    1    3    3    0    0 -0.56771898236E+01  0.55490410432E+01 -0.56601402622E+02  0.57155509653E+02  0.10566000000E+00 0.  1.
         23    2    1    0    0    0  0.14696586951E+02 -0.34101509885E+01 -0.26570373968E+02  0.94535072892E+02  0.89461033060E+02 0.  0.
         13    1    3    3    0    0  0.20373776774E+02 -0.89591920317E+01  0.30031028655E+02  0.37379563240E+02  0.10566000000E+00 0. -1.
         22    1    1    0    0    0 -0.14696586951E+02  0.34101509885E+01  0.26570373968E+02  0.30554927108E+02  0.00000000000E+00 0.  1.
</event>
<event>
 5    1  0.1261010E-009  0.9118800E+02  0.7561462E-02  0.1125453E+00
         25   -1    0    0    0    0  0.00000000000E+00  0.00000000000E+00  0.99999998245E-14  0.12509000000E+03  0.12509000000E+03 0.  0.
        -13    1    3    3    0    0  0.39429112435E+02  0.93445879044E+01  0.13558665923E+02  0.42729671379E+02  0.10566000000E+00 0. -1.
         23    2    1    0    0    0 -0.18548679309E+01  0.11501348477E+02 -0.23890584448E+02  0.98510278837E+02  0.94856699603E+02 0.  0.
         13    1    3    3    0    0 -0.41283980366E+02  0.21567605721E+01 -0.37449250371E+02  0.55780607458E+02  0.10566000000E+00 0.  1.
         22    1    1    0    0    0  0.18548679309E+01 -0.11501348477E+02  0.23890584448E+02  0.26579721163E+02  0.00000000000E+00 0.  1.
</event>
<event>
 5    1  0.1261010E-009  0.9118800E+02  0.7561462E-02  0.1125453E+00
         25   -1    0    0    0    0  0.00000000000E+00  0.00000000000E+00  0.99999998245E-14  0.12509000000E+03  0.12509000000E+03 0.  0.
        -13    1    3    3    0    0  0.55420200534E+02  0.28691617290E+02  0.28527550504E-01  0.62406886702E+02  0.10566000000E+00 0.  1.
         23    2    1    0    0    0  0.26466392632E+02  0.11937013829E+02 -0.24639026787E+01  0.95951828222E+02  0.91420568171E+02 0.  0.
         13    1    3    3    0    0 -0.28953807902E+02 -0.16754603461E+02 -0.24924302292E+01  0.33544941521E+02  0.10566000000E+00 0. -1.
         22    1    1    0    0    0 -0.26466392632E+02 -0.11937013829E+02  0.24639026787E+01  0.29138171778E+02  0.00000000000E+00 0.  1.
</event>
<event>
 5    1  0.1261010E-009  0.9118800E+02  0.7561462E-02  0.1125453E+00
         25   -1    0    0    0    0  0.00000000000E+00  0.00000000000E+00  0.99999998245E-14  0.12509000000E+03  0.12509000000E+03 0.  0.
        -13    1    3    3    0    0 -0.23705112324E+02  0.11790458815E+01 -0.23368139879E+02  0.33307711193E+02  0.10566000000E+00 0.  1.
         23    2    1    0    0    0  0.17624370241E+02  0.13734287538E+02  0.20424018445E+02  0.94818072245E+02  0.89855869114E+02 0.  0.
         13    1    3    3    0    0  0.41329482564E+02  0.12555241656E+02  0.43792158324E+02  0.61510361052E+02  0.10566000000E+00 0. -1.
         22    1    1    0    0    0 -0.17624370241E+02 -0.13734287538E+02 -0.20424018445E+02  0.30271927755E+02  0.00000000000E+00 0. -1.
</event>
<event>
 5    1  0.1261010E-009  0.9118800E+02  0.7561462E-02  0.1125453E+00
         25   -1    0    0    0    0  0.00000000000E+00  0.00000000000E+00  0.99999998245E-14  0.12509000000E+03  0.12509000000E+03 0.  0.
        -13    1    3    3    0    0  0.46269411118E+02 -0.67025693368E+00  0.31121867134E+01  0.46378923228E+02  0.10566000000E+00 0.  1.
         23    2    1    0    0    0  0.45348726214E+01 -0.24226952006E+02 -0.13359522560E+02  0.97054538238E+02  0.92917147376E+02 0.  0.
         13    1    3    3    0    0 -0.41734538497E+02 -0.23556695072E+02 -0.16471709273E+02  0.50675615010E+02  0.10566000000E+00 0. -1.
         22    1    1    0    0    0 -0.45348726214E+01  0.24226952006E+02  0.13359522560E+02  0.28035461762E+02  0.00000000000E+00 0. -1.
</event>
<event>
 5    1  0.1261010E-009  0.9118800E+02  0.7561462E-02  0.1125453E+00
         25   -1    0    0    0    0  0.00000000000E+00  0.00000000000E+00  0.99999998245E-14  0.12509000000E+03  0.12509000000E+03 0.  0.
        -13    1    3    3    0    0 -0.17972868217E+02  0.36946770174E+02  0.82497787749E+01  0.41906536866E+02  0.10566000000E+00 0.  1.
         23    2    1    0    0    0  0.57170404613E+01 -0.91383425915E+01  0.26211243305E+02  0.96748808554E+02  0.92504642176E+02 0.  0.
         13    1    3    3    0    0  0.23689908678E+02 -0.46085112765E+02  0.17961464530E+02  0.54842271688E+02  0.10566000000E+00 0. -1.
         22    1    1    0    0    0 -0.57170404613E+01  0.91383425915E+01 -0.26211243305E+02  0.28341191446E+02  0.00000000000E+00 0. -1.
</event>
<event>
 5    1  0.1261010E-009  0.9118800E+02  0.7561462E-02  0.1125453E+00
         25   -1    0    0    0    0  0.00000000000E+00  0.00000000000E+00  0.99999998245E-14  0.12509000000E+03  0.12509000000E+03 0.  0.
        -13    1    3    3    0    0 -0.41994341637E+02 -0.25962453364E+01 -0.60616688958E+01  0.42509060367E+02  0.10566000000E+00 0. -1.
         23    2    1    0    0    0  0.71524507581E+00  0.26252778936E+02 -0.15040643850E+02  0.94825483734E+02  0.89866186191E+02 0.  0.
         13    1    3    3    0    0  0.42709586713E+02  0.28849024272E+02 -0.89789749545E+01  0.52316423367E+02  0.10566000000E+00 0.  1.
         22    1    1    0    0    0 -0.71524507581E+00 -0.26252778936E+02  0.15040643850E+02  0.30264516266E+02  0.00000000000E+00 0.  1.
</event>
<event>
 5    1  0.1261010E-009  0.9118800E+02  0.7561462E-02  0.1125453E+00
         25   -1    0    0    0    0  0.00000000000E+00  0.00000000000E+00  0.99999998245E-14  0.12509000000E+03  0.12509000000E+03 0.  0.
        -13    1    3    3    0    0 -0.24520172300E+02 -0.54815548315E+02  0.14561736948E+02  0.61790278634E+02  0.10566000000E+00 0.  1.
         23    2    1    0    0    0 -0.15945636857E+02 -0.27779976462E+02  0.13931990749E+02  0.90160201930E+02  0.83119018395E+02 0.  0.
         13    1    3    3    0    0  0.85745354437E+01  0.27035571853E+02 -0.62974619928E+00  0.28369923296E+02  0.10566000000E+00 0. -1.
         22    1    1    0    0    0  0.15945636857E+02  0.27779976462E+02 -0.13931990749E+02  0.34929798070E+02  0.00000000000E+00 0.  1.
</event>
<event>
 5    1  0.1261010E-009  0.9118800E+02  0.7561462E-02  0.1125453E+00
         25   -1    0    0    0    0  0.00000000000E+00  0.00000000000E+00  0.99999998245E-14  0.12509000000E+03  0.12509000000E+03 0.  0.
        -13    1    3    3    0    0  0.21701452951E+02 -0.34066950688E+02 -0.97106727520E+01  0.41542971953E+02  0.10566000000E+00 0. -1.
         23    2    1    0    0    0 -0.15040078602E+02 -0.96972196824E+01  0.22642925987E+02  0.96229263156E+02  0.91799395185E+02 0.  0.
         13    1    3    3    0    0 -0.36741531553E+02  0.24369731006E+02  0.32353598739E+02  0.54686291203E+02  0.10566000000E+00 0.  1.
         22    1    1    0    0    0  0.15040078602E+02  0.96972196824E+01 -0.22642925987E+02  0.28860736844E+02  0.00000000000E+00 0.  1.
</event>
<event>
 5    1  0.1261010E-009  0.9118800E+02  0.7561462E-02  0.1125453E+00
         25   -1    0    0    0    0  0.00000000000E+00  0.00000000000E+00  0.99999998245E-14  0.12509000000E+03  0.12509000000E+03 0.  0.
        -13    1    3    3    0    0  0.67129079432E+01  0.37590381281E+02  0.13168256044E+02  0.40392004521E+02  0.10566000000E+00 0.  1.
         23    2    1    0    0    0  0.12447584654E+02 -0.19228468396E+02 -0.72877867768E+01  0.10105277477E+03  0.98152305589E+02 0.  0.
         13    1    3    3    0    0  0.57346767104E+01 -0.56818849677E+02 -0.20456042820E+02  0.60660770251E+02  0.10566000000E+00 0. -1.
         22    1    1    0    0    0 -0.12447584654E+02  0.19228468396E+02  0.72877867768E+01  0.24037225228E+02  0.00000000000E+00 0. -1.
</event>
<event>
 5    1  0.1261010E-009  0.9118800E+02  0.7561462E-02  0.1125453E+00
         25   -1    0    0    0    0  0.00000000000E+00  0.00000000000E+00  0.99999998245E-14  0.12509000000E+03  0.12509000000E+03 0.  0.
        -13    1    3    3    0    0  0.36245497706E+01 -0.60242420032E+01 -0.44822794006E+02  0.45370947524E+02  0.10566000000E+00 0. -1.
         23    2    1    0    0    0 -0.19356995572E+01  0.28363986632E+02 -0.91674508103E+01  0.95218528245E+02  0.90411632528E+02 0.  0.
         13    1    3    3    0    0 -0.55602493278E+01  0.34388228636E+02  0.35655343195E+02  0.49847580721E+02  0.10566000000E+00 0.  1.
         22    1    1    0    0    0  0.19356995572E+01 -0.28363986632E+02  0.91674508103E+01  0.29871471755E+02  0.00000000000E+00 0. -1.
</event>
<event>
 5    1  0.1261010E-009  0.9118800E+02  0.7561462E-02  0.1125453E+00
         25   -1    0    0    0    0  0.00000000000E+00  0.00000000000E+00  0.99999998245E-14  0.12509000000E+03  0.12509000000E+03 0.  0.
        -13    1    3    3    0    0 -0.41175433981E+02 -0.41245639691E+02  0.16966013118E+02  0.60699884038E+02  0.10566000000E+00 0.  1.
         23    2    1    0    0    0 -0.10487819376E+02 -0.24784095911E+02  0.10930031683E+02  0.96043290066E+02  0.91545629107E+02 0.  0.
         13    1    3    3    0    0  0.30687614605E+02  0.16461543780E+02 -0.60359814345E+01  0.35343406028E+02  0.10566000000E+00 0. -1.
         22    1    1    0    0    0  0.10487819376E+02  0.24784095911E+02 -0.10930031683E+02  0.29046709934E+02  0.00000000000E+00 0.  1.
</event>
<event>
 5    1  0.1261010E-009  0.9118800E+02  0.7561462E-02  0.1125453E+00
         25   -1    0    0    0    0  0.00000000000E+00  0.00000000000E+00  0.99999998245E-14  0.12509000000E+03  0.12509000000E+03 0.  0.
        -13    1    3    3    0    0 -0.32438666427E+02  0.18869717968E+02 -0.17757597265E+01  0.37569905808E+02  0.10566000000E+00 0. -1.
         23    2    1    0    0    0  0.23324683031E+02  0.12596558087E+02 -0.14161420332E+02  0.95035716778E+02  0.90158346943E+02 0.  0.
         13    1    3    3    0    0  0.55763349459E+02 -0.62731598807E+01 -0.12385660606E+02  0.57465810970E+02  0.10566000000E+00 0.  1.
         22    1    1    0    0    0 -0.23324683031E+02 -0.12596558087E+02  0.14161420332E+02  0.30054283222E+02  0.00000000000E+00 0.  1.
</event>
<event>
 5    1  0.1261010E-009  0.9118800E+02  0.7561462E-02  0.1125453E+00
         25   -1    0    0    0    0  0.00000000000E+00  0.00000000000E+00  0.99999998245E-14  0.12509000000E+03  0.12509000000E+03 0.  0.
        -13    1    3    3    0    0  0.34232465143E+02 -0.34946483739E+01 -0.34352776550E+02  0.48623026003E+02  0.10566000000E+00 0.  1.
         23    2    1    0    0    0 -0.92887122494E+01 -0.13868307161E+02 -0.26085895134E+02  0.94120917939E+02  0.88880049224E+02 0.  0.
         13    1    3    3    0    0 -0.43521177392E+02 -0.10373658787E+02  0.82668814163E+01  0.45497891936E+02  0.10566000000E+00 0. -1.
         22    1    1    0    0    0  0.92887122494E+01  0.13868307161E+02  0.26085895134E+02  0.30969082061E+02  0.00000000000E+00 0. -1.
</event>
<event>
 5    1  0.1261010E-009  0.9118800E+02  0.7561462E-02  0.1125453E+00
         25   -1    0    0    0    0  0.00000000000E+00  0.00000000000E+00  0.99999998245E-14  0.12509000000E+03  0.12509000000E+03 0.  0.
        -13    1    3    3    0    0  0.18833115623E+02 -0.71609351445E+01  0.34721829608E+02  0.40144512098E+02  0.10566000000E+00 0. -1.
         23    2    1    0    0    0 -0.25068970264E+02 -0.15825623680E+02  0.25832476330E+02  0.85767990027E+02  0.76222881375E+02 0.  0.
         13    1    3    3    0    0 -0.43902085887E+02 -0.86646885355E+01 -0.88893532776E+01  0.45623477929E+02  0.10566000000E+00 0.  1.
         22    1    1    0    0    0  0.25068970264E+02  0.15825623680E+02 -0.25832476330E+02  0.39322009973E+02  0.00000000000E+00 0.  1.
</event>
<event>
 5    1  0.1261010E-009  0.9118800E+02  0.7561462E-02  0.1125453E+00
         25   -1    0    0    0    0  0.00000000000E+00  0.00000000000E+00  0.99999998245E-14  0.12509000000E+03  0.12509000000E+03 0.  0.
        -13    1    3    3    0    0  0.53392403677E+02  0.19754047092E+02  0.21261366815E+02  0.60770289038E+02  0.10566000000E+00 0. -1.
         23    2    1    0    0    0  0.21184618339E+02  0.77202076500E+01  0.19635138929E+02  0.95191365565E+02  0.90374043492E+02 0.  0.
         13    1    3    3    0    0 -0.32207785338E+02 -0.12033839443E+02 -0.16262278865E+01  0.34421076527E+02  0.10566000000E+00 0.  1.
         22    1    1    0    0    0 -0.21184618339E+02 -0.77202076500E+01 -0.19635138929E+02  0.29898634435E+02  0.00000000000E+00 0. -1.
</event>
<event>
 5    1  0.1261010E-009  0.9118800E+02  0.7561462E-02  0.1125453E+00
         25   -1    0    0    0    0  0.00000000000E+00  0.00000000000E+00  0.99999998245E-14  0.12509000000E+03  0.12509000000E+03 0.  0.
        -13    1    3    3    0    0 -0.46016020888E+02 -0.10937386259E+02  0.40069020561E+02  0.61989016521E+02  0.10566000000E+00 0.  1.
         23    2    1    0    0    0 -0.23199542413E+02 -0.82005913375E+01  0.13849268572E+02  0.96854017523E+02  0.92646802448E+02 0.  0.
         13    1    3    3    0    0  0.22816478475E+02  0.27367949215E+01 -0.26219751989E+02  0.34865001001E+02  0.10566000000E+00 0. -1.
         22    1    1    0    0    0  0.23199542413E+02  0.82005913375E+01 -0.13849268572E+02  0.28235982477E+02  0.00000000000E+00 0.  1.
</event>
<event>
 5    1  0.1261010E-009  0.9118800E+02  0.7561462E-02  0.1125453E+00
         25   -1    0    0    0    0  0.00000000000E+00  0.00000000000E+00  0.99999998245E-14  0.12509000000E+03  0.12509000000E+03 0.  0.
        -13    1    3    3    0    0 -0.41080337468E+02  0.21538943361E+02 -0.37363743228E+01  0.46534845704E+02  0.10566000000E+00 0.  1.
         23    2    1    0    0    0  0.11746828022E+02  0.62988562867E+01  0.15373493712E+02  0.10474281671E+03  0.10274750500E+03 0.  0.
         13    1    3    3    0    0  0.52827165490E+02 -0.15240087074E+02  0.19109868035E+02  0.58207971001E+02  0.10566000000E+00 0. -1.
         22    1    1    0    0    0 -0.11746828022E+02 -0.62988562867E+01 -0.15373493712E+02  0.20347183294E+02  0.00000000000E+00 0. -1.
</event>
<event>
 5    1  0.1261010E-009  0.9118800E+02  0.7561462E-02  0.1125453E+00
         25   -1    0    0    0    0  0.00000000000E+00  0.00000000000E+00  0.99999998245E-14  0.12509000000E+03  0.12509000000E+03 0.  0.
        -13    1    3    3    0    0  0.29959672326E+02  0.98055295784E+01  0.17584108220E+02  0.36096293468E+02  0.10566000000E+00 0. -1.
         23    2    1    0    0    0 -0.59671395116E+01 -0.94700561896E+01 -0.26608222222E+02  0.96223302786E+02  0.91791272957E+02 0.  0.
         13    1    3    3    0    0 -0.35926811838E+02 -0.19275585768E+02 -0.44192330443E+02  0.60127009318E+02  0.10566000000E+00 0.  1.
         22    1    1    0    0    0  0.59671395116E+01  0.94700561896E+01  0.26608222222E+02  0.28866697214E+02  0.00000000000E+00 0.  1.
</event>
<event>
 5    1  0.1261010E-009  0.9118800E+02  0.7561462E-02  0.1125453E+00
         25   -1    0    0    0    0  0.00000000000E+00  0.00000000000E+00  0.99999998245E-14  0.12509000000E+03  0.12509000000E+03 0.  0.
        -13    1    3    3    0    0 -0.24253390403E+02 -0.25265210213E+02 -0.19205726070E+02  0.39942820019E+02  0.10566000000E+00 0.  1.
         23    2    1    0    0    0 -0.88367590238E+01  0.27014705071E+02 -0.75544089168E+01  0.95679938895E+02  0.91047784228E+02 0.  0.
         13    1    3    3    0    0  0.15416631379E+02  0.52279915284E+02  0.11651317153E+02  0.55737118876E+02  0.10566000000E+00 0. -1.
         22    1    1    0    0    0  0.88367590238E+01 -0.27014705071E+02  0.75544089168E+01  0.29410061105E+02  0.00000000000E+00 0. -1.
</event>
<event>
 5    1  0.1261010E-009  0.9118800E+02  0.7561462E-02  0.1125453E+00
         25   -1    0    0    0    0  0.00000000000E+00  0.00000000000E+00  0.99999998245E-14  0.12509000000E+03  0.12509000000E+03 0.  0.
        -13    1    3    3    0    0 -0.15958199552E+02 -0.21845257786E+02 -0.26815403003E+02  0.38091421908E+02  0.10566000000E+00 0.  1.
         23    2    1    0    0    0  0.14659551057E+02 -0.14804727263E+02  0.21131653597E+02  0.95414603284E+02  0.90682508509E+02 0.  0.
         13    1    3    3    0    0  0.30617750609E+02  0.70405305233E+01  0.47947056600E+02  0.57323181376E+02  0.10566000000E+00 0. -1.
         22    1    1    0    0    0 -0.14659551057E+02  0.14804727263E+02 -0.21131653597E+02  0.29675396716E+02  0.00000000000E+00 0.  1.
</event>
<event>
 5    1  0.1261010E-009  0.9118800E+02  0.7561462E-02  0.1125453E+00
         25   -1    0    0    0    0  0.00000000000E+00  0.00000000000E+00  0.99999998245E-14  0.12509000000E+03  0.12509000000E+03 0.  0.
        -13    1    3    3    0    0 -0.37922868280E+02  0.37740072979E+02  0.28134692987E+02  0.60448566240E+02  0.10566000000E+00 0. -1.
         23    2    1    0    0    0 -0.19096381158E+02  0.88069070128E+01  0.20332647581E+02  0.95838505301E+02  0.91265377643E+02 0.  0.
         13    1    3    3    0    0  0.18826487122E+02 -0.28933165967E+02 -0.78020454059E+01  0.35389939061E+02  0.10566000000E+00 0.  1.
         22    1    1    0    0    0  0.19096381158E+02 -0.88069070128E+01 -0.20332647581E+02  0.29251494699E+02  0.00000000000E+00 0. -1.
</event>
<event>
 5    1  0.1261010E-009  0.9118800E+02  0.7561462E-02  0.1125453E+00
         25   -1    0    0    0    0  0.00000000000E+00  0.00000000000E+00  0.99999998245E-14  0.12509000000E+03  0.12509000000E+03 0.  0.
        -13    1    3    3    0    0 -0.28736242498E+00  0.13339198790E+02  0.33204414322E+02  0.35784928336E+02  0.10566000000E+00 0. -1.
         23    2    1    0    0    0 -0.19209618993E+02 -0.65981772461E+01 -0.20572900263E+02  0.96179973538E+02  0.91732206338E+02 0.  0.
         13    1    3    3    0    0 -0.18922256568E+02 -0.19937376036E+02 -0.53777314585E+02  0.60395045201E+02  0.10566000000E+00 0.  1.
         22    1    1    0    0    0  0.19209618993E+02  0.65981772461E+01  0.20572900263E+02  0.28910026462E+02  0.00000000000E+00 0.  1.
</event>
<event>
 5    1  0.1261010E-009  0.9118800E+02  0.7561462E-02  0.1125453E+00
         25   -1    0    0    0    0  0.00000000000E+00  0.00000000000E+00  0.99999998245E-14  0.12509000000E+03  0.12509000000E+03 0.  0.
        -13    1    3    3    0    0  0.45676477479E+02  0.17379141476E+02  0.26819238561E+02  0.55746370952E+02  0.10566000000E+00 0.  1.
         23    2    1    0    0    0  0.29823370085E+02 -0.68363455517E+01  0.26376770516E+02  0.84693180241E+02  0.74438106725E+02 0.  0.
         13    1    3    3    0    0 -0.15853107394E+02 -0.24215487027E+02 -0.44246804533E+00  0.28946809289E+02  0.10566000000E+00 0. -1.
         22    1    1    0    0    0 -0.29823370085E+02  0.68363455517E+01 -0.26376770516E+02  0.40396819759E+02  0.00000000000E+00 0.  1.
</event>
<event>
 5    1  0.1261010E-009  0.9118800E+02  0.7561462E-02  0.1125453E+00
         25   -1    0    0    0    0  0.00000000000E+00  0.00000000000E+00  0.99999998245E-14  0.12509000000E+03  0.12509000000E+03 0.  0.
        -13    1    3    3    0    0 -0.16261402656E+01  0.49397949862E+02  0.13882750502E+02  0.51337546769E+02  0.10566000000E+00 0. -1.
         23    2    1    0    0    0 -0.23720088797E+02  0.96978365085E+01  0.11955271590E+02  0.96812461842E+02  0.92590677736E+02 0.  0.
         13    1    3    3    0    0 -0.22093948531E+02 -0.39700113353E+02 -0.19274789120E+01  0.45474915073E+02  0.10566000000E+00 0.  1.
         22    1    1    0    0    0  0.23720088797E+02 -0.96978365085E+01 -0.11955271590E+02  0.28277538158E+02  0.00000000000E+00 0. -1.
</event>
<event>
 5    1  0.1261010E-009  0.9118800E+02  0.7561462E-02  0.1125453E+00
         25   -1    0    0    0    0  0.00000000000E+00  0.00000000000E+00  0.99999998245E-14  0.12509000000E+03  0.12509000000E+03 0.  0.
        -13    1    3    3    0    0 -0.20934171015E+02 -0.23266288236E+02 -0.15786561493E+02  0.35054049298E+02  0.10566000000E+00 0. -1.
         23    2    1    0    0    0  0.22390615863E+02  0.17130707371E+02  0.17836821775E+01  0.96841418870E+02  0.92629790419E+02 0.  0.
         13    1    3    3    0    0  0.43324786877E+02  0.40396995607E+02  0.17570243670E+02  0.61787369573E+02  0.10566000000E+00 0.  1.
         22    1    1    0    0    0 -0.22390615863E+02 -0.17130707371E+02 -0.17836821775E+01  0.28248581130E+02  0.00000000000E+00 0.  1.
</event>
<event>
 5    1  0.1261010E-009  0.9118800E+02  0.7561462E-02  0.1125453E+00
         25   -1    0    0    0    0  0.00000000000E+00  0.00000000000E+00  0.99999998245E-14  0.12509000000E+03  0.12509000000E+03 0.  0.
        -13    1    3    3    0    0  0.31393150645E+02 -0.84372771549E+01  0.14610266857E+02  0.35639705595E+02  0.10566000000E+00 0.  1.
         23    2    1    0    0    0 -0.24851154979E+02  0.11025751724E+02 -0.30773966988E+01  0.97729125099E+02  0.93820916737E+02 0.  0.
         13    1    3    3    0    0 -0.56244305625E+02  0.19463028879E+02 -0.17687663556E+02  0.62089419505E+02  0.10566000000E+00 0. -1.
         22    1    1    0    0    0  0.24851154979E+02 -0.11025751724E+02  0.30773966988E+01  0.27360874901E+02  0.00000000000E+00 0. -1.
</event>
<event>
 5    1  0.1261010E-009  0.9118800E+02  0.7561462E-02  0.1125453E+00
         25   -1    0    0    0    0  0.00000000000E+00  0.00000000000E+00  0.99999998245E-14  0.12509000000E+03  0.12509000000E+03 0.  0.
        -13    1    3    3    0    0  0.51533160649E+02 -0.96992620591E+01 -0.49722974675E+01  0.52673306685E+02  0.10566000000E+00 0. -1.
         23    2    1    0    0    0  0.20808899623E+02 -0.73485829569E+01 -0.26754046269E+02  0.90408723110E+02  0.83492192734E+02 0.  0.
         13    1    3    3    0    0 -0.30724261026E+02  0.23506791022E+01 -0.21781748801E+02  0.37735416425E+02  0.10566000000E+00 0.  1.
         22    1    1    0    0    0 -0.20808899623E+02  0.73485829569E+01  0.26754046269E+02  0.34681276890E+02  0.00000000000E+00 0. -1.
</event>
<event>
 5    1  0.1261010E-009  0.9118800E+02  0.7561462E-02  0.1125453E+00
         25   -1    0    0    0    0  0.00000000000E+00  0.00000000000E+00  0.99999998245E-14  0.12509000000E+03  0.12509000000E+03 0.  0.
        -13    1    3    3    0    0  0.56982014515E+01  0.31017166921E+02 -0.34079775994E+02  0.46432493358E+02  0.10566000000E+00 0.  1.
         23    2    1    0    0    0 -0.12970571389E+02  0.20374211442E+02  0.12619779620E+02  0.97839255942E+02  0.93967637788E+02 0.  0.
         13    1    3    3    0    0 -0.18668772841E+02 -0.10642955478E+02  0.46699555615E+02  0.51406762584E+02  0.10566000000E+00 0. -1.
         22    1    1    0    0    0  0.12970571389E+02 -0.20374211442E+02 -0.12619779620E+02  0.27250744058E+02  0.00000000000E+00 0. -1.
</event>
<event>
 5    1  0.1261010E-009  0.9118800E+02  0.7561462E-02  0.1125453E+00
         25   -1    0    0    0    0  0.00000000000E+00  0.00000000000E+00  0.99999998245E-14  0.12509000000E+03  0.12509000000E+03 0.  0.
        -13    1    3    3    0    0 -0.32985980919E+02  0.18648123005E+01  0.29639970143E+02  0.44385712298E+02  0.10566000000E+00 0. -1.
         23    2    1    0    0    0  0.43233717504E+01  0.28366338905E+02  0.64917358190E+01  0.95670901440E+02  0.91035366876E+02 0.  0.
         13    1    3    3    0    0  0.37309352669E+02  0.26501526604E+02 -0.23148234324E+02  0.51285189142E+02  0.10566000000E+00 0.  1.
         22    1    1    0    0    0 -0.43233717504E+01 -0.28366338905E+02 -0.64917358190E+01  0.29419098560E+02  0.00000000000E+00 0.  1.
</event>
<event>
 5    1  0.1261010E-009  0.9118800E+02  0.7561462E-02  0.1125453E+00
         25   -1    0    0    0    0  0.00000000000E+00  0.00000000000E+00  0.99999998245E-14  0.12509000000E+03  0.12509000000E+03 0.  0.
        -13    1    3    3    0    0 -0.13844068939E+02  0.17608382272E+02 -0.45656531432E+02  0.50855121644E+02  0.10566000000E+00 0. -1.
         23    2    1    0    0    0 -0.10445520271E+02  0.25187434536E+02  0.56450156983E+00  0.97816672109E+02  0.93937569312E+02 0.  0.
         13    1    3    3    0    0  0.33985486677E+01  0.75790522639E+01  0.46221033002E+02  0.46961550465E+02  0.10566000000E+00 0.  1.
         22    1    1    0    0    0  0.10445520271E+02 -0.25187434536E+02 -0.56450156983E+00  0.27273327891E+02  0.00000000000E+00 0. -1.
</event>
<event>
 5    1  0.1261010E-009  0.9118800E+02  0.7561462E-02  0.1125453E+00
         25   -1    0    0    0    0  0.00000000000E+00  0.00000000000E+00  0.99999998245E-14  0.12509000000E+03  0.12509000000E+03 0.  0.
        -13    1    3    3    0    0 -0.31230482305E+02 -0.14910237227E+02  0.91310140569E+01  0.35791685919E+02  0.10566000000E+00 0.  1.
         23    2    1    0    0    0 -0.86706813769E+01  0.31032550687E+02 -0.11361306152E+02  0.90924532125E+02  0.84261446385E+02 0.  0.
         13    1    3    3    0    0  0.22559800928E+02  0.45942787914E+02 -0.20492320209E+02  0.55132846206E+02  0.10566000000E+00 0. -1.
         22    1    1    0    0    0  0.86706813769E+01 -0.31032550687E+02  0.11361306152E+02  0.34165467875E+02  0.00000000000E+00 0. -1.
</event>
<event>
 5    1  0.1261010E-009  0.9118800E+02  0.7561462E-02  0.1125453E+00
         25   -1    0    0    0    0  0.00000000000E+00  0.00000000000E+00  0.99999998245E-14  0.12509000000E+03  0.12509000000E+03 0.  0.
        -13    1    3    3    0    0 -0.19801298219E+02  0.36230268463E+02 -0.22122426735E+02  0.46841612832E+02  0.10566000000E+00 0.  1.
         23    2    1    0    0    0  0.16028094855E+02  0.31219980902E+01 -0.24457974098E+02  0.95681851576E+02  0.91050412011E+02 0.  0.
         13    1    3    3    0    0  0.35829393074E+02 -0.33108270372E+02 -0.23355473625E+01  0.48840238744E+02  0.10566000000E+00 0. -1.
         22    1    1    0    0    0 -0.16028094855E+02 -0.31219980902E+01  0.24457974098E+02  0.29408148424E+02  0.00000000000E+00 0. -1.
</event>
<event>
 5    1  0.1261010E-009  0.9118800E+02  0.7561462E-02  0.1125453E+00
         25   -1    0    0    0    0  0.00000000000E+00  0.00000000000E+00  0.99999998245E-14  0.12509000000E+03  0.12509000000E+03 0.  0.
        -13    1    3    3    0    0 -0.27076007416E+02 -0.51728545032E+02  0.21667723987E+02  0.62277234810E+02  0.10566000000E+00 0. -1.
         23    2    1    0    0    0 -0.12487407573E+02 -0.22544006486E+02  0.13867088677E+02  0.95824598504E+02  0.91246314741E+02 0.  0.
         13    1    3    3    0    0  0.14588599843E+02  0.29184538547E+02 -0.78006353096E+01  0.33547363694E+02  0.10566000000E+00 0.  1.
         22    1    1    0    0    0  0.12487407573E+02  0.22544006486E+02 -0.13867088677E+02  0.29265401496E+02  0.00000000000E+00 0. -1.
</event>
<event>
 5    1  0.1261010E-009  0.9118800E+02  0.7561462E-02  0.1125453E+00
         25   -1    0    0    0    0  0.00000000000E+00  0.00000000000E+00  0.99999998245E-14  0.12509000000E+03  0.12509000000E+03 0.  0.
        -13    1    3    3    0    0 -0.57321367837E+02  0.42361412025E+01  0.20441089431E+02  0.61004372009E+02  0.10566000000E+00 0.  1.
         23    2    1    0    0    0 -0.26313349193E+02 -0.75524069033E+01  0.11762350772E+02  0.95294294077E+02  0.90516398471E+02 0.  0.
         13    1    3    3    0    0  0.31008018644E+02 -0.11788548106E+02 -0.86787386595E+01  0.34289922068E+02  0.10566000000E+00 0. -1.
         22    1    1    0    0    0  0.26313349193E+02  0.75524069033E+01 -0.11762350772E+02  0.29795705923E+02  0.00000000000E+00 0.  1.
</event>
<event>
 5    1  0.1261010E-009  0.9118800E+02  0.7561462E-02  0.1125453E+00
         25   -1    0    0    0    0  0.00000000000E+00  0.00000000000E+00  0.99999998245E-14  0.12509000000E+03  0.12509000000E+03 0.  0.
        -13    1    3    3    0    0  0.36750692531E+02 -0.22545928683E+02 -0.40928534328E+02  0.59448199199E+02  0.10566000000E+00 0. -1.
         23    2    1    0    0    0  0.11506556589E+02 -0.22477147626E+02 -0.14609260684E+02  0.95917178613E+02  0.91373145100E+02 0.  0.
         13    1    3    3    0    0 -0.25244135943E+02  0.68781057476E-01  0.26319273644E+02  0.36468979414E+02  0.10566000000E+00 0.  1.
         22    1    1    0    0    0 -0.11506556589E+02  0.22477147626E+02  0.14609260684E+02  0.29172821387E+02  0.00000000000E+00 0. -1.
</event>
<event>
 5    1  0.1261010E-009  0.9118800E+02  0.7561462E-02  0.1125453E+00
         25   -1    0    0    0    0  0.00000000000E+00  0.00000000000E+00  0.99999998245E-14  0.12509000000E+03  0.12509000000E+03 0.  0.
        -13    1    3    3    0    0 -0.23263954657E+02 -0.24872597272E+02  0.76942821680E+01  0.34915194736E+02  0.10566000000E+00 0. -1.
         23    2    1    0    0    0  0.49819307100E+00  0.36839421633E+01 -0.34073687586E+02  0.90814122012E+02  0.84097377752E+02 0.  0.
         13    1    3    3    0    0  0.23762147728E+02  0.28556539436E+02 -0.41767969754E+02  0.55898927275E+02  0.10566000000E+00 0.  1.
         22    1    1    0    0    0 -0.49819307100E+00 -0.36839421633E+01  0.34073687586E+02  0.34275877988E+02  0.00000000000E+00 0.  1.
</event>
<event>
 5    1  0.1261010E-009  0.9118800E+02  0.7561462E-02  0.1125453E+00
         25   -1    0    0    0    0  0.00000000000E+00  0.00000000000E+00  0.99999998245E-14  0.12509000000E+03  0.12509000000E+03 0.  0.
        -13    1    3    3    0    0  0.53875528437E+02 -0.25694488110E+02 -0.41658479009E+01  0.59834310695E+02  0.10566000000E+00 0.  1.
         23    2    1    0    0    0  0.18536814903E+02 -0.20995931200E+02  0.49898161994E+01  0.96641082633E+02  0.92358854221E+02 0.  0.
         13    1    3    3    0    0 -0.35338713534E+02  0.46985569108E+01  0.91556641004E+01  0.36806771937E+02  0.10566000000E+00 0. -1.
         22    1    1    0    0    0 -0.18536814903E+02  0.20995931200E+02 -0.49898161994E+01  0.28448917367E+02  0.00000000000E+00 0.  1.
</event>
<event>
 5    1  0.1261010E-009  0.9118800E+02  0.7561462E-02  0.1125453E+00
         25   -1    0    0    0    0  0.00000000000E+00  0.00000000000E+00  0.99999998245E-14  0.12509000000E+03  0.12509000000E+03 0.  0.
        -13    1    3    3    0    0  0.23060060483E+02 -0.32149465745E+02 -0.89724683161E+01  0.40569334341E+02  0.10566000000E+00 0. -1.
         23    2    1    0    0    0 -0.22756716279E+02 -0.36484587594E+01 -0.18716244942E+02  0.95400318091E+02  0.90662800972E+02 0.  0.
         13    1    3    3    0    0 -0.45816776762E+02  0.28501006986E+02 -0.97437766255E+01  0.54830983750E+02  0.10566000000E+00 0.  1.
         22    1    1    0    0    0  0.22756716279E+02  0.36484587594E+01  0.18716244942E+02  0.29689681909E+02  0.00000000000E+00 0.  1.
</event>
<event>
 5    1  0.1261010E-009  0.9118800E+02  0.7561462E-02  0.1125453E+00
         25   -1    0    0    0    0  0.00000000000E+00  0.00000000000E+00  0.99999998245E-14  0.12509000000E+03  0.12509000000E+03 0.  0.
        -13    1    3    3    0    0 -0.30174621030E+02  0.75302975839E+01 -0.10856638604E+02  0.32940717992E+02  0.10566000000E+00 0.  1.
         23    2    1    0    0    0  0.22092448646E+02 -0.12348844643E+02  0.16176904992E+02  0.95052315230E+02  0.90181373489E+02 0.  0.
         13    1    3    3    0    0  0.52267069676E+02 -0.19879142227E+02  0.27033543595E+02  0.62111597239E+02  0.10566000000E+00 0. -1.
         22    1    1    0    0    0 -0.22092448646E+02  0.12348844643E+02 -0.16176904992E+02  0.30037684770E+02  0.00000000000E+00 0. -1.
</event>
<event>
 5    1  0.1261010E-009  0.9118800E+02  0.7561462E-02  0.1125453E+00
         25   -1    0    0    0    0  0.00000000000E+00  0.00000000000E+00  0.99999998245E-14  0.12509000000E+03  0.12509000000E+03 0.  0.
        -13    1    3    3    0    0 -0.32295943464E+02 -0.28084612359E+02  0.12124760105E+02  0.44483641794E+02  0.10566000000E+00 0. -1.
         23    2    1    0    0    0 -0.53895365206E+01  0.12302259494E+02  0.26740617979E+02  0.95165873572E+02  0.90338752207E+02 0.  0.
         13    1    3    3    0    0  0.26906406943E+02  0.40386871852E+02  0.14615857874E+02  0.50682231779E+02  0.10566000000E+00 0.  1.
         22    1    1    0    0    0  0.53895365206E+01 -0.12302259494E+02 -0.26740617979E+02  0.29924126428E+02  0.00000000000E+00 0. -1.
</event>
<event>
 5    1  0.1261010E-009  0.9118800E+02  0.7561462E-02  0.1125453E+00
         25   -1    0    0    0    0  0.00000000000E+00  0.00000000000E+00  0.99999998245E-14  0.12509000000E+03  0.12509000000E+03 0.  0.
        -13    1    3    3    0    0 -0.77425090125E+01 -0.16683241007E+02 -0.26223816322E+02  0.32030870778E+02  0.10566000000E+00 0. -1.
         23    2    1    0    0    0  0.59873506939E+01  0.14977006838E+02  0.25920842612E+02  0.94560519430E+02  0.89496606924E+02 0.  0.
         13    1    3    3    0    0  0.13729859706E+02  0.31660247845E+02  0.52144658934E+02  0.62529648652E+02  0.10566000000E+00 0.  1.
         22    1    1    0    0    0 -0.59873506939E+01 -0.14977006838E+02 -0.25920842612E+02  0.30529480570E+02  0.00000000000E+00 0.  1.
</event>
<event>
 5    1  0.1261010E-009  0.9118800E+02  0.7561462E-02  0.1125453E+00
         25   -1    0    0    0    0  0.00000000000E+00  0.00000000000E+00  0.99999998245E-14  0.12509000000E+03  0.12509000000E+03 0.  0.
        -13    1    3    3    0    0  0.38694840294E+02 -0.11735370281E+02 -0.48088643981E+01  0.40720337938E+02  0.10566000000E+00 0. -1.
         23    2    1    0    0    0 -0.70320205833E+01 -0.14077123152E+02  0.25139487830E+02  0.95431804537E+02  0.90706233298E+02 0.  0.
         13    1    3    3    0    0 -0.45726860877E+02 -0.23417528717E+01  0.29948352229E+02  0.54711466599E+02  0.10566000000E+00 0.  1.
         22    1    1    0    0    0  0.70320205833E+01  0.14077123152E+02 -0.25139487830E+02  0.29658195463E+02  0.00000000000E+00 0. -1.
</event>
<event>
 5    1  0.1261010E-009  0.9118800E+02  0.7561462E-02  0.1125453E+00
         25   -1    0    0    0    0  0.00000000000E+00  0.00000000000E+00  0.99999998245E-14  0.12509000000E+03  0.12509000000E+03 0.  0.
        -13    1    3    3    0    0 -0.45132798889E+02  0.12390114408E+02  0.80784774800E+01  0.47494814802E+02  0.10566000000E+00 0.  1.
         23    2    1    0    0    0 -0.62997116970E+01  0.20078626008E+02 -0.20023407887E+02  0.96042203987E+02  0.91544145052E+02 0.  0.
         13    1    3    3    0    0  0.38833087192E+02  0.76885115999E+01 -0.28101885367E+02  0.48547389185E+02  0.10566000000E+00 0. -1.
         22    1    1    0    0    0  0.62997116970E+01 -0.20078626008E+02  0.20023407887E+02  0.29047796013E+02  0.00000000000E+00 0. -1.
</event>
<event>
 5    1  0.1261010E-009  0.9118800E+02  0.7561462E-02  0.1125453E+00
         25   -1    0    0    0    0  0.00000000000E+00  0.00000000000E+00  0.99999998245E-14  0.12509000000E+03  0.12509000000E+03 0.  0.
        -13    1    3    3    0    0  0.14620537949E+02 -0.20745044212E+02  0.23510442101E+01  0.25488341691E+02  0.10566000000E+00 0. -1.
         23    2    1    0    0    0 -0.39295794005E+02 -0.69720056898E+01  0.14823005365E+02  0.82516654138E+02  0.70685984695E+02 0.  0.
         13    1    3    3    0    0 -0.53916331954E+02  0.13773038522E+02  0.12471961155E+02  0.57028312447E+02  0.10566000000E+00 0.  1.
         22    1    1    0    0    0  0.39295794005E+02  0.69720056898E+01 -0.14823005365E+02  0.42573345862E+02  0.00000000000E+00 0.  1.
</event>
<event>
 5    1  0.1261010E-009  0.9118800E+02  0.7561462E-02  0.1125453E+00
         25   -1    0    0    0    0  0.00000000000E+00  0.00000000000E+00  0.99999998245E-14  0.12509000000E+03  0.12509000000E+03 0.  0.
        -13    1    3    3    0    0 -0.58488887745E+00 -0.28428546909E+02  0.16881468651E+02  0.33068406708E+02  0.10566000000E+00 0.  1.
         23    2    1    0    0    0 -0.21790482798E+01  0.22891035571E+02 -0.18628971549E+02  0.95496312466E+02  0.90795150491E+02 0.  0.
         13    1    3    3    0    0 -0.15941594023E+01  0.51319582480E+02 -0.35510440200E+02  0.62427905758E+02  0.10566000000E+00 0. -1.
         22    1    1    0    0    0  0.21790482798E+01 -0.22891035571E+02  0.18628971549E+02  0.29593687534E+02  0.00000000000E+00 0. -1.
</event>
<event>
 5    1  0.1261010E-009  0.9118800E+02  0.7561462E-02  0.1125453E+00
         25   -1    0    0    0    0  0.00000000000E+00  0.00000000000E+00  0.99999998245E-14  0.12509000000E+03  0.12509000000E+03 0.  0.
        -13    1    3    3    0    0 -0.96162338100E+01  0.51478918144E+02  0.21716423311E+01  0.52414484262E+02  0.10566000000E+00 0.  1.
         23    2    1    0    0    0 -0.22203606385E+02  0.11865399174E+02  0.14838642074E+02  0.95867181302E+02  0.91304673035E+02 0.  0.
         13    1    3    3    0    0 -0.12587372575E+02 -0.39613518970E+02  0.12666999743E+02  0.43452697040E+02  0.10566000000E+00 0. -1.
         22    1    1    0    0    0  0.22203606385E+02 -0.11865399174E+02 -0.14838642074E+02  0.29222818698E+02  0.00000000000E+00 0.  1.
</event>
<event>
 5    1  0.1261010E-009  0.9118800E+02  0.7561462E-02  0.1125453E+00
         25   -1    0    0    0    0  0.00000000000E+00  0.00000000000E+00  0.99999998245E-14  0.12509000000E+03  0.12509000000E+03 0.  0.
        -13    1    3    3    0    0 -0.35743085168E+02  0.38173731929E+01  0.47965949266E+02  0.59940670069E+02  0.10566000000E+00 0.  1.
         23    2    1    0    0    0 -0.25526841753E+02 -0.75119586810E+01  0.19979996712E+02  0.91814642124E+02  0.85572653732E+02 0.  0.
         13    1    3    3    0    0  0.10216243414E+02 -0.11329331874E+02 -0.27985952553E+02  0.31873972055E+02  0.10566000000E+00 0. -1.
         22    1    1    0    0    0  0.25526841753E+02  0.75119586810E+01 -0.19979996712E+02  0.33275357876E+02  0.00000000000E+00 0.  1.
</event>
<event>
 5    1  0.1261010E-009  0.9118800E+02  0.7561462E-02  0.1125453E+00
         25   -1    0    0    0    0  0.00000000000E+00  0.00000000000E+00  0.99999998245E-14  0.12509000000E+03  0.12509000000E+03 0.  0.
        -13    1    3    3    0    0  0.22757948321E+01  0.22943192334E+01  0.22361184654E+02  0.22593735548E+02  0.10566000000E+00 0. -1.
         23    2    1    0    0    0 -0.99255265602E+01  0.75348333864E+01 -0.38363416365E+02  0.84753397430E+02  0.74539230403E+02 0.  0.
         13    1    3    3    0    0 -0.12201321392E+02  0.52405141529E+01 -0.60724601019E+02  0.62159661882E+02  0.10566000000E+00 0.  1.
         22    1    1    0    0    0  0.99255265602E+01 -0.75348333864E+01  0.38363416365E+02  0.40336602570E+02  0.00000000000E+00 0.  1.
</event>
<event>
 5    1  0.1261010E-009  0.9118800E+02  0.7561462E-02  0.1125453E+00
         25   -1    0    0    0    0  0.00000000000E+00  0.00000000000E+00  0.99999998245E-14  0.12509000000E+03  0.12509000000E+03 0.  0.
        -13    1    3    3    0    0  0.27340268992E+02  0.49080913795E+02 -0.20946379594E+02  0.59959889840E+02  0.10566000000E+00 0. -1.
         23    2    1    0    0    0  0.42435355432E+01  0.26917010621E+02 -0.18682871641E+02  0.92050890638E+02  0.85917307452E+02 0.  0.
         13    1    3    3    0    0 -0.23096733449E+02 -0.22163903174E+02  0.22635079532E+01  0.32091000798E+02  0.10566000000E+00 0.  1.
         22    1    1    0    0    0 -0.42435355432E+01 -0.26917010621E+02  0.18682871641E+02  0.33039109362E+02  0.00000000000E+00 0. -1.
</event>
<event>
 5    1  0.1261010E-009  0.9118800E+02  0.7561462E-02  0.1125453E+00
         25   -1    0    0    0    0  0.00000000000E+00  0.00000000000E+00  0.99999998245E-14  0.12509000000E+03  0.12509000000E+03 0.  0.
        -13    1    3    3    0    0  0.38739750331E+02  0.17566625148E+02 -0.26877964712E+02  0.50316902984E+02  0.10566000000E+00 0.  1.
         23    2    1    0    0    0  0.22970896206E+02 -0.18098849779E+02 -0.38800162731E+01  0.95589407428E+02  0.90923318517E+02 0.  0.
         13    1    3    3    0    0 -0.15768854125E+02 -0.35665474927E+02  0.22997948439E+02  0.45272504444E+02  0.10566000000E+00 0. -1.
         22    1    1    0    0    0 -0.22970896206E+02  0.18098849779E+02  0.38800162731E+01  0.29500592572E+02  0.00000000000E+00 0. -1.
</event>
<event>
 5    1  0.1261010E-009  0.9118800E+02  0.7561462E-02  0.1125453E+00
         25   -1    0    0    0    0  0.00000000000E+00  0.00000000000E+00  0.99999998245E-14  0.12509000000E+03  0.12509000000E+03 0.  0.
        -13    1    3    3    0    0 -0.75122030702E+01 -0.20102753307E+02 -0.40351989294E+02  0.45703917660E+02  0.10566000000E+00 0. -1.
         23    2    1    0    0    0  0.35689226782E+01 -0.36243090101E+02 -0.21770311528E+01  0.88606603039E+02  0.80747085696E+02 0.  0.
         13    1    3    3    0    0  0.11081125748E+02 -0.16140336794E+02  0.38174958141E+02  0.42902685379E+02  0.10566000000E+00 0.  1.
         22    1    1    0    0    0 -0.35689226782E+01  0.36243090101E+02  0.21770311528E+01  0.36483396961E+02  0.00000000000E+00 0. -1.
</event>
<event>
 5    1  0.1261010E-009  0.9118800E+02  0.7561462E-02  0.1125453E+00
         25   -1    0    0    0    0  0.00000000000E+00  0.00000000000E+00  0.99999998245E-14  0.12509000000E+03  0.12509000000E+03 0.  0.
        -13    1    3    3    0    0  0.63611465370E+01  0.46425055118E+02 -0.15259677383E+02  0.49281019123E+02  0.10566000000E+00 0. -1.
         23    2    1    0    0    0  0.14375923174E+02  0.98908986755E+00 -0.24812062187E+02  0.96397075858E+02  0.92027780252E+02 0.  0.
         13    1    3    3    0    0  0.80147766371E+01 -0.45435965250E+02 -0.95523848034E+01  0.47116056735E+02  0.10566000000E+00 0.  1.
         22    1    1    0    0    0 -0.14375923174E+02 -0.98908986755E+00  0.24812062187E+02  0.28692924142E+02  0.00000000000E+00 0.  1.
</event>
<event>
 5    1  0.1261010E-009  0.9118800E+02  0.7561462E-02  0.1125453E+00
         25   -1    0    0    0    0  0.00000000000E+00  0.00000000000E+00  0.99999998245E-14  0.12509000000E+03  0.12509000000E+03 0.  0.
        -13    1    3    3    0    0  0.16066793050E+02  0.30174582649E+02  0.51628474192E+02  0.61920576454E+02  0.10566000000E+00 0.  1.
         23    2    1    0    0    0  0.28439875270E+01  0.10863535795E+02  0.26754150538E+02  0.96074672222E+02  0.91588500351E+02 0.  0.
         13    1    3    3    0    0 -0.13222805523E+02 -0.19311046854E+02 -0.24874323653E+02  0.34154095768E+02  0.10566000000E+00 0. -1.
         22    1    1    0    0    0 -0.28439875270E+01 -0.10863535795E+02 -0.26754150538E+02  0.29015327778E+02  0.00000000000E+00 0.  1.
</event>
<event>
 5    1  0.1261010E-009  0.9118800E+02  0.7561462E-02  0.1125453E+00
         25   -1    0    0    0    0  0.00000000000E+00  0.00000000000E+00  0.99999998245E-14  0.12509000000E+03  0.12509000000E+03 0.  0.
        -13    1    3    3    0    0  0.23912452367E+02 -0.23978616561E+01  0.17015037267E+02  0.29446184405E+02  0.10566000000E+00 0.  1.
         23    2    1    0    0    0 -0.17273055569E+02  0.27906144915E+02 -0.14174044623E+02  0.89340665549E+02  0.81876367817E+02 0.  0.
         13    1    3    3    0    0 -0.41185507937E+02  0.30304006571E+02 -0.31189081891E+02  0.59894481144E+02  0.10566000000E+00 0. -1.
         22    1    1    0    0    0  0.17273055569E+02 -0.27906144915E+02  0.14174044623E+02  0.35749334451E+02  0.00000000000E+00 0. -1.
</event>
<event>
 5    1  0.1261010E-009  0.9118800E+02  0.7561462E-02  0.1125453E+00
         25   -1    0    0    0    0  0.00000000000E+00  0.00000000000E+00  0.99999998245E-14  0.12509000000E+03  0.12509000000E+03 0.  0.
        -13    1    3    3    0    0 -0.17119483396E+02 -0.13440763748E+02  0.31419376714E+02  0.38221973248E+02  0.10566000000E+00 0. -1.
         23    2    1    0    0    0  0.92270016959E+01  0.26509247565E+02 -0.25456240100E+01  0.96905643198E+02  0.92716480279E+02 0.  0.
         13    1    3    3    0    0  0.26346485092E+02  0.39950011313E+02 -0.33965000724E+02  0.58683669950E+02  0.10566000000E+00 0.  1.
         22    1    1    0    0    0 -0.92270016959E+01 -0.26509247565E+02  0.25456240100E+01  0.28184356802E+02  0.00000000000E+00 0.  1.
</event>
<event>
 5    1  0.1261010E-009  0.9118800E+02  0.7561462E-02  0.1125453E+00
         25   -1    0    0    0    0  0.00000000000E+00  0.00000000000E+00  0.99999998245E-14  0.12509000000E+03  0.12509000000E+03 0.  0.
        -13    1    3    3    0    0 -0.17400048684E+02  0.50634170461E+02  0.11722763803E+02  0.54808897706E+02  0.10566000000E+00 0.  1.
         23    2    1    0    0    0 -0.87698796573E+01  0.26420941956E+02 -0.16295822734E+02  0.92832740327E+02  0.87048187086E+02 0.  0.
         13    1    3    3    0    0  0.86301690267E+01 -0.24213228506E+02 -0.28018586537E+02  0.38023842621E+02  0.10566000000E+00 0. -1.
         22    1    1    0    0    0  0.87698796573E+01 -0.26420941956E+02  0.16295822734E+02  0.32257259673E+02  0.00000000000E+00 0.  1.
</event>
<event>
 5    1  0.1261010E-009  0.9118800E+02  0.7561462E-02  0.1125453E+00
         25   -1    0    0    0    0  0.00000000000E+00  0.00000000000E+00  0.99999998245E-14  0.12509000000E+03  0.12509000000E+03 0.  0.
        -13    1    3    3    0    0 -0.22254911727E+02  0.53469499334E+01  0.47092768284E+02  0.52360394940E+02  0.10566000000E+00 0. -1.
         23    2    1    0    0    0 -0.22394565794E+02  0.80254025031E+01 -0.17123804787E+01  0.10123929960E+03  0.98389734603E+02 0.  0.
         13    1    3    3    0    0 -0.13965406705E+00  0.26784525698E+01 -0.48805148763E+02  0.48878904665E+02  0.10566000000E+00 0.  1.
         22    1    1    0    0    0  0.22394565794E+02 -0.80254025031E+01  0.17123804787E+01  0.23850700395E+02  0.00000000000E+00 0.  1.
</event>
<event>
 5    1  0.1261010E-009  0.9118800E+02  0.7561462E-02  0.1125453E+00
         25   -1    0    0    0    0  0.00000000000E+00  0.00000000000E+00  0.99999998245E-14  0.12509000000E+03  0.12509000000E+03 0.  0.
        -13    1    3    3    0    0 -0.12101429876E+02  0.28291315024E+01  0.40787756093E+02  0.42639193252E+02  0.10566000000E+00 0.  1.
         23    2    1    0    0    0  0.27356124335E+02  0.10119353526E+02  0.70037314646E+01  0.95093148351E+02  0.90237995072E+02 0.  0.
         13    1    3    3    0    0  0.39457554210E+02  0.72902220240E+01 -0.33784024628E+02  0.52453955099E+02  0.10566000000E+00 0. -1.
         22    1    1    0    0    0 -0.27356124335E+02 -0.10119353526E+02 -0.70037314646E+01  0.29996851649E+02  0.00000000000E+00 0. -1.
</event>
<event>
 5    1  0.1261010E-009  0.9118800E+02  0.7561462E-02  0.1125453E+00
         25   -1    0    0    0    0  0.00000000000E+00  0.00000000000E+00  0.99999998245E-14  0.12509000000E+03  0.12509000000E+03 0.  0.
        -13    1    3    3    0    0 -0.30464361817E+02  0.38171913730E+02  0.38204406892E+02  0.62006130412E+02  0.10566000000E+00 0. -1.
         23    2    1    0    0    0 -0.11022115459E+02  0.22494191376E+02  0.16505625930E+02  0.95091477333E+02  0.90235678638E+02 0.  0.
         13    1    3    3    0    0  0.19442246357E+02 -0.15677722355E+02 -0.21698780962E+02  0.33085346921E+02  0.10566000000E+00 0.  1.
         22    1    1    0    0    0  0.11022115459E+02 -0.22494191376E+02 -0.16505625930E+02  0.29998522667E+02  0.00000000000E+00 0. -1.
</event>
<event>
 5    1  0.1261010E-009  0.9118800E+02  0.7561462E-02  0.1125453E+00
         25   -1    0    0    0    0  0.00000000000E+00  0.00000000000E+00  0.99999998245E-14  0.12509000000E+03  0.12509000000E+03 0.  0.
        -13    1    3    3    0    0  0.23994484113E+02 -0.47997993348E+02 -0.16332454271E+02  0.56091914389E+02  0.10566000000E+00 0.  1.
         23    2    1    0    0    0  0.23016271561E+02 -0.69205038577E+01 -0.14063004756E+02  0.97243811159E+02  0.93171608206E+02 0.  0.
         13    1    3    3    0    0 -0.97821255173E+00  0.41077489490E+02  0.22694495159E+01  0.41151896770E+02  0.10566000000E+00 0. -1.
         22    1    1    0    0    0 -0.23016271561E+02  0.69205038577E+01  0.14063004756E+02  0.27846188841E+02  0.00000000000E+00 0. -1.
</event>
<event>
 5    1  0.1261010E-009  0.9118800E+02  0.7561462E-02  0.1125453E+00
         25   -1    0    0    0    0  0.00000000000E+00  0.00000000000E+00  0.99999998245E-14  0.12509000000E+03  0.12509000000E+03 0.  0.
        -13    1    3    3    0    0  0.32393244457E+02  0.15533148579E+02 -0.56959764016E+00  0.35929606131E+02  0.10566000000E+00 0.  1.
         23    2    1    0    0    0 -0.20633158689E+02 -0.14594095586E+02 -0.10504780911E+02  0.97720942920E+02  0.93810006927E+02 0.  0.
         13    1    3    3    0    0 -0.53026403146E+02 -0.30127244164E+02 -0.99351832711E+01  0.61791336789E+02  0.10566000000E+00 0. -1.
         22    1    1    0    0    0  0.20633158689E+02  0.14594095586E+02  0.10504780911E+02  0.27369057080E+02  0.00000000000E+00 0. -1.
</event>
<event>
 5    1  0.1261010E-009  0.9118800E+02  0.7561462E-02  0.1125453E+00
         25   -1    0    0    0    0  0.00000000000E+00  0.00000000000E+00  0.99999998245E-14  0.12509000000E+03  0.12509000000E+03 0.  0.
        -13    1    3    3    0    0 -0.19875840184E+01  0.43050817880E+02  0.35239536807E+02  0.55670095462E+02  0.10566000000E+00 0. -1.
         23    2    1    0    0    0  0.13905115863E+02  0.23527334099E+02  0.15629765459E+01  0.97716096503E+02  0.93803544300E+02 0.  0.
         13    1    3    3    0    0  0.15892699882E+02 -0.19523483781E+02 -0.33676560261E+02  0.42046001041E+02  0.10566000000E+00 0.  1.
         22    1    1    0    0    0 -0.13905115863E+02 -0.23527334099E+02 -0.15629765459E+01  0.27373903497E+02  0.00000000000E+00 0. -1.
</event>
<event>
 5    1  0.1261010E-009  0.9118800E+02  0.7561462E-02  0.1125453E+00
         25   -1    0    0    0    0  0.00000000000E+00  0.00000000000E+00  0.99999998245E-14  0.12509000000E+03  0.12509000000E+03 0.  0.
        -13    1    3    3    0    0 -0.15685254770E+02 -0.18394834161E+02  0.33969564888E+02  0.41693400481E+02  0.10566000000E+00 0. -1.
         23    2    1    0    0    0 -0.24681907383E+02  0.70559908975E+01 -0.13338142315E+02  0.96160955771E+02  0.91706269223E+02 0.  0.
         13    1    3    3    0    0 -0.89966526128E+01  0.25450825058E+02 -0.47307707203E+02  0.54467555289E+02  0.10566000000E+00 0.  1.
         22    1    1    0    0    0  0.24681907383E+02 -0.70559908975E+01  0.13338142315E+02  0.28929044229E+02  0.00000000000E+00 0.  1.
</event>
<event>
 5    1  0.1261010E-009  0.9118800E+02  0.7561462E-02  0.1125453E+00
         25   -1    0    0    0    0  0.00000000000E+00  0.00000000000E+00  0.99999998245E-14  0.12509000000E+03  0.12509000000E+03 0.  0.
        -13    1    3    3    0    0 -0.10512965789E+02  0.33548558444E+02  0.52180129097E+01  0.35542468205E+02  0.10566000000E+00 0.  1.
         23    2    1    0    0    0  0.27269262187E+02  0.15661702812E+02 -0.23132076877E+02  0.86051626881E+02  0.76686947475E+02 0.  0.
         13    1    3    3    0    0  0.37782227976E+02 -0.17886855632E+02 -0.28350089786E+02  0.50509158676E+02  0.10566000000E+00 0. -1.
         22    1    1    0    0    0 -0.27269262187E+02 -0.15661702812E+02  0.23132076877E+02  0.39038373119E+02  0.00000000000E+00 0. -1.
</event>
<event>
 5    1  0.1261010E-009  0.9118800E+02  0.7561462E-02  0.1125453E+00
         25   -1    0    0    0    0  0.00000000000E+00  0.00000000000E+00  0.99999998245E-14  0.12509000000E+03  0.12509000000E+03 0.  0.
        -13    1    3    3    0    0  0.24541297075E+02  0.27515839492E+02 -0.18163831121E+01  0.36914862816E+02  0.10566000000E+00 0.  1.
         23    2    1    0    0    0  0.73416301524E+00 -0.25883890775E+02 -0.12478996450E+02  0.96345606644E+02  0.91957793418E+02 0.  0.
         13    1    3    3    0    0 -0.23807134060E+02 -0.53399730267E+02 -0.10662613338E+02  0.59430743828E+02  0.10566000000E+00 0. -1.
         22    1    1    0    0    0 -0.73416301524E+00  0.25883890775E+02  0.12478996450E+02  0.28744393356E+02  0.00000000000E+00 0. -1.
</event>
<event>
 5    1  0.1261010E-009  0.9118800E+02  0.7561462E-02  0.1125453E+00
         25   -1    0    0    0    0  0.00000000000E+00  0.00000000000E+00  0.99999998245E-14  0.12509000000E+03  0.12509000000E+03 0.  0.
        -13    1    3    3    0    0  0.32887135190E+02 -0.12390352029E+02 -0.37128276993E+02  0.51123425168E+02  0.10566000000E+00 0. -1.
         23    2    1    0    0    0  0.23987306866E+02 -0.19002045399E+02  0.44605584939E+01  0.94164845157E+02  0.88941851011E+02 0.  0.
         13    1    3    3    0    0 -0.88998283240E+01 -0.66116933697E+01  0.41588835487E+02  0.43041419989E+02  0.10566000000E+00 0.  1.
         22    1    1    0    0    0 -0.23987306866E+02  0.19002045399E+02 -0.44605584939E+01  0.30925154843E+02  0.00000000000E+00 0. -1.
</event>
<event>
 5    1  0.1261010E-009  0.9118800E+02  0.7561462E-02  0.1125453E+00
         25   -1    0    0    0    0  0.00000000000E+00  0.00000000000E+00  0.99999998245E-14  0.12509000000E+03  0.12509000000E+03 0.  0.
        -13    1    3    3    0    0 -0.37763193312E+02 -0.15337020319E+02 -0.34756313815E+02  0.53565805095E+02  0.10566000000E+00 0.  1.
         23    2    1    0    0    0 -0.18757303953E+02  0.16112392570E+02 -0.20460705624E+02  0.92995045248E+02  0.87281110901E+02 0.  0.
         13    1    3    3    0    0  0.19005889359E+02  0.31449412889E+02  0.14295608191E+02  0.39429240152E+02  0.10566000000E+00 0. -1.
         22    1    1    0    0    0  0.18757303953E+02 -0.16112392570E+02  0.20460705624E+02  0.32094954752E+02  0.00000000000E+00 0.  1.
</event>
<event>
 5    1  0.1261010E-009  0.9118800E+02  0.7561462E-02  0.1125453E+00
         25   -1    0    0    0    0  0.00000000000E+00  0.00000000000E+00  0.99999998245E-14  0.12509000000E+03  0.12509000000E+03 0.  0.
        -13    1    3    3    0    0 -0.34572514317E+02 -0.41615310340E+01 -0.66938688250E+00  0.34828671085E+02  0.10566000000E+00 0.  1.
         23    2    1    0    0    0  0.15815353262E+02  0.26432393253E+02 -0.47726596637E+01  0.93919900671E+02  0.88596685321E+02 0.  0.
         13    1    3    3    0    0  0.50387867579E+02  0.30593924287E+02 -0.41032727812E+01  0.59091229586E+02  0.10566000000E+00 0. -1.
         22    1    1    0    0    0 -0.15815353262E+02 -0.26432393253E+02  0.47726596637E+01  0.31170099329E+02  0.00000000000E+00 0. -1.
</event>
<event>
 5    1  0.1261010E-009  0.9118800E+02  0.7561462E-02  0.1125453E+00
         25   -1    0    0    0    0  0.00000000000E+00  0.00000000000E+00  0.99999998245E-14  0.12509000000E+03  0.12509000000E+03 0.  0.
        -13    1    3    3    0    0 -0.24789032496E+02  0.26061184894E+02 -0.13585918080E+01  0.35993588678E+02  0.10566000000E+00 0. -1.
         23    2    1    0    0    0  0.29330370388E+02  0.75558851889E+00 -0.14130483553E+00  0.95749558488E+02  0.91143383975E+02 0.  0.
         13    1    3    3    0    0  0.54119402883E+02 -0.25305596375E+02  0.12172869725E+01  0.59755969810E+02  0.10566000000E+00 0.  1.
         22    1    1    0    0    0 -0.29330370388E+02 -0.75558851889E+00  0.14130483553E+00  0.29340441512E+02  0.00000000000E+00 0.  1.
</event>
<event>
 5    1  0.1261010E-009  0.9118800E+02  0.7561462E-02  0.1125453E+00
         25   -1    0    0    0    0  0.00000000000E+00  0.00000000000E+00  0.99999998245E-14  0.12509000000E+03  0.12509000000E+03 0.  0.
        -13    1    3    3    0    0  0.22507977358E+02  0.39127220568E+02  0.19196685354E+02  0.49051731129E+02  0.10566000000E+00 0. -1.
         23    2    1    0    0    0  0.20935595573E+02 -0.68152952329E+01  0.20453567223E+02  0.95038447240E+02  0.90162135237E+02 0.  0.
         13    1    3    3    0    0 -0.15723817844E+01 -0.45942515801E+02  0.12568818695E+01  0.45986716111E+02  0.10566000000E+00 0.  1.
         22    1    1    0    0    0 -0.20935595573E+02  0.68152952329E+01 -0.20453567223E+02  0.30051552760E+02  0.00000000000E+00 0. -1.
</event>
<event>
 5    1  0.1261010E-009  0.9118800E+02  0.7561462E-02  0.1125453E+00
         25   -1    0    0    0    0  0.00000000000E+00  0.00000000000E+00  0.99999998245E-14  0.12509000000E+03  0.12509000000E+03 0.  0.
        -13    1    3    3    0    0  0.37860912517E+02 -0.39053282240E+02 -0.20441325745E+02  0.58107370553E+02  0.10566000000E+00 0.  1.
         23    2    1    0    0    0  0.88765734760E+01 -0.26561862726E+02  0.22718795161E+01  0.96992179005E+02  0.92833158103E+02 0.  0.
         13    1    3    3    0    0 -0.28984339041E+02  0.12491419514E+02  0.22713205261E+02  0.38884808452E+02  0.10566000000E+00 0. -1.
         22    1    1    0    0    0 -0.88765734760E+01  0.26561862726E+02 -0.22718795161E+01  0.28097820995E+02  0.00000000000E+00 0.  1.
</event>
<event>
 5    1  0.1261010E-009  0.9118800E+02  0.7561462E-02  0.1125453E+00
         25   -1    0    0    0    0  0.00000000000E+00  0.00000000000E+00  0.99999998245E-14  0.12509000000E+03  0.12509000000E+03 0.  0.
        -13    1    3    3    0    0 -0.36940085151E+02  0.18368343620E+01 -0.37021453433E+02  0.52331090470E+02  0.10566000000E+00 0.  1.
         23    2    1    0    0    0 -0.95083910046E+01  0.12814962971E+02 -0.39996754163E+02  0.82027567196E+02  0.69815103388E+02 0.  0.
         13    1    3    3    0    0  0.27431694146E+02  0.10978128609E+02 -0.29753007294E+01  0.29696476726E+02  0.10566000000E+00 0. -1.
         22    1    1    0    0    0  0.95083910046E+01 -0.12814962971E+02  0.39996754163E+02  0.43062432804E+02  0.00000000000E+00 0.  1.
</event>
<event>
 5    1  0.1261010E-009  0.9118800E+02  0.7561462E-02  0.1125453E+00
         25   -1    0    0    0    0  0.00000000000E+00  0.00000000000E+00  0.99999998245E-14  0.12509000000E+03  0.12509000000E+03 0.  0.
        -13    1    3    3    0    0  0.24969818456E+02  0.77614602576E+01 -0.28794100097E+02  0.38895288449E+02  0.10566000000E+00 0.  1.
         23    2    1    0    0    0 -0.27408123625E+02 -0.36038666483E+01 -0.10088082062E+02  0.95662759301E+02  0.91024178228E+02 0.  0.
         13    1    3    3    0    0 -0.52377942081E+02 -0.11365326906E+02  0.18706018035E+02  0.56767470853E+02  0.10566000000E+00 0. -1.
         22    1    1    0    0    0  0.27408123625E+02  0.36038666483E+01  0.10088082062E+02  0.29427240699E+02  0.00000000000E+00 0. -1.
</event>
<event>
 5    1  0.1261010E-009  0.9118800E+02  0.7561462E-02  0.1125453E+00
         25   -1    0    0    0    0  0.00000000000E+00  0.00000000000E+00  0.99999998245E-14  0.12509000000E+03  0.12509000000E+03 0.  0.
        -13    1    3    3    0    0 -0.41014429541E+02 -0.24766592001E+02 -0.32555224897E+02  0.57925998844E+02  0.10566000000E+00 0.  1.
         23    2    1    0    0    0 -0.16247128667E+02 -0.24077234086E+02 -0.39395538722E+01  0.95777844230E+02  0.91182196560E+02 0.  0.
         13    1    3    3    0    0  0.24767300874E+02  0.68935791527E+00  0.28615671025E+02  0.37851845386E+02  0.10566000000E+00 0. -1.
         22    1    1    0    0    0  0.16247128667E+02  0.24077234086E+02  0.39395538722E+01  0.29312155770E+02  0.00000000000E+00 0.  1.
</event>
<event>
 5    1  0.1261010E-009  0.9118800E+02  0.7561462E-02  0.1125453E+00
         25   -1    0    0    0    0  0.00000000000E+00  0.00000000000E+00  0.99999998245E-14  0.12509000000E+03  0.12509000000E+03 0.  0.
        -13    1    3    3    0    0  0.29490137827E+02 -0.42057580755E+01  0.25579406955E+02  0.39264154827E+02  0.10566000000E+00 0.  1.
         23    2    1    0    0    0  0.21469890891E+01 -0.80132544291E+01 -0.26017174747E+02  0.97782213738E+02  0.93891672330E+02 0.  0.
         13    1    3    3    0    0 -0.27343148738E+02 -0.38074963536E+01 -0.51596581702E+02  0.58518058912E+02  0.10566000000E+00 0. -1.
         22    1    1    0    0    0 -0.21469890891E+01  0.80132544291E+01  0.26017174747E+02  0.27307786262E+02  0.00000000000E+00 0. -1.
</event>
<event>
 5    1  0.1261010E-009  0.9118800E+02  0.7561462E-02  0.1125453E+00
         25   -1    0    0    0    0  0.00000000000E+00  0.00000000000E+00  0.99999998245E-14  0.12509000000E+03  0.12509000000E+03 0.  0.
        -13    1    3    3    0    0 -0.21799328283E+02 -0.27672431807E+02 -0.84594553472E+00  0.35237777790E+02  0.10566000000E+00 0.  1.
         23    2    1    0    0    0 -0.63458476079E+01  0.29331615375E+02 -0.58639189738E+01  0.94512246843E+02  0.89429110559E+02 0.  0.
         13    1    3    3    0    0  0.15453480675E+02  0.57004047182E+02 -0.50179734391E+01  0.59274469053E+02  0.10566000000E+00 0. -1.
         22    1    1    0    0    0  0.63458476079E+01 -0.29331615375E+02  0.58639189738E+01  0.30577753157E+02  0.00000000000E+00 0. -1.
</event>
<event>
 5    1  0.1261010E-009  0.9118800E+02  0.7561462E-02  0.1125453E+00
         25   -1    0    0    0    0  0.00000000000E+00  0.00000000000E+00  0.99999998245E-14  0.12509000000E+03  0.12509000000E+03 0.  0.
        -13    1    3    3    0    0 -0.51241968106E+02 -0.26322635127E+02  0.22421428122E+02  0.61817085167E+02  0.10566000000E+00 0.  1.
         23    2    1    0    0    0 -0.21575230790E+02 -0.10203575030E+02  0.16448625111E+02  0.96104472661E+02  0.91629192239E+02 0.  0.
         13    1    3    3    0    0  0.29666737316E+02  0.16119060096E+02 -0.59728030113E+01  0.34287387495E+02  0.10566000000E+00 0. -1.
         22    1    1    0    0    0  0.21575230790E+02  0.10203575030E+02 -0.16448625111E+02  0.28985527339E+02  0.00000000000E+00 0.  1.
</event>
<event>
 5    1  0.1261010E-009  0.9118800E+02  0.7561462E-02  0.1125453E+00
         25   -1    0    0    0    0  0.00000000000E+00  0.00000000000E+00  0.99999998245E-14  0.12509000000E+03  0.12509000000E+03 0.  0.
        -13    1    3    3    0    0  0.34413112220E+02 -0.36288010446E+02  0.27058780890E+02  0.56861857005E+02  0.10566000000E+00 0. -1.
         23    2    1    0    0    0  0.26693916273E+02 -0.13626175149E+01  0.13804115831E+02  0.95007189188E+02  0.90118757709E+02 0.  0.
         13    1    3    3    0    0 -0.77191959471E+01  0.34925392931E+02 -0.13254665060E+02  0.38145332183E+02  0.10566000000E+00 0.  1.
         22    1    1    0    0    0 -0.26693916273E+02  0.13626175149E+01 -0.13804115831E+02  0.30082810812E+02  0.00000000000E+00 0. -1.
</event>
<event>
 5    1  0.1261010E-009  0.9118800E+02  0.7561462E-02  0.1125453E+00
         25   -1    0    0    0    0  0.00000000000E+00  0.00000000000E+00  0.99999998245E-14  0.12509000000E+03  0.12509000000E+03 0.  0.
        -13    1    3    3    0    0  0.25848231298E+02  0.25771950071E+02  0.17282980312E+02  0.40386099640E+02  0.10566000000E+00 0. -1.
         23    2    1    0    0    0  0.30625980693E+02 -0.19596074097E+02  0.14020589906E+02  0.86121631357E+02  0.76801052290E+02 0.  0.
         13    1    3    3    0    0  0.47777493951E+01 -0.45368024168E+02 -0.32623904061E+01  0.45735531716E+02  0.10566000000E+00 0.  1.
         22    1    1    0    0    0 -0.30625980693E+02  0.19596074097E+02 -0.14020589906E+02  0.38968368643E+02  0.00000000000E+00 0.  1.
</event>
<event>
 5    1  0.1261010E-009  0.9118800E+02  0.7561462E-02  0.1125453E+00
         25   -1    0    0    0    0  0.00000000000E+00  0.00000000000E+00  0.99999998245E-14  0.12509000000E+03  0.12509000000E+03 0.  0.
        -13    1    3    3    0    0 -0.15087097915E+02 -0.27791270879E+02 -0.93512089498E+01  0.32976226792E+02  0.10566000000E+00 0.  1.
         23    2    1    0    0    0  0.20019972452E+02  0.76414958076E+01  0.23951476465E+02  0.92951783185E+02  0.87219086313E+02 0.  0.
         13    1    3    3    0    0  0.35107070368E+02  0.35432766686E+02  0.33302685415E+02  0.59975556394E+02  0.10566000000E+00 0. -1.
         22    1    1    0    0    0 -0.20019972452E+02 -0.76414958076E+01 -0.23951476465E+02  0.32138216815E+02  0.00000000000E+00 0. -1.
</event>
<event>
 5    1  0.1261010E-009  0.9118800E+02  0.7561462E-02  0.1125453E+00
         25   -1    0    0    0    0  0.00000000000E+00  0.00000000000E+00  0.99999998245E-14  0.12509000000E+03  0.12509000000E+03 0.  0.
        -13    1    3    3    0    0  0.28397476192E+02  0.37177928002E+02 -0.69727144666E+01  0.47299523208E+02  0.10566000000E+00 0.  1.
         23    2    1    0    0    0  0.73685877062E+01  0.98664729237E+01  0.26824678574E+02  0.95573788296E+02  0.90901827572E+02 0.  0.
         13    1    3    3    0    0 -0.21028888486E+02 -0.27311455078E+02  0.33797393041E+02  0.48274265088E+02  0.10566000000E+00 0. -1.
         22    1    1    0    0    0 -0.73685877062E+01 -0.98664729237E+01 -0.26824678574E+02  0.29516211704E+02  0.00000000000E+00 0. -1.
</event>
<event>
 5    1  0.1261010E-009  0.9118800E+02  0.7561462E-02  0.1125453E+00
         25   -1    0    0    0    0  0.00000000000E+00  0.00000000000E+00  0.99999998245E-14  0.12509000000E+03  0.12509000000E+03 0.  0.
        -13    1    3    3    0    0 -0.81763078893E+01 -0.55382241479E+02  0.23036061464E+02  0.60536897622E+02  0.10566000000E+00 0.  1.
         23    2    1    0    0    0 -0.11190204061E+02 -0.26864312928E+02  0.23553103614E+01  0.95893091552E+02  0.91340163918E+02 0.  0.
         13    1    3    3    0    0 -0.30138961721E+01  0.28517928551E+02 -0.20680751102E+02  0.35356193930E+02  0.10566000000E+00 0. -1.
         22    1    1    0    0    0  0.11190204061E+02  0.26864312928E+02 -0.23553103614E+01  0.29196908448E+02  0.00000000000E+00 0.  1.
</event>
<event>
 5    1  0.1261010E-009  0.9118800E+02  0.7561462E-02  0.1125453E+00
         25   -1    0    0    0    0  0.00000000000E+00  0.00000000000E+00  0.99999998245E-14  0.12509000000E+03  0.12509000000E+03 0.  0.
        -13    1    3    3    0    0 -0.48574637864E+02  0.25498070318E+02  0.26759410210E+02  0.61038710934E+02  0.10566000000E+00 0.  1.
         23    2    1    0    0    0 -0.17038800286E+02  0.19840532250E+02  0.11804492970E+02  0.96396560168E+02  0.92027079290E+02 0.  0.
         13    1    3    3    0    0  0.31535837578E+02 -0.56575380685E+01 -0.14954917241E+02  0.35357849234E+02  0.10566000000E+00 0. -1.
         22    1    1    0    0    0  0.17038800286E+02 -0.19840532250E+02 -0.11804492970E+02  0.28693439832E+02  0.00000000000E+00 0.  1.
</event>
<event>
 5    1  0.1261010E-009  0.9118800E+02  0.7561462E-02  0.1125453E+00
         25   -1    0    0    0    0  0.00000000000E+00  0.00000000000E+00  0.99999998245E-14  0.12509000000E+03  0.12509000000E+03 0.  0.
        -13    1    3    3    0    0  0.13218999291E+02 -0.50458268238E+02  0.21327046274E+02  0.56352753638E+02  0.10566000000E+00 0. -1.
         23    2    1    0    0    0  0.12767699780E+02 -0.28564733805E+02 -0.78485718986E+01  0.92832314778E+02  0.87047575562E+02 0.  0.
         13    1    3    3    0    0 -0.45129951063E+00  0.21893534432E+02 -0.29175618172E+02  0.36479561140E+02  0.10566000000E+00 0.  1.
         22    1    1    0    0    0 -0.12767699780E+02  0.28564733805E+02  0.78485718986E+01  0.32257685222E+02  0.00000000000E+00 0. -1.
</event>
<event>
 5    1  0.1261010E-009  0.9118800E+02  0.7561462E-02  0.1125453E+00
         25   -1    0    0    0    0  0.00000000000E+00  0.00000000000E+00  0.99999998245E-14  0.12509000000E+03  0.12509000000E+03 0.  0.
        -13    1    3    3    0    0 -0.31012249242E+02  0.33038805787E+02 -0.36225216631E+02  0.58013789524E+02  0.10566000000E+00 0.  1.
         23    2    1    0    0    0 -0.54865684881E+01  0.38680575615E+01 -0.26189248632E+02  0.98054078581E+02  0.94253176494E+02 0.  0.
         13    1    3    3    0    0  0.25525680754E+02 -0.29170748226E+02  0.10035967999E+02  0.40040289057E+02  0.10566000000E+00 0. -1.
         22    1    1    0    0    0  0.54865684881E+01 -0.38680575615E+01  0.26189248632E+02  0.27035921419E+02  0.00000000000E+00 0.  1.
</event>
<event>
 5    1  0.1261010E-009  0.9118800E+02  0.7561462E-02  0.1125453E+00
         25   -1    0    0    0    0  0.00000000000E+00  0.00000000000E+00  0.99999998245E-14  0.12509000000E+03  0.12509000000E+03 0.  0.
        -13    1    3    3    0    0  0.37326878401E+02  0.37851711569E+01 -0.48212378941E+02  0.61090654105E+02  0.10566000000E+00 0.  1.
         23    2    1    0    0    0  0.26297393583E+02  0.53846926205E+01 -0.19438016185E+02  0.91948118685E+02  0.85767547666E+02 0.  0.
         13    1    3    3    0    0 -0.11029484818E+02  0.15995214636E+01  0.28774362756E+02  0.30857464580E+02  0.10566000000E+00 0. -1.
         22    1    1    0    0    0 -0.26297393583E+02 -0.53846926205E+01  0.19438016185E+02  0.33141881315E+02  0.00000000000E+00 0.  1.
</event>
<event>
 5    1  0.1261010E-009  0.9118800E+02  0.7561462E-02  0.1125453E+00
         25   -1    0    0    0    0  0.00000000000E+00  0.00000000000E+00  0.99999998245E-14  0.12509000000E+03  0.12509000000E+03 0.  0.
        -13    1    3    3    0    0 -0.31365107990E+02 -0.78421642705E+01 -0.17026161282E+02  0.36539990034E+02  0.10566000000E+00 0. -1.
         23    2    1    0    0    0  0.14696256491E+02  0.25515530738E+02 -0.10693049229E+02  0.93763277134E+02  0.88375271277E+02 0.  0.
         13    1    3    3    0    0  0.46061364481E+02  0.33357695009E+02  0.63331120534E+01  0.57223287100E+02  0.10566000000E+00 0.  1.
         22    1    1    0    0    0 -0.14696256491E+02 -0.25515530738E+02  0.10693049229E+02  0.31326722866E+02  0.00000000000E+00 0.  1.
</event>
<event>
 5    1  0.1261010E-009  0.9118800E+02  0.7561462E-02  0.1125453E+00
         25   -1    0    0    0    0  0.00000000000E+00  0.00000000000E+00  0.99999998245E-14  0.12509000000E+03  0.12509000000E+03 0.  0.
        -13    1    3    3    0    0  0.29088904142E+01 -0.36997589777E+02  0.92499072760E+01  0.38247290642E+02  0.10566000000E+00 0. -1.
         23    2    1    0    0    0 -0.33095189843E+02 -0.34523409775E+02 -0.49088270252E+01  0.77014496924E+02  0.60166259152E+02 0.  0.
         13    1    3    3    0    0 -0.36004080258E+02  0.24741800023E+01 -0.14158734301E+02  0.38767206282E+02  0.10566000000E+00 0.  1.
         22    1    1    0    0    0  0.33095189843E+02  0.34523409775E+02  0.49088270252E+01  0.48075503076E+02  0.00000000000E+00 0. -1.
</event>
<event>
 5    1  0.1261010E-009  0.9118800E+02  0.7561462E-02  0.1125453E+00
         25   -1    0    0    0    0  0.00000000000E+00  0.00000000000E+00  0.99999998245E-14  0.12509000000E+03  0.12509000000E+03 0.  0.
        -13    1    3    3    0    0  0.37847082828E+02 -0.10295927328E+02  0.79755926413E+01  0.40025354966E+02  0.10566000000E+00 0.  1.
         23    2    1    0    0    0 -0.16998939297E+02 -0.22167813189E+02  0.75863509626E+01  0.96143003615E+02  0.91681778693E+02 0.  0.
         13    1    3    3    0    0 -0.54846022125E+02 -0.11871885861E+02 -0.38924167873E+00  0.56117648649E+02  0.10566000000E+00 0. -1.
         22    1    1    0    0    0  0.16998939297E+02  0.22167813189E+02 -0.75863509626E+01  0.28946996385E+02  0.00000000000E+00 0. -1.
</event>
<event>
 5    1  0.1261010E-009  0.9118800E+02  0.7561462E-02  0.1125453E+00
         25   -1    0    0    0    0  0.00000000000E+00  0.00000000000E+00  0.99999998245E-14  0.12509000000E+03  0.12509000000E+03 0.  0.
        -13    1    3    3    0    0  0.21240718779E+02 -0.24642113983E+02 -0.44308224788E+01  0.32833599676E+02  0.10566000000E+00 0.  1.
         23    2    1    0    0    0 -0.19887078652E+02  0.20241658205E+02  0.92777434323E+01  0.95235399896E+02  0.90434972472E+02 0.  0.
         13    1    3    3    0    0 -0.41127797430E+02  0.44883772188E+02  0.13708565911E+02  0.62401800220E+02  0.10566000000E+00 0. -1.
         22    1    1    0    0    0  0.19887078652E+02 -0.20241658205E+02 -0.92777434323E+01  0.29854600104E+02  0.00000000000E+00 0. -1.
</event>
<event>
 5    1  0.1261010E-009  0.9118800E+02  0.7561462E-02  0.1125453E+00
         25   -1    0    0    0    0  0.00000000000E+00  0.00000000000E+00  0.99999998245E-14  0.12509000000E+03  0.12509000000E+03 0.  0.
        -13    1    3    3    0    0 -0.67621479416E+01  0.20125901604E+02 -0.39419582547E+02  0.44773800512E+02  0.10566000000E+00 0. -1.
         23    2    1    0    0    0 -0.13821795744E+02  0.24241055660E+02  0.10438230790E+02  0.95296922296E+02  0.90520030490E+02 0.  0.
         13    1    3    3    0    0 -0.70596478019E+01  0.41151540559E+01  0.49857813337E+02  0.50523121783E+02  0.10566000000E+00 0.  1.
         22    1    1    0    0    0  0.13821795744E+02 -0.24241055660E+02 -0.10438230790E+02  0.29793077704E+02  0.00000000000E+00 0.  1.
</event>
<event>
 4    1  0.1261010E-009  0.9118800E+02  0.7561462E-02  0.1125453E+00
         25   -1    0    0    0    0  0.00000000000E+00  0.00000000000E+00  0.99999998245E-14  0.12509000000E+03  0.12509000000E+03 0.  0.
        -13    1    1    0    0    0  0.23886140124E+02 -0.32077287727E+02 -0.96707483165E+01  0.41146501856E+02  0.10566000000E+00 0.  1.
         13    1    1    0    0    0  0.26510864390E+02  0.11416263328E+02  0.47643929044E+01  0.29255214969E+02  0.10566000000E+00 0. -1.
         22    1    1    0    0    0 -0.50397004514E+02  0.20661024399E+02  0.49063554121E+01  0.54688283175E+02  0.00000000000E+00 0.  1.
</event>
<event>
 5    1  0.1261010E-009  0.9118800E+02  0.7561462E-02  0.1125453E+00
         25   -1    0    0    0    0  0.00000000000E+00  0.00000000000E+00  0.99999998245E-14  0.12509000000E+03  0.12509000000E+03 0.  0.
        -13    1    3    3    0    0  0.13805782527E+02 -0.16461129208E+02 -0.32788010587E+02  0.39199913371E+02  0.10566000000E+00 0. -1.
         23    2    1    0    0    0 -0.28863579487E+02 -0.70082571884E+00  0.15251195458E+01  0.96177660643E+02  0.91729052321E+02 0.  0.
         13    1    3    3    0    0 -0.42669362013E+02  0.15760303490E+02  0.34313130132E+02  0.56977747272E+02  0.10566000000E+00 0.  1.
         22    1    1    0    0    0  0.28863579487E+02  0.70082571884E+00 -0.15251195458E+01  0.28912339357E+02  0.00000000000E+00 0.  1.
</event>
<event>
 5    1  0.1261010E-009  0.9118800E+02  0.7561462E-02  0.1125453E+00
         25   -1    0    0    0    0  0.00000000000E+00  0.00000000000E+00  0.99999998245E-14  0.12509000000E+03  0.12509000000E+03 0.  0.
        -13    1    3    3    0    0 -0.38988932963E+01  0.48828809545E+02 -0.18629824497E+02  0.52407399624E+02  0.10566000000E+00 0. -1.
         23    2    1    0    0    0 -0.10871284798E+02  0.21500244317E+02  0.15316095738E+02  0.96541302525E+02  0.92223613927E+02 0.  0.
         13    1    3    3    0    0 -0.69723915018E+01 -0.27328565228E+02  0.33945920235E+02  0.44133902901E+02  0.10566000000E+00 0.  1.
         22    1    1    0    0    0  0.10871284798E+02 -0.21500244317E+02 -0.15316095738E+02  0.28548697475E+02  0.00000000000E+00 0. -1.
</event>
<event>
 5    1  0.1261010E-009  0.9118800E+02  0.7561462E-02  0.1125453E+00
         25   -1    0    0    0    0  0.00000000000E+00  0.00000000000E+00  0.99999998245E-14  0.12509000000E+03  0.12509000000E+03 0.  0.
        -13    1    3    3    0    0  0.69678598006E+01  0.17068019034E+01 -0.41462616294E+02  0.42078782740E+02  0.10566000000E+00 0.  1.
         23    2    1    0    0    0 -0.10293501611E+02 -0.23413567806E+02  0.63102900935E+01  0.98746668892E+02  0.95167922765E+02 0.  0.
         13    1    3    3    0    0 -0.17261361412E+02 -0.25120369709E+02  0.47772906388E+02  0.56667886151E+02  0.10566000000E+00 0. -1.
         22    1    1    0    0    0  0.10293501611E+02  0.23413567806E+02 -0.63102900935E+01  0.26343331108E+02  0.00000000000E+00 0. -1.
</event>
<event>
 5    1  0.1261010E-009  0.9118800E+02  0.7561462E-02  0.1125453E+00
         25   -1    0    0    0    0  0.00000000000E+00  0.00000000000E+00  0.99999998245E-14  0.12509000000E+03  0.12509000000E+03 0.  0.
        -13    1    3    3    0    0  0.24354546683E+02  0.41545759458E+01  0.18149366057E+02  0.30656403862E+02  0.10566000000E+00 0. -1.
         23    2    1    0    0    0 -0.28628530771E+02  0.21520677532E+02  0.14232624572E+02  0.86550410773E+02  0.77496281635E+02 0.  0.
         13    1    3    3    0    0 -0.52983077454E+02  0.17366101586E+02 -0.39167414849E+01  0.55894006912E+02  0.10566000000E+00 0.  1.
         22    1    1    0    0    0  0.28628530771E+02 -0.21520677532E+02 -0.14232624572E+02  0.38539589227E+02  0.00000000000E+00 0.  1.
</event>
<event>
 5    1  0.1261010E-009  0.9118800E+02  0.7561462E-02  0.1125453E+00
         25   -1    0    0    0    0  0.00000000000E+00  0.00000000000E+00  0.99999998245E-14  0.12509000000E+03  0.12509000000E+03 0.  0.
        -13    1    3    3    0    0  0.66066890855E+01  0.11597780518E+02  0.47762445461E+02  0.49592531838E+02  0.10566000000E+00 0. -1.
         23    2    1    0    0    0 -0.24763677330E+02  0.76493662565E+01  0.14906654320E+02  0.95190821716E+02  0.90373290728E+02 0.  0.
         13    1    3    3    0    0 -0.31370366416E+02 -0.39484142618E+01 -0.32855791142E+02  0.45598289878E+02  0.10566000000E+00 0.  1.
         22    1    1    0    0    0  0.24763677330E+02 -0.76493662565E+01 -0.14906654320E+02  0.29899178284E+02  0.00000000000E+00 0. -1.
</event>
<event>
 5    1  0.1261010E-009  0.9118800E+02  0.7561462E-02  0.1125453E+00
         25   -1    0    0    0    0  0.00000000000E+00  0.00000000000E+00  0.99999998245E-14  0.12509000000E+03  0.12509000000E+03 0.  0.
        -13    1    3    3    0    0 -0.24780757826E+02  0.43901321082E+02  0.11029552331E+02  0.51604981735E+02  0.10566000000E+00 0.  1.
         23    2    1    0    0    0 -0.27806738521E+02 -0.75976803404E+00  0.58183379490E+01  0.96670904111E+02  0.92399235335E+02 0.  0.
         13    1    3    3    0    0 -0.30259806955E+01 -0.44661089116E+02 -0.52112143817E+01  0.45065922376E+02  0.10566000000E+00 0. -1.
         22    1    1    0    0    0  0.27806738521E+02  0.75976803404E+00 -0.58183379490E+01  0.28419095889E+02  0.00000000000E+00 0.  1.
</event>
<event>
 5    1  0.1261010E-009  0.9118800E+02  0.7561462E-02  0.1125453E+00
         25   -1    0    0    0    0  0.00000000000E+00  0.00000000000E+00  0.99999998245E-14  0.12509000000E+03  0.12509000000E+03 0.  0.
        -13    1    3    3    0    0  0.14717228491E+02 -0.27560314483E+02  0.23710428245E+02  0.39221974968E+02  0.10566000000E+00 0.  1.
         23    2    1    0    0    0 -0.19825727396E+02 -0.85872286763E+01 -0.18264445543E+02  0.96798836466E+02  0.92572268024E+02 0.  0.
         13    1    3    3    0    0 -0.34542955887E+02  0.18973085806E+02 -0.41974873788E+02  0.57576861498E+02  0.10566000000E+00 0. -1.
         22    1    1    0    0    0  0.19825727396E+02  0.85872286763E+01  0.18264445543E+02  0.28291163534E+02  0.00000000000E+00 0. -1.
</event>
<event>
 5    1  0.1261010E-009  0.9118800E+02  0.7561462E-02  0.1125453E+00
         25   -1    0    0    0    0  0.00000000000E+00  0.00000000000E+00  0.99999998245E-14  0.12509000000E+03  0.12509000000E+03 0.  0.
        -13    1    3    3    0    0 -0.30519559370E+02  0.16632784336E+02 -0.47343478755E+02  0.58732522196E+02  0.10566000000E+00 0. -1.
         23    2    1    0    0    0 -0.25746061591E+02  0.64185136189E+00 -0.14595483237E+02  0.95487638751E+02  0.90783199782E+02 0.  0.
         13    1    3    3    0    0  0.47734977790E+01 -0.15990932974E+02  0.32747995518E+02  0.36755116554E+02  0.10566000000E+00 0.  1.
         22    1    1    0    0    0  0.25746061591E+02 -0.64185136189E+00  0.14595483237E+02  0.29602361249E+02  0.00000000000E+00 0. -1.
</event>
<event>
 5    1  0.1261010E-009  0.9118800E+02  0.7561462E-02  0.1125453E+00
         25   -1    0    0    0    0  0.00000000000E+00  0.00000000000E+00  0.99999998245E-14  0.12509000000E+03  0.12509000000E+03 0.  0.
        -13    1    3    3    0    0  0.41459090276E+02  0.20403628796E+02 -0.13336250930E+02  0.48093980782E+02  0.10566000000E+00 0.  1.
         23    2    1    0    0    0  0.17104868085E+02  0.17124319290E+01  0.23454001399E+02  0.96010812994E+02  0.91501240947E+02 0.  0.
         13    1    3    3    0    0 -0.24354222191E+02 -0.18691196867E+02  0.36790252329E+02  0.47916832212E+02  0.10566000000E+00 0. -1.
         22    1    1    0    0    0 -0.17104868085E+02 -0.17124319290E+01 -0.23454001399E+02  0.29079187006E+02  0.00000000000E+00 0. -1.
</event>
<event>
 5    1  0.1261010E-009  0.9118800E+02  0.7561462E-02  0.1125453E+00
         25   -1    0    0    0    0  0.00000000000E+00  0.00000000000E+00  0.99999998245E-14  0.12509000000E+03  0.12509000000E+03 0.  0.
        -13    1    3    3    0    0 -0.51315095901E+02 -0.31040814056E+02  0.14290953611E+01  0.59990204885E+02  0.10566000000E+00 0.  1.
         23    2    1    0    0    0 -0.19459288999E+02 -0.18568102539E+02 -0.10493171678E+02  0.96218820389E+02  0.91785164297E+02 0.  0.
         13    1    3    3    0    0  0.31855806902E+02  0.12472711517E+02 -0.11922267039E+02  0.36228615504E+02  0.10566000000E+00 0. -1.
         22    1    1    0    0    0  0.19459288999E+02  0.18568102539E+02  0.10493171678E+02  0.28871179611E+02  0.00000000000E+00 0.  1.
</event>
<event>
 5    1  0.1261010E-009  0.9118800E+02  0.7561462E-02  0.1125453E+00
         25   -1    0    0    0    0  0.00000000000E+00  0.00000000000E+00  0.99999998245E-14  0.12509000000E+03  0.12509000000E+03 0.  0.
        -13    1    3    3    0    0  0.30325097604E+02  0.29605323395E+01 -0.48639613966E+02  0.57395117451E+02  0.10566000000E+00 0.  1.
         23    2    1    0    0    0  0.25926184928E+02 -0.10185309733E+02 -0.15741631690E+02  0.93094585211E+02  0.87423653710E+02 0.  0.
         13    1    3    3    0    0 -0.43989126761E+01 -0.13145842072E+02  0.32897982275E+02  0.35699467760E+02  0.10566000000E+00 0. -1.
         22    1    1    0    0    0 -0.25926184928E+02  0.10185309733E+02  0.15741631690E+02  0.31995414789E+02  0.00000000000E+00 0.  1.
</event>
<event>
 5    1  0.1261010E-009  0.9118800E+02  0.7561462E-02  0.1125453E+00
         25   -1    0    0    0    0  0.00000000000E+00  0.00000000000E+00  0.99999998245E-14  0.12509000000E+03  0.12509000000E+03 0.  0.
        -13    1    3    3    0    0 -0.78452953105E+01  0.35423310479E+02 -0.46729966078E+02  0.59161308957E+02  0.10566000000E+00 0.  1.
         23    2    1    0    0    0 -0.16599953801E+02  0.20521068348E+02 -0.16562274127E+02  0.93929421754E+02  0.88610127156E+02 0.  0.
         13    1    3    3    0    0 -0.87546584905E+01 -0.14902242131E+02  0.30167691951E+02  0.34768112798E+02  0.10566000000E+00 0. -1.
         22    1    1    0    0    0  0.16599953801E+02 -0.20521068348E+02  0.16562274127E+02  0.31160578246E+02  0.00000000000E+00 0.  1.
</event>
<event>
 5    1  0.1261010E-009  0.9118800E+02  0.7561462E-02  0.1125453E+00
         25   -1    0    0    0    0  0.00000000000E+00  0.00000000000E+00  0.99999998245E-14  0.12509000000E+03  0.12509000000E+03 0.  0.
        -13    1    3    3    0    0  0.70549058265E+00  0.33792314551E+02  0.12356471584E+02  0.35987661687E+02  0.10566000000E+00 0.  1.
         23    2    1    0    0    0 -0.48834635842E+01 -0.67411952272E+01 -0.29450414806E+02  0.94485770522E+02  0.89392068827E+02 0.  0.
         13    1    3    3    0    0 -0.55889541669E+01 -0.40533509778E+02 -0.41806886390E+02  0.58498108835E+02  0.10566000000E+00 0. -1.
         22    1    1    0    0    0  0.48834635842E+01  0.67411952272E+01  0.29450414806E+02  0.30604229478E+02  0.00000000000E+00 0.  1.
</event>
<event>
 5    1  0.1261010E-009  0.9118800E+02  0.7561462E-02  0.1125453E+00
         25   -1    0    0    0    0  0.00000000000E+00  0.00000000000E+00  0.99999998245E-14  0.12509000000E+03  0.12509000000E+03 0.  0.
        -13    1    3    3    0    0 -0.22907252094E+02  0.74108557624E+01 -0.46631471342E+02  0.52480170209E+02  0.10566000000E+00 0.  1.
         23    2    1    0    0    0  0.11905504615E+02 -0.75522760128E+01 -0.25718520027E+02  0.95760489511E+02  0.91158385056E+02 0.  0.
         13    1    3    3    0    0  0.34812756709E+02 -0.14963131775E+02  0.20912951315E+02  0.43280319303E+02  0.10566000000E+00 0. -1.
         22    1    1    0    0    0 -0.11905504615E+02  0.75522760128E+01  0.25718520027E+02  0.29329510489E+02  0.00000000000E+00 0.  1.
</event>
<event>
 5    1  0.1261010E-009  0.9118800E+02  0.7561462E-02  0.1125453E+00
         25   -1    0    0    0    0  0.00000000000E+00  0.00000000000E+00  0.99999998245E-14  0.12509000000E+03  0.12509000000E+03 0.  0.
        -13    1    3    3    0    0  0.44740595170E+02 -0.88624208995E+01 -0.71343994697E+01  0.46164642100E+02  0.10566000000E+00 0.  1.
         23    2    1    0    0    0  0.91055275242E+01 -0.11747592064E+02  0.26149562284E+02  0.95011500063E+02  0.90124741252E+02 0.  0.
         13    1    3    3    0    0 -0.35635067646E+02 -0.28851711644E+01  0.33283961754E+02  0.48846857963E+02  0.10566000000E+00 0. -1.
         22    1    1    0    0    0 -0.91055275242E+01  0.11747592064E+02 -0.26149562284E+02  0.30078499937E+02  0.00000000000E+00 0. -1.
</event>
<event>
 5    1  0.1261010E-009  0.9118800E+02  0.7561462E-02  0.1125453E+00
         25   -1    0    0    0    0  0.00000000000E+00  0.00000000000E+00  0.99999998245E-14  0.12509000000E+03  0.12509000000E+03 0.  0.
        -13    1    3    3    0    0  0.10402508293E+02 -0.16289323910E+02 -0.33433892237E+02  0.38618526207E+02  0.10566000000E+00 0.  1.
         23    2    1    0    0    0 -0.27606847755E+02 -0.45214296666E+01  0.79296454229E+01  0.96013194024E+02  0.91504495961E+02 0.  0.
         13    1    3    3    0    0 -0.38009356049E+02  0.11767894244E+02  0.41363537660E+02  0.57394667818E+02  0.10566000000E+00 0. -1.
         22    1    1    0    0    0  0.27606847755E+02  0.45214296666E+01 -0.79296454229E+01  0.29076805976E+02  0.00000000000E+00 0. -1.
</event>
<event>
 5    1  0.1261010E-009  0.9118800E+02  0.7561462E-02  0.1125453E+00
         25   -1    0    0    0    0  0.00000000000E+00  0.00000000000E+00  0.99999998245E-14  0.12509000000E+03  0.12509000000E+03 0.  0.
        -13    1    3    3    0    0 -0.33087271232E+02  0.19196751463E+02  0.44320024888E+02  0.58545354678E+02  0.10566000000E+00 0. -1.
         23    2    1    0    0    0 -0.21404187203E+02 -0.48454718745E+01  0.26551525296E+02  0.90642919963E+02  0.83842337852E+02 0.  0.
         13    1    3    3    0    0  0.11683084029E+02 -0.24042223337E+02 -0.17768499592E+02  0.32097565285E+02  0.10566000000E+00 0.  1.
         22    1    1    0    0    0  0.21404187203E+02  0.48454718745E+01 -0.26551525296E+02  0.34447080037E+02  0.00000000000E+00 0. -1.
</event>
<event>
 5    1  0.1261010E-009  0.9118800E+02  0.7561462E-02  0.1125453E+00
         25   -1    0    0    0    0  0.00000000000E+00  0.00000000000E+00  0.99999998245E-14  0.12509000000E+03  0.12509000000E+03 0.  0.
        -13    1    3    3    0    0  0.33445029268E+02  0.16634898523E+02  0.48947254169E+02  0.61572190852E+02  0.10566000000E+00 0.  1.
         23    2    1    0    0    0  0.19756564814E+02  0.12971015978E+01  0.21538240842E+02  0.95834228870E+02  0.91259516100E+02 0.  0.
         13    1    3    3    0    0 -0.13688464454E+02 -0.15337796926E+02 -0.27409013326E+02  0.34262038019E+02  0.10566000000E+00 0. -1.
         22    1    1    0    0    0 -0.19756564814E+02 -0.12971015978E+01 -0.21538240842E+02  0.29255771130E+02  0.00000000000E+00 0.  1.
</event>
<event>
 5    1  0.1261010E-009  0.9118800E+02  0.7561462E-02  0.1125453E+00
         25   -1    0    0    0    0  0.00000000000E+00  0.00000000000E+00  0.99999998245E-14  0.12509000000E+03  0.12509000000E+03 0.  0.
        -13    1    3    3    0    0 -0.45082777719E+02 -0.12670504455E+02  0.14095122211E+02  0.48904827616E+02  0.10566000000E+00 0.  1.
         23    2    1    0    0    0 -0.18105116728E+02  0.20956007771E+02 -0.64408265243E+01  0.96657030409E+02  0.92380451221E+02 0.  0.
         13    1    3    3    0    0  0.26977660991E+02  0.33626512227E+02 -0.20535948735E+02  0.47752202793E+02  0.10566000000E+00 0. -1.
         22    1    1    0    0    0  0.18105116728E+02 -0.20956007771E+02  0.64408265243E+01  0.28432969591E+02  0.00000000000E+00 0.  1.
</event>
<event>
 5    1  0.1261010E-009  0.9118800E+02  0.7561462E-02  0.1125453E+00
         25   -1    0    0    0    0  0.00000000000E+00  0.00000000000E+00  0.99999998245E-14  0.12509000000E+03  0.12509000000E+03 0.  0.
        -13    1    3    3    0    0 -0.20379588787E+02  0.23533539075E+01  0.30015510549E+02  0.36356676846E+02  0.10566000000E+00 0.  1.
         23    2    1    0    0    0  0.25190628136E+02 -0.15672708872E+02 -0.27304711228E+01  0.95296426501E+02  0.90519345347E+02 0.  0.
         13    1    3    3    0    0  0.45570216923E+02 -0.18026062780E+02 -0.32745981672E+02  0.58939749655E+02  0.10566000000E+00 0. -1.
         22    1    1    0    0    0 -0.25190628136E+02  0.15672708872E+02  0.27304711228E+01  0.29793573499E+02  0.00000000000E+00 0. -1.
</event>
<event>
 5    1  0.1261010E-009  0.9118800E+02  0.7561462E-02  0.1125453E+00
         25   -1    0    0    0    0  0.00000000000E+00  0.00000000000E+00  0.99999998245E-14  0.12509000000E+03  0.12509000000E+03 0.  0.
        -13    1    3    3    0    0 -0.43221484167E+02 -0.19123283866E+02 -0.35821982018E+02  0.59304487512E+02  0.10566000000E+00 0. -1.
         23    2    1    0    0    0 -0.28271275066E+02 -0.44490204246E+01 -0.58384621098E+01  0.95881329774E+02  0.91324054787E+02 0.  0.
         13    1    3    3    0    0  0.14950209101E+02  0.14674263441E+02  0.29983519908E+02  0.36576842261E+02  0.10566000000E+00 0.  1.
         22    1    1    0    0    0  0.28271275066E+02  0.44490204246E+01  0.58384621098E+01  0.29208670226E+02  0.00000000000E+00 0. -1.
</event>
<event>
 5    1  0.1261010E-009  0.9118800E+02  0.7561462E-02  0.1125453E+00
         25   -1    0    0    0    0  0.00000000000E+00  0.00000000000E+00  0.99999998245E-14  0.12509000000E+03  0.12509000000E+03 0.  0.
        -13    1    3    3    0    0 -0.29898039639E+02  0.12208546421E+02 -0.54476261739E+01  0.32751017922E+02  0.10566000000E+00 0.  1.
         23    2    1    0    0    0  0.16927683939E+02 -0.26063376533E+02  0.32205601989E+01  0.93845511080E+02  0.88491592042E+02 0.  0.
         13    1    3    3    0    0  0.46825723578E+02 -0.38271922954E+02  0.86681863728E+01  0.61094493158E+02  0.10566000000E+00 0. -1.
         22    1    1    0    0    0 -0.16927683939E+02  0.26063376533E+02 -0.32205601989E+01  0.31244488920E+02  0.00000000000E+00 0. -1.
</event>
<event>
 5    1  0.1261010E-009  0.9118800E+02  0.7561462E-02  0.1125453E+00
         25   -1    0    0    0    0  0.00000000000E+00  0.00000000000E+00  0.99999998245E-14  0.12509000000E+03  0.12509000000E+03 0.  0.
        -13    1    3    3    0    0  0.20401072837E+02  0.14811781400E+02  0.33686977869E+02  0.42076314990E+02  0.10566000000E+00 0. -1.
         23    2    1    0    0    0 -0.26341375252E+02  0.10719224922E+02  0.81033559168E+01  0.95519166224E+02  0.90826631040E+02 0.  0.
         13    1    3    3    0    0 -0.46742448089E+02 -0.40925564787E+01 -0.25583621952E+02  0.53442851235E+02  0.10566000000E+00 0.  1.
         22    1    1    0    0    0  0.26341375252E+02 -0.10719224922E+02 -0.81033559168E+01  0.29570833776E+02  0.00000000000E+00 0.  1.
</event>
<event>
 5    1  0.1261010E-009  0.9118800E+02  0.7561462E-02  0.1125453E+00
         25   -1    0    0    0    0  0.00000000000E+00  0.00000000000E+00  0.99999998245E-14  0.12509000000E+03  0.12509000000E+03 0.  0.
        -13    1    3    3    0    0 -0.90754053957E+01  0.30186716934E+02 -0.17665755059E+02  0.36134345548E+02  0.10566000000E+00 0.  1.
         23    2    1    0    0    0  0.23245615822E+02 -0.78529453622E+01  0.15503055000E+02  0.96066352397E+02  0.91577136572E+02 0.  0.
         13    1    3    3    0    0  0.32321021218E+02 -0.38039662296E+02  0.33168810060E+02  0.59932006849E+02  0.10566000000E+00 0. -1.
         22    1    1    0    0    0 -0.23245615822E+02  0.78529453622E+01 -0.15503055000E+02  0.29023647603E+02  0.00000000000E+00 0. -1.
</event>
<event>
 5    1  0.1261010E-009  0.9118800E+02  0.7561462E-02  0.1125453E+00
         25   -1    0    0    0    0  0.00000000000E+00  0.00000000000E+00  0.99999998245E-14  0.12509000000E+03  0.12509000000E+03 0.  0.
        -13    1    3    3    0    0 -0.20419382089E+02 -0.65304316704E+01  0.37760126143E+02  0.43421607444E+02  0.10566000000E+00 0.  1.
         23    2    1    0    0    0 -0.22582944195E+02 -0.12321392581E+02 -0.14171035995E+02  0.95719532779E+02  0.91102165784E+02 0.  0.
         13    1    3    3    0    0 -0.21635621057E+01 -0.57909609102E+01 -0.51931162138E+02  0.52297925334E+02  0.10566000000E+00 0. -1.
         22    1    1    0    0    0  0.22582944195E+02  0.12321392581E+02  0.14171035995E+02  0.29370467221E+02  0.00000000000E+00 0. -1.
</event>
<event>
 5    1  0.1261010E-009  0.9118800E+02  0.7561462E-02  0.1125453E+00
         25   -1    0    0    0    0  0.00000000000E+00  0.00000000000E+00  0.99999998245E-14  0.12509000000E+03  0.12509000000E+03 0.  0.
        -13    1    3    3    0    0  0.46942864825E+02 -0.37595131851E+02 -0.10668217921E+02  0.61080672348E+02  0.10566000000E+00 0. -1.
         23    2    1    0    0    0  0.26788354631E+02 -0.10334082271E+02 -0.89019532458E+01  0.95029162157E+02  0.90149252291E+02 0.  0.
         13    1    3    3    0    0 -0.20154510194E+02  0.27261049581E+02  0.17662646750E+01  0.33948489809E+02  0.10566000000E+00 0.  1.
         22    1    1    0    0    0 -0.26788354631E+02  0.10334082271E+02  0.89019532458E+01  0.30060837843E+02  0.00000000000E+00 0. -1.
</event>
<event>
 5    1  0.1261010E-009  0.9118800E+02  0.7561462E-02  0.1125453E+00
         25   -1    0    0    0    0  0.00000000000E+00  0.00000000000E+00  0.99999998245E-14  0.12509000000E+03  0.12509000000E+03 0.  0.
        -13    1    3    3    0    0 -0.34170338937E+02 -0.15829571907E+02  0.19562754161E+02  0.42437011255E+02  0.10566000000E+00 0.  1.
         23    2    1    0    0    0  0.20884288685E+02 -0.14091862092E+02  0.71629244218E+01  0.98897604589E+02  0.95366108320E+02 0.  0.
         13    1    3    3    0    0  0.55054627622E+02  0.17377098149E+01 -0.12399829739E+02  0.56460593334E+02  0.10566000000E+00 0. -1.
         22    1    1    0    0    0 -0.20884288685E+02  0.14091862092E+02 -0.71629244218E+01  0.26192395411E+02  0.00000000000E+00 0. -1.
</event>
<event>
 5    1  0.1261010E-009  0.9118800E+02  0.7561462E-02  0.1125453E+00
         25   -1    0    0    0    0  0.00000000000E+00  0.00000000000E+00  0.99999998245E-14  0.12509000000E+03  0.12509000000E+03 0.  0.
        -13    1    3    3    0    0 -0.41193145371E+02 -0.21150266788E+02  0.41782299259E+02  0.62369709845E+02  0.10566000000E+00 0. -1.
         23    2    1    0    0    0 -0.18573597680E+02 -0.12135737361E+02  0.23100384946E+02  0.93060600432E+02  0.87375013110E+02 0.  0.
         13    1    3    3    0    0  0.22619547691E+02  0.90145294273E+01 -0.18681914313E+02  0.30690890587E+02  0.10566000000E+00 0.  1.
         22    1    1    0    0    0  0.18573597680E+02  0.12135737361E+02 -0.23100384946E+02  0.32029399568E+02  0.00000000000E+00 0. -1.
</event>
<event>
 5    1  0.1261010E-009  0.9118800E+02  0.7561462E-02  0.1125453E+00
         25   -1    0    0    0    0  0.00000000000E+00  0.00000000000E+00  0.99999998245E-14  0.12509000000E+03  0.12509000000E+03 0.  0.
        -13    1    3    3    0    0  0.23585206058E+01 -0.43569683998E+01 -0.45017542283E+02  0.45289469751E+02  0.10566000000E+00 0.  1.
         23    2    1    0    0    0 -0.94119471123E+01 -0.30769995127E+02 -0.86156938403E+01  0.91779228035E+02  0.85520869791E+02 0.  0.
         13    1    3    3    0    0 -0.11770467718E+02 -0.26413026727E+02  0.36401848443E+02  0.46489758284E+02  0.10566000000E+00 0. -1.
         22    1    1    0    0    0  0.94119471123E+01  0.30769995127E+02  0.86156938403E+01  0.33310771965E+02  0.00000000000E+00 0.  1.
</event>
<event>
 5    1  0.1261010E-009  0.9118800E+02  0.7561462E-02  0.1125453E+00
         25   -1    0    0    0    0  0.00000000000E+00  0.00000000000E+00  0.99999998245E-14  0.12509000000E+03  0.12509000000E+03 0.  0.
        -13    1    3    3    0    0  0.11440530466E+02  0.18048958614E+02 -0.46994592458E+02  0.51625124975E+02  0.10566000000E+00 0. -1.
         23    2    1    0    0    0 -0.66379739969E+01 -0.15189502082E+02 -0.24066974819E+02  0.95866671147E+02  0.91303974107E+02 0.  0.
         13    1    3    3    0    0 -0.18078504463E+02 -0.33238460696E+02  0.22927617639E+02  0.44241546172E+02  0.10566000000E+00 0.  1.
         22    1    1    0    0    0  0.66379739969E+01  0.15189502082E+02  0.24066974819E+02  0.29223328853E+02  0.00000000000E+00 0. -1.
</event>
<event>
 5    1  0.1261010E-009  0.9118800E+02  0.7561462E-02  0.1125453E+00
         25   -1    0    0    0    0  0.00000000000E+00  0.00000000000E+00  0.99999998245E-14  0.12509000000E+03  0.12509000000E+03 0.  0.
        -13    1    3    3    0    0 -0.12432334587E+02  0.24611343527E+02 -0.52934380450E+02  0.59685349720E+02  0.10566000000E+00 0.  1.
         23    2    1    0    0    0 -0.14716816315E+02  0.19582563998E+02 -0.18939834774E+02  0.94125845943E+02  0.88886984638E+02 0.  0.
         13    1    3    3    0    0 -0.22844817280E+01 -0.50287795288E+01  0.33994545677E+02  0.34440496223E+02  0.10566000000E+00 0. -1.
         22    1    1    0    0    0  0.14716816315E+02 -0.19582563998E+02  0.18939834774E+02  0.30964154057E+02  0.00000000000E+00 0. -1.
</event>
<event>
 5    1  0.1261010E-009  0.9118800E+02  0.7561462E-02  0.1125453E+00
         25   -1    0    0    0    0  0.00000000000E+00  0.00000000000E+00  0.99999998245E-14  0.12509000000E+03  0.12509000000E+03 0.  0.
        -13    1    3    3    0    0 -0.35899658364E+01  0.34790541368E+02 -0.50580053928E+01  0.35339272855E+02  0.10566000000E+00 0. -1.
         23    2    1    0    0    0  0.29312683250E+02 -0.11084891783E+02 -0.10459640507E+02  0.92051956706E+02  0.85918859564E+02 0.  0.
         13    1    3    3    0    0  0.32902649086E+02 -0.45875433150E+02 -0.54016351140E+01  0.56712683851E+02  0.10566000000E+00 0.  1.
         22    1    1    0    0    0 -0.29312683250E+02  0.11084891783E+02  0.10459640507E+02  0.33038043294E+02  0.00000000000E+00 0.  1.
</event>
<event>
 5    1  0.1261010E-009  0.9118800E+02  0.7561462E-02  0.1125453E+00
         25   -1    0    0    0    0  0.00000000000E+00  0.00000000000E+00  0.99999998245E-14  0.12509000000E+03  0.12509000000E+03 0.  0.
        -13    1    3    3    0    0  0.21297579006E+02 -0.24912825594E+02  0.21383629786E+02  0.39134467384E+02  0.10566000000E+00 0.  1.
         23    2    1    0    0    0 -0.70239659565E+01  0.24046414340E+02  0.14584569290E+02  0.96102488867E+02  0.91626483970E+02 0.  0.
         13    1    3    3    0    0 -0.28321544963E+02  0.48959239933E+02 -0.67990604965E+01  0.56968021482E+02  0.10566000000E+00 0. -1.
         22    1    1    0    0    0  0.70239659565E+01 -0.24046414340E+02 -0.14584569290E+02  0.28987511133E+02  0.00000000000E+00 0. -1.
</event>
<event>
 5    1  0.1261010E-009  0.9118800E+02  0.7561462E-02  0.1125453E+00
         25   -1    0    0    0    0  0.00000000000E+00  0.00000000000E+00  0.99999998245E-14  0.12509000000E+03  0.12509000000E+03 0.  0.
        -13    1    3    3    0    0 -0.39063436628E+02 -0.82331656740E+01  0.76757041466E+01  0.40652978936E+02  0.10566000000E+00 0. -1.
         23    2    1    0    0    0  0.44948208625E+01  0.15063728574E+02 -0.21828158807E+02  0.98190411712E+02  0.94433940414E+02 0.  0.
         13    1    3    3    0    0  0.43558257491E+02  0.23296894248E+02 -0.29503862954E+02  0.57537432776E+02  0.10566000000E+00 0.  1.
         22    1    1    0    0    0 -0.44948208625E+01 -0.15063728574E+02  0.21828158807E+02  0.26899588288E+02  0.00000000000E+00 0.  1.
</event>
<event>
 5    1  0.1261010E-009  0.9118800E+02  0.7561462E-02  0.1125453E+00
         25   -1    0    0    0    0  0.00000000000E+00  0.00000000000E+00  0.99999998245E-14  0.12509000000E+03  0.12509000000E+03 0.  0.
        -13    1    3    3    0    0 -0.25017770313E+01 -0.35655115855E+01  0.39590229749E+02  0.39829250769E+02  0.10566000000E+00 0. -1.
         23    2    1    0    0    0  0.18389361362E+02  0.22634650659E+02 -0.48902388533E+01  0.95519567846E+02  0.90827184167E+02 0.  0.
         13    1    3    3    0    0  0.20891138393E+02  0.26200162244E+02 -0.44480468602E+02  0.55690317077E+02  0.10566000000E+00 0.  1.
         22    1    1    0    0    0 -0.18389361362E+02 -0.22634650659E+02  0.48902388533E+01  0.29570432154E+02  0.00000000000E+00 0.  1.
</event>
<event>
 5    1  0.1261010E-009  0.9118800E+02  0.7561462E-02  0.1125453E+00
         25   -1    0    0    0    0  0.00000000000E+00  0.00000000000E+00  0.99999998245E-14  0.12509000000E+03  0.12509000000E+03 0.  0.
        -13    1    3    3    0    0 -0.38482536386E+01  0.35100862193E+02 -0.41045841223E+02  0.54144730385E+02  0.10566000000E+00 0.  1.
         23    2    1    0    0    0  0.43073541946E+00  0.42378489931E+02 -0.17357801399E+02  0.79292454092E+02  0.64729267451E+02 0.  0.
         13    1    3    3    0    0  0.42789890581E+01  0.72776277379E+01  0.23688039825E+02  0.25147723707E+02  0.10566000000E+00 0. -1.
         22    1    1    0    0    0 -0.43073541946E+00 -0.42378489931E+02  0.17357801399E+02  0.45797545908E+02  0.00000000000E+00 0.  1.
</event>
<event>
 5    1  0.1261010E-009  0.9118800E+02  0.7561462E-02  0.1125453E+00
         25   -1    0    0    0    0  0.00000000000E+00  0.00000000000E+00  0.99999998245E-14  0.12509000000E+03  0.12509000000E+03 0.  0.
        -13    1    3    3    0    0  0.19986956459E+02  0.29359573380E+02 -0.24915245185E+01  0.35604519882E+02  0.10566000000E+00 0.  1.
         23    2    1    0    0    0  0.31687837188E+01 -0.28477437147E+02 -0.55057759738E+01  0.95912625447E+02  0.91366911595E+02 0.  0.
         13    1    3    3    0    0 -0.16818172740E+02 -0.57837010527E+02 -0.30142514553E+01  0.60308105565E+02  0.10566000000E+00 0. -1.
         22    1    1    0    0    0 -0.31687837188E+01  0.28477437147E+02  0.55057759738E+01  0.29177374553E+02  0.00000000000E+00 0. -1.
</event>
<event>
 5    1  0.1261010E-009  0.9118800E+02  0.7561462E-02  0.1125453E+00
         25   -1    0    0    0    0  0.00000000000E+00  0.00000000000E+00  0.99999998245E-14  0.12509000000E+03  0.12509000000E+03 0.  0.
        -13    1    3    3    0    0  0.14848613452E+02 -0.27481314327E+02  0.44759160518E+02  0.54581110038E+02  0.10566000000E+00 0.  1.
         23    2    1    0    0    0  0.23734806376E+01  0.91203864927E+01  0.25748758097E+02  0.97670784044E+02  0.93743099224E+02 0.  0.
         13    1    3    3    0    0 -0.12475132815E+02  0.36601700820E+02 -0.19010402421E+02  0.43089674006E+02  0.10566000000E+00 0. -1.
         22    1    1    0    0    0 -0.23734806376E+01 -0.91203864927E+01 -0.25748758097E+02  0.27419215956E+02  0.00000000000E+00 0.  1.
</event>
<event>
 5    1  0.1261010E-009  0.9118800E+02  0.7561462E-02  0.1125453E+00
         25   -1    0    0    0    0  0.00000000000E+00  0.00000000000E+00  0.99999998245E-14  0.12509000000E+03  0.12509000000E+03 0.  0.
        -13    1    3    3    0    0  0.23542612573E+02 -0.15376342574E+02 -0.19554293191E+02  0.34250081225E+02  0.10566000000E+00 0. -1.
         23    2    1    0    0    0 -0.30321936125E+02 -0.91716868358E+01  0.35991044349E+01  0.93207509468E+02  0.87585082170E+02 0.  0.
         13    1    3    3    0    0 -0.53864548698E+02  0.62046557378E+01  0.23153397626E+02  0.58957428243E+02  0.10566000000E+00 0.  1.
         22    1    1    0    0    0  0.30321936125E+02  0.91716868358E+01 -0.35991044349E+01  0.31882490532E+02  0.00000000000E+00 0.  1.
</event>
<event>
 5    1  0.1261010E-009  0.9118800E+02  0.7561462E-02  0.1125453E+00
         25   -1    0    0    0    0  0.00000000000E+00  0.00000000000E+00  0.99999998245E-14  0.12509000000E+03  0.12509000000E+03 0.  0.
        -13    1    3    3    0    0 -0.23218799505E+02 -0.18366014081E+02  0.37575692259E+02  0.47836878415E+02  0.10566000000E+00 0. -1.
         23    2    1    0    0    0  0.97787187008E+01  0.12716618778E+02  0.25860546589E+02  0.94658049644E+02  0.89632821890E+02 0.  0.
         13    1    3    3    0    0  0.32997518206E+02  0.31082632859E+02 -0.11715145670E+02  0.46821171230E+02  0.10566000000E+00 0.  1.
         22    1    1    0    0    0 -0.97787187008E+01 -0.12716618778E+02 -0.25860546589E+02  0.30431950356E+02  0.00000000000E+00 0.  1.
</event>
<event>
 5    1  0.1261010E-009  0.9118800E+02  0.7561462E-02  0.1125453E+00
         25   -1    0    0    0    0  0.00000000000E+00  0.00000000000E+00  0.99999998245E-14  0.12509000000E+03  0.12509000000E+03 0.  0.
        -13    1    3    3    0    0 -0.14825461713E+02 -0.30859284175E+02 -0.48984949474E+02  0.59763083704E+02  0.10566000000E+00 0.  1.
         23    2    1    0    0    0  0.55114668710E+01 -0.84558881516E+01 -0.24177820985E+02  0.98889898110E+02  0.95355999334E+02 0.  0.
         13    1    3    3    0    0  0.20336928584E+02  0.22403396023E+02  0.24807128490E+02  0.39126814406E+02  0.10566000000E+00 0. -1.
         22    1    1    0    0    0 -0.55114668710E+01  0.84558881516E+01  0.24177820985E+02  0.26200101890E+02  0.00000000000E+00 0.  1.
</event>
<event>
 5    1  0.1261010E-009  0.9118800E+02  0.7561462E-02  0.1125453E+00
         25   -1    0    0    0    0  0.00000000000E+00  0.00000000000E+00  0.99999998245E-14  0.12509000000E+03  0.12509000000E+03 0.  0.
        -13    1    3    3    0    0  0.39146621863E+02 -0.23150833632E+01  0.22506283405E+01  0.39279690761E+02  0.10566000000E+00 0.  1.
         23    2    1    0    0    0 -0.13846262458E+02 -0.24257915757E+02 -0.35733359066E+01  0.96930912827E+02  0.92750566958E+02 0.  0.
         13    1    3    3    0    0 -0.52992884321E+02 -0.21942832393E+02 -0.58239642471E+01  0.57651222066E+02  0.10566000000E+00 0. -1.
         22    1    1    0    0    0  0.13846262458E+02  0.24257915757E+02  0.35733359066E+01  0.28159087173E+02  0.00000000000E+00 0. -1.
</event>
<event>
 5    1  0.1261010E-009  0.9118800E+02  0.7561462E-02  0.1125453E+00
         25   -1    0    0    0    0  0.00000000000E+00  0.00000000000E+00  0.99999998245E-14  0.12509000000E+03  0.12509000000E+03 0.  0.
        -13    1    3    3    0    0  0.37860042823E+02 -0.42972859543E+02 -0.16309841196E+02  0.59548900777E+02  0.10566000000E+00 0.  1.
         23    2    1    0    0    0  0.86761407084E+01 -0.27377692933E+02 -0.15828907491E+00  0.96369997504E+02  0.91990966272E+02 0.  0.
         13    1    3    3    0    0 -0.29183902115E+02  0.15595166610E+02  0.16151552121E+02  0.36821096727E+02  0.10566000000E+00 0. -1.
         22    1    1    0    0    0 -0.86761407084E+01  0.27377692933E+02  0.15828907491E+00  0.28720002496E+02  0.00000000000E+00 0.  1.
</event>
<event>
 5    1  0.1261010E-009  0.9118800E+02  0.7561462E-02  0.1125453E+00
         25   -1    0    0    0    0  0.00000000000E+00  0.00000000000E+00  0.99999998245E-14  0.12509000000E+03  0.12509000000E+03 0.  0.
        -13    1    3    3    0    0  0.57020347837E+02  0.18620068367E+01 -0.87818251585E+00  0.57057598139E+02  0.10566000000E+00 0. -1.
         23    2    1    0    0    0  0.18308652167E+02  0.17952437621E+02  0.35095631388E+01  0.99209238919E+02  0.95774001131E+02 0.  0.
         13    1    3    3    0    0 -0.38711695669E+02  0.16090430784E+02  0.43877456547E+01  0.42151640779E+02  0.10566000000E+00 0.  1.
         22    1    1    0    0    0 -0.18308652167E+02 -0.17952437621E+02 -0.35095631388E+01  0.25880761081E+02  0.00000000000E+00 0. -1.
</event>
<event>
 5    1  0.1261010E-009  0.9118800E+02  0.7561462E-02  0.1125453E+00
         25   -1    0    0    0    0  0.00000000000E+00  0.00000000000E+00  0.99999998245E-14  0.12509000000E+03  0.12509000000E+03 0.  0.
        -13    1    3    3    0    0  0.47417360597E+02  0.90287147420E+01  0.92238344740E+01  0.49142792578E+02  0.10566000000E+00 0.  1.
         23    2    1    0    0    0  0.16934504971E+02  0.10728137323E+01 -0.24496800336E+02  0.95290308481E+02  0.90510890371E+02 0.  0.
         13    1    3    3    0    0 -0.30482855627E+02 -0.79559010097E+01 -0.33720634810E+02  0.46147515903E+02  0.10566000000E+00 0. -1.
         22    1    1    0    0    0 -0.16934504971E+02 -0.10728137323E+01  0.24496800336E+02  0.29799691519E+02  0.00000000000E+00 0. -1.
</event>
<event>
 5    1  0.1261010E-009  0.9118800E+02  0.7561462E-02  0.1125453E+00
         25   -1    0    0    0    0  0.00000000000E+00  0.00000000000E+00  0.99999998245E-14  0.12509000000E+03  0.12509000000E+03 0.  0.
        -13    1    3    3    0    0  0.24143516133E+02 -0.10493624902E+02  0.28471428710E+02  0.38777041554E+02  0.10566000000E+00 0.  1.
         23    2    1    0    0    0  0.16283271338E+02  0.21978377206E+01 -0.25488737788E+02  0.94764249059E+02  0.89780909606E+02 0.  0.
         13    1    3    3    0    0 -0.78602447953E+01  0.12691462622E+02 -0.53960166498E+02  0.55987207505E+02  0.10566000000E+00 0. -1.
         22    1    1    0    0    0 -0.16283271338E+02 -0.21978377206E+01  0.25488737788E+02  0.30325750941E+02  0.00000000000E+00 0. -1.
</event>
<event>
 5    1  0.1261010E-009  0.9118800E+02  0.7561462E-02  0.1125453E+00
         25   -1    0    0    0    0  0.00000000000E+00  0.00000000000E+00  0.99999998245E-14  0.12509000000E+03  0.12509000000E+03 0.  0.
        -13    1    3    3    0    0 -0.11032296231E+02  0.29662367737E+02  0.14902217738E+02  0.34980778686E+02  0.10566000000E+00 0. -1.
         23    2    1    0    0    0  0.20598471676E+02 -0.11443605674E+02 -0.17144035527E+02  0.95949459505E+02  0.91417327017E+02 0.  0.
         13    1    3    3    0    0  0.31630767907E+02 -0.41105973411E+02 -0.32046253265E+02  0.60968680819E+02  0.10566000000E+00 0.  1.
         22    1    1    0    0    0 -0.20598471676E+02  0.11443605674E+02  0.17144035527E+02  0.29140540495E+02  0.00000000000E+00 0.  1.
</event>
<event>
 5    1  0.1261010E-009  0.9118800E+02  0.7561462E-02  0.1125453E+00
         25   -1    0    0    0    0  0.00000000000E+00  0.00000000000E+00  0.99999998245E-14  0.12509000000E+03  0.12509000000E+03 0.  0.
        -13    1    3    3    0    0 -0.32546796535E+02 -0.22816041786E+02  0.21106353879E+02  0.45003945001E+02  0.10566000000E+00 0. -1.
         23    2    1    0    0    0 -0.21067045757E+02  0.20755110147E+02 -0.16260283509E+01  0.95471779555E+02  0.90761344796E+02 0.  0.
         13    1    3    3    0    0  0.11479750779E+02  0.43571151933E+02 -0.22732382230E+02  0.50467834554E+02  0.10566000000E+00 0.  1.
         22    1    1    0    0    0  0.21067045757E+02 -0.20755110147E+02  0.16260283509E+01  0.29618220445E+02  0.00000000000E+00 0.  1.
</event>
<event>
 5    1  0.1261010E-009  0.9118800E+02  0.7561462E-02  0.1125453E+00
         25   -1    0    0    0    0  0.00000000000E+00  0.00000000000E+00  0.99999998245E-14  0.12509000000E+03  0.12509000000E+03 0.  0.
        -13    1    3    3    0    0  0.97396461029E+01  0.10602555377E+02  0.36572052095E+02  0.39303957119E+02  0.10566000000E+00 0.  1.
         23    2    1    0    0    0 -0.26363992507E+02  0.14203473334E+02 -0.52666565743E+01  0.94683809395E+02  0.89668764542E+02 0.  0.
         13    1    3    3    0    0 -0.36103638610E+02  0.36009179566E+01 -0.41838708669E+02  0.55379852276E+02  0.10566000000E+00 0. -1.
         22    1    1    0    0    0  0.26363992507E+02 -0.14203473334E+02  0.52666565743E+01  0.30406190605E+02  0.00000000000E+00 0. -1.
</event>
<event>
 5    1  0.1261010E-009  0.9118800E+02  0.7561462E-02  0.1125453E+00
         25   -1    0    0    0    0  0.00000000000E+00  0.00000000000E+00  0.99999998245E-14  0.12509000000E+03  0.12509000000E+03 0.  0.
        -13    1    3    3    0    0 -0.29490045706E+02 -0.73610630488E+01  0.40990305436E+02  0.51030033791E+02  0.10566000000E+00 0.  1.
         23    2    1    0    0    0 -0.94416442317E+01 -0.27121454618E+02  0.63279062588E+01  0.95683192217E+02  0.91052253837E+02 0.  0.
         13    1    3    3    0    0  0.20048401474E+02 -0.19760391569E+02 -0.34662399177E+02  0.44653158426E+02  0.10566000000E+00 0. -1.
         22    1    1    0    0    0  0.94416442317E+01  0.27121454618E+02 -0.63279062588E+01  0.29406807783E+02  0.00000000000E+00 0.  1.
</event>
<event>
 5    1  0.1261010E-009  0.9118800E+02  0.7561462E-02  0.1125453E+00
         25   -1    0    0    0    0  0.00000000000E+00  0.00000000000E+00  0.99999998245E-14  0.12509000000E+03  0.12509000000E+03 0.  0.
        -13    1    3    3    0    0  0.30227250698E+02 -0.29718691464E+02  0.10062630502E+02  0.43567820737E+02  0.10566000000E+00 0. -1.
         23    2    1    0    0    0 -0.12857723356E+02 -0.56870321053E+01  0.26100930402E+02  0.95443382117E+02  0.90722198154E+02 0.  0.
         13    1    3    3    0    0 -0.43084974054E+02  0.24031659359E+02  0.16038299900E+02  0.51875561380E+02  0.10566000000E+00 0.  1.
         22    1    1    0    0    0  0.12857723356E+02  0.56870321053E+01 -0.26100930402E+02  0.29646617883E+02  0.00000000000E+00 0.  1.
</event>
<event>
 5    1  0.1261010E-009  0.9118800E+02  0.7561462E-02  0.1125453E+00
         25   -1    0    0    0    0  0.00000000000E+00  0.00000000000E+00  0.99999998245E-14  0.12509000000E+03  0.12509000000E+03 0.  0.
        -13    1    3    3    0    0  0.47131186285E+01 -0.40295679688E+02 -0.42824464819E+02  0.58990687738E+02  0.10566000000E+00 0. -1.
         23    2    1    0    0    0  0.16916234187E+02 -0.18045255507E+02 -0.17924730539E+02  0.94543540462E+02  0.89472872162E+02 0.  0.
         13    1    3    3    0    0  0.12203115559E+02  0.22250424181E+02  0.24899734280E+02  0.35552852724E+02  0.10566000000E+00 0.  1.
         22    1    1    0    0    0 -0.16916234187E+02  0.18045255507E+02  0.17924730539E+02  0.30546459538E+02  0.00000000000E+00 0. -1.
</event>
<event>
 5    1  0.1261010E-009  0.9118800E+02  0.7561462E-02  0.1125453E+00
         25   -1    0    0    0    0  0.00000000000E+00  0.00000000000E+00  0.99999998245E-14  0.12509000000E+03  0.12509000000E+03 0.  0.
        -13    1    3    3    0    0  0.73728099076E+01  0.31373991365E+02 -0.14423703219E+02  0.35309206147E+02  0.10566000000E+00 0.  1.
         23    2    1    0    0    0 -0.29078205559E+02 -0.54392119450E+01  0.11636754222E+02  0.93300990674E+02  0.87718491475E+02 0.  0.
         13    1    3    3    0    0 -0.36451015467E+02 -0.36813203310E+02  0.26060457442E+02  0.57991784527E+02  0.10566000000E+00 0. -1.
         22    1    1    0    0    0  0.29078205559E+02  0.54392119450E+01 -0.11636754222E+02  0.31789009326E+02  0.00000000000E+00 0. -1.
</event>
<event>
 5    1  0.1261010E-009  0.9118800E+02  0.7561462E-02  0.1125453E+00
         25   -1    0    0    0    0  0.00000000000E+00  0.00000000000E+00  0.99999998245E-14  0.12509000000E+03  0.12509000000E+03 0.  0.
        -13    1    3    3    0    0  0.10051112037E+01 -0.26441837963E+02 -0.13584436112E+02  0.29744396311E+02  0.10566000000E+00 0. -1.
         23    2    1    0    0    0 -0.15716509794E+01  0.33918525111E+02 -0.45503228255E+01  0.90831543083E+02  0.84123286600E+02 0.  0.
         13    1    3    3    0    0 -0.25767621831E+01  0.60360363074E+02  0.90341132865E+01  0.61087146772E+02  0.10566000000E+00 0.  1.
         22    1    1    0    0    0  0.15716509794E+01 -0.33918525111E+02  0.45503228255E+01  0.34258456917E+02  0.00000000000E+00 0.  1.
</event>
<event>
 5    1  0.1261010E-009  0.9118800E+02  0.7561462E-02  0.1125453E+00
         25   -1    0    0    0    0  0.00000000000E+00  0.00000000000E+00  0.99999998245E-14  0.12509000000E+03  0.12509000000E+03 0.  0.
        -13    1    3    3    0    0  0.17104716824E+02  0.35276964287E+02  0.42867113892E+02  0.58091618710E+02  0.10566000000E+00 0.  1.
         23    2    1    0    0    0 -0.72749435493E+01  0.22977383543E+02  0.18221769037E+02  0.94875469969E+02  0.89935738040E+02 0.  0.
         13    1    3    3    0    0 -0.24379660373E+02 -0.12299580743E+02 -0.24645344855E+02  0.36783851259E+02  0.10566000000E+00 0. -1.
         22    1    1    0    0    0  0.72749435493E+01 -0.22977383543E+02 -0.18221769037E+02  0.30214530031E+02  0.00000000000E+00 0. -1.
</event>
<event>
 5    1  0.1261010E-009  0.9118800E+02  0.7561462E-02  0.1125453E+00
         25   -1    0    0    0    0  0.00000000000E+00  0.00000000000E+00  0.99999998245E-14  0.12509000000E+03  0.12509000000E+03 0.  0.
        -13    1    3    3    0    0 -0.28213340309E+02 -0.33090799017E+02  0.30727296099E+02  0.53246327954E+02  0.10566000000E+00 0. -1.
         23    2    1    0    0    0  0.10278199554E+02 -0.19753129486E+02  0.19472570851E+02  0.95509456968E+02  0.90813258086E+02 0.  0.
         13    1    3    3    0    0  0.38491539863E+02  0.13337669531E+02 -0.11254725249E+02  0.42263129014E+02  0.10566000000E+00 0.  1.
         22    1    1    0    0    0 -0.10278199554E+02  0.19753129486E+02 -0.19472570851E+02  0.29580543032E+02  0.00000000000E+00 0. -1.
</event>
<event>
 5    1  0.1261010E-009  0.9118800E+02  0.7561462E-02  0.1125453E+00
         25   -1    0    0    0    0  0.00000000000E+00  0.00000000000E+00  0.99999998245E-14  0.12509000000E+03  0.12509000000E+03 0.  0.
        -13    1    3    3    0    0 -0.42736960999E+02 -0.14945764607E+02  0.39808337604E+02  0.60287134796E+02  0.10566000000E+00 0.  1.
         23    2    1    0    0    0 -0.18261281152E+02  0.34360579873E+01  0.23998037455E+02  0.94738942597E+02  0.89745643676E+02 0.  0.
         13    1    3    3    0    0  0.24475679848E+02  0.18381822594E+02 -0.15810300149E+02  0.34451807801E+02  0.10566000000E+00 0. -1.
         22    1    1    0    0    0  0.18261281152E+02 -0.34360579873E+01 -0.23998037455E+02  0.30351057403E+02  0.00000000000E+00 0.  1.
</event>
<event>
 5    1  0.1261010E-009  0.9118800E+02  0.7561462E-02  0.1125453E+00
         25   -1    0    0    0    0  0.00000000000E+00  0.00000000000E+00  0.99999998245E-14  0.12509000000E+03  0.12509000000E+03 0.  0.
        -13    1    3    3    0    0  0.47971412844E+02 -0.37996518630E+02  0.61237350870E+01  0.61502058288E+02  0.10566000000E+00 0.  1.
         23    2    1    0    0    0  0.26436160768E+02 -0.11012703941E+02  0.74864437876E+00  0.96441950980E+02  0.92088757165E+02 0.  0.
         13    1    3    3    0    0 -0.21535252076E+02  0.26983814689E+02 -0.53750907082E+01  0.34939892692E+02  0.10566000000E+00 0. -1.
         22    1    1    0    0    0 -0.26436160768E+02  0.11012703941E+02 -0.74864437876E+00  0.28648049020E+02  0.00000000000E+00 0.  1.
</event>
<event>
 5    1  0.1261010E-009  0.9118800E+02  0.7561462E-02  0.1125453E+00
         25   -1    0    0    0    0  0.00000000000E+00  0.00000000000E+00  0.99999998245E-14  0.12509000000E+03  0.12509000000E+03 0.  0.
        -13    1    3    3    0    0  0.34154452714E+02 -0.39170114545E+01  0.43479348390E+02  0.55428643492E+02  0.10566000000E+00 0. -1.
         23    2    1    0    0    0  0.12841008531E+02 -0.22257302712E+02  0.15578062374E+02  0.95040789504E+02  0.90165384811E+02 0.  0.
         13    1    3    3    0    0 -0.21313444183E+02 -0.18340291257E+02 -0.27901286015E+02  0.39612146012E+02  0.10566000000E+00 0.  1.
         22    1    1    0    0    0 -0.12841008531E+02  0.22257302712E+02 -0.15578062374E+02  0.30049210496E+02  0.00000000000E+00 0. -1.
</event>
<event>
 5    1  0.1261010E-009  0.9118800E+02  0.7561462E-02  0.1125453E+00
         25   -1    0    0    0    0  0.00000000000E+00  0.00000000000E+00  0.99999998245E-14  0.12509000000E+03  0.12509000000E+03 0.  0.
        -13    1    3    3    0    0  0.14633261469E+00 -0.39970503844E+02 -0.25056924436E+02  0.47175451423E+02  0.10566000000E+00 0.  1.
         23    2    1    0    0    0 -0.15471860547E+02 -0.18561460064E+02  0.16047869911E+02  0.96082407938E+02  0.91599065050E+02 0.  0.
         13    1    3    3    0    0 -0.15618193162E+02  0.21409043779E+02  0.41104794347E+02  0.48906956515E+02  0.10566000000E+00 0. -1.
         22    1    1    0    0    0  0.15471860547E+02  0.18561460064E+02 -0.16047869911E+02  0.29007592062E+02  0.00000000000E+00 0.  1.
</event>
<event>
 5    1  0.1261010E-009  0.9118800E+02  0.7561462E-02  0.1125453E+00
         25   -1    0    0    0    0  0.00000000000E+00  0.00000000000E+00  0.99999998245E-14  0.12509000000E+03  0.12509000000E+03 0.  0.
        -13    1    3    3    0    0  0.34565590169E+02 -0.19118679483E+01 -0.58144242342E+01  0.35103474985E+02  0.10566000000E+00 0. -1.
         23    2    1    0    0    0 -0.16506532615E+02  0.13771811953E+02  0.21136423222E+02  0.94942416182E+02  0.90028804171E+02 0.  0.
         13    1    3    3    0    0 -0.51072122785E+02  0.15683679901E+02  0.26950847456E+02  0.59838941197E+02  0.10566000000E+00 0.  1.
         22    1    1    0    0    0  0.16506532615E+02 -0.13771811953E+02 -0.21136423222E+02  0.30147583818E+02  0.00000000000E+00 0.  1.
</event>
<event>
 5    1  0.1261010E-009  0.9118800E+02  0.7561462E-02  0.1125453E+00
         25   -1    0    0    0    0  0.00000000000E+00  0.00000000000E+00  0.99999998245E-14  0.12509000000E+03  0.12509000000E+03 0.  0.
        -13    1    3    3    0    0 -0.32788157056E+02  0.26898607808E+02  0.25611188520E+02  0.49543339478E+02  0.10566000000E+00 0.  1.
         23    2    1    0    0    0  0.10862178425E+02  0.24832933197E+02  0.66343803509E+01  0.97185224532E+02  0.93092917955E+02 0.  0.
         13    1    3    3    0    0  0.43650335481E+02 -0.20656746111E+01 -0.18976808169E+02  0.47641885054E+02  0.10566000000E+00 0. -1.
         22    1    1    0    0    0 -0.10862178425E+02 -0.24832933197E+02 -0.66343803509E+01  0.27904775468E+02  0.00000000000E+00 0. -1.
</event>
<event>
 5    1  0.1261010E-009  0.9118800E+02  0.7561462E-02  0.1125453E+00
         25   -1    0    0    0    0  0.00000000000E+00  0.00000000000E+00  0.99999998245E-14  0.12509000000E+03  0.12509000000E+03 0.  0.
        -13    1    3    3    0    0  0.10416696029E+01  0.22667756470E+02 -0.23220958334E+02  0.32467465700E+02  0.10566000000E+00 0.  1.
         23    2    1    0    0    0 -0.96345929483E+01 -0.21607501159E+02  0.19134090980E+02  0.94662661548E+02  0.89639257952E+02 0.  0.
         13    1    3    3    0    0 -0.10676262551E+02 -0.44275257629E+02  0.42355049315E+02  0.62195195849E+02  0.10566000000E+00 0. -1.
         22    1    1    0    0    0  0.96345929483E+01  0.21607501159E+02 -0.19134090980E+02  0.30427338452E+02  0.00000000000E+00 0. -1.
</event>
<event>
 5    1  0.1261010E-009  0.9118800E+02  0.7561462E-02  0.1125453E+00
         25   -1    0    0    0    0  0.00000000000E+00  0.00000000000E+00  0.99999998245E-14  0.12509000000E+03  0.12509000000E+03 0.  0.
        -13    1    3    3    0    0 -0.28617772798E+02  0.60483578989E+01 -0.27381191433E+02  0.40066199739E+02  0.10566000000E+00 0. -1.
         23    2    1    0    0    0 -0.75519159667E+01 -0.14043801836E+02  0.22316285816E+02  0.97662342109E+02  0.93731833700E+02 0.  0.
         13    1    3    3    0    0  0.21065856832E+02 -0.20092159735E+02  0.49697477249E+02  0.57596142369E+02  0.10566000000E+00 0.  1.
         22    1    1    0    0    0  0.75519159667E+01  0.14043801836E+02 -0.22316285816E+02  0.27427657891E+02  0.00000000000E+00 0.  1.
</event>
<event>
 5    1  0.1261010E-009  0.9118800E+02  0.7561462E-02  0.1125453E+00
         25   -1    0    0    0    0  0.00000000000E+00  0.00000000000E+00  0.99999998245E-14  0.12509000000E+03  0.12509000000E+03 0.  0.
        -13    1    3    3    0    0 -0.34378789534E+02 -0.17314775194E+02  0.14386079522E+02  0.41093467338E+02  0.10566000000E+00 0.  1.
         23    2    1    0    0    0  0.17068010974E+02  0.11548760460E+02  0.14162833099E+02  0.10008446645E+03  0.96910390135E+02 0.  0.
         13    1    3    3    0    0  0.51446800508E+02  0.28863535655E+02 -0.22324642286E+00  0.58990999110E+02  0.10566000000E+00 0. -1.
         22    1    1    0    0    0 -0.17068010974E+02 -0.11548760460E+02 -0.14162833099E+02  0.25005533551E+02  0.00000000000E+00 0. -1.
</event>
<event>
 5    1  0.1261010E-009  0.9118800E+02  0.7561462E-02  0.1125453E+00
         25   -1    0    0    0    0  0.00000000000E+00  0.00000000000E+00  0.99999998245E-14  0.12509000000E+03  0.12509000000E+03 0.  0.
        -13    1    3    3    0    0  0.35287684534E+02  0.42202233045E+02 -0.26839394611E+01  0.55076890334E+02  0.10566000000E+00 0.  1.
         23    2    1    0    0    0 -0.16822368303E+01  0.28531230989E+02  0.69971926061E+01  0.95665150521E+02  0.91027464302E+02 0.  0.
         13    1    3    3    0    0 -0.36969921364E+02 -0.13671002056E+02  0.96811320672E+01  0.40588260187E+02  0.10566000000E+00 0. -1.
         22    1    1    0    0    0  0.16822368303E+01 -0.28531230989E+02 -0.69971926061E+01  0.29424849479E+02  0.00000000000E+00 0. -1.
</event>
<event>
 5    1  0.1261010E-009  0.9118800E+02  0.7561462E-02  0.1125453E+00
         25   -1    0    0    0    0  0.00000000000E+00  0.00000000000E+00  0.99999998245E-14  0.12509000000E+03  0.12509000000E+03 0.  0.
        -13    1    3    3    0    0  0.33914616569E+02 -0.11012262366E+02 -0.23486104574E+02  0.42697534021E+02  0.10566000000E+00 0. -1.
         23    2    1    0    0    0 -0.65432929362E+01  0.12757854077E+02 -0.31665932732E+02  0.90329263257E+02  0.83373059087E+02 0.  0.
         13    1    3    3    0    0 -0.40457909505E+02  0.23770116443E+02 -0.81798281589E+01  0.47631729236E+02  0.10566000000E+00 0.  1.
         22    1    1    0    0    0  0.65432929362E+01 -0.12757854077E+02  0.31665932732E+02  0.34760736743E+02  0.00000000000E+00 0.  1.
</event>
<event>
 5    1  0.1261010E-009  0.9118800E+02  0.7561462E-02  0.1125453E+00
         25   -1    0    0    0    0  0.00000000000E+00  0.00000000000E+00  0.99999998245E-14  0.12509000000E+03  0.12509000000E+03 0.  0.
        -13    1    3    3    0    0  0.42242611808E+02  0.12800341387E+02  0.28068397760E+02  0.52308059693E+02  0.10566000000E+00 0.  1.
         23    2    1    0    0    0  0.26161368875E+02  0.12287819634E+02 -0.10689695960E+02  0.94273164788E+02  0.89094064150E+02 0.  0.
         13    1    3    3    0    0 -0.16081242934E+02 -0.51252175288E+00 -0.38758093720E+02  0.41965105095E+02  0.10566000000E+00 0. -1.
         22    1    1    0    0    0 -0.26161368875E+02 -0.12287819634E+02  0.10689695960E+02  0.30816835212E+02  0.00000000000E+00 0. -1.
</event>
<event>
 5    1  0.1261010E-009  0.9118800E+02  0.7561462E-02  0.1125453E+00
         25   -1    0    0    0    0  0.00000000000E+00  0.00000000000E+00  0.99999998245E-14  0.12509000000E+03  0.12509000000E+03 0.  0.
        -13    1    3    3    0    0 -0.20321075357E+02 -0.49012191969E+02 -0.25915951188E+02  0.59049036870E+02  0.10566000000E+00 0.  1.
         23    2    1    0    0    0 -0.20360505153E+02 -0.13901268465E+02 -0.49470873869E+01  0.99945038107E+02  0.96730251388E+02 0.  0.
         13    1    3    3    0    0 -0.39429795318E-01  0.35110923504E+02  0.20968863802E+02  0.40896001237E+02  0.10566000000E+00 0. -1.
         22    1    1    0    0    0  0.20360505153E+02  0.13901268465E+02  0.49470873869E+01  0.25144961893E+02  0.00000000000E+00 0.  1.
</event>
<event>
 5    1  0.1261010E-009  0.9118800E+02  0.7561462E-02  0.1125453E+00
         25   -1    0    0    0    0  0.00000000000E+00  0.00000000000E+00  0.99999998245E-14  0.12509000000E+03  0.12509000000E+03 0.  0.
        -13    1    3    3    0    0 -0.17028441340E+01 -0.52920574801E+01 -0.49634063112E+02  0.49944538596E+02  0.10566000000E+00 0. -1.
         23    2    1    0    0    0 -0.25532145250E+02 -0.96676081277E+01 -0.10771449179E+02  0.95740771639E+02  0.91131323641E+02 0.  0.
         13    1    3    3    0    0 -0.23829301116E+02 -0.43755506476E+01  0.38862613933E+02  0.45796233042E+02  0.10566000000E+00 0.  1.
         22    1    1    0    0    0  0.25532145250E+02  0.96676081277E+01  0.10771449179E+02  0.29349228361E+02  0.00000000000E+00 0. -1.
</event>
<event>
 5    1  0.1261010E-009  0.9118800E+02  0.7561462E-02  0.1125453E+00
         25   -1    0    0    0    0  0.00000000000E+00  0.00000000000E+00  0.99999998245E-14  0.12509000000E+03  0.12509000000E+03 0.  0.
        -13    1    3    3    0    0 -0.19618995473E+01  0.35278409019E+02  0.25714750378E+01  0.35426527358E+02  0.10566000000E+00 0.  1.
         23    2    1    0    0    0 -0.92115993216E+01 -0.22054602781E+02  0.17917082654E+02  0.95218928431E+02  0.90412186207E+02 0.  0.
         13    1    3    3    0    0 -0.72496997742E+01 -0.57333011800E+02  0.15345607616E+02  0.59792401072E+02  0.10566000000E+00 0. -1.
         22    1    1    0    0    0  0.92115993216E+01  0.22054602781E+02 -0.17917082654E+02  0.29871071569E+02  0.00000000000E+00 0. -1.
</event>
<event>
 5    1  0.1261010E-009  0.9118800E+02  0.7561462E-02  0.1125453E+00
         25   -1    0    0    0    0  0.00000000000E+00  0.00000000000E+00  0.99999998245E-14  0.12509000000E+03  0.12509000000E+03 0.  0.
        -13    1    3    3    0    0  0.66888673392E+01  0.14243664849E+02  0.33049538343E+02  0.36604727609E+02  0.10566000000E+00 0.  1.
         23    2    1    0    0    0  0.19616138462E+02 -0.16677572493E+01 -0.22130534292E+02  0.95470161201E+02  0.90759114304E+02 0.  0.
         13    1    3    3    0    0  0.12927271123E+02 -0.15911422098E+02 -0.55180072635E+02  0.58865433592E+02  0.10566000000E+00 0. -1.
         22    1    1    0    0    0 -0.19616138462E+02  0.16677572493E+01  0.22130534292E+02  0.29619838799E+02  0.00000000000E+00 0. -1.
</event>
<event>
 5    1  0.1261010E-009  0.9118800E+02  0.7561462E-02  0.1125453E+00
         25   -1    0    0    0    0  0.00000000000E+00  0.00000000000E+00  0.99999998245E-14  0.12509000000E+03  0.12509000000E+03 0.  0.
        -13    1    3    3    0    0  0.31516032048E+02  0.23357479745E+02 -0.65172859656E+01  0.39765793296E+02  0.10566000000E+00 0. -1.
         23    2    1    0    0    0  0.32871874693E+01 -0.19039563743E+02  0.20077319936E+02  0.97225876744E+02  0.93147526773E+02 0.  0.
         13    1    3    3    0    0 -0.28228844579E+02 -0.42397043488E+02  0.26594605902E+02  0.57460083448E+02  0.10566000000E+00 0.  1.
         22    1    1    0    0    0 -0.32871874693E+01  0.19039563743E+02 -0.20077319936E+02  0.27864123256E+02  0.00000000000E+00 0.  1.
</event>
<event>
 5    1  0.1261010E-009  0.9118800E+02  0.7561462E-02  0.1125453E+00
         25   -1    0    0    0    0  0.00000000000E+00  0.00000000000E+00  0.99999998245E-14  0.12509000000E+03  0.12509000000E+03 0.  0.
        -13    1    3    3    0    0 -0.23970115302E+02  0.19176180644E+02  0.48483006692E+02  0.57383842967E+02  0.10566000000E+00 0. -1.
         23    2    1    0    0    0 -0.10979787550E+02  0.20906013404E+02  0.76508933684E+01  0.10026756458E+03  0.97146442063E+02 0.  0.
         13    1    3    3    0    0  0.12990327752E+02  0.17298327598E+01 -0.40832113324E+02  0.42883721609E+02  0.10566000000E+00 0.  1.
         22    1    1    0    0    0  0.10979787550E+02 -0.20906013404E+02 -0.76508933684E+01  0.24822435425E+02  0.00000000000E+00 0. -1.
</event>
<event>
 5    1  0.1261010E-009  0.9118800E+02  0.7561462E-02  0.1125453E+00
         25   -1    0    0    0    0  0.00000000000E+00  0.00000000000E+00  0.99999998245E-14  0.12509000000E+03  0.12509000000E+03 0.  0.
        -13    1    3    3    0    0  0.49158556652E+01  0.36098356723E+02 -0.73433393388E+01  0.37164402211E+02  0.10566000000E+00 0.  1.
         23    2    1    0    0    0 -0.18017710695E+02 -0.51503669805E+01  0.24608618971E+02  0.94158651720E+02  0.88933139984E+02 0.  0.
         13    1    3    3    0    0 -0.22933566361E+02 -0.41248723704E+02  0.31951958310E+02  0.56994249509E+02  0.10566000000E+00 0. -1.
         22    1    1    0    0    0  0.18017710695E+02  0.51503669805E+01 -0.24608618971E+02  0.30931348280E+02  0.00000000000E+00 0.  1.
</event>
<event>
 5    1  0.1261010E-009  0.9118800E+02  0.7561462E-02  0.1125453E+00
         25   -1    0    0    0    0  0.00000000000E+00  0.00000000000E+00  0.99999998245E-14  0.12509000000E+03  0.12509000000E+03 0.  0.
        -13    1    3    3    0    0  0.15076738482E+02 -0.16325551363E+02  0.56800996000E+01  0.22937008655E+02  0.10566000000E+00 0.  1.
         23    2    1    0    0    0 -0.15749161800E+02  0.59947935831E+01 -0.39580116012E+02  0.82071873227E+02  0.69894442869E+02 0.  0.
         13    1    3    3    0    0 -0.30825900282E+02  0.22320344946E+02 -0.45260215612E+02  0.59134864572E+02  0.10566000000E+00 0. -1.
         22    1    1    0    0    0  0.15749161800E+02 -0.59947935831E+01  0.39580116012E+02  0.43018126773E+02  0.00000000000E+00 0. -1.
</event>
<event>
 5    1  0.1261010E-009  0.9118800E+02  0.7561462E-02  0.1125453E+00
         25   -1    0    0    0    0  0.00000000000E+00  0.00000000000E+00  0.99999998245E-14  0.12509000000E+03  0.12509000000E+03 0.  0.
        -13    1    3    3    0    0 -0.19099602560E+02  0.69211678955E+01 -0.33489307685E+02  0.39169404849E+02  0.10566000000E+00 0. -1.
         23    2    1    0    0    0 -0.20278159163E+02 -0.18555048541E+02  0.14868182479E+02  0.93840097350E+02  0.88483938967E+02 0.  0.
         13    1    3    3    0    0 -0.11785566029E+01 -0.25476216437E+02  0.48357490164E+02  0.54670692501E+02  0.10566000000E+00 0.  1.
         22    1    1    0    0    0  0.20278159163E+02  0.18555048541E+02 -0.14868182479E+02  0.31249902650E+02  0.00000000000E+00 0.  1.
</event>
<event>
 5    1  0.1261010E-009  0.9118800E+02  0.7561462E-02  0.1125453E+00
         25   -1    0    0    0    0  0.00000000000E+00  0.00000000000E+00  0.99999998245E-14  0.12509000000E+03  0.12509000000E+03 0.  0.
        -13    1    3    3    0    0 -0.49504184279E+02 -0.57632827306E+01  0.15697920515E+02  0.52252421585E+02  0.10566000000E+00 0. -1.
         23    2    1    0    0    0 -0.11154193257E+02 -0.88911265156E+01  0.28842379109E+02  0.92913129571E+02  0.87163631499E+02 0.  0.
         13    1    3    3    0    0  0.38349991022E+02 -0.31278437850E+01  0.13144458594E+02  0.40660707986E+02  0.10566000000E+00 0.  1.
         22    1    1    0    0    0  0.11154193257E+02  0.88911265156E+01 -0.28842379109E+02  0.32176870429E+02  0.00000000000E+00 0. -1.
</event>
<event>
 5    1  0.1261010E-009  0.9118800E+02  0.7561462E-02  0.1125453E+00
         25   -1    0    0    0    0  0.00000000000E+00  0.00000000000E+00  0.99999998245E-14  0.12509000000E+03  0.12509000000E+03 0.  0.
        -13    1    3    3    0    0  0.69521898862E+00 -0.87262840828E+01  0.39128823824E+02  0.40096226521E+02  0.10566000000E+00 0. -1.
         23    2    1    0    0    0 -0.56630656807E+00 -0.27573371206E+02 -0.12305895782E+02  0.94889891162E+02  0.89955793982E+02 0.  0.
         13    1    3    3    0    0 -0.12615255567E+01 -0.18847087124E+02 -0.51434719606E+02  0.54793664641E+02  0.10566000000E+00 0.  1.
         22    1    1    0    0    0  0.56630656807E+00  0.27573371206E+02  0.12305895782E+02  0.30200108838E+02  0.00000000000E+00 0.  1.
</event>
<event>
 5    1  0.1261010E-009  0.9118800E+02  0.7561462E-02  0.1125453E+00
         25   -1    0    0    0    0  0.00000000000E+00  0.00000000000E+00  0.99999998245E-14  0.12509000000E+03  0.12509000000E+03 0.  0.
        -13    1    3    3    0    0 -0.26787100718E+02 -0.20556503303E+02  0.16890249573E+02  0.37754606177E+02  0.10566000000E+00 0.  1.
         23    2    1    0    0    0  0.14944277005E+02 -0.14164798865E+02 -0.21859335115E+02  0.95059957147E+02  0.90191972919E+02 0.  0.
         13    1    3    3    0    0  0.41731377723E+02  0.63917044379E+01 -0.38749584688E+02  0.57305350970E+02  0.10566000000E+00 0. -1.
         22    1    1    0    0    0 -0.14944277005E+02  0.14164798865E+02  0.21859335115E+02  0.30030042853E+02  0.00000000000E+00 0. -1.
</event>
<event>
 5    1  0.1261010E-009  0.9118800E+02  0.7561462E-02  0.1125453E+00
         25   -1    0    0    0    0  0.00000000000E+00  0.00000000000E+00  0.99999998245E-14  0.12509000000E+03  0.12509000000E+03 0.  0.
        -13    1    3    3    0    0  0.55425497463E+01  0.31339790418E+02 -0.95722289154E+01  0.33234636323E+02  0.10566000000E+00 0.  1.
         23    2    1    0    0    0  0.83275016067E+01 -0.29356355497E+02 -0.13838828088E+01  0.94544001527E+02  0.89473516764E+02 0.  0.
         13    1    3    3    0    0  0.27849518603E+01 -0.60696145914E+02  0.81883461066E+01  0.61309365204E+02  0.10566000000E+00 0. -1.
         22    1    1    0    0    0 -0.83275016067E+01  0.29356355497E+02  0.13838828088E+01  0.30545998473E+02  0.00000000000E+00 0. -1.
</event>
<event>
 5    1  0.1261010E-009  0.9118800E+02  0.7561462E-02  0.1125453E+00
         25   -1    0    0    0    0  0.00000000000E+00  0.00000000000E+00  0.99999998245E-14  0.12509000000E+03  0.12509000000E+03 0.  0.
        -13    1    3    3    0    0 -0.18096340318E+02 -0.33546085044E+02  0.21702969017E+02  0.43861684679E+02  0.10566000000E+00 0.  1.
         23    2    1    0    0    0  0.24581496938E+02 -0.45614887882E+01  0.15126321896E+02  0.95869069389E+02  0.91307259732E+02 0.  0.
         13    1    3    3    0    0  0.42677837256E+02  0.28984596256E+02 -0.65766471214E+01  0.52007384710E+02  0.10566000000E+00 0. -1.
         22    1    1    0    0    0 -0.24581496938E+02  0.45614887882E+01 -0.15126321896E+02  0.29220930611E+02  0.00000000000E+00 0. -1.
</event>
<event>
 5    1  0.1261010E-009  0.9118800E+02  0.7561462E-02  0.1125453E+00
         25   -1    0    0    0    0  0.00000000000E+00  0.00000000000E+00  0.99999998245E-14  0.12509000000E+03  0.12509000000E+03 0.  0.
        -13    1    3    3    0    0  0.14388338449E+02  0.54211443210E+02  0.75122420064E-01  0.56088516344E+02  0.10566000000E+00 0.  1.
         23    2    1    0    0    0  0.90600766520E+01  0.25487172093E+02  0.19998968885E+02  0.91450147344E+02  0.85038166505E+02 0.  0.
         13    1    3    3    0    0 -0.53282617969E+01 -0.28724271117E+02  0.19923846465E+02  0.35361631000E+02  0.10566000000E+00 0. -1.
         22    1    1    0    0    0 -0.90600766520E+01 -0.25487172093E+02 -0.19998968885E+02  0.33639852656E+02  0.00000000000E+00 0.  1.
</event>
<event>
 5    1  0.1261010E-009  0.9118800E+02  0.7561462E-02  0.1125453E+00
         25   -1    0    0    0    0  0.00000000000E+00  0.00000000000E+00  0.99999998245E-14  0.12509000000E+03  0.12509000000E+03 0.  0.
        -13    1    3    3    0    0 -0.58514278589E+02  0.17913335007E+01  0.22423140450E+00  0.58542216547E+02  0.10566000000E+00 0.  1.
         23    2    1    0    0    0 -0.24670255121E+02 -0.13875498823E+02 -0.54487631317E+01  0.96265705126E+02  0.91849039235E+02 0.  0.
         13    1    3    3    0    0  0.33844023468E+02 -0.15666832324E+02 -0.56729945362E+01  0.37723488579E+02  0.10566000000E+00 0. -1.
         22    1    1    0    0    0  0.24670255121E+02  0.13875498823E+02  0.54487631317E+01  0.28824294874E+02  0.00000000000E+00 0.  1.
</event>
<event>
 5    1  0.1261010E-009  0.9118800E+02  0.7561462E-02  0.1125453E+00
         25   -1    0    0    0    0  0.00000000000E+00  0.00000000000E+00  0.99999998245E-14  0.12509000000E+03  0.12509000000E+03 0.  0.
        -13    1    3    3    0    0  0.11544655291E+02  0.10757696775E+02 -0.18333048200E+02  0.24189231613E+02  0.10566000000E+00 0. -1.
         23    2    1    0    0    0  0.82537614189E+01  0.29355838813E+02  0.33757776798E+02  0.79598491514E+02  0.65318010587E+02 0.  0.
         13    1    3    3    0    0 -0.32908938723E+01  0.18598142038E+02  0.52090824998E+02  0.55409259901E+02  0.10566000000E+00 0.  1.
         22    1    1    0    0    0 -0.82537614189E+01 -0.29355838813E+02 -0.33757776798E+02  0.45491508486E+02  0.00000000000E+00 0.  1.
</event>
<event>
 5    1  0.1261010E-009  0.9118800E+02  0.7561462E-02  0.1125453E+00
         25   -1    0    0    0    0  0.00000000000E+00  0.00000000000E+00  0.99999998245E-14  0.12509000000E+03  0.12509000000E+03 0.  0.
        -13    1    3    3    0    0 -0.32146137368E+02  0.26782830041E+02  0.39222349770E+02  0.57350658394E+02  0.10566000000E+00 0. -1.
         23    2    1    0    0    0 -0.27717484694E+02  0.54818800583E+01  0.74295775300E+01  0.95875130686E+02  0.91315563269E+02 0.  0.
         13    1    3    3    0    0  0.44286526741E+01 -0.21300949983E+02 -0.31792772240E+02  0.38524472292E+02  0.10566000000E+00 0.  1.
         22    1    1    0    0    0  0.27717484694E+02 -0.54818800583E+01 -0.74295775300E+01  0.29214869314E+02  0.00000000000E+00 0. -1.
</event>
<event>
 5    1  0.1261010E-009  0.9118800E+02  0.7561462E-02  0.1125453E+00
         25   -1    0    0    0    0  0.00000000000E+00  0.00000000000E+00  0.99999998245E-14  0.12509000000E+03  0.12509000000E+03 0.  0.
        -13    1    3    3    0    0 -0.50016156497E+02  0.21993352277E+02  0.17124192554E+02  0.57258821065E+02  0.10566000000E+00 0.  1.
         23    2    1    0    0    0 -0.24123221040E+02  0.18126512265E+02 -0.83437970426E+01  0.93783144691E+02  0.88403388163E+02 0.  0.
         13    1    3    3    0    0  0.25892935457E+02 -0.38668400118E+01 -0.25467989596E+02  0.36524323626E+02  0.10566000000E+00 0. -1.
         22    1    1    0    0    0  0.24123221040E+02 -0.18126512265E+02  0.83437970426E+01  0.31306855309E+02  0.00000000000E+00 0.  1.
</event>
<event>
 5    1  0.1261010E-009  0.9118800E+02  0.7561462E-02  0.1125453E+00
         25   -1    0    0    0    0  0.00000000000E+00  0.00000000000E+00  0.99999998245E-14  0.12509000000E+03  0.12509000000E+03 0.  0.
        -13    1    3    3    0    0 -0.21476283414E+02 -0.38029186008E+02  0.79649232009E+01  0.44394829691E+02  0.10566000000E+00 0.  1.
         23    2    1    0    0    0  0.77991060275E+01 -0.12175869344E+02 -0.25465704917E+02  0.95805533537E+02  0.91220174743E+02 0.  0.
         13    1    3    3    0    0  0.29275389441E+02  0.25853316664E+02 -0.33430628118E+02  0.51410703845E+02  0.10566000000E+00 0. -1.
         22    1    1    0    0    0 -0.77991060275E+01  0.12175869344E+02  0.25465704917E+02  0.29284466463E+02  0.00000000000E+00 0. -1.
</event>
<event>
 5    1  0.1261010E-009  0.9118800E+02  0.7561462E-02  0.1125453E+00
         25   -1    0    0    0    0  0.00000000000E+00  0.00000000000E+00  0.99999998245E-14  0.12509000000E+03  0.12509000000E+03 0.  0.
        -13    1    3    3    0    0  0.32581939651E+02 -0.85581603189E+01  0.16166122446E+02  0.37365486461E+02  0.10566000000E+00 0. -1.
         23    2    1    0    0    0 -0.25426607296E+02 -0.11836264296E+02  0.35613195379E+01  0.96818238331E+02  0.92598481443E+02 0.  0.
         13    1    3    3    0    0 -0.58008546946E+02 -0.32781039770E+01 -0.12604802908E+02  0.59452751870E+02  0.10566000000E+00 0.  1.
         22    1    1    0    0    0  0.25426607296E+02  0.11836264296E+02 -0.35613195379E+01  0.28271761669E+02  0.00000000000E+00 0.  1.
</event>
<event>
 5    1  0.1261010E-009  0.9118800E+02  0.7561462E-02  0.1125453E+00
         25   -1    0    0    0    0  0.00000000000E+00  0.00000000000E+00  0.99999998245E-14  0.12509000000E+03  0.12509000000E+03 0.  0.
        -13    1    3    3    0    0 -0.30162905324E+02  0.23215900768E+02  0.59664220527E+00  0.38067650991E+02  0.10566000000E+00 0.  1.
         23    2    1    0    0    0  0.20471526345E+02 -0.76211971332E+01 -0.14026720394E+02  0.99130128628E+02  0.95670619733E+02 0.  0.
         13    1    3    3    0    0  0.50634431669E+02 -0.30837097901E+02 -0.14623362599E+02  0.61062477637E+02  0.10566000000E+00 0. -1.
         22    1    1    0    0    0 -0.20471526345E+02  0.76211971332E+01  0.14026720394E+02  0.25959871372E+02  0.00000000000E+00 0. -1.
</event>
<event>
 5    1  0.1261010E-009  0.9118800E+02  0.7561462E-02  0.1125453E+00
         25   -1    0    0    0    0  0.00000000000E+00  0.00000000000E+00  0.99999998245E-14  0.12509000000E+03  0.12509000000E+03 0.  0.
        -13    1    3    3    0    0  0.98458811605E+01 -0.35392294512E+02 -0.20996622090E+02  0.42313416192E+02  0.10566000000E+00 0. -1.
         23    2    1    0    0    0  0.16060654580E+02  0.17346210195E+02 -0.17772481690E+02  0.95514727574E+02  0.90820517750E+02 0.  0.
         13    1    3    3    0    0  0.62147734190E+01  0.52738504707E+02  0.32241404000E+01  0.53201311382E+02  0.10566000000E+00 0.  1.
         22    1    1    0    0    0 -0.16060654580E+02 -0.17346210195E+02  0.17772481690E+02  0.29575272426E+02  0.00000000000E+00 0.  1.
</event>
<event>
 5    1  0.1261010E-009  0.9118800E+02  0.7561462E-02  0.1125453E+00
         25   -1    0    0    0    0  0.00000000000E+00  0.00000000000E+00  0.99999998245E-14  0.12509000000E+03  0.12509000000E+03 0.  0.
        -13    1    3    3    0    0  0.70275172651E+01  0.51216158606E+02  0.24044513239E+02  0.57014302435E+02  0.10566000000E+00 0. -1.
         23    2    1    0    0    0  0.12558398982E+02  0.13280257091E+02  0.23452783713E+02  0.95355984508E+02  0.90601612040E+02 0.  0.
         13    1    3    3    0    0  0.55308817167E+01 -0.37935901515E+02 -0.59172952642E+00  0.38341682073E+02  0.10566000000E+00 0.  1.
         22    1    1    0    0    0 -0.12558398982E+02 -0.13280257091E+02 -0.23452783713E+02  0.29734015492E+02  0.00000000000E+00 0. -1.
</event>
<event>
 5    1  0.1261010E-009  0.9118800E+02  0.7561462E-02  0.1125453E+00
         25   -1    0    0    0    0  0.00000000000E+00  0.00000000000E+00  0.99999998245E-14  0.12509000000E+03  0.12509000000E+03 0.  0.
        -13    1    3    3    0    0  0.42517397643E+02 -0.96639361102E+01  0.32191360281E+01  0.43720644600E+02  0.10566000000E+00 0. -1.
         23    2    1    0    0    0  0.54992325732E+01  0.21963060728E+02 -0.17339371729E+02  0.96572086202E+02  0.92265358754E+02 0.  0.
         13    1    3    3    0    0 -0.37018165070E+02  0.31626996838E+02 -0.20558507757E+02  0.52851441602E+02  0.10566000000E+00 0.  1.
         22    1    1    0    0    0 -0.54992325732E+01 -0.21963060728E+02  0.17339371729E+02  0.28517913798E+02  0.00000000000E+00 0. -1.
</event>
<event>
 5    1  0.1261010E-009  0.9118800E+02  0.7561462E-02  0.1125453E+00
         25   -1    0    0    0    0  0.00000000000E+00  0.00000000000E+00  0.99999998245E-14  0.12509000000E+03  0.12509000000E+03 0.  0.
        -13    1    3    3    0    0 -0.45521101757E+02  0.13587117675E+02 -0.35187940026E+01  0.47635843092E+02  0.10566000000E+00 0. -1.
         23    2    1    0    0    0  0.32819206974E+01  0.24345251741E+02 -0.11011895659E+02  0.98169299195E+02  0.94405970005E+02 0.  0.
         13    1    3    3    0    0  0.48803022454E+02  0.10758134066E+02 -0.74931016567E+01  0.50533456103E+02  0.10566000000E+00 0.  1.
         22    1    1    0    0    0 -0.32819206974E+01 -0.24345251741E+02  0.11011895659E+02  0.26920700805E+02  0.00000000000E+00 0.  1.
</event>
<event>
 5    1  0.1261010E-009  0.9118800E+02  0.7561462E-02  0.1125453E+00
         25   -1    0    0    0    0  0.00000000000E+00  0.00000000000E+00  0.99999998245E-14  0.12509000000E+03  0.12509000000E+03 0.  0.
        -13    1    3    3    0    0  0.41090315886E+01 -0.34345808654E+02  0.32555322505E+01  0.34743752920E+02  0.10566000000E+00 0.  1.
         23    2    1    0    0    0  0.81142546371E+01  0.25679471865E+02  0.12129474759E+02  0.95553572296E+02  0.90874004078E+02 0.  0.
         13    1    3    3    0    0  0.40052230485E+01  0.60025280518E+02  0.88739425082E+01  0.60809819377E+02  0.10566000000E+00 0. -1.
         22    1    1    0    0    0 -0.81142546371E+01 -0.25679471865E+02 -0.12129474759E+02  0.29536427704E+02  0.00000000000E+00 0. -1.
</event>
<event>
 5    1  0.1261010E-009  0.9118800E+02  0.7561462E-02  0.1125453E+00
         25   -1    0    0    0    0  0.00000000000E+00  0.00000000000E+00  0.99999998245E-14  0.12509000000E+03  0.12509000000E+03 0.  0.
        -13    1    3    3    0    0 -0.32208603911E+02  0.29222499273E+01  0.15922275814E+01  0.32380241865E+02  0.10566000000E+00 0. -1.
         23    2    1    0    0    0  0.29734431182E+02 -0.35316172449E+01  0.49085957440E+01  0.94746911327E+02  0.89756750029E+02 0.  0.
         13    1    3    3    0    0  0.61943035092E+02 -0.64538671722E+01  0.33163681627E+01  0.62366669462E+02  0.10566000000E+00 0.  1.
         22    1    1    0    0    0 -0.29734431182E+02  0.35316172449E+01 -0.49085957440E+01  0.30343088673E+02  0.00000000000E+00 0.  1.
</event>
<event>
 5    1  0.1261010E-009  0.9118800E+02  0.7561462E-02  0.1125453E+00
         25   -1    0    0    0    0  0.00000000000E+00  0.00000000000E+00  0.99999998245E-14  0.12509000000E+03  0.12509000000E+03 0.  0.
        -13    1    3    3    0    0  0.28388506952E+02 -0.17704755793E+02 -0.11579824426E+02  0.35404366996E+02  0.10566000000E+00 0.  1.
         23    2    1    0    0    0 -0.28211865995E+02 -0.12178667450E+02 -0.11517842463E+02  0.92273997520E+02  0.86241524798E+02 0.  0.
         13    1    3    3    0    0 -0.56600372947E+02  0.55260883429E+01  0.61981963485E-01  0.56869630524E+02  0.10566000000E+00 0. -1.
         22    1    1    0    0    0  0.28211865995E+02  0.12178667450E+02  0.11517842463E+02  0.32816002480E+02  0.00000000000E+00 0. -1.
</event>
<event>
 5    1  0.1261010E-009  0.9118800E+02  0.7561462E-02  0.1125453E+00
         25   -1    0    0    0    0  0.00000000000E+00  0.00000000000E+00  0.99999998245E-14  0.12509000000E+03  0.12509000000E+03 0.  0.
        -13    1    3    3    0    0  0.18694028021E+02 -0.39475164651E+02  0.13668472352E+02  0.45766730366E+02  0.10566000000E+00 0.  1.
         23    2    1    0    0    0 -0.11973659700E+02 -0.10788707127E+02  0.30169213593E+02  0.90885524022E+02  0.84203517147E+02 0.  0.
         13    1    3    3    0    0 -0.30667687721E+02  0.28686457525E+02  0.16500741242E+02  0.45118793657E+02  0.10566000000E+00 0. -1.
         22    1    1    0    0    0  0.11973659700E+02  0.10788707127E+02 -0.30169213593E+02  0.34204475978E+02  0.00000000000E+00 0. -1.
</event>
<event>
 5    1  0.1261010E-009  0.9118800E+02  0.7561462E-02  0.1125453E+00
         25   -1    0    0    0    0  0.00000000000E+00  0.00000000000E+00  0.99999998245E-14  0.12509000000E+03  0.12509000000E+03 0.  0.
        -13    1    3    3    0    0 -0.14302081812E+02  0.59210715224E+01  0.33842828558E+02  0.37215008275E+02  0.10566000000E+00 0. -1.
         23    2    1    0    0    0  0.27873938294E+02 -0.70527938201E+01 -0.48843945542E+01  0.95925712818E+02  0.91384827694E+02 0.  0.
         13    1    3    3    0    0  0.42176020106E+02 -0.12973865343E+02 -0.38727223112E+02  0.58710704542E+02  0.10566000000E+00 0.  1.
         22    1    1    0    0    0 -0.27873938294E+02  0.70527938201E+01  0.48843945542E+01  0.29164287182E+02  0.00000000000E+00 0.  1.
</event>
<event>
 5    1  0.1261010E-009  0.9118800E+02  0.7561462E-02  0.1125453E+00
         25   -1    0    0    0    0  0.00000000000E+00  0.00000000000E+00  0.99999998245E-14  0.12509000000E+03  0.12509000000E+03 0.  0.
        -13    1    3    3    0    0 -0.24434113841E+02  0.19938256371E+01 -0.34534570773E+02  0.42351493508E+02  0.10566000000E+00 0.  1.
         23    2    1    0    0    0  0.25005768664E+02 -0.34164659930E+01 -0.14601782884E+02  0.95932277700E+02  0.91393813439E+02 0.  0.
         13    1    3    3    0    0  0.49439882504E+02 -0.54102916301E+01  0.19932787889E+02  0.53580784192E+02  0.10566000000E+00 0. -1.
         22    1    1    0    0    0 -0.25005768664E+02  0.34164659930E+01  0.14601782884E+02  0.29157722300E+02  0.00000000000E+00 0.  1.
</event>
<event>
 5    1  0.1261010E-009  0.9118800E+02  0.7561462E-02  0.1125453E+00
         25   -1    0    0    0    0  0.00000000000E+00  0.00000000000E+00  0.99999998245E-14  0.12509000000E+03  0.12509000000E+03 0.  0.
        -13    1    3    3    0    0 -0.26026600726E+02 -0.93941626497E+01  0.23681731221E+02  0.36420733036E+02  0.10566000000E+00 0.  1.
         23    2    1    0    0    0  0.22563862508E+01  0.14163660657E+02 -0.24286698763E+02  0.96884605145E+02  0.92688092090E+02 0.  0.
         13    1    3    3    0    0  0.28282986976E+02  0.23557823307E+02 -0.47968429984E+02  0.60463872109E+02  0.10566000000E+00 0. -1.
         22    1    1    0    0    0 -0.22563862508E+01 -0.14163660657E+02  0.24286698763E+02  0.28205394855E+02  0.00000000000E+00 0. -1.
</event>
<event>
 5    1  0.1261010E-009  0.9118800E+02  0.7561462E-02  0.1125453E+00
         25   -1    0    0    0    0  0.00000000000E+00  0.00000000000E+00  0.99999998245E-14  0.12509000000E+03  0.12509000000E+03 0.  0.
        -13    1    3    3    0    0 -0.10515817426E+02 -0.17228016549E+02 -0.33596587834E+02  0.39193479668E+02  0.10566000000E+00 0.  1.
         23    2    1    0    0    0  0.29285805755E+02  0.74830504923E+01 -0.40206020279E+01  0.94597054847E+02  0.89547658159E+02 0.  0.
         13    1    3    3    0    0  0.39801623182E+02  0.24711067041E+02  0.29575985806E+02  0.55403575179E+02  0.10566000000E+00 0. -1.
         22    1    1    0    0    0 -0.29285805755E+02 -0.74830504923E+01  0.40206020279E+01  0.30492945153E+02  0.00000000000E+00 0. -1.
</event>
<event>
 5    1  0.1261010E-009  0.9118800E+02  0.7561462E-02  0.1125453E+00
         25   -1    0    0    0    0  0.00000000000E+00  0.00000000000E+00  0.99999998245E-14  0.12509000000E+03  0.12509000000E+03 0.  0.
        -13    1    3    3    0    0 -0.34807249002E+02 -0.27808069896E+02  0.32609869356E+02  0.55210941650E+02  0.10566000000E+00 0.  1.
         23    2    1    0    0    0 -0.36051791964E+01 -0.11731887893E+01  0.28385745764E+02  0.96452188429E+02  0.92102662292E+02 0.  0.
         13    1    3    3    0    0  0.31202069806E+02  0.26634881107E+02 -0.42241235923E+01  0.41241246779E+02  0.10566000000E+00 0. -1.
         22    1    1    0    0    0  0.36051791964E+01  0.11731887893E+01 -0.28385745764E+02  0.28637811571E+02  0.00000000000E+00 0.  1.
</event>
<event>
 5    1  0.1261010E-009  0.9118800E+02  0.7561462E-02  0.1125453E+00
         25   -1    0    0    0    0  0.00000000000E+00  0.00000000000E+00  0.99999998245E-14  0.12509000000E+03  0.12509000000E+03 0.  0.
        -13    1    3    3    0    0  0.50564100756E+02 -0.14058984382E+02  0.24089511266E+02  0.57746853110E+02  0.10566000000E+00 0.  1.
         23    2    1    0    0    0  0.27973783045E+02 -0.13788253799E+01 -0.49346508354E+01  0.96650863653E+02  0.92372100597E+02 0.  0.
         13    1    3    3    0    0 -0.22590317710E+02  0.12680159002E+02 -0.29024162101E+02  0.38904010543E+02  0.10566000000E+00 0. -1.
         22    1    1    0    0    0 -0.27973783045E+02  0.13788253799E+01  0.49346508354E+01  0.28439136347E+02  0.00000000000E+00 0.  1.
</event>
<event>
 5    1  0.1261010E-009  0.9118800E+02  0.7561462E-02  0.1125453E+00
         25   -1    0    0    0    0  0.00000000000E+00  0.00000000000E+00  0.99999998245E-14  0.12509000000E+03  0.12509000000E+03 0.  0.
        -13    1    3    3    0    0 -0.52283329110E+01 -0.24901877756E+02  0.30479725453E+02  0.39704707637E+02  0.10566000000E+00 0.  1.
         23    2    1    0    0    0 -0.17542452287E+02  0.17681422049E+02 -0.85393846320E+01  0.98759572586E+02  0.95184882043E+02 0.  0.
         13    1    3    3    0    0 -0.12314119376E+02  0.42583299805E+02 -0.39019110085E+02  0.59054864949E+02  0.10566000000E+00 0. -1.
         22    1    1    0    0    0  0.17542452287E+02 -0.17681422049E+02  0.85393846320E+01  0.26330427414E+02  0.00000000000E+00 0. -1.
</event>
<event>
 5    1  0.1261010E-009  0.9118800E+02  0.7561462E-02  0.1125453E+00
         25   -1    0    0    0    0  0.00000000000E+00  0.00000000000E+00  0.99999998245E-14  0.12509000000E+03  0.12509000000E+03 0.  0.
        -13    1    3    3    0    0  0.25231803993E+02  0.43805648505E+02  0.19043553422E+02  0.54020800297E+02  0.10566000000E+00 0.  1.
         23    2    1    0    0    0 -0.13618956007E-01  0.24230354056E+02 -0.11545086485E+02  0.98249745435E+02  0.94512502945E+02 0.  0.
         13    1    3    3    0    0 -0.25245422949E+02 -0.19575294449E+02 -0.30588639907E+02  0.44228945138E+02  0.10566000000E+00 0. -1.
         22    1    1    0    0    0  0.13618956007E-01 -0.24230354056E+02  0.11545086485E+02  0.26840254565E+02  0.00000000000E+00 0.  1.
</event>
<event>
 5    1  0.1261010E-009  0.9118800E+02  0.7561462E-02  0.1125453E+00
         25   -1    0    0    0    0  0.00000000000E+00  0.00000000000E+00  0.99999998245E-14  0.12509000000E+03  0.12509000000E+03 0.  0.
        -13    1    3    3    0    0  0.35306804778E+02 -0.99781419437E+01  0.27431006755E+02  0.45810534552E+02  0.10566000000E+00 0.  1.
         23    2    1    0    0    0 -0.61029609066E+01  0.15594641234E+02  0.25580509737E+02  0.94515477183E+02  0.89433628919E+02 0.  0.
         13    1    3    3    0    0 -0.41409765684E+02  0.25572783178E+02 -0.18504970179E+01  0.48704942631E+02  0.10566000000E+00 0. -1.
         22    1    1    0    0    0  0.61029609066E+01 -0.15594641234E+02 -0.25580509737E+02  0.30574522817E+02  0.00000000000E+00 0. -1.
</event>
<event>
 5    1  0.1261010E-009  0.9118800E+02  0.7561462E-02  0.1125453E+00
         25   -1    0    0    0    0  0.00000000000E+00  0.00000000000E+00  0.99999998245E-14  0.12509000000E+03  0.12509000000E+03 0.  0.
        -13    1    3    3    0    0 -0.48949860645E+02  0.14253317620E+02 -0.13118388026E+02  0.52643605393E+02  0.10566000000E+00 0.  1.
         23    2    1    0    0    0 -0.14034833213E+02 -0.13183295388E+02 -0.19709734108E+02  0.97535518709E+02  0.93562428199E+02 0.  0.
         13    1    3    3    0    0  0.34915027432E+02 -0.27436613009E+02 -0.65913460823E+01  0.44891913316E+02  0.10566000000E+00 0. -1.
         22    1    1    0    0    0  0.14034833213E+02  0.13183295388E+02  0.19709734108E+02  0.27554481291E+02  0.00000000000E+00 0.  1.
</event>
<event>
 5    1  0.1261010E-009  0.9118800E+02  0.7561462E-02  0.1125453E+00
         25   -1    0    0    0    0  0.00000000000E+00  0.00000000000E+00  0.99999998245E-14  0.12509000000E+03  0.12509000000E+03 0.  0.
        -13    1    3    3    0    0 -0.24995571688E+02 -0.25108836603E+02 -0.46341548266E+02  0.58333374147E+02  0.10566000000E+00 0.  1.
         23    2    1    0    0    0 -0.24952565122E+02 -0.90778274083E+01 -0.12579309997E+02  0.95708432706E+02  0.91086923290E+02 0.  0.
         13    1    3    3    0    0  0.43006566182E-01  0.16031009195E+02  0.33762238269E+02  0.37375058560E+02  0.10566000000E+00 0. -1.
         22    1    1    0    0    0  0.24952565122E+02  0.90778274083E+01  0.12579309997E+02  0.29381567294E+02  0.00000000000E+00 0.  1.
</event>
<event>
 5    1  0.1261010E-009  0.9118800E+02  0.7561462E-02  0.1125453E+00
         25   -1    0    0    0    0  0.00000000000E+00  0.00000000000E+00  0.99999998245E-14  0.12509000000E+03  0.12509000000E+03 0.  0.
        -13    1    3    3    0    0  0.28543554254E+02  0.26107064390E+02  0.11408122381E+02  0.40329514264E+02  0.10566000000E+00 0. -1.
         23    2    1    0    0    0  0.47310970260E+01 -0.22671952337E+02  0.18992766269E+02  0.95137940432E+02  0.90300065544E+02 0.  0.
         13    1    3    3    0    0 -0.23812457228E+02 -0.48779016726E+02  0.75846438879E+01  0.54808426168E+02  0.10566000000E+00 0.  1.
         22    1    1    0    0    0 -0.47310970260E+01  0.22671952337E+02 -0.18992766269E+02  0.29952059568E+02  0.00000000000E+00 0.  1.
</event>
<event>
 5    1  0.1261010E-009  0.9118800E+02  0.7561462E-02  0.1125453E+00
         25   -1    0    0    0    0  0.00000000000E+00  0.00000000000E+00  0.99999998245E-14  0.12509000000E+03  0.12509000000E+03 0.  0.
        -13    1    3    3    0    0 -0.26350742391E+02  0.24508942746E+02 -0.12247752259E+02  0.38014056591E+02  0.10566000000E+00 0.  1.
         23    2    1    0    0    0  0.23253998913E+02  0.87285634956E+01  0.14281273091E+02  0.96438803738E+02  0.92084481967E+02 0.  0.
         13    1    3    3    0    0  0.49604741304E+02 -0.15780379251E+02  0.26529025350E+02  0.58424747147E+02  0.10566000000E+00 0. -1.
         22    1    1    0    0    0 -0.23253998913E+02 -0.87285634956E+01 -0.14281273091E+02  0.28651196262E+02  0.00000000000E+00 0. -1.
</event>
<event>
 5    1  0.1261010E-009  0.9118800E+02  0.7561462E-02  0.1125453E+00
         25   -1    0    0    0    0  0.00000000000E+00  0.00000000000E+00  0.99999998245E-14  0.12509000000E+03  0.12509000000E+03 0.  0.
        -13    1    3    3    0    0  0.46167012958E+02 -0.21049891337E+02  0.31475300535E+02  0.59709268281E+02  0.10566000000E+00 0.  1.
         23    2    1    0    0    0  0.12116817046E+02 -0.98144452094E+01  0.24208420208E+02  0.96294371876E+02  0.91888072435E+02 0.  0.
         13    1    3    3    0    0 -0.34050195912E+02  0.11235446128E+02 -0.72668803270E+01  0.36585103595E+02  0.10566000000E+00 0. -1.
         22    1    1    0    0    0 -0.12116817046E+02  0.98144452094E+01 -0.24208420208E+02  0.28795628124E+02  0.00000000000E+00 0.  1.
</event>
<event>
 5    1  0.1261010E-009  0.9118800E+02  0.7561462E-02  0.1125453E+00
         25   -1    0    0    0    0  0.00000000000E+00  0.00000000000E+00  0.99999998245E-14  0.12509000000E+03  0.12509000000E+03 0.  0.
        -13    1    3    3    0    0 -0.13732097611E+02  0.45459257282E+02  0.68270567826E+01  0.47976394672E+02  0.10566000000E+00 0.  1.
         23    2    1    0    0    0 -0.98294772631E+01  0.16168444055E+02 -0.26506860986E+02  0.92522364444E+02  0.86601022145E+02 0.  0.
         13    1    3    3    0    0  0.39026203475E+01 -0.29290813227E+02 -0.33333917768E+02  0.44545969771E+02  0.10566000000E+00 0. -1.
         22    1    1    0    0    0  0.98294772631E+01 -0.16168444055E+02  0.26506860986E+02  0.32567635556E+02  0.00000000000E+00 0. -1.
</event>
<event>
 5    1  0.1261010E-009  0.9118800E+02  0.7561462E-02  0.1125453E+00
         25   -1    0    0    0    0  0.00000000000E+00  0.00000000000E+00  0.99999998245E-14  0.12509000000E+03  0.12509000000E+03 0.  0.
        -13    1    3    3    0    0 -0.39426155424E+02 -0.75856311128E+01 -0.42382896809E+01  0.40372488087E+02  0.10566000000E+00 0.  1.
         23    2    1    0    0    0  0.44806336840E+01 -0.45906679101E+00  0.28900102195E+02  0.95841021771E+02  0.91268826697E+02 0.  0.
         13    1    3    3    0    0  0.43906789108E+02  0.71265643218E+01  0.33138391876E+02  0.55468533684E+02  0.10566000000E+00 0. -1.
         22    1    1    0    0    0 -0.44806336840E+01  0.45906679101E+00 -0.28900102195E+02  0.29248978229E+02  0.00000000000E+00 0. -1.
</event>
<event>
 5    1  0.1261010E-009  0.9118800E+02  0.7561462E-02  0.1125453E+00
         25   -1    0    0    0    0  0.00000000000E+00  0.00000000000E+00  0.99999998245E-14  0.12509000000E+03  0.12509000000E+03 0.  0.
        -13    1    3    3    0    0  0.17896587228E+02  0.27960674110E+01 -0.38220977744E+02  0.42296100660E+02  0.10566000000E+00 0.  1.
         23    2    1    0    0    0 -0.61261510055E+01  0.23186477122E+02  0.93444289285E+01  0.99351686157E+02  0.95959870481E+02 0.  0.
         13    1    3    3    0    0 -0.24022738233E+02  0.20390409711E+02  0.47565406672E+02  0.57055585496E+02  0.10566000000E+00 0. -1.
         22    1    1    0    0    0  0.61261510055E+01 -0.23186477122E+02 -0.93444289285E+01  0.25738313843E+02  0.00000000000E+00 0. -1.
</event>
<event>
 5    1  0.1261010E-009  0.9118800E+02  0.7561462E-02  0.1125453E+00
         25   -1    0    0    0    0  0.00000000000E+00  0.00000000000E+00  0.99999998245E-14  0.12509000000E+03  0.12509000000E+03 0.  0.
        -13    1    3    3    0    0 -0.35209279659E+02 -0.17364240207E+02 -0.24424337654E+02  0.46236021087E+02  0.10566000000E+00 0.  1.
         23    2    1    0    0    0 -0.18947270588E+02  0.21718871939E+02  0.21010610864E+01  0.96191506635E+02  0.91747932020E+02 0.  0.
         13    1    3    3    0    0  0.16262009071E+02  0.39083112146E+02  0.26525398740E+02  0.49955485549E+02  0.10566000000E+00 0. -1.
         22    1    1    0    0    0  0.18947270588E+02 -0.21718871939E+02 -0.21010610864E+01  0.28898493365E+02  0.00000000000E+00 0.  1.
</event>
<event>
 5    1  0.1261010E-009  0.9118800E+02  0.7561462E-02  0.1125453E+00
         25   -1    0    0    0    0  0.00000000000E+00  0.00000000000E+00  0.99999998245E-14  0.12509000000E+03  0.12509000000E+03 0.  0.
        -13    1    3    3    0    0 -0.28679270458E+02 -0.41222256216E+02 -0.36891833151E+02  0.62312065275E+02  0.10566000000E+00 0.  1.
         23    2    1    0    0    0 -0.97159927614E+01 -0.20142367202E+02 -0.14563122340E+02  0.98402924399E+02  0.94715022706E+02 0.  0.
         13    1    3    3    0    0  0.18963277696E+02  0.21079889014E+02  0.22328710811E+02  0.36090859125E+02  0.10566000000E+00 0. -1.
         22    1    1    0    0    0  0.97159927614E+01  0.20142367202E+02  0.14563122340E+02  0.26687075601E+02  0.00000000000E+00 0.  1.
</event>
<event>
 5    1  0.1261010E-009  0.9118800E+02  0.7561462E-02  0.1125453E+00
         25   -1    0    0    0    0  0.00000000000E+00  0.00000000000E+00  0.99999998245E-14  0.12509000000E+03  0.12509000000E+03 0.  0.
        -13    1    3    3    0    0 -0.16454351161E+02  0.18389781852E+02  0.37771735270E+02  0.45118121615E+02  0.10566000000E+00 0.  1.
         23    2    1    0    0    0  0.22319097465E+02  0.44299478565E+01  0.30614930650E+02  0.86945006510E+02  0.78130619021E+02 0.  0.
         13    1    3    3    0    0  0.38773448626E+02 -0.13959833996E+02 -0.71568046205E+01  0.41826884895E+02  0.10566000000E+00 0. -1.
         22    1    1    0    0    0 -0.22319097465E+02 -0.44299478565E+01 -0.30614930650E+02  0.38144993490E+02  0.00000000000E+00 0.  1.
</event>
<event>
 5    1  0.1261010E-009  0.9118800E+02  0.7561462E-02  0.1125453E+00
         25   -1    0    0    0    0  0.00000000000E+00  0.00000000000E+00  0.99999998245E-14  0.12509000000E+03  0.12509000000E+03 0.  0.
        -13    1    3    3    0    0 -0.41303847509E+02  0.64770714550E+01  0.45186299169E+02  0.61561132789E+02  0.10566000000E+00 0.  1.
         23    2    1    0    0    0 -0.15897410667E+02  0.72740063046E+00  0.28353755252E+02  0.92575507624E+02  0.86677750301E+02 0.  0.
         13    1    3    3    0    0  0.25406436842E+02 -0.57496708246E+01 -0.16832543917E+02  0.31014374834E+02  0.10566000000E+00 0. -1.
         22    1    1    0    0    0  0.15897410667E+02 -0.72740063046E+00 -0.28353755252E+02  0.32514492376E+02  0.00000000000E+00 0.  1.
</event>
<event>
 5    1  0.1261010E-009  0.9118800E+02  0.7561462E-02  0.1125453E+00
         25   -1    0    0    0    0  0.00000000000E+00  0.00000000000E+00  0.99999998245E-14  0.12509000000E+03  0.12509000000E+03 0.  0.
        -13    1    3    3    0    0 -0.31495465947E+02  0.23363874477E+02  0.32857472757E+02  0.51161114978E+02  0.10566000000E+00 0.  1.
         23    2    1    0    0    0  0.62383898824E+01  0.24315711677E+02  0.24890578429E+02  0.89738730755E+02  0.82482286343E+02 0.  0.
         13    1    3    3    0    0  0.37733855829E+02  0.95183720043E+00 -0.79668943282E+01  0.38577615778E+02  0.10566000000E+00 0. -1.
         22    1    1    0    0    0 -0.62383898824E+01 -0.24315711677E+02 -0.24890578429E+02  0.35351269245E+02  0.00000000000E+00 0.  1.
</event>
<event>
 5    1  0.1261010E-009  0.9118800E+02  0.7561462E-02  0.1125453E+00
         25   -1    0    0    0    0  0.00000000000E+00  0.00000000000E+00  0.99999998245E-14  0.12509000000E+03  0.12509000000E+03 0.  0.
        -13    1    3    3    0    0 -0.30244161853E+02  0.42199539046E+02  0.17513845251E+02  0.54792849546E+02  0.10566000000E+00 0.  1.
         23    2    1    0    0    0 -0.12907542584E+02  0.56201797352E+01  0.25414782142E+02  0.96036562559E+02  0.91536436029E+02 0.  0.
         13    1    3    3    0    0  0.17336619269E+02 -0.36579359311E+02  0.79009368919E+01  0.41243713013E+02  0.10566000000E+00 0. -1.
         22    1    1    0    0    0  0.12907542584E+02 -0.56201797352E+01 -0.25414782142E+02  0.29053437441E+02  0.00000000000E+00 0.  1.
</event>
<event>
 5    1  0.1261010E-009  0.9118800E+02  0.7561462E-02  0.1125453E+00
         25   -1    0    0    0    0  0.00000000000E+00  0.00000000000E+00  0.99999998245E-14  0.12509000000E+03  0.12509000000E+03 0.  0.
        -13    1    3    3    0    0 -0.25528064958E+02 -0.26878778018E+02  0.36896511550E+02  0.52302146580E+02  0.10566000000E+00 0. -1.
         23    2    1    0    0    0  0.12571791377E+02 -0.20565433894E+02  0.15077057619E+02  0.96659300463E+02  0.92383524992E+02 0.  0.
         13    1    3    3    0    0  0.38099856335E+02  0.63133441239E+01 -0.21819453931E+02  0.44357153884E+02  0.10566000000E+00 0.  1.
         22    1    1    0    0    0 -0.12571791377E+02  0.20565433894E+02 -0.15077057619E+02  0.28430699537E+02  0.00000000000E+00 0. -1.
</event>
<event>
 5    1  0.1261010E-009  0.9118800E+02  0.7561462E-02  0.1125453E+00
         25   -1    0    0    0    0  0.00000000000E+00  0.00000000000E+00  0.99999998245E-14  0.12509000000E+03  0.12509000000E+03 0.  0.
        -13    1    3    3    0    0 -0.42661307366E+02 -0.93832119906E+00  0.37585763664E+02  0.56864473858E+02  0.10566000000E+00 0. -1.
         23    2    1    0    0    0 -0.18461222779E+02  0.17933872120E+02  0.12626653923E+02  0.96421674186E+02  0.92061209789E+02 0.  0.
         13    1    3    3    0    0  0.24200084587E+02  0.18872193319E+02 -0.24959109741E+02  0.39557200328E+02  0.10566000000E+00 0.  1.
         22    1    1    0    0    0  0.18461222779E+02 -0.17933872120E+02 -0.12626653923E+02  0.28668325814E+02  0.00000000000E+00 0. -1.
</event>
<event>
 5    1  0.1261010E-009  0.9118800E+02  0.7561462E-02  0.1125453E+00
         25   -1    0    0    0    0  0.00000000000E+00  0.00000000000E+00  0.99999998245E-14  0.12509000000E+03  0.12509000000E+03 0.  0.
        -13    1    3    3    0    0  0.39351529507E+02 -0.13663691833E+02  0.38567696926E+02  0.56768985892E+02  0.10566000000E+00 0. -1.
         23    2    1    0    0    0  0.14259972485E+02 -0.23196482951E+02  0.97068182933E+01  0.96182458459E+02  0.91735594821E+02 0.  0.
         13    1    3    3    0    0 -0.25091557022E+02 -0.95327911178E+01 -0.28860878633E+02  0.39413472566E+02  0.10566000000E+00 0.  1.
         22    1    1    0    0    0 -0.14259972485E+02  0.23196482951E+02 -0.97068182933E+01  0.28907541541E+02  0.00000000000E+00 0. -1.
</event>
<event>
 5    1  0.1261010E-009  0.9118800E+02  0.7561462E-02  0.1125453E+00
         25   -1    0    0    0    0  0.00000000000E+00  0.00000000000E+00  0.99999998245E-14  0.12509000000E+03  0.12509000000E+03 0.  0.
        -13    1    3    3    0    0  0.13019591611E+02 -0.52305596781E+02  0.31086098473E+02  0.62223322819E+02  0.10566000000E+00 0.  1.
         23    2    1    0    0    0  0.66170001008E+01 -0.26826886329E+02  0.10766526062E+02  0.95435580365E+02  0.90711440269E+02 0.  0.
         13    1    3    3    0    0 -0.64025915099E+01  0.25478710451E+02 -0.20319572411E+02  0.33212257546E+02  0.10566000000E+00 0. -1.
         22    1    1    0    0    0 -0.66170001008E+01  0.26826886329E+02 -0.10766526062E+02  0.29654419635E+02  0.00000000000E+00 0.  1.
</event>
<event>
 5    1  0.1261010E-009  0.9118800E+02  0.7561462E-02  0.1125453E+00
         25   -1    0    0    0    0  0.00000000000E+00  0.00000000000E+00  0.99999998245E-14  0.12509000000E+03  0.12509000000E+03 0.  0.
        -13    1    3    3    0    0  0.51073741113E+02 -0.92843036528E+01  0.34377043973E+02  0.62261686790E+02  0.10566000000E+00 0. -1.
         23    2    1    0    0    0  0.21061524478E+02 -0.70791349676E+01  0.17808852073E+02  0.96614445969E+02  0.92322770715E+02 0.  0.
         13    1    3    3    0    0 -0.30012216636E+02  0.22051686852E+01 -0.16568191900E+02  0.34352759179E+02  0.10566000000E+00 0.  1.
         22    1    1    0    0    0 -0.21061524478E+02  0.70791349676E+01 -0.17808852073E+02  0.28475554031E+02  0.00000000000E+00 0. -1.
</event>
<event>
 5    1  0.1261010E-009  0.9118800E+02  0.7561462E-02  0.1125453E+00
         25   -1    0    0    0    0  0.00000000000E+00  0.00000000000E+00  0.99999998245E-14  0.12509000000E+03  0.12509000000E+03 0.  0.
        -13    1    3    3    0    0 -0.81548349430E+01 -0.51766794947E+02  0.30135075285E+02  0.60451933952E+02  0.10566000000E+00 0.  1.
         23    2    1    0    0    0  0.75540417531E+01 -0.24180226471E+02  0.15325798959E+02  0.95482112322E+02  0.90775584607E+02 0.  0.
         13    1    3    3    0    0  0.15708876696E+02  0.27586568476E+02 -0.14809276326E+02  0.35030178370E+02  0.10566000000E+00 0. -1.
         22    1    1    0    0    0 -0.75540417531E+01  0.24180226471E+02 -0.15325798959E+02  0.29607887678E+02  0.00000000000E+00 0.  1.
</event>
<event>
 5    1  0.1261010E-009  0.9118800E+02  0.7561462E-02  0.1125453E+00
         25   -1    0    0    0    0  0.00000000000E+00  0.00000000000E+00  0.99999998245E-14  0.12509000000E+03  0.12509000000E+03 0.  0.
        -13    1    3    3    0    0 -0.18949155846E+02 -0.39496476522E+02  0.86171735948E+01  0.44646489333E+02  0.10566000000E+00 0.  1.
         23    2    1    0    0    0 -0.61169832421E+01 -0.70146286194E+01 -0.28200247485E+02  0.95393595220E+02  0.90653524764E+02 0.  0.
         13    1    3    3    0    0  0.12832172604E+02  0.32481847903E+02 -0.36817421080E+02  0.50747105887E+02  0.10566000000E+00 0. -1.
         22    1    1    0    0    0  0.61169832421E+01  0.70146286194E+01  0.28200247485E+02  0.29696404780E+02  0.00000000000E+00 0. -1.
</event>
<event>
 5    1  0.1261010E-009  0.9118800E+02  0.7561462E-02  0.1125453E+00
         25   -1    0    0    0    0  0.00000000000E+00  0.00000000000E+00  0.99999998245E-14  0.12509000000E+03  0.12509000000E+03 0.  0.
        -13    1    3    3    0    0 -0.26058878363E+02 -0.52382565521E+02 -0.18776897692E+02  0.61445759520E+02  0.10566000000E+00 0.  1.
         23    2    1    0    0    0 -0.50515094377E+01 -0.28458847183E+02 -0.10455380409E+02  0.94353397876E+02  0.89206642021E+02 0.  0.
         13    1    3    3    0    0  0.21007368925E+02  0.23923718337E+02  0.83215172829E+01  0.32907638356E+02  0.10566000000E+00 0. -1.
         22    1    1    0    0    0  0.50515094377E+01  0.28458847183E+02  0.10455380409E+02  0.30736602124E+02  0.00000000000E+00 0.  1.
</event>
<event>
 5    1  0.1261010E-009  0.9118800E+02  0.7561462E-02  0.1125453E+00
         25   -1    0    0    0    0  0.00000000000E+00  0.00000000000E+00  0.99999998245E-14  0.12509000000E+03  0.12509000000E+03 0.  0.
        -13    1    3    3    0    0 -0.41852816527E+02 -0.45192120441E+02 -0.24311132603E+01  0.61643389563E+02  0.10566000000E+00 0.  1.
         23    2    1    0    0    0 -0.14719149703E+02 -0.25083156695E+02 -0.52619919536E+01  0.95534853628E+02  0.90848233778E+02 0.  0.
         13    1    3    3    0    0  0.27133666823E+02  0.20108963746E+02 -0.28308786932E+01  0.33891464064E+02  0.10566000000E+00 0. -1.
         22    1    1    0    0    0  0.14719149703E+02  0.25083156695E+02  0.52619919536E+01  0.29555146372E+02  0.00000000000E+00 0.  1.
</event>
<event>
 5    1  0.1261010E-009  0.9118800E+02  0.7561462E-02  0.1125453E+00
         25   -1    0    0    0    0  0.00000000000E+00  0.00000000000E+00  0.99999998245E-14  0.12509000000E+03  0.12509000000E+03 0.  0.
        -13    1    3    3    0    0  0.41136056359E+02 -0.16550258336E+02  0.42951879859E+02  0.61732984143E+02  0.10566000000E+00 0.  1.
         23    2    1    0    0    0  0.18216577534E+02 -0.13863798773E+02  0.16296586349E+02  0.96989691459E+02  0.92829806147E+02 0.  0.
         13    1    3    3    0    0 -0.22919478826E+02  0.26864595634E+01 -0.26655293510E+02  0.35256707316E+02  0.10566000000E+00 0. -1.
         22    1    1    0    0    0 -0.18216577534E+02  0.13863798773E+02 -0.16296586349E+02  0.28100308541E+02  0.00000000000E+00 0.  1.
</event>
<event>
 4    1  0.1261010E-009  0.9118800E+02  0.7561462E-02  0.1125453E+00
         25   -1    0    0    0    0  0.00000000000E+00  0.00000000000E+00  0.99999998245E-14  0.12509000000E+03  0.12509000000E+03 0.  0.
        -13    1    1    0    0    0  0.34308676262E+02  0.98338406302E+01  0.36426235130E+02  0.50996778900E+02  0.10566000000E+00 0.  1.
         13    1    1    0    0    0 -0.10390216963E+02  0.65099971106E+01  0.12324302952E+02  0.17384944009E+02  0.10566000000E+00 0. -1.
         22    1    1    0    0    0 -0.23918459300E+02 -0.16343837741E+02 -0.48750538082E+02  0.56708277091E+02  0.00000000000E+00 0.  1.
</event>
<event>
 5    1  0.1261010E-009  0.9118800E+02  0.7561462E-02  0.1125453E+00
         25   -1    0    0    0    0  0.00000000000E+00  0.00000000000E+00  0.99999998245E-14  0.12509000000E+03  0.12509000000E+03 0.  0.
        -13    1    3    3    0    0  0.49372571244E+02  0.32379864244E+02 -0.99770312929E+01  0.59880370049E+02  0.10566000000E+00 0.  1.
         23    2    1    0    0    0  0.14401381796E+02  0.20125464994E+02 -0.13138399075E+02  0.97071226489E+02  0.92939611269E+02 0.  0.
         13    1    3    3    0    0 -0.34971189449E+02 -0.12254399250E+02 -0.31613677820E+01  0.37190856440E+02  0.10566000000E+00 0. -1.
         22    1    1    0    0    0 -0.14401381796E+02 -0.20125464994E+02  0.13138399075E+02  0.28018773511E+02  0.00000000000E+00 0.  1.
</event>
<event>
 5    1  0.1261010E-009  0.9118800E+02  0.7561462E-02  0.1125453E+00
         25   -1    0    0    0    0  0.00000000000E+00  0.00000000000E+00  0.99999998245E-14  0.12509000000E+03  0.12509000000E+03 0.  0.
        -13    1    3    3    0    0  0.46139210572E+02 -0.10097939652E+02  0.16540806530E+02  0.50044026438E+02  0.10566000000E+00 0. -1.
         23    2    1    0    0    0  0.14937459274E+01 -0.22079282272E+02  0.18404871565E+02  0.96306927199E+02  0.91905162785E+02 0.  0.
         13    1    3    3    0    0 -0.44645464645E+02 -0.11981342620E+02  0.18640650346E+01  0.46262900761E+02  0.10566000000E+00 0.  1.
         22    1    1    0    0    0 -0.14937459274E+01  0.22079282272E+02 -0.18404871565E+02  0.28783072801E+02  0.00000000000E+00 0. -1.
</event>
<event>
 5    1  0.1261010E-009  0.9118800E+02  0.7561462E-02  0.1125453E+00
         25   -1    0    0    0    0  0.00000000000E+00  0.00000000000E+00  0.99999998245E-14  0.12509000000E+03  0.12509000000E+03 0.  0.
        -13    1    3    3    0    0 -0.10769071676E+02 -0.17462231638E+02 -0.48579735140E+02  0.52734279827E+02  0.10566000000E+00 0. -1.
         23    2    1    0    0    0 -0.19411589077E+02 -0.15381137582E+02 -0.19027729412E+01  0.10025031947E+03  0.97124233978E+02 0.  0.
         13    1    3    3    0    0 -0.86425174012E+01  0.20810940568E+01  0.46676962199E+02  0.47516039646E+02  0.10566000000E+00 0.  1.
         22    1    1    0    0    0  0.19411589077E+02  0.15381137582E+02  0.19027729412E+01  0.24839680526E+02  0.00000000000E+00 0.  1.
</event>
<event>
 5    1  0.1261010E-009  0.9118800E+02  0.7561462E-02  0.1125453E+00
         25   -1    0    0    0    0  0.00000000000E+00  0.00000000000E+00  0.99999998245E-14  0.12509000000E+03  0.12509000000E+03 0.  0.
        -13    1    3    3    0    0  0.76339341356E+01 -0.42676276017E+01 -0.48737811045E+02  0.49516411272E+02  0.10566000000E+00 0.  1.
         23    2    1    0    0    0  0.64898772524E+01  0.24749679475E+02 -0.10739394257E+02  0.97341131016E+02  0.93302176060E+02 0.  0.
         13    1    3    3    0    0 -0.11440568831E+01  0.29017307077E+02  0.37998416788E+02  0.47824719744E+02  0.10566000000E+00 0. -1.
         22    1    1    0    0    0 -0.64898772524E+01 -0.24749679475E+02  0.10739394257E+02  0.27748868984E+02  0.00000000000E+00 0. -1.
</event>
<event>
 5    1  0.1261010E-009  0.9118800E+02  0.7561462E-02  0.1125453E+00
         25   -1    0    0    0    0  0.00000000000E+00  0.00000000000E+00  0.99999998245E-14  0.12509000000E+03  0.12509000000E+03 0.  0.
        -13    1    3    3    0    0 -0.12635980353E+02 -0.13710319457E+02  0.42977037783E+02  0.46847388398E+02  0.10566000000E+00 0.  1.
         23    2    1    0    0    0 -0.76805436641E+01 -0.29477467849E+02 -0.17978168817E+01  0.94575347662E+02  0.89517330043E+02 0.  0.
         13    1    3    3    0    0  0.49554366889E+01 -0.15767148393E+02 -0.44774854665E+02  0.47727959264E+02  0.10566000000E+00 0. -1.
         22    1    1    0    0    0  0.76805436641E+01  0.29477467849E+02  0.17978168817E+01  0.30514652338E+02  0.00000000000E+00 0. -1.
</event>
<event>
 5    1  0.1261010E-009  0.9118800E+02  0.7561462E-02  0.1125453E+00
         25   -1    0    0    0    0  0.00000000000E+00  0.00000000000E+00  0.99999998245E-14  0.12509000000E+03  0.12509000000E+03 0.  0.
        -13    1    3    3    0    0  0.36117378949E+02  0.37643602638E+02 -0.23257057293E+02  0.57117490838E+02  0.10566000000E+00 0.  1.
         23    2    1    0    0    0  0.29387347964E+02  0.61927824169E+01 -0.35246430511E+01  0.94851119679E+02  0.89901863281E+02 0.  0.
         13    1    3    3    0    0 -0.67300309847E+01 -0.31450820221E+02  0.19732414242E+02  0.37733628841E+02  0.10566000000E+00 0. -1.
         22    1    1    0    0    0 -0.29387347964E+02 -0.61927824169E+01  0.35246430511E+01  0.30238880321E+02  0.00000000000E+00 0.  1.
</event>
<event>
 5    1  0.1261010E-009  0.9118800E+02  0.7561462E-02  0.1125453E+00
         25   -1    0    0    0    0  0.00000000000E+00  0.00000000000E+00  0.99999998245E-14  0.12509000000E+03  0.12509000000E+03 0.  0.
        -13    1    3    3    0    0 -0.48979624082E+02 -0.38478612001E+01 -0.37314303910E+01  0.49272145760E+02  0.10566000000E+00 0.  1.
         23    2    1    0    0    0 -0.11512979218E+02  0.99752190871E+01 -0.25969952727E+02  0.94981992245E+02  0.90083776120E+02 0.  0.
         13    1    3    3    0    0  0.37466644864E+02  0.13823080287E+02 -0.22238522336E+02  0.45709846485E+02  0.10566000000E+00 0. -1.
         22    1    1    0    0    0  0.11512979218E+02 -0.99752190871E+01  0.25969952727E+02  0.30108007755E+02  0.00000000000E+00 0.  1.
</event>
<event>
 5    1  0.1261010E-009  0.9118800E+02  0.7561462E-02  0.1125453E+00
         25   -1    0    0    0    0  0.00000000000E+00  0.00000000000E+00  0.99999998245E-14  0.12509000000E+03  0.12509000000E+03 0.  0.
        -13    1    3    3    0    0 -0.14660251681E+02  0.17817676033E+02  0.51888509763E+02  0.56787508909E+02  0.10566000000E+00 0.  1.
         23    2    1    0    0    0 -0.55540648702E+01 -0.10253452792E+02  0.28010609163E+02  0.94749018532E+02  0.89759686700E+02 0.  0.
         13    1    3    3    0    0  0.91061868103E+01 -0.28071128826E+02 -0.23877900601E+02  0.37961509624E+02  0.10566000000E+00 0. -1.
         22    1    1    0    0    0  0.55540648702E+01  0.10253452792E+02 -0.28010609163E+02  0.30340981468E+02  0.00000000000E+00 0. -1.
</event>
<event>
 5    1  0.1261010E-009  0.9118800E+02  0.7561462E-02  0.1125453E+00
         25   -1    0    0    0    0  0.00000000000E+00  0.00000000000E+00  0.99999998245E-14  0.12509000000E+03  0.12509000000E+03 0.  0.
        -13    1    3    3    0    0 -0.12969377401E+02  0.30295451476E+02 -0.48953167316E+02  0.59012226569E+02  0.10566000000E+00 0. -1.
         23    2    1    0    0    0 -0.98958227496E+01  0.24450216881E+02 -0.12786068815E+02  0.95777477605E+02  0.91181693596E+02 0.  0.
         13    1    3    3    0    0  0.30735546512E+01 -0.58452345952E+01  0.36167098501E+02  0.36765251035E+02  0.10566000000E+00 0.  1.
         22    1    1    0    0    0  0.98958227496E+01 -0.24450216881E+02  0.12786068815E+02  0.29312522395E+02  0.00000000000E+00 0. -1.
</event>
<event>
 5    1  0.1261010E-009  0.9118800E+02  0.7561462E-02  0.1125453E+00
         25   -1    0    0    0    0  0.00000000000E+00  0.00000000000E+00  0.99999998245E-14  0.12509000000E+03  0.12509000000E+03 0.  0.
        -13    1    3    3    0    0  0.72990053835E+01  0.28174874586E+02  0.44822372515E+02  0.53443009641E+02  0.10566000000E+00 0. -1.
         23    2    1    0    0    0 -0.72670233217E+01  0.28924728038E+02  0.63357324512E+01  0.94600804770E+02  0.89552896310E+02 0.  0.
         13    1    3    3    0    0 -0.14566028705E+02  0.74985345207E+00 -0.38486640064E+02  0.41157795129E+02  0.10566000000E+00 0.  1.
         22    1    1    0    0    0  0.72670233217E+01 -0.28924728038E+02 -0.63357324512E+01  0.30489195230E+02  0.00000000000E+00 0. -1.
</event>
<event>
 5    1  0.1261010E-009  0.9118800E+02  0.7561462E-02  0.1125453E+00
         25   -1    0    0    0    0  0.00000000000E+00  0.00000000000E+00  0.99999998245E-14  0.12509000000E+03  0.12509000000E+03 0.  0.
        -13    1    3    3    0    0 -0.41620590223E+02  0.74636414015E+01  0.25341271357E+02  0.49296761268E+02  0.10566000000E+00 0.  1.
         23    2    1    0    0    0 -0.67641663954E+01  0.28761816059E+02  0.43438671729E+01  0.95225887891E+02  0.90421814473E+02 0.  0.
         13    1    3    3    0    0  0.34856423828E+02  0.21298174658E+02 -0.20997404184E+02  0.45929126623E+02  0.10566000000E+00 0. -1.
         22    1    1    0    0    0  0.67641663954E+01 -0.28761816059E+02 -0.43438671729E+01  0.29864112109E+02  0.00000000000E+00 0.  1.
</event>
<event>
 5    1  0.1261010E-009  0.9118800E+02  0.7561462E-02  0.1125453E+00
         25   -1    0    0    0    0  0.00000000000E+00  0.00000000000E+00  0.99999998245E-14  0.12509000000E+03  0.12509000000E+03 0.  0.
        -13    1    3    3    0    0 -0.23240977826E+02 -0.26428620919E+02  0.17647556241E+02  0.39370832596E+02  0.10566000000E+00 0.  1.
         23    2    1    0    0    0  0.19189901954E+02 -0.15718542525E+02 -0.16856426321E+02  0.95098934257E+02  0.90246015271E+02 0.  0.
         13    1    3    3    0    0  0.42430879780E+02  0.10710078394E+02 -0.34503982562E+02  0.55728101661E+02  0.10566000000E+00 0. -1.
         22    1    1    0    0    0 -0.19189901954E+02  0.15718542525E+02  0.16856426321E+02  0.29991065743E+02  0.00000000000E+00 0. -1.
</event>
<event>
 5    1  0.1261010E-009  0.9118800E+02  0.7561462E-02  0.1125453E+00
         25   -1    0    0    0    0  0.00000000000E+00  0.00000000000E+00  0.99999998245E-14  0.12509000000E+03  0.12509000000E+03 0.  0.
        -13    1    3    3    0    0  0.46453902370E+02 -0.51935772771E+01  0.18739615143E+02  0.50359930799E+02  0.10566000000E+00 0. -1.
         23    2    1    0    0    0  0.23322531467E+02  0.22353594578E+02 -0.34128729497E+01  0.92605059392E+02  0.86720387791E+02 0.  0.
         13    1    3    3    0    0 -0.23131370903E+02  0.27547171855E+02 -0.22152488093E+02  0.42245128593E+02  0.10566000000E+00 0.  1.
         22    1    1    0    0    0 -0.23322531467E+02 -0.22353594578E+02  0.34128729497E+01  0.32484940608E+02  0.00000000000E+00 0.  1.
</event>
<event>
 5    1  0.1261010E-009  0.9118800E+02  0.7561462E-02  0.1125453E+00
         25   -1    0    0    0    0  0.00000000000E+00  0.00000000000E+00  0.99999998245E-14  0.12509000000E+03  0.12509000000E+03 0.  0.
        -13    1    3    3    0    0  0.10520035933E+02 -0.34657373632E+02  0.23922726609E+01  0.36297917786E+02  0.10566000000E+00 0. -1.
         23    2    1    0    0    0 -0.16175423463E+02  0.10943087160E+02 -0.22995694663E+02  0.94920521154E+02  0.89998377110E+02 0.  0.
         13    1    3    3    0    0 -0.26695459395E+02  0.45600460792E+02 -0.25387967324E+02  0.58622603368E+02  0.10566000000E+00 0.  1.
         22    1    1    0    0    0  0.16175423463E+02 -0.10943087160E+02  0.22995694663E+02  0.30169478846E+02  0.00000000000E+00 0.  1.
</event>
<event>
 5    1  0.1261010E-009  0.9118800E+02  0.7561462E-02  0.1125453E+00
         25   -1    0    0    0    0  0.00000000000E+00  0.00000000000E+00  0.99999998245E-14  0.12509000000E+03  0.12509000000E+03 0.  0.
        -13    1    3    3    0    0 -0.29411086456E+02  0.19739949751E+02 -0.18242299502E+02  0.39843070638E+02  0.10566000000E+00 0. -1.
         23    2    1    0    0    0  0.15786664522E+02 -0.12767788494E+02 -0.21379944476E+02  0.95605474812E+02  0.90945420932E+02 0.  0.
         13    1    3    3    0    0  0.45197750978E+02 -0.32507738245E+02 -0.31376449740E+01  0.55762404174E+02  0.10566000000E+00 0.  1.
         22    1    1    0    0    0 -0.15786664522E+02  0.12767788494E+02  0.21379944476E+02  0.29484525188E+02  0.00000000000E+00 0.  1.
</event>
<event>
 5    1  0.1261010E-009  0.9118800E+02  0.7561462E-02  0.1125453E+00
         25   -1    0    0    0    0  0.00000000000E+00  0.00000000000E+00  0.99999998245E-14  0.12509000000E+03  0.12509000000E+03 0.  0.
        -13    1    3    3    0    0 -0.29794779320E+02 -0.28599200102E+02  0.32053606344E+02  0.52278943800E+02  0.10566000000E+00 0.  1.
         23    2    1    0    0    0 -0.41909815753E+02 -0.10164882304E+02  0.18537651710E+02  0.78149590760E+02  0.62481649437E+02 0.  0.
         13    1    3    3    0    0 -0.12115036432E+02  0.18434317798E+02 -0.13515954634E+02  0.25870646960E+02  0.10566000000E+00 0. -1.
         22    1    1    0    0    0  0.41909815753E+02  0.10164882304E+02 -0.18537651710E+02  0.46940409240E+02  0.00000000000E+00 0.  1.
</event>
<event>
 5    1  0.1261010E-009  0.9118800E+02  0.7561462E-02  0.1125453E+00
         25   -1    0    0    0    0  0.00000000000E+00  0.00000000000E+00  0.99999998245E-14  0.12509000000E+03  0.12509000000E+03 0.  0.
        -13    1    3    3    0    0 -0.38237800301E+02 -0.11810870891E+02  0.11455806977E+02  0.41627787841E+02  0.10566000000E+00 0.  1.
         23    2    1    0    0    0  0.96921427487E+00  0.26728738415E+02  0.97192895475E+01  0.96632497951E+02  0.92347226473E+02 0.  0.
         13    1    3    3    0    0  0.39207014576E+02  0.38539609306E+02 -0.17365174292E+01  0.55004710109E+02  0.10566000000E+00 0. -1.
         22    1    1    0    0    0 -0.96921427487E+00 -0.26728738415E+02 -0.97192895475E+01  0.28457502049E+02  0.00000000000E+00 0. -1.
</event>
<event>
 5    1  0.1261010E-009  0.9118800E+02  0.7561462E-02  0.1125453E+00
         25   -1    0    0    0    0  0.00000000000E+00  0.00000000000E+00  0.99999998245E-14  0.12509000000E+03  0.12509000000E+03 0.  0.
        -13    1    3    3    0    0 -0.17269876461E+02 -0.54511117615E+02 -0.97747990488E+01  0.58010933772E+02  0.10566000000E+00 0.  1.
         23    2    1    0    0    0  0.81770751838E+01 -0.27254179852E+02  0.28754322269E+00  0.96634112049E+02  0.92349412843E+02 0.  0.
         13    1    3    3    0    0  0.25446951645E+02  0.27256937763E+02  0.10062342271E+02  0.38623178277E+02  0.10566000000E+00 0. -1.
         22    1    1    0    0    0 -0.81770751838E+01  0.27254179852E+02 -0.28754322269E+00  0.28455887951E+02  0.00000000000E+00 0.  1.
</event>
<event>
 5    1  0.1261010E-009  0.9118800E+02  0.7561462E-02  0.1125453E+00
         25   -1    0    0    0    0  0.00000000000E+00  0.00000000000E+00  0.99999998245E-14  0.12509000000E+03  0.12509000000E+03 0.  0.
        -13    1    3    3    0    0 -0.42148077970E+02  0.25340377476E+02 -0.34420124225E+02  0.60027921194E+02  0.10566000000E+00 0. -1.
         23    2    1    0    0    0 -0.14246933564E+02  0.44023601130E+01 -0.24695144475E+02  0.96242018248E+02  0.91816774204E+02 0.  0.
         13    1    3    3    0    0  0.27901144406E+02 -0.20938017363E+02  0.97249797497E+01  0.36214097054E+02  0.10566000000E+00 0.  1.
         22    1    1    0    0    0  0.14246933564E+02 -0.44023601130E+01  0.24695144475E+02  0.28847981752E+02  0.00000000000E+00 0. -1.
</event>
<event>
 5    1  0.1261010E-009  0.9118800E+02  0.7561462E-02  0.1125453E+00
         25   -1    0    0    0    0  0.00000000000E+00  0.00000000000E+00  0.99999998245E-14  0.12509000000E+03  0.12509000000E+03 0.  0.
        -13    1    3    3    0    0  0.18465926374E+02 -0.43104469356E+02  0.44148662280E+01  0.47100827202E+02  0.10566000000E+00 0.  1.
         23    2    1    0    0    0 -0.26154437368E-01 -0.14396338733E+02 -0.27632609386E+02  0.93932073971E+02  0.88613871183E+02 0.  0.
         13    1    3    3    0    0 -0.18492080811E+02  0.28708130623E+02 -0.32047475614E+02  0.46831246768E+02  0.10566000000E+00 0. -1.
         22    1    1    0    0    0  0.26154437368E-01  0.14396338733E+02  0.27632609386E+02  0.31157926029E+02  0.00000000000E+00 0.  1.
</event>
<event>
 5    1  0.1261010E-009  0.9118800E+02  0.7561462E-02  0.1125453E+00
         25   -1    0    0    0    0  0.00000000000E+00  0.00000000000E+00  0.99999998245E-14  0.12509000000E+03  0.12509000000E+03 0.  0.
        -13    1    3    3    0    0 -0.15675914673E+02 -0.20311492201E+02 -0.30258192392E+02  0.39671909295E+02  0.10566000000E+00 0.  1.
         23    2    1    0    0    0  0.16304018010E+02  0.58294954391E+00  0.17721894477E+02  0.10100211140E+03  0.98087716508E+02 0.  0.
         13    1    3    3    0    0  0.31979932682E+02  0.20894441745E+02  0.47980086868E+02  0.61330202104E+02  0.10566000000E+00 0. -1.
         22    1    1    0    0    0 -0.16304018010E+02 -0.58294954391E+00 -0.17721894477E+02  0.24087888601E+02  0.00000000000E+00 0. -1.
</event>
<event>
 5    1  0.1261010E-009  0.9118800E+02  0.7561462E-02  0.1125453E+00
         25   -1    0    0    0    0  0.00000000000E+00  0.00000000000E+00  0.99999998245E-14  0.12509000000E+03  0.12509000000E+03 0.  0.
        -13    1    3    3    0    0  0.33616383571E+02 -0.21856556473E+02 -0.35922282626E+02  0.53834857280E+02  0.10566000000E+00 0.  1.
         23    2    1    0    0    0  0.46449325288E+00 -0.26838768444E+02 -0.91730545680E+01  0.96723114804E+02  0.92469891109E+02 0.  0.
         13    1    3    3    0    0 -0.33151890318E+02 -0.49822119719E+01  0.26749228058E+02  0.42888257525E+02  0.10566000000E+00 0. -1.
         22    1    1    0    0    0 -0.46449325288E+00  0.26838768444E+02  0.91730545680E+01  0.28366885196E+02  0.00000000000E+00 0.  1.
</event>
<event>
 5    1  0.1261010E-009  0.9118800E+02  0.7561462E-02  0.1125453E+00
         25   -1    0    0    0    0  0.00000000000E+00  0.00000000000E+00  0.99999998245E-14  0.12509000000E+03  0.12509000000E+03 0.  0.
        -13    1    3    3    0    0 -0.30339931114E+02  0.16685013876E+02 -0.19705441046E+02  0.39839888038E+02  0.10566000000E+00 0.  1.
         23    2    1    0    0    0  0.64049462998E+00  0.20411972960E+02  0.24022689139E+02  0.93559880004E+02  0.88086904131E+02 0.  0.
         13    1    3    3    0    0  0.30980425744E+02  0.37269590842E+01  0.43728130185E+02  0.53719991966E+02  0.10566000000E+00 0. -1.
         22    1    1    0    0    0 -0.64049462998E+00 -0.20411972960E+02 -0.24022689139E+02  0.31530119996E+02  0.00000000000E+00 0. -1.
</event>
<event>
 5    1  0.1261010E-009  0.9118800E+02  0.7561462E-02  0.1125453E+00
         25   -1    0    0    0    0  0.00000000000E+00  0.00000000000E+00  0.99999998245E-14  0.12509000000E+03  0.12509000000E+03 0.  0.
        -13    1    3    3    0    0 -0.47999715685E+02  0.14373219581E+02 -0.15342603780E+02  0.52401992346E+02  0.10566000000E+00 0. -1.
         23    2    1    0    0    0 -0.17362108683E+02 -0.18754538835E+02 -0.91289676515E+01  0.97951216033E+02  0.94116561386E+02 0.  0.
         13    1    3    3    0    0  0.30637607002E+02 -0.33127758416E+02  0.62136361286E+01  0.45549223687E+02  0.10566000000E+00 0.  1.
         22    1    1    0    0    0  0.17362108683E+02  0.18754538835E+02  0.91289676515E+01  0.27138783967E+02  0.00000000000E+00 0. -1.
</event>
<event>
 5    1  0.1261010E-009  0.9118800E+02  0.7561462E-02  0.1125453E+00
         25   -1    0    0    0    0  0.00000000000E+00  0.00000000000E+00  0.99999998245E-14  0.12509000000E+03  0.12509000000E+03 0.  0.
        -13    1    3    3    0    0  0.35145456870E+02  0.11391380081E+02  0.21624321281E+02  0.42808750433E+02  0.10566000000E+00 0. -1.
         23    2    1    0    0    0  0.14475235508E+02  0.11493165651E+01 -0.25765094772E+02  0.95514782669E+02  0.90820593635E+02 0.  0.
         13    1    3    3    0    0 -0.20670221362E+02 -0.10242063516E+02 -0.47389416053E+02  0.52706032236E+02  0.10566000000E+00 0.  1.
         22    1    1    0    0    0 -0.14475235508E+02 -0.11493165651E+01  0.25765094772E+02  0.29575217331E+02  0.00000000000E+00 0. -1.
</event>
<event>
 5    1  0.1261010E-009  0.9118800E+02  0.7561462E-02  0.1125453E+00
         25   -1    0    0    0    0  0.00000000000E+00  0.00000000000E+00  0.99999998245E-14  0.12509000000E+03  0.12509000000E+03 0.  0.
        -13    1    3    3    0    0 -0.32588020509E+02  0.28777287035E+02 -0.32268312307E+02  0.54142095203E+02  0.10566000000E+00 0. -1.
         23    2    1    0    0    0  0.47697707240E+00  0.26054932797E+01 -0.28486243614E+02  0.96480872478E+02  0.92141611536E+02 0.  0.
         13    1    3    3    0    0  0.33064997581E+02 -0.26171793756E+02  0.37820686932E+01  0.42338777274E+02  0.10566000000E+00 0.  1.
         22    1    1    0    0    0 -0.47697707240E+00 -0.26054932797E+01  0.28486243614E+02  0.28609127522E+02  0.00000000000E+00 0.  1.
</event>
<event>
 5    1  0.1261010E-009  0.9118800E+02  0.7561462E-02  0.1125453E+00
         25   -1    0    0    0    0  0.00000000000E+00  0.00000000000E+00  0.99999998245E-14  0.12509000000E+03  0.12509000000E+03 0.  0.
        -13    1    3    3    0    0 -0.33848019441E+02 -0.23508928720E+02 -0.39789112315E+02  0.57284751658E+02  0.10566000000E+00 0.  1.
         23    2    1    0    0    0 -0.22739807622E+02  0.58756030483E+01 -0.17341710038E+02  0.95894855388E+02  0.91342579453E+02 0.  0.
         13    1    3    3    0    0  0.11108211820E+02  0.29384531769E+02  0.22447402276E+02  0.38610103730E+02  0.10566000000E+00 0. -1.
         22    1    1    0    0    0  0.22739807622E+02 -0.58756030483E+01  0.17341710038E+02  0.29195144612E+02  0.00000000000E+00 0.  1.
</event>
<event>
 5    1  0.1261010E-009  0.9118800E+02  0.7561462E-02  0.1125453E+00
         25   -1    0    0    0    0  0.00000000000E+00  0.00000000000E+00  0.99999998245E-14  0.12509000000E+03  0.12509000000E+03 0.  0.
        -13    1    3    3    0    0 -0.26696101823E+02 -0.26293074740E+01 -0.30015356637E+02  0.40255781056E+02  0.10566000000E+00 0.  1.
         23    2    1    0    0    0 -0.10795015833E+02  0.19268679136E+02  0.18809726781E+02  0.96079309142E+02  0.91594833157E+02 0.  0.
         13    1    3    3    0    0  0.15901085990E+02  0.21897986610E+02  0.48825083417E+02  0.55823528086E+02  0.10566000000E+00 0. -1.
         22    1    1    0    0    0  0.10795015833E+02 -0.19268679136E+02 -0.18809726781E+02  0.29010690858E+02  0.00000000000E+00 0. -1.
</event>
<event>
 5    1  0.1261010E-009  0.9118800E+02  0.7561462E-02  0.1125453E+00
         25   -1    0    0    0    0  0.00000000000E+00  0.00000000000E+00  0.99999998245E-14  0.12509000000E+03  0.12509000000E+03 0.  0.
        -13    1    3    3    0    0 -0.32821170995E+02 -0.11514951072E+02  0.35735647800E+02  0.49868537691E+02  0.10566000000E+00 0.  1.
         23    2    1    0    0    0  0.61272013118E+01 -0.24404823615E+02  0.13261763568E+02  0.96646856986E+02  0.92366674621E+02 0.  0.
         13    1    3    3    0    0  0.38948372307E+02 -0.12889872543E+02 -0.22473884232E+02  0.46778319295E+02  0.10566000000E+00 0. -1.
         22    1    1    0    0    0 -0.61272013118E+01  0.24404823615E+02 -0.13261763568E+02  0.28443143014E+02  0.00000000000E+00 0.  1.
</event>
<event>
 5    1  0.1261010E-009  0.9118800E+02  0.7561462E-02  0.1125453E+00
         25   -1    0    0    0    0  0.00000000000E+00  0.00000000000E+00  0.99999998245E-14  0.12509000000E+03  0.12509000000E+03 0.  0.
        -13    1    3    3    0    0 -0.30758616574E+02  0.23414711681E+01 -0.20470774125E+02  0.37022138487E+02  0.10566000000E+00 0. -1.
         23    2    1    0    0    0  0.28819523287E+01 -0.31715792094E+02  0.73725965868E+01  0.92401281796E+02  0.86425948532E+02 0.  0.
         13    1    3    3    0    0  0.33640568903E+02 -0.34057263262E+02  0.27843370712E+02  0.55379143309E+02  0.10566000000E+00 0.  1.
         22    1    1    0    0    0 -0.28819523287E+01  0.31715792094E+02 -0.73725965868E+01  0.32688718204E+02  0.00000000000E+00 0.  1.
</event>
<event>
 5    1  0.1261010E-009  0.9118800E+02  0.7561462E-02  0.1125453E+00
         25   -1    0    0    0    0  0.00000000000E+00  0.00000000000E+00  0.99999998245E-14  0.12509000000E+03  0.12509000000E+03 0.  0.
        -13    1    3    3    0    0 -0.20616860802E+02 -0.35056551748E+01 -0.57440514189E+02  0.61129112556E+02  0.10566000000E+00 0.  1.
         23    2    1    0    0    0 -0.17413509082E+02 -0.60519690161E+01 -0.23961749412E+02  0.94857202207E+02  0.89910326148E+02 0.  0.
         13    1    3    3    0    0  0.32033517194E+01 -0.25463138413E+01  0.33478764777E+02  0.33728089651E+02  0.10566000000E+00 0. -1.
         22    1    1    0    0    0  0.17413509082E+02  0.60519690161E+01  0.23961749412E+02  0.30232797793E+02  0.00000000000E+00 0.  1.
</event>
<event>
 5    1  0.1261010E-009  0.9118800E+02  0.7561462E-02  0.1125453E+00
         25   -1    0    0    0    0  0.00000000000E+00  0.00000000000E+00  0.99999998245E-14  0.12509000000E+03  0.12509000000E+03 0.  0.
        -13    1    3    3    0    0  0.31334934260E+02  0.41860279532E+02  0.14209783113E+02  0.54185701137E+02  0.10566000000E+00 0.  1.
         23    2    1    0    0    0 -0.73432788983E+01  0.26809323306E+02  0.81034847591E+01  0.96136070623E+02  0.91672318879E+02 0.  0.
         13    1    3    3    0    0 -0.38678213158E+02 -0.15050956226E+02 -0.61062983537E+01  0.41950369486E+02  0.10566000000E+00 0. -1.
         22    1    1    0    0    0  0.73432788983E+01 -0.26809323306E+02 -0.81034847591E+01  0.28953929377E+02  0.00000000000E+00 0.  1.
</event>
<event>
 5    1  0.1261010E-009  0.9118800E+02  0.7561462E-02  0.1125453E+00
         25   -1    0    0    0    0  0.00000000000E+00  0.00000000000E+00  0.99999998245E-14  0.12509000000E+03  0.12509000000E+03 0.  0.
        -13    1    3    3    0    0 -0.12232872828E+02  0.44213917391E+02  0.16098066419E+02  0.48617615894E+02  0.10566000000E+00 0.  1.
         23    2    1    0    0    0 -0.30058866753E+02  0.40554235561E+01  0.22945867947E+01  0.94672125991E+02  0.89652464441E+02 0.  0.
         13    1    3    3    0    0 -0.17825993925E+02 -0.40158493835E+02 -0.13803479624E+02  0.46054510097E+02  0.10566000000E+00 0. -1.
         22    1    1    0    0    0  0.30058866753E+02 -0.40554235561E+01 -0.22945867947E+01  0.30417874009E+02  0.00000000000E+00 0.  1.
</event>
<event>
 5    1  0.1261010E-009  0.9118800E+02  0.7561462E-02  0.1125453E+00
         25   -1    0    0    0    0  0.00000000000E+00  0.00000000000E+00  0.99999998245E-14  0.12509000000E+03  0.12509000000E+03 0.  0.
        -13    1    3    3    0    0 -0.12450927850E+02 -0.41006105026E+02 -0.53735425556E+01  0.43190419972E+02  0.10566000000E+00 0.  1.
         23    2    1    0    0    0 -0.27813521541E+02  0.87702006742E+01 -0.61305994337E+01  0.95289116627E+02  0.90509243162E+02 0.  0.
         13    1    3    3    0    0 -0.15362593691E+02  0.49776305700E+02 -0.75705687816E+00  0.52098696655E+02  0.10566000000E+00 0. -1.
         22    1    1    0    0    0  0.27813521541E+02 -0.87702006742E+01  0.61305994337E+01  0.29800883373E+02  0.00000000000E+00 0. -1.
</event>
<event>
 5    1  0.1261010E-009  0.9118800E+02  0.7561462E-02  0.1125453E+00
         25   -1    0    0    0    0  0.00000000000E+00  0.00000000000E+00  0.99999998245E-14  0.12509000000E+03  0.12509000000E+03 0.  0.
        -13    1    3    3    0    0  0.29936105614E+02  0.14634355381E+02 -0.21254852481E+02  0.39523596683E+02  0.10566000000E+00 0. -1.
         23    2    1    0    0    0 -0.54876103664E+00  0.21601786824E+02  0.22883167875E+02  0.93616555564E+02  0.88167350936E+02 0.  0.
         13    1    3    3    0    0 -0.30484866650E+02  0.69674314434E+01  0.44138020355E+02  0.54092958881E+02  0.10566000000E+00 0.  1.
         22    1    1    0    0    0  0.54876103664E+00 -0.21601786824E+02 -0.22883167875E+02  0.31473444436E+02  0.00000000000E+00 0.  1.
</event>
<event>
 5    1  0.1261010E-009  0.9118800E+02  0.7561462E-02  0.1125453E+00
         25   -1    0    0    0    0  0.00000000000E+00  0.00000000000E+00  0.99999998245E-14  0.12509000000E+03  0.12509000000E+03 0.  0.
        -13    1    3    3    0    0  0.13219777171E+02 -0.29479427566E+02  0.35723826130E+02  0.48166399860E+02  0.10566000000E+00 0.  1.
         23    2    1    0    0    0  0.24475401450E+02  0.10380043774E+02  0.11739897886E+02  0.96027725703E+02  0.91524359143E+02 0.  0.
         13    1    3    3    0    0  0.11255624280E+02  0.39859471340E+02 -0.23983928244E+02  0.47861325843E+02  0.10566000000E+00 0. -1.
         22    1    1    0    0    0 -0.24475401450E+02 -0.10380043774E+02 -0.11739897886E+02  0.29062274297E+02  0.00000000000E+00 0. -1.
</event>
<event>
 5    1  0.1261010E-009  0.9118800E+02  0.7561462E-02  0.1125453E+00
         25   -1    0    0    0    0  0.00000000000E+00  0.00000000000E+00  0.99999998245E-14  0.12509000000E+03  0.12509000000E+03 0.  0.
        -13    1    3    3    0    0  0.58409182691E+02  0.87775250736E+01 -0.13993896144E+02  0.60700229508E+02  0.10566000000E+00 0.  1.
         23    2    1    0    0    0  0.24121110218E+02 -0.19438175537E+01 -0.14962430036E+02  0.96638625738E+02  0.92355526565E+02 0.  0.
         13    1    3    3    0    0 -0.34288072473E+02 -0.10721342627E+02 -0.96853389202E+00  0.35938396230E+02  0.10566000000E+00 0. -1.
         22    1    1    0    0    0 -0.24121110218E+02  0.19438175537E+01  0.14962430036E+02  0.28451374262E+02  0.00000000000E+00 0.  1.
</event>
<event>
 5    1  0.1261010E-009  0.9118800E+02  0.7561462E-02  0.1125453E+00
         25   -1    0    0    0    0  0.00000000000E+00  0.00000000000E+00  0.99999998245E-14  0.12509000000E+03  0.12509000000E+03 0.  0.
        -13    1    3    3    0    0 -0.33834456261E+01 -0.22227066480E+02 -0.28269450971E+02  0.36120121966E+02  0.10566000000E+00 0.  1.
         23    2    1    0    0    0 -0.91021671173E+01  0.27848182424E+02  0.33233368700E+01  0.95604151216E+02  0.90943600387E+02 0.  0.
         13    1    3    3    0    0 -0.57187214911E+01  0.50075248904E+02  0.31592787841E+02  0.59484029250E+02  0.10566000000E+00 0. -1.
         22    1    1    0    0    0  0.91021671173E+01 -0.27848182424E+02 -0.33233368700E+01  0.29485848784E+02  0.00000000000E+00 0. -1.
</event>
<event>
 5    1  0.1261010E-009  0.9118800E+02  0.7561462E-02  0.1125453E+00
         25   -1    0    0    0    0  0.00000000000E+00  0.00000000000E+00  0.99999998245E-14  0.12509000000E+03  0.12509000000E+03 0.  0.
        -13    1    3    3    0    0  0.72124668179E+01  0.30707544902E+02 -0.35235958541E+02  0.47292250209E+02  0.10566000000E+00 0.  1.
         23    2    1    0    0    0  0.33161929165E+02  0.99692913666E+01 -0.26050557856E+02  0.81757196249E+02  0.69328978484E+02 0.  0.
         13    1    3    3    0    0  0.25949462347E+02 -0.20738253536E+02  0.91854006845E+01  0.34464946040E+02  0.10566000000E+00 0. -1.
         22    1    1    0    0    0 -0.33161929165E+02 -0.99692913666E+01  0.26050557856E+02  0.43332803751E+02  0.00000000000E+00 0.  1.
</event>
<event>
 5    1  0.1261010E-009  0.9118800E+02  0.7561462E-02  0.1125453E+00
         25   -1    0    0    0    0  0.00000000000E+00  0.00000000000E+00  0.99999998245E-14  0.12509000000E+03  0.12509000000E+03 0.  0.
        -13    1    3    3    0    0  0.47593307583E+02  0.14616074398E+02 -0.79827746028E+01  0.50423094033E+02  0.10566000000E+00 0.  1.
         23    2    1    0    0    0  0.11602578913E+02  0.15246049864E+02  0.21019316861E+02  0.96649297561E+02  0.92369979777E+02 0.  0.
         13    1    3    3    0    0 -0.35990728670E+02  0.62997546614E+00  0.29002091464E+02  0.46226203528E+02  0.10566000000E+00 0. -1.
         22    1    1    0    0    0 -0.11602578913E+02 -0.15246049864E+02 -0.21019316861E+02  0.28440702439E+02  0.00000000000E+00 0. -1.
</event>
<event>
 5    1  0.1261010E-009  0.9118800E+02  0.7561462E-02  0.1125453E+00
         25   -1    0    0    0    0  0.00000000000E+00  0.00000000000E+00  0.99999998245E-14  0.12509000000E+03  0.12509000000E+03 0.  0.
        -13    1    3    3    0    0  0.55081131142E+01 -0.37053539097E+02  0.32947138156E+02  0.49888166396E+02  0.10566000000E+00 0.  1.
         23    2    1    0    0    0 -0.23518105122E+02 -0.17822368788E+02  0.37196637452E+01  0.95348211282E+02  0.90590879224E+02 0.  0.
         13    1    3    3    0    0 -0.29026218236E+02  0.19231170309E+02 -0.29227474411E+02  0.45460044886E+02  0.10566000000E+00 0. -1.
         22    1    1    0    0    0  0.23518105122E+02  0.17822368788E+02 -0.37196637452E+01  0.29741788718E+02  0.00000000000E+00 0.  1.
</event>
<event>
 5    1  0.1261010E-009  0.9118800E+02  0.7561462E-02  0.1125453E+00
         25   -1    0    0    0    0  0.00000000000E+00  0.00000000000E+00  0.99999998245E-14  0.12509000000E+03  0.12509000000E+03 0.  0.
        -13    1    3    3    0    0  0.23123590103E+02 -0.26715182539E+01 -0.48754425091E+02  0.54026313580E+02  0.10566000000E+00 0. -1.
         23    2    1    0    0    0  0.20446451786E+02 -0.18206559059E+02 -0.98653278090E+01  0.95989125852E+02  0.91471587970E+02 0.  0.
         13    1    3    3    0    0 -0.26771383177E+01 -0.15535040805E+02  0.38889097282E+02  0.41962812273E+02  0.10566000000E+00 0.  1.
         22    1    1    0    0    0 -0.20446451786E+02  0.18206559059E+02  0.98653278090E+01  0.29100874148E+02  0.00000000000E+00 0.  1.
</event>
<event>
 5    1  0.1261010E-009  0.9118800E+02  0.7561462E-02  0.1125453E+00
         25   -1    0    0    0    0  0.00000000000E+00  0.00000000000E+00  0.99999998245E-14  0.12509000000E+03  0.12509000000E+03 0.  0.
        -13    1    3    3    0    0  0.17505990539E+02 -0.53819438489E+02  0.12080197883E+02  0.57869975021E+02  0.10566000000E+00 0.  1.
         23    2    1    0    0    0  0.23718423496E+02 -0.18600596404E+02  0.82629648135E+01  0.93835842081E+02  0.88477923076E+02 0.  0.
         13    1    3    3    0    0  0.62124329565E+01  0.35218842085E+02 -0.38172330699E+01  0.35965867060E+02  0.10566000000E+00 0. -1.
         22    1    1    0    0    0 -0.23718423496E+02  0.18600596404E+02 -0.82629648135E+01  0.31254157919E+02  0.00000000000E+00 0.  1.
</event>
<event>
 5    1  0.1261010E-009  0.9118800E+02  0.7561462E-02  0.1125453E+00
         25   -1    0    0    0    0  0.00000000000E+00  0.00000000000E+00  0.99999998245E-14  0.12509000000E+03  0.12509000000E+03 0.  0.
        -13    1    3    3    0    0  0.17504893555E+02 -0.39556531432E+02 -0.42470405450E+02  0.60620846088E+02  0.10566000000E+00 0.  1.
         23    2    1    0    0    0  0.21828015058E+02 -0.24969102930E+02 -0.26942556413E+02  0.82360388621E+02  0.70408905156E+02 0.  0.
         13    1    3    3    0    0  0.43231215025E+01  0.14587428502E+02  0.15527849037E+02  0.21739542534E+02  0.10566000000E+00 0. -1.
         22    1    1    0    0    0 -0.21828015058E+02  0.24969102930E+02  0.26942556413E+02  0.42729611379E+02  0.00000000000E+00 0.  1.
</event>
<event>
 5    1  0.1261010E-009  0.9118800E+02  0.7561462E-02  0.1125453E+00
         25   -1    0    0    0    0  0.00000000000E+00  0.00000000000E+00  0.99999998245E-14  0.12509000000E+03  0.12509000000E+03 0.  0.
        -13    1    3    3    0    0  0.24415295174E+02  0.23270185429E+02  0.13036361239E+02  0.36160282725E+02  0.10566000000E+00 0.  1.
         23    2    1    0    0    0 -0.16816785906E+02 -0.14661923184E+01 -0.23221199165E+02  0.96381497796E+02  0.92006603126E+02 0.  0.
         13    1    3    3    0    0 -0.41232081080E+02 -0.24736377747E+02 -0.36257560404E+02  0.60221215072E+02  0.10566000000E+00 0. -1.
         22    1    1    0    0    0  0.16816785906E+02  0.14661923184E+01  0.23221199165E+02  0.28708502204E+02  0.00000000000E+00 0. -1.
</event>
<event>
 5    1  0.1261010E-009  0.9118800E+02  0.7561462E-02  0.1125453E+00
         25   -1    0    0    0    0  0.00000000000E+00  0.00000000000E+00  0.99999998245E-14  0.12509000000E+03  0.12509000000E+03 0.  0.
        -13    1    3    3    0    0 -0.57776243551E+02 -0.10598255505E+02 -0.48367635884E+01  0.58939144756E+02  0.10566000000E+00 0. -1.
         23    2    1    0    0    0 -0.23955910329E+02  0.77032320689E+00 -0.15937990672E+02  0.96306348665E+02  0.91904375353E+02 0.  0.
         13    1    3    3    0    0  0.33820333221E+02  0.11368578712E+02 -0.11101227083E+02  0.37367203908E+02  0.10566000000E+00 0.  1.
         22    1    1    0    0    0  0.23955910329E+02 -0.77032320689E+00  0.15937990672E+02  0.28783651335E+02  0.00000000000E+00 0. -1.
</event>
<event>
 5    1  0.1261010E-009  0.9118800E+02  0.7561462E-02  0.1125453E+00
         25   -1    0    0    0    0  0.00000000000E+00  0.00000000000E+00  0.99999998245E-14  0.12509000000E+03  0.12509000000E+03 0.  0.
        -13    1    3    3    0    0  0.14086560337E+02 -0.43520712997E+02 -0.35017657572E+02  0.57608429485E+02  0.10566000000E+00 0.  1.
         23    2    1    0    0    0  0.80062404873E+01 -0.28908704758E+02 -0.10587186893E+01  0.95074437656E+02  0.90212054144E+02 0.  0.
         13    1    3    3    0    0 -0.60803198498E+01  0.14612008239E+02  0.33958938882E+02  0.37466008171E+02  0.10566000000E+00 0. -1.
         22    1    1    0    0    0 -0.80062404873E+01  0.28908704758E+02  0.10587186893E+01  0.30015562344E+02  0.00000000000E+00 0.  1.
</event>
<event>
 5    1  0.1261010E-009  0.9118800E+02  0.7561462E-02  0.1125453E+00
         25   -1    0    0    0    0  0.00000000000E+00  0.00000000000E+00  0.99999998245E-14  0.12509000000E+03  0.12509000000E+03 0.  0.
        -13    1    3    3    0    0 -0.23843195227E+02  0.56976043864E+02  0.89019810708E+00  0.61770309614E+02  0.10566000000E+00 0. -1.
         23    2    1    0    0    0 -0.17121198033E+02  0.23789087450E+02  0.25323104817E+01  0.95671150597E+02  0.91035709238E+02 0.  0.
         13    1    3    3    0    0  0.67219971943E+01 -0.33186956414E+02  0.16421123747E+01  0.33900840984E+02  0.10566000000E+00 0.  1.
         22    1    1    0    0    0  0.17121198033E+02 -0.23789087450E+02 -0.25323104817E+01  0.29418849403E+02  0.00000000000E+00 0. -1.
</event>
<event>
 5    1  0.1261010E-009  0.9118800E+02  0.7561462E-02  0.1125453E+00
         25   -1    0    0    0    0  0.00000000000E+00  0.00000000000E+00  0.99999998245E-14  0.12509000000E+03  0.12509000000E+03 0.  0.
        -13    1    3    3    0    0  0.44148769801E+02  0.11533340726E+02 -0.29798740256E+02  0.54498696389E+02  0.10566000000E+00 0. -1.
         23    2    1    0    0    0  0.37308704700E+01  0.19950474718E+02 -0.19264788777E+02  0.97106559851E+02  0.92987155260E+02 0.  0.
         13    1    3    3    0    0 -0.40417899331E+02  0.84171339929E+01  0.10533951479E+02  0.42607863462E+02  0.10566000000E+00 0.  1.
         22    1    1    0    0    0 -0.37308704700E+01 -0.19950474718E+02  0.19264788777E+02  0.27983440149E+02  0.00000000000E+00 0. -1.
</event>
<event>
 5    1  0.1261010E-009  0.9118800E+02  0.7561462E-02  0.1125453E+00
         25   -1    0    0    0    0  0.00000000000E+00  0.00000000000E+00  0.99999998245E-14  0.12509000000E+03  0.12509000000E+03 0.  0.
        -13    1    3    3    0    0  0.25277095715E+01 -0.54640371000E+02  0.23478794137E+02  0.59524989684E+02  0.10566000000E+00 0. -1.
         23    2    1    0    0    0  0.78152359253E+01 -0.28338381787E+02 -0.76363590779E+00  0.95683794283E+02  0.91053080968E+02 0.  0.
         13    1    3    3    0    0  0.52875263538E+01  0.26301989213E+02 -0.24242430045E+02  0.36158804599E+02  0.10566000000E+00 0.  1.
         22    1    1    0    0    0 -0.78152359253E+01  0.28338381787E+02  0.76363590779E+00  0.29406205717E+02  0.00000000000E+00 0. -1.
</event>
<event>
 5    1  0.1261010E-009  0.9118800E+02  0.7561462E-02  0.1125453E+00
         25   -1    0    0    0    0  0.00000000000E+00  0.00000000000E+00  0.99999998245E-14  0.12509000000E+03  0.12509000000E+03 0.  0.
        -13    1    3    3    0    0  0.31619258182E+02 -0.14084499974E+02  0.18545714105E+02  0.39269648626E+02  0.10566000000E+00 0.  1.
         23    2    1    0    0    0 -0.24227283771E+02 -0.44447772405E+01  0.15423258991E+02  0.96028096388E+02  0.91524865771E+02 0.  0.
         13    1    3    3    0    0 -0.55846541953E+02  0.96397227333E+01 -0.31224551145E+01  0.56758447763E+02  0.10566000000E+00 0. -1.
         22    1    1    0    0    0  0.24227283771E+02  0.44447772405E+01 -0.15423258991E+02  0.29061903612E+02  0.00000000000E+00 0. -1.
</event>
<event>
 5    1  0.1261010E-009  0.9118800E+02  0.7561462E-02  0.1125453E+00
         25   -1    0    0    0    0  0.00000000000E+00  0.00000000000E+00  0.99999998245E-14  0.12509000000E+03  0.12509000000E+03 0.  0.
        -13    1    3    3    0    0 -0.17730544747E+02 -0.21531597624E+02  0.78392955359E+01  0.28973222669E+02  0.10566000000E+00 0.  1.
         23    2    1    0    0    0  0.12824479326E+02  0.14455035625E+02 -0.29952245903E+02  0.89445191688E+02  0.82035906508E+02 0.  0.
         13    1    3    3    0    0  0.30555024073E+02  0.35986633250E+02 -0.37791541439E+02  0.60471969020E+02  0.10566000000E+00 0. -1.
         22    1    1    0    0    0 -0.12824479326E+02 -0.14455035625E+02  0.29952245903E+02  0.35644808312E+02  0.00000000000E+00 0. -1.
</event>
<event>
 5    1  0.1261010E-009  0.9118800E+02  0.7561462E-02  0.1125453E+00
         25   -1    0    0    0    0  0.00000000000E+00  0.00000000000E+00  0.99999998245E-14  0.12509000000E+03  0.12509000000E+03 0.  0.
        -13    1    3    3    0    0 -0.27378118331E+02  0.18743577828E+02 -0.18683727414E+02  0.38078549175E+02  0.10566000000E+00 0.  1.
         23    2    1    0    0    0 -0.44362544721E+01 -0.13266562795E+02  0.24720082614E+02  0.96686399408E+02  0.92420210473E+02 0.  0.
         13    1    3    3    0    0  0.22941863859E+02 -0.32010140623E+02  0.43403810028E+02  0.58607850234E+02  0.10566000000E+00 0. -1.
         22    1    1    0    0    0  0.44362544721E+01  0.13266562795E+02 -0.24720082614E+02  0.28403600592E+02  0.00000000000E+00 0. -1.
</event>
<event>
 5    1  0.1261010E-009  0.9118800E+02  0.7561462E-02  0.1125453E+00
         25   -1    0    0    0    0  0.00000000000E+00  0.00000000000E+00  0.99999998245E-14  0.12509000000E+03  0.12509000000E+03 0.  0.
        -13    1    3    3    0    0 -0.22758740595E+02 -0.39532824286E+02 -0.32468217476E+02  0.55991077679E+02  0.10566000000E+00 0. -1.
         23    2    1    0    0    0  0.66343074832E+01 -0.17737405680E+02 -0.25639255873E+02  0.93215228820E+02  0.87596106341E+02 0.  0.
         13    1    3    3    0    0  0.29393048079E+02  0.21795418606E+02  0.68289616027E+01  0.37224151141E+02  0.10566000000E+00 0.  1.
         22    1    1    0    0    0 -0.66343074832E+01  0.17737405680E+02  0.25639255873E+02  0.31874771180E+02  0.00000000000E+00 0. -1.
</event>
<event>
 5    1  0.1261010E-009  0.9118800E+02  0.7561462E-02  0.1125453E+00
         25   -1    0    0    0    0  0.00000000000E+00  0.00000000000E+00  0.99999998245E-14  0.12509000000E+03  0.12509000000E+03 0.  0.
        -13    1    3    3    0    0  0.18607483198E+02  0.21863022853E+02  0.65123139410E+01  0.29438946927E+02  0.10566000000E+00 0.  1.
         23    2    1    0    0    0 -0.36293404746E+02 -0.10316305148E+00  0.20950979466E+01  0.88736027643E+02  0.80947336558E+02 0.  0.
         13    1    3    3    0    0 -0.54900887945E+02 -0.21966185905E+02 -0.44172159944E+01  0.59297080716E+02  0.10566000000E+00 0. -1.
         22    1    1    0    0    0  0.36293404746E+02  0.10316305148E+00 -0.20950979466E+01  0.36353972357E+02  0.00000000000E+00 0. -1.
</event>
<event>
 5    1  0.1261010E-009  0.9118800E+02  0.7561462E-02  0.1125453E+00
         25   -1    0    0    0    0  0.00000000000E+00  0.00000000000E+00  0.99999998245E-14  0.12509000000E+03  0.12509000000E+03 0.  0.
        -13    1    3    3    0    0 -0.20903960757E+02 -0.29537334698E+02 -0.38257553363E+02  0.52660053834E+02  0.10566000000E+00 0. -1.
         23    2    1    0    0    0  0.12607957726E+02 -0.65066812616E+01 -0.26569890291E+02  0.94969299989E+02  0.90066149975E+02 0.  0.
         13    1    3    3    0    0  0.33511918483E+02  0.23030653436E+02  0.11687663072E+02  0.42309246156E+02  0.10566000000E+00 0.  1.
         22    1    1    0    0    0 -0.12607957726E+02  0.65066812616E+01  0.26569890291E+02  0.30120700011E+02  0.00000000000E+00 0. -1.
</event>
<event>
 5    1  0.1261010E-009  0.9118800E+02  0.7561462E-02  0.1125453E+00
         25   -1    0    0    0    0  0.00000000000E+00  0.00000000000E+00  0.99999998245E-14  0.12509000000E+03  0.12509000000E+03 0.  0.
        -13    1    3    3    0    0 -0.54096744989E+02  0.22332483491E+02  0.15289498794E+01  0.58545251636E+02  0.10566000000E+00 0.  1.
         23    2    1    0    0    0 -0.29785172985E+02  0.45714781516E+00 -0.10665730931E+02  0.93449466974E+02  0.87929969564E+02 0.  0.
         13    1    3    3    0    0  0.24311572004E+02 -0.21875335676E+02 -0.12194680811E+02  0.34904215338E+02  0.10566000000E+00 0. -1.
         22    1    1    0    0    0  0.29785172985E+02 -0.45714781516E+00  0.10665730931E+02  0.31640533026E+02  0.00000000000E+00 0.  1.
</event>
<event>
 5    1  0.1261010E-009  0.9118800E+02  0.7561462E-02  0.1125453E+00
         25   -1    0    0    0    0  0.00000000000E+00  0.00000000000E+00  0.99999998245E-14  0.12509000000E+03  0.12509000000E+03 0.  0.
        -13    1    3    3    0    0  0.62834791476E+01 -0.36051553412E+02  0.27514412755E+02  0.45784830314E+02  0.10566000000E+00 0.  1.
         23    2    1    0    0    0 -0.24603055468E+02 -0.14718092936E+02 -0.56436996957E+01  0.95870418479E+02  0.91309107952E+02 0.  0.
         13    1    3    3    0    0 -0.30886534616E+02  0.21333460476E+02 -0.33158112450E+02  0.50085588164E+02  0.10566000000E+00 0. -1.
         22    1    1    0    0    0  0.24603055468E+02  0.14718092936E+02  0.56436996957E+01  0.29219581521E+02  0.00000000000E+00 0. -1.
</event>
<event>
 5    1  0.1261010E-009  0.9118800E+02  0.7561462E-02  0.1125453E+00
         25   -1    0    0    0    0  0.00000000000E+00  0.00000000000E+00  0.99999998245E-14  0.12509000000E+03  0.12509000000E+03 0.  0.
        -13    1    3    3    0    0 -0.11155438580E+01  0.32850060787E+02  0.17321666122E+02  0.37154033605E+02  0.10566000000E+00 0.  1.
         23    2    1    0    0    0  0.15140212131E+02 -0.10253058447E+02 -0.21120749887E+02  0.97153691964E+02  0.93050537642E+02 0.  0.
         13    1    3    3    0    0  0.16255755989E+02 -0.43103119235E+02 -0.38442416009E+02  0.59999658359E+02  0.10566000000E+00 0. -1.
         22    1    1    0    0    0 -0.15140212131E+02  0.10253058447E+02  0.21120749887E+02  0.27936308036E+02  0.00000000000E+00 0. -1.
</event>
<event>
 5    1  0.1261010E-009  0.9118800E+02  0.7561462E-02  0.1125453E+00
         25   -1    0    0    0    0  0.00000000000E+00  0.00000000000E+00  0.99999998245E-14  0.12509000000E+03  0.12509000000E+03 0.  0.
        -13    1    3    3    0    0  0.41813753231E+02  0.16132554924E+02  0.27387433241E+02  0.52523632312E+02  0.10566000000E+00 0. -1.
         23    2    1    0    0    0 -0.10624162355E+01  0.11535695415E+02  0.27068420959E+02  0.95646827444E+02  0.91002281235E+02 0.  0.
         13    1    3    3    0    0 -0.42876169467E+02 -0.45968595096E+01 -0.31901228208E+00  0.43123195132E+02  0.10566000000E+00 0.  1.
         22    1    1    0    0    0  0.10624162355E+01 -0.11535695415E+02 -0.27068420959E+02  0.29443172556E+02  0.00000000000E+00 0. -1.
</event>
<event>
 5    1  0.1261010E-009  0.9118800E+02  0.7561462E-02  0.1125453E+00
         25   -1    0    0    0    0  0.00000000000E+00  0.00000000000E+00  0.99999998245E-14  0.12509000000E+03  0.12509000000E+03 0.  0.
        -13    1    3    3    0    0 -0.53010777121E+00 -0.53065841894E+02  0.21433016841E+02  0.57233294201E+02  0.10566000000E+00 0.  1.
         23    2    1    0    0    0 -0.11901394681E+02 -0.24062738130E+02 -0.46273074665E+01  0.97849028357E+02  0.93980645956E+02 0.  0.
         13    1    3    3    0    0 -0.11371286910E+02  0.29003103764E+02 -0.26060324308E+02  0.40615734156E+02  0.10566000000E+00 0. -1.
         22    1    1    0    0    0  0.11901394681E+02  0.24062738130E+02  0.46273074665E+01  0.27240971643E+02  0.00000000000E+00 0.  1.
</event>
<event>
 5    1  0.1261010E-009  0.9118800E+02  0.7561462E-02  0.1125453E+00
         25   -1    0    0    0    0  0.00000000000E+00  0.00000000000E+00  0.99999998245E-14  0.12509000000E+03  0.12509000000E+03 0.  0.
        -13    1    3    3    0    0 -0.18381800303E+02  0.21553978539E+01  0.47947767880E+01  0.19119031638E+02  0.10566000000E+00 0.  1.
         23    2    1    0    0    0  0.38441627246E+02  0.54537835780E+01 -0.20244779469E+02  0.81302404081E+02  0.68503484240E+02 0.  0.
         13    1    3    3    0    0  0.56823427549E+02  0.32983857241E+01 -0.25039556257E+02  0.62183372443E+02  0.10566000000E+00 0. -1.
         22    1    1    0    0    0 -0.38441627246E+02 -0.54537835780E+01  0.20244779469E+02  0.43787595919E+02  0.00000000000E+00 0. -1.
</event>
<event>
 5    1  0.1261010E-009  0.9118800E+02  0.7561462E-02  0.1125453E+00
         25   -1    0    0    0    0  0.00000000000E+00  0.00000000000E+00  0.99999998245E-14  0.12509000000E+03  0.12509000000E+03 0.  0.
        -13    1    3    3    0    0 -0.25358402413E+01 -0.35675402612E+02  0.27768591270E+02  0.45279914559E+02  0.10566000000E+00 0. -1.
         23    2    1    0    0    0  0.90372737783E+01 -0.20509203725E+02 -0.18947897400E+02  0.95741702423E+02  0.91132601259E+02 0.  0.
         13    1    3    3    0    0  0.11573114020E+02  0.15166198887E+02 -0.46716488670E+02  0.50461787865E+02  0.10566000000E+00 0.  1.
         22    1    1    0    0    0 -0.90372737783E+01  0.20509203725E+02  0.18947897400E+02  0.29348297577E+02  0.00000000000E+00 0.  1.
</event>
<event>
 5    1  0.1261010E-009  0.9118800E+02  0.7561462E-02  0.1125453E+00
         25   -1    0    0    0    0  0.00000000000E+00  0.00000000000E+00  0.99999998245E-14  0.12509000000E+03  0.12509000000E+03 0.  0.
        -13    1    3    3    0    0 -0.13300472600E+02 -0.23018593400E+02 -0.43488394508E+02  0.50970676221E+02  0.10566000000E+00 0. -1.
         23    2    1    0    0    0 -0.28122071280E+02  0.10994673866E+01 -0.91005193646E+01  0.95511643481E+02  0.90816269832E+02 0.  0.
         13    1    3    3    0    0 -0.14821598680E+02  0.24118060787E+02  0.34387875144E+02  0.44540967260E+02  0.10566000000E+00 0.  1.
         22    1    1    0    0    0  0.28122071280E+02 -0.10994673866E+01  0.91005193646E+01  0.29578356519E+02  0.00000000000E+00 0. -1.
</event>
<event>
 5    1  0.1261010E-009  0.9118800E+02  0.7561462E-02  0.1125453E+00
         25   -1    0    0    0    0  0.00000000000E+00  0.00000000000E+00  0.99999998245E-14  0.12509000000E+03  0.12509000000E+03 0.  0.
        -13    1    3    3    0    0  0.34407901600E+02 -0.14616994595E+02 -0.34812930942E+02  0.51083378396E+02  0.10566000000E+00 0.  1.
         23    2    1    0    0    0  0.13963633343E+02 -0.25495570574E+02  0.34582739261E+01  0.95816004140E+02  0.91234531926E+02 0.  0.
         13    1    3    3    0    0 -0.20444268257E+02 -0.10878575980E+02  0.38271204868E+02  0.44732625745E+02  0.10566000000E+00 0. -1.
         22    1    1    0    0    0 -0.13963633343E+02  0.25495570574E+02 -0.34582739261E+01  0.29273995860E+02  0.00000000000E+00 0.  1.
</event>
<event>
 5    1  0.1261010E-009  0.9118800E+02  0.7561462E-02  0.1125453E+00
         25   -1    0    0    0    0  0.00000000000E+00  0.00000000000E+00  0.99999998245E-14  0.12509000000E+03  0.12509000000E+03 0.  0.
        -13    1    3    3    0    0 -0.44037280366E+02  0.79816823987E+01 -0.95406875580E+01  0.45760520091E+02  0.10566000000E+00 0.  1.
         23    2    1    0    0    0 -0.97906738746E+01 -0.83906114512E+01 -0.32501842504E+02  0.90123881805E+02  0.83064340424E+02 0.  0.
         13    1    3    3    0    0  0.34246606491E+02 -0.16372293850E+02 -0.22961154946E+02  0.44363361714E+02  0.10566000000E+00 0. -1.
         22    1    1    0    0    0  0.97906738746E+01  0.83906114512E+01  0.32501842504E+02  0.34966118195E+02  0.00000000000E+00 0. -1.
</event>
<event>
 5    1  0.1261010E-009  0.9118800E+02  0.7561462E-02  0.1125453E+00
         25   -1    0    0    0    0  0.00000000000E+00  0.00000000000E+00  0.99999998245E-14  0.12509000000E+03  0.12509000000E+03 0.  0.
        -13    1    3    3    0    0 -0.18860624368E+02  0.26052787140E+02  0.96332429295E+01  0.33575011582E+02  0.10566000000E+00 0.  1.
         23    2    1    0    0    0  0.10557337847E+01 -0.30768030453E+02  0.39058866504E+01  0.94057078412E+02  0.88790155857E+02 0.  0.
         13    1    3    3    0    0  0.19916358153E+02 -0.56820817593E+02 -0.57273562792E+01  0.60482066830E+02  0.10566000000E+00 0. -1.
         22    1    1    0    0    0 -0.10557337847E+01  0.30768030453E+02 -0.39058866504E+01  0.31032921588E+02  0.00000000000E+00 0. -1.
</event>
<event>
 5    1  0.1261010E-009  0.9118800E+02  0.7561462E-02  0.1125453E+00
         25   -1    0    0    0    0  0.00000000000E+00  0.00000000000E+00  0.99999998245E-14  0.12509000000E+03  0.12509000000E+03 0.  0.
        -13    1    3    3    0    0  0.14517190889E+02 -0.23363686673E+02  0.30675852310E+02  0.41202302912E+02  0.10566000000E+00 0. -1.
         23    2    1    0    0    0  0.24556990661E+02  0.44069784389E+01 -0.15284050162E+02  0.95831335665E+02  0.91255550279E+02 0.  0.
         13    1    3    3    0    0  0.10039799772E+02  0.27770665112E+02 -0.45959902472E+02  0.54629032753E+02  0.10566000000E+00 0.  1.
         22    1    1    0    0    0 -0.24556990661E+02 -0.44069784389E+01  0.15284050162E+02  0.29258664335E+02  0.00000000000E+00 0.  1.
</event>
<event>
 5    1  0.1261010E-009  0.9118800E+02  0.7561462E-02  0.1125453E+00
         25   -1    0    0    0    0  0.00000000000E+00  0.00000000000E+00  0.99999998245E-14  0.12509000000E+03  0.12509000000E+03 0.  0.
        -13    1    3    3    0    0  0.42637612233E+02  0.32050700440E+02 -0.14832932769E+02  0.55364613556E+02  0.10566000000E+00 0.  1.
         23    2    1    0    0    0  0.53038471778E+01  0.29542002596E+02 -0.11563142707E+02  0.92925314683E+02  0.87181116805E+02 0.  0.
         13    1    3    3    0    0 -0.37333765055E+02 -0.25086978442E+01  0.32697900616E+01  0.37560701127E+02  0.10566000000E+00 0. -1.
         22    1    1    0    0    0 -0.53038471778E+01 -0.29542002596E+02  0.11563142707E+02  0.32164685317E+02  0.00000000000E+00 0.  1.
</event>
<event>
 5    1  0.1261010E-009  0.9118800E+02  0.7561462E-02  0.1125453E+00
         25   -1    0    0    0    0  0.00000000000E+00  0.00000000000E+00  0.99999998245E-14  0.12509000000E+03  0.12509000000E+03 0.  0.
        -13    1    3    3    0    0 -0.29173563489E+02 -0.32871171934E+02 -0.39751113691E+02  0.59260213927E+02  0.10566000000E+00 0.  1.
         23    2    1    0    0    0 -0.24400416696E+02 -0.65078192692E+01 -0.15106694033E+02  0.95663069287E+02  0.91024604224E+02 0.  0.
         13    1    3    3    0    0  0.47731467925E+01  0.26363352664E+02  0.24644419659E+02  0.36402855360E+02  0.10566000000E+00 0. -1.
         22    1    1    0    0    0  0.24400416696E+02  0.65078192692E+01  0.15106694033E+02  0.29426930713E+02  0.00000000000E+00 0.  1.
</event>
<event>
 5    1  0.1261010E-009  0.9118800E+02  0.7561462E-02  0.1125453E+00
         25   -1    0    0    0    0  0.00000000000E+00  0.00000000000E+00  0.99999998245E-14  0.12509000000E+03  0.12509000000E+03 0.  0.
        -13    1    3    3    0    0 -0.35951510597E+02 -0.10779417809E+02 -0.35158843116E+01  0.37697209035E+02  0.10566000000E+00 0.  1.
         23    2    1    0    0    0  0.23618260578E+02 -0.11083214895E+02 -0.89328633939E+01  0.97513634512E+02  0.93533165145E+02 0.  0.
         13    1    3    3    0    0  0.59569771174E+02 -0.30379708583E+00 -0.54169790823E+01  0.59816425477E+02  0.10566000000E+00 0. -1.
         22    1    1    0    0    0 -0.23618260578E+02  0.11083214895E+02  0.89328633939E+01  0.27576365488E+02  0.00000000000E+00 0. -1.
</event>
<event>
 5    1  0.1261010E-009  0.9118800E+02  0.7561462E-02  0.1125453E+00
         25   -1    0    0    0    0  0.00000000000E+00  0.00000000000E+00  0.99999998245E-14  0.12509000000E+03  0.12509000000E+03 0.  0.
        -13    1    3    3    0    0  0.30921870221E+02  0.23617860397E+02 -0.45258631419E+02  0.59685176297E+02  0.10566000000E+00 0.  1.
         23    2    1    0    0    0  0.25839477031E+02  0.76003670241E+01 -0.15094243791E+02  0.94214761575E+02  0.89012027002E+02 0.  0.
         13    1    3    3    0    0 -0.50823931898E+01 -0.16017493373E+02  0.30164387628E+02  0.34529585278E+02  0.10566000000E+00 0. -1.
         22    1    1    0    0    0 -0.25839477031E+02 -0.76003670241E+01  0.15094243791E+02  0.30875238425E+02  0.00000000000E+00 0.  1.
</event>
<event>
 5    1  0.1261010E-009  0.9118800E+02  0.7561462E-02  0.1125453E+00
         25   -1    0    0    0    0  0.00000000000E+00  0.00000000000E+00  0.99999998245E-14  0.12509000000E+03  0.12509000000E+03 0.  0.
        -13    1    3    3    0    0  0.26371548491E+02 -0.30038234925E+01 -0.35175856577E+02  0.44066240767E+02  0.10566000000E+00 0. -1.
         23    2    1    0    0    0  0.21395573451E+02 -0.61459242452E+01  0.17316207672E+02  0.96887269702E+02  0.92691688053E+02 0.  0.
         13    1    3    3    0    0 -0.49759750401E+01 -0.31421007528E+01  0.52492064248E+02  0.52821028936E+02  0.10566000000E+00 0.  1.
         22    1    1    0    0    0 -0.21395573451E+02  0.61459242452E+01 -0.17316207672E+02  0.28202730298E+02  0.00000000000E+00 0.  1.
</event>
<event>
 5    1  0.1261010E-009  0.9118800E+02  0.7561462E-02  0.1125453E+00
         25   -1    0    0    0    0  0.00000000000E+00  0.00000000000E+00  0.99999998245E-14  0.12509000000E+03  0.12509000000E+03 0.  0.
        -13    1    3    3    0    0 -0.32744844099E+02 -0.14991625768E+02 -0.99553292025E+01  0.37364333285E+02  0.10566000000E+00 0.  1.
         23    2    1    0    0    0  0.11892797985E+02 -0.84257619683E+01  0.26151358450E+02  0.95151301674E+02  0.90318572579E+02 0.  0.
         13    1    3    3    0    0  0.44637642084E+02  0.65658637995E+01  0.36106687653E+02  0.57786968389E+02  0.10566000000E+00 0. -1.
         22    1    1    0    0    0 -0.11892797985E+02  0.84257619683E+01 -0.26151358450E+02  0.29938698326E+02  0.00000000000E+00 0. -1.
</event>
<event>
 5    1  0.1261010E-009  0.9118800E+02  0.7561462E-02  0.1125453E+00
         25   -1    0    0    0    0  0.00000000000E+00  0.00000000000E+00  0.99999998245E-14  0.12509000000E+03  0.12509000000E+03 0.  0.
        -13    1    3    3    0    0 -0.33374288797E+02  0.48921398974E+02  0.50415220242E+01  0.59435465327E+02  0.10566000000E+00 0.  1.
         23    2    1    0    0    0 -0.26492737374E+02  0.15461270929E+02 -0.21338102233E+01  0.94341517462E+02  0.89189981156E+02 0.  0.
         13    1    3    3    0    0  0.68815514233E+01 -0.33460128044E+02 -0.71753322475E+01  0.34906052135E+02  0.10566000000E+00 0. -1.
         22    1    1    0    0    0  0.26492737374E+02 -0.15461270929E+02  0.21338102233E+01  0.30748482538E+02  0.00000000000E+00 0.  1.
</event>
<event>
 5    1  0.1261010E-009  0.9118800E+02  0.7561462E-02  0.1125453E+00
         25   -1    0    0    0    0  0.00000000000E+00  0.00000000000E+00  0.99999998245E-14  0.12509000000E+03  0.12509000000E+03 0.  0.
        -13    1    3    3    0    0 -0.24842574128E+02 -0.10348284889E+01 -0.26699500565E+02  0.36484227466E+02  0.10566000000E+00 0. -1.
         23    2    1    0    0    0  0.12274095561E+02 -0.23044753965E+02  0.13707167257E+02  0.95601009828E+02  0.90939279405E+02 0.  0.
         13    1    3    3    0    0  0.37116669690E+02 -0.22009925476E+02  0.40406667822E+02  0.59116782362E+02  0.10566000000E+00 0.  1.
         22    1    1    0    0    0 -0.12274095561E+02  0.23044753965E+02 -0.13707167257E+02  0.29488990172E+02  0.00000000000E+00 0.  1.
</event>
<event>
 5    1  0.1261010E-009  0.9118800E+02  0.7561462E-02  0.1125453E+00
         25   -1    0    0    0    0  0.00000000000E+00  0.00000000000E+00  0.99999998245E-14  0.12509000000E+03  0.12509000000E+03 0.  0.
        -13    1    3    3    0    0 -0.29242189310E+01 -0.33400196478E+02 -0.20273953985E+02  0.39181227078E+02  0.10566000000E+00 0. -1.
         23    2    1    0    0    0  0.18812772872E+02  0.18466799880E+02 -0.12364664771E+02  0.95972512886E+02  0.91448866444E+02 0.  0.
         13    1    3    3    0    0  0.21736991803E+02  0.51866996358E+02  0.79092892142E+01  0.56791285808E+02  0.10566000000E+00 0.  1.
         22    1    1    0    0    0 -0.18812772872E+02 -0.18466799880E+02  0.12364664771E+02  0.29117487114E+02  0.00000000000E+00 0.  1.
</event>
<event>
 5    1  0.1261010E-009  0.9118800E+02  0.7561462E-02  0.1125453E+00
         25   -1    0    0    0    0  0.00000000000E+00  0.00000000000E+00  0.99999998245E-14  0.12509000000E+03  0.12509000000E+03 0.  0.
        -13    1    3    3    0    0  0.77966560644E+01 -0.36287712038E+02 -0.24269245131E+02  0.44346288616E+02  0.10566000000E+00 0.  1.
         23    2    1    0    0    0 -0.21933017750E+02 -0.15185423213E+02  0.12059268147E+02  0.95814066300E+02  0.91231874950E+02 0.  0.
         13    1    3    3    0    0 -0.29729673814E+02  0.21102288825E+02  0.36328513278E+02  0.51467777684E+02  0.10566000000E+00 0. -1.
         22    1    1    0    0    0  0.21933017750E+02  0.15185423213E+02 -0.12059268147E+02  0.29275933700E+02  0.00000000000E+00 0. -1.
</event>
<event>
 5    1  0.1261010E-009  0.9118800E+02  0.7561462E-02  0.1125453E+00
         25   -1    0    0    0    0  0.00000000000E+00  0.00000000000E+00  0.99999998245E-14  0.12509000000E+03  0.12509000000E+03 0.  0.
        -13    1    3    3    0    0 -0.22628427637E+02 -0.33090157292E+02  0.36828887074E+02  0.54436957428E+02  0.10566000000E+00 0. -1.
         23    2    1    0    0    0 -0.28129915593E+02 -0.62221944877E+01  0.60689670541E+01  0.95647849661E+02  0.91003686343E+02 0.  0.
         13    1    3    3    0    0 -0.55014879561E+01  0.26867962804E+02 -0.30759920020E+02  0.41210892233E+02  0.10566000000E+00 0.  1.
         22    1    1    0    0    0  0.28129915593E+02  0.62221944877E+01 -0.60689670541E+01  0.29442150339E+02  0.00000000000E+00 0. -1.
</event>
<event>
 5    1  0.1261010E-009  0.9118800E+02  0.7561462E-02  0.1125453E+00
         25   -1    0    0    0    0  0.00000000000E+00  0.00000000000E+00  0.99999998245E-14  0.12509000000E+03  0.12509000000E+03 0.  0.
        -13    1    3    3    0    0  0.44288523903E+02 -0.28948805078E+02  0.28593163628E+02  0.60142221736E+02  0.10566000000E+00 0. -1.
         23    2    1    0    0    0  0.12625507992E+02 -0.15644627737E+02  0.22312697596E+02  0.95056447045E+02  0.90187104521E+02 0.  0.
         13    1    3    3    0    0 -0.31663015912E+02  0.13304177341E+02 -0.62804660324E+01  0.34914225310E+02  0.10566000000E+00 0.  1.
         22    1    1    0    0    0 -0.12625507992E+02  0.15644627737E+02 -0.22312697596E+02  0.30033552955E+02  0.00000000000E+00 0. -1.
</event>
<event>
 5    1  0.1261010E-009  0.9118800E+02  0.7561462E-02  0.1125453E+00
         25   -1    0    0    0    0  0.00000000000E+00  0.00000000000E+00  0.99999998245E-14  0.12509000000E+03  0.12509000000E+03 0.  0.
        -13    1    3    3    0    0  0.25388951118E+02  0.54961857890E+01  0.36796077299E+02  0.45041862370E+02  0.10566000000E+00 0.  1.
         23    2    1    0    0    0 -0.87815062909E+01  0.26466562618E+02  0.38384762865E+01  0.96941684069E+02  0.92765092682E+02 0.  0.
         13    1    3    3    0    0 -0.34170457409E+02  0.20970376829E+02 -0.32957601013E+02  0.51899821699E+02  0.10566000000E+00 0. -1.
         22    1    1    0    0    0  0.87815062909E+01 -0.26466562618E+02 -0.38384762865E+01  0.28148315931E+02  0.00000000000E+00 0. -1.
</event>
<event>
 5    1  0.1261010E-009  0.9118800E+02  0.7561462E-02  0.1125453E+00
         25   -1    0    0    0    0  0.00000000000E+00  0.00000000000E+00  0.99999998245E-14  0.12509000000E+03  0.12509000000E+03 0.  0.
        -13    1    3    3    0    0 -0.20336581455E+02 -0.82479931757E+01  0.25566275464E+02  0.33693494058E+02  0.10566000000E+00 0. -1.
         23    2    1    0    0    0  0.25504720572E+02  0.12750867342E+02 -0.94144498528E+01  0.95061559224E+02  0.90194194861E+02 0.  0.
         13    1    3    3    0    0  0.45841302027E+02  0.20998860517E+02 -0.34980725316E+02  0.61368065166E+02  0.10566000000E+00 0.  1.
         22    1    1    0    0    0 -0.25504720572E+02 -0.12750867342E+02  0.94144498528E+01  0.30028440776E+02  0.00000000000E+00 0.  1.
</event>
<event>
 5    1  0.1261010E-009  0.9118800E+02  0.7561462E-02  0.1125453E+00
         25   -1    0    0    0    0  0.00000000000E+00  0.00000000000E+00  0.99999998245E-14  0.12509000000E+03  0.12509000000E+03 0.  0.
        -13    1    3    3    0    0  0.21074891029E+02 -0.34923532652E+02 -0.14826320712E+02  0.43400865368E+02  0.10566000000E+00 0. -1.
         23    2    1    0    0    0 -0.23058574783E+02 -0.49881023635E+01 -0.15726690554E+02  0.96736731547E+02  0.92488309523E+02 0.  0.
         13    1    3    3    0    0 -0.44133465812E+02  0.29935430289E+02 -0.90036984219E+00  0.53335866179E+02  0.10566000000E+00 0.  1.
         22    1    1    0    0    0  0.23058574783E+02  0.49881023635E+01  0.15726690554E+02  0.28353268453E+02  0.00000000000E+00 0.  1.
</event>
<event>
 5    1  0.1261010E-009  0.9118800E+02  0.7561462E-02  0.1125453E+00
         25   -1    0    0    0    0  0.00000000000E+00  0.00000000000E+00  0.99999998245E-14  0.12509000000E+03  0.12509000000E+03 0.  0.
        -13    1    3    3    0    0 -0.43888258762E+02 -0.34947440811E+02 -0.21410251062E+01  0.56143548418E+02  0.10566000000E+00 0.  1.
         23    2    1    0    0    0 -0.19132669539E+02 -0.10346370546E+02  0.18365132090E+02  0.96622746816E+02  0.92334017016E+02 0.  0.
         13    1    3    3    0    0  0.24755589223E+02  0.24601070265E+02  0.20506157196E+02  0.40479198398E+02  0.10566000000E+00 0. -1.
         22    1    1    0    0    0  0.19132669539E+02  0.10346370546E+02 -0.18365132090E+02  0.28467253184E+02  0.00000000000E+00 0.  1.
</event>
<event>
 5    1  0.1261010E-009  0.9118800E+02  0.7561462E-02  0.1125453E+00
         25   -1    0    0    0    0  0.00000000000E+00  0.00000000000E+00  0.99999998245E-14  0.12509000000E+03  0.12509000000E+03 0.  0.
        -13    1    3    3    0    0 -0.11193786273E+02 -0.33585699064E+02  0.23110806767E+02  0.42277897135E+02  0.10566000000E+00 0.  1.
         23    2    1    0    0    0 -0.26911089968E+02  0.74362614185E+01 -0.79276790902E+01  0.96066684495E+02  0.91577590201E+02 0.  0.
         13    1    3    3    0    0 -0.15717303695E+02  0.41021960482E+02 -0.31038485857E+02  0.53788787360E+02  0.10566000000E+00 0. -1.
         22    1    1    0    0    0  0.26911089968E+02 -0.74362614185E+01  0.79276790902E+01  0.29023315505E+02  0.00000000000E+00 0.  1.
</event>
<event>
 5    1  0.1261010E-009  0.9118800E+02  0.7561462E-02  0.1125453E+00
         25   -1    0    0    0    0  0.00000000000E+00  0.00000000000E+00  0.99999998245E-14  0.12509000000E+03  0.12509000000E+03 0.  0.
        -13    1    3    3    0    0  0.26896967445E+01 -0.53017657948E+02  0.22429371258E+02  0.57629804632E+02  0.10566000000E+00 0.  1.
         23    2    1    0    0    0 -0.14758769137E+02 -0.19934162076E+02  0.15980533250E+02  0.95584584784E+02  0.90916683405E+02 0.  0.
         13    1    3    3    0    0 -0.17448465882E+02  0.33083495872E+02 -0.64488380076E+01  0.37954780152E+02  0.10566000000E+00 0. -1.
         22    1    1    0    0    0  0.14758769137E+02  0.19934162076E+02 -0.15980533250E+02  0.29505415216E+02  0.00000000000E+00 0.  1.
</event>
<event>
 5    1  0.1261010E-009  0.9118800E+02  0.7561462E-02  0.1125453E+00
         25   -1    0    0    0    0  0.00000000000E+00  0.00000000000E+00  0.99999998245E-14  0.12509000000E+03  0.12509000000E+03 0.  0.
        -13    1    3    3    0    0 -0.37170818121E+02 -0.90624999399E+00 -0.10988362876E+02  0.38771720255E+02  0.10566000000E+00 0.  1.
         23    2    1    0    0    0  0.77397921104E+01 -0.21360031477E+02  0.18088127566E+02  0.96049757483E+02  0.91554465905E+02 0.  0.
         13    1    3    3    0    0  0.44910610231E+02 -0.20453781483E+02  0.29076490441E+02  0.57278037228E+02  0.10566000000E+00 0. -1.
         22    1    1    0    0    0 -0.77397921104E+01  0.21360031477E+02 -0.18088127566E+02  0.29040242517E+02  0.00000000000E+00 0. -1.
</event>
<event>
 5    1  0.1261010E-009  0.9118800E+02  0.7561462E-02  0.1125453E+00
         25   -1    0    0    0    0  0.00000000000E+00  0.00000000000E+00  0.99999998245E-14  0.12509000000E+03  0.12509000000E+03 0.  0.
        -13    1    3    3    0    0 -0.42688400089E+02  0.22315355934E+02  0.48748167751E+01  0.48415386142E+02  0.10566000000E+00 0. -1.
         23    2    1    0    0    0 -0.14227181747E+02 -0.17453407432E+02 -0.11262389201E+02  0.99913114927E+02  0.96688960034E+02 0.  0.
         13    1    3    3    0    0  0.28461218342E+02 -0.39768763367E+02 -0.16137205976E+02  0.51497728785E+02  0.10566000000E+00 0.  1.
         22    1    1    0    0    0  0.14227181747E+02  0.17453407432E+02  0.11262389201E+02  0.25176885073E+02  0.00000000000E+00 0.  1.
</event>
<event>
 5    1  0.1261010E-009  0.9118800E+02  0.7561462E-02  0.1125453E+00
         25   -1    0    0    0    0  0.00000000000E+00  0.00000000000E+00  0.99999998245E-14  0.12509000000E+03  0.12509000000E+03 0.  0.
        -13    1    3    3    0    0  0.26290010918E+02  0.27166409832E+02 -0.56655115880E+01  0.38226792735E+02  0.10566000000E+00 0.  1.
         23    2    1    0    0    0 -0.14083146740E+02 -0.64210118914E+01 -0.26235347745E+02  0.94629240208E+02  0.89592606922E+02 0.  0.
         13    1    3    3    0    0 -0.40373157659E+02 -0.33587421723E+02 -0.20569836157E+02  0.56402447473E+02  0.10566000000E+00 0. -1.
         22    1    1    0    0    0  0.14083146740E+02  0.64210118914E+01  0.26235347745E+02  0.30460759792E+02  0.00000000000E+00 0.  1.
</event>
<event>
 5    1  0.1261010E-009  0.9118800E+02  0.7561462E-02  0.1125453E+00
         25   -1    0    0    0    0  0.00000000000E+00  0.00000000000E+00  0.99999998245E-14  0.12509000000E+03  0.12509000000E+03 0.  0.
        -13    1    3    3    0    0 -0.17686821364E+02  0.36091645461E+02  0.23605689374E+02  0.46611911105E+02  0.10566000000E+00 0.  1.
         23    2    1    0    0    0  0.19721537545E+02  0.68192753487E+01  0.22887825966E+02  0.94117526142E+02  0.88875275473E+02 0.  0.
         13    1    3    3    0    0  0.37408358908E+02 -0.29272370112E+02 -0.71786340781E+00  0.47505615038E+02  0.10566000000E+00 0. -1.
         22    1    1    0    0    0 -0.19721537545E+02 -0.68192753487E+01 -0.22887825966E+02  0.30972473858E+02  0.00000000000E+00 0. -1.
</event>
<event>
 5    1  0.1261010E-009  0.9118800E+02  0.7561462E-02  0.1125453E+00
         25   -1    0    0    0    0  0.00000000000E+00  0.00000000000E+00  0.99999998245E-14  0.12509000000E+03  0.12509000000E+03 0.  0.
        -13    1    3    3    0    0  0.54759941868E+02  0.11092419219E+02 -0.68076523334E+01  0.56285418110E+02  0.10566000000E+00 0. -1.
         23    2    1    0    0    0  0.11459562802E+02  0.21452900873E+01 -0.19574198629E+02  0.10230682417E+03  0.99737721899E+02 0.  0.
         13    1    3    3    0    0 -0.43300379066E+02 -0.89471291321E+01 -0.12766546295E+02  0.46021406055E+02  0.10566000000E+00 0.  1.
         22    1    1    0    0    0 -0.11459562802E+02 -0.21452900873E+01  0.19574198629E+02  0.22783175835E+02  0.00000000000E+00 0. -1.
</event>
<event>
 5    1  0.1261010E-009  0.9118800E+02  0.7561462E-02  0.1125453E+00
         25   -1    0    0    0    0  0.00000000000E+00  0.00000000000E+00  0.99999998245E-14  0.12509000000E+03  0.12509000000E+03 0.  0.
        -13    1    3    3    0    0 -0.18859449759E+02 -0.34540579935E+02 -0.28143734401E+02  0.48381933173E+02  0.10566000000E+00 0.  1.
         23    2    1    0    0    0  0.20801548120E+02 -0.14534055303E+02 -0.18087643883E+02  0.93927425829E+02  0.88607309483E+02 0.  0.
         13    1    3    3    0    0  0.39660997880E+02  0.20006524632E+02  0.10056090518E+02  0.45545492655E+02  0.10566000000E+00 0. -1.
         22    1    1    0    0    0 -0.20801548120E+02  0.14534055303E+02  0.18087643883E+02  0.31162574171E+02  0.00000000000E+00 0. -1.
</event>
<event>
 5    1  0.1261010E-009  0.9118800E+02  0.7561462E-02  0.1125453E+00
         25   -1    0    0    0    0  0.00000000000E+00  0.00000000000E+00  0.99999998245E-14  0.12509000000E+03  0.12509000000E+03 0.  0.
        -13    1    3    3    0    0  0.52289761377E+01 -0.29159824024E+02  0.35522368205E+02  0.46254592588E+02  0.10566000000E+00 0. -1.
         23    2    1    0    0    0  0.25177695349E+02  0.76768230525E+01  0.23414776639E+02  0.89860726372E+02  0.82667093960E+02 0.  0.
         13    1    3    3    0    0  0.19948719212E+02  0.36836647076E+02 -0.12107591566E+02  0.43606133784E+02  0.10566000000E+00 0.  1.
         22    1    1    0    0    0 -0.25177695349E+02 -0.76768230525E+01 -0.23414776639E+02  0.35229273628E+02  0.00000000000E+00 0. -1.
</event>
<event>
 5    1  0.1261010E-009  0.9118800E+02  0.7561462E-02  0.1125453E+00
         25   -1    0    0    0    0  0.00000000000E+00  0.00000000000E+00  0.99999998245E-14  0.12509000000E+03  0.12509000000E+03 0.  0.
        -13    1    3    3    0    0  0.23377109876E+02  0.69743237713E+01 -0.26487871243E+02  0.36010400515E+02  0.10566000000E+00 0.  1.
         23    2    1    0    0    0 -0.28913268921E+01 -0.21534261798E+02  0.19316662649E+02  0.96017372697E+02  0.91510208181E+02 0.  0.
         13    1    3    3    0    0 -0.26268436768E+02 -0.28508585570E+02  0.45804533892E+02  0.60006972182E+02  0.10566000000E+00 0. -1.
         22    1    1    0    0    0  0.28913268921E+01  0.21534261798E+02 -0.19316662649E+02  0.29072627303E+02  0.00000000000E+00 0. -1.
</event>
<event>
 5    1  0.1261010E-009  0.9118800E+02  0.7561462E-02  0.1125453E+00
         25   -1    0    0    0    0  0.00000000000E+00  0.00000000000E+00  0.99999998245E-14  0.12509000000E+03  0.12509000000E+03 0.  0.
        -13    1    3    3    0    0 -0.17950013567E+02 -0.30742308645E+02  0.85547030926E+01  0.36612656786E+02  0.10566000000E+00 0. -1.
         23    2    1    0    0    0 -0.43816524416E+02 -0.35587516676E+01  0.21298589383E+02  0.76241433644E+02  0.58536943626E+02 0.  0.
         13    1    3    3    0    0 -0.25866510849E+02  0.27183556978E+02  0.12743886291E+02  0.39628776858E+02  0.10566000000E+00 0.  1.
         22    1    1    0    0    0  0.43816524416E+02  0.35587516676E+01 -0.21298589383E+02  0.48848566356E+02  0.00000000000E+00 0.  1.
</event>
<event>
 5    1  0.1261010E-009  0.9118800E+02  0.7561462E-02  0.1125453E+00
         25   -1    0    0    0    0  0.00000000000E+00  0.00000000000E+00  0.99999998245E-14  0.12509000000E+03  0.12509000000E+03 0.  0.
        -13    1    3    3    0    0 -0.37045549051E+02  0.17629913742E+02  0.54204455487E+01  0.41383317376E+02  0.10566000000E+00 0.  1.
         23    2    1    0    0    0  0.38913591829E+01 -0.90300288419E+01  0.28155265325E+02  0.95267138590E+02  0.90478862904E+02 0.  0.
         13    1    3    3    0    0  0.40936908234E+02 -0.26659942583E+02  0.22734819776E+02  0.53883821214E+02  0.10566000000E+00 0. -1.
         22    1    1    0    0    0 -0.38913591829E+01  0.90300288419E+01 -0.28155265325E+02  0.29822861410E+02  0.00000000000E+00 0. -1.
</event>
<event>
 5    1  0.1261010E-009  0.9118800E+02  0.7561462E-02  0.1125453E+00
         25   -1    0    0    0    0  0.00000000000E+00  0.00000000000E+00  0.99999998245E-14  0.12509000000E+03  0.12509000000E+03 0.  0.
        -13    1    3    3    0    0  0.92399989851E+01  0.60089996856E+00 -0.59239805920E+02  0.59959189717E+02  0.10566000000E+00 0.  1.
         23    2    1    0    0    0 -0.68778055906E+01 -0.57087583842E+01 -0.28304020300E+02  0.95408158797E+02  0.90673618368E+02 0.  0.
         13    1    3    3    0    0 -0.16117804576E+02 -0.63096583528E+01  0.30935785620E+02  0.35448969080E+02  0.10566000000E+00 0. -1.
         22    1    1    0    0    0  0.68778055906E+01  0.57087583842E+01  0.28304020300E+02  0.29681841203E+02  0.00000000000E+00 0.  1.
</event>
<event>
 5    1  0.1261010E-009  0.9118800E+02  0.7561462E-02  0.1125453E+00
         25   -1    0    0    0    0  0.00000000000E+00  0.00000000000E+00  0.99999998245E-14  0.12509000000E+03  0.12509000000E+03 0.  0.
        -13    1    3    3    0    0 -0.39139527724E+02  0.36034292911E+02 -0.15818849125E+02  0.55503333663E+02  0.10566000000E+00 0.  1.
         23    2    1    0    0    0 -0.97524308089E+01  0.30144772008E+02  0.63425054996E+01  0.92778321583E+02  0.86969951096E+02 0.  0.
         13    1    3    3    0    0  0.29387096915E+02 -0.58895209029E+01  0.22161354624E+02  0.37274987920E+02  0.10566000000E+00 0. -1.
         22    1    1    0    0    0  0.97524308089E+01 -0.30144772008E+02 -0.63425054996E+01  0.32311678417E+02  0.00000000000E+00 0.  1.
</event>
<event>
 5    1  0.1261010E-009  0.9118800E+02  0.7561462E-02  0.1125453E+00
         25   -1    0    0    0    0  0.00000000000E+00  0.00000000000E+00  0.99999998245E-14  0.12509000000E+03  0.12509000000E+03 0.  0.
        -13    1    3    3    0    0 -0.38383741050E+02 -0.12121708321E+02 -0.25790029150E+02  0.47805691682E+02  0.10566000000E+00 0.  1.
         23    2    1    0    0    0 -0.21442561772E+01 -0.29400198388E+02  0.16214296208E+00  0.95611265459E+02  0.90953385272E+02 0.  0.
         13    1    3    3    0    0  0.36239484872E+02 -0.17278490067E+02  0.25952172112E+02  0.47805573777E+02  0.10566000000E+00 0. -1.
         22    1    1    0    0    0  0.21442561772E+01  0.29400198388E+02 -0.16214296208E+00  0.29478734541E+02  0.00000000000E+00 0.  1.
</event>
<event>
 5    1  0.1261010E-009  0.9118800E+02  0.7561462E-02  0.1125453E+00
         25   -1    0    0    0    0  0.00000000000E+00  0.00000000000E+00  0.99999998245E-14  0.12509000000E+03  0.12509000000E+03 0.  0.
        -13    1    3    3    0    0  0.28923478280E+02 -0.44433927081E+02 -0.32520653303E+02  0.62197632808E+02  0.10566000000E+00 0.  1.
         23    2    1    0    0    0  0.16590314994E+02 -0.19383389911E+02 -0.11735869132E+02  0.97006464248E+02  0.92852405061E+02 0.  0.
         13    1    3    3    0    0 -0.12333163286E+02  0.25050537170E+02  0.20784784171E+02  0.34808831440E+02  0.10566000000E+00 0. -1.
         22    1    1    0    0    0 -0.16590314994E+02  0.19383389911E+02  0.11735869132E+02  0.28083535752E+02  0.00000000000E+00 0.  1.
</event>
<event>
 5    1  0.1261010E-009  0.9118800E+02  0.7561462E-02  0.1125453E+00
         25   -1    0    0    0    0  0.00000000000E+00  0.00000000000E+00  0.99999998245E-14  0.12509000000E+03  0.12509000000E+03 0.  0.
        -13    1    3    3    0    0  0.48771718204E+02 -0.97880092652E+01 -0.89479018344E+01  0.50542672399E+02  0.10566000000E+00 0.  1.
         23    2    1    0    0    0  0.29809206083E+02 -0.21271663125E+02  0.17037776693E+02  0.84699923818E+02  0.74449438149E+02 0.  0.
         13    1    3    3    0    0 -0.18962512121E+02 -0.11483653860E+02  0.25985678527E+02  0.34157251419E+02  0.10566000000E+00 0. -1.
         22    1    1    0    0    0 -0.29809206083E+02  0.21271663125E+02 -0.17037776693E+02  0.40390076182E+02  0.00000000000E+00 0.  1.
</event>
<event>
 5    1  0.1261010E-009  0.9118800E+02  0.7561462E-02  0.1125453E+00
         25   -1    0    0    0    0  0.00000000000E+00  0.00000000000E+00  0.99999998245E-14  0.12509000000E+03  0.12509000000E+03 0.  0.
        -13    1    3    3    0    0 -0.22293846585E+02 -0.23266589188E+02 -0.46825737644E+02  0.56841979539E+02  0.10566000000E+00 0. -1.
         23    2    1    0    0    0 -0.24865993534E+02 -0.13153148922E+02 -0.98141619828E+01  0.95296699806E+02  0.90519723031E+02 0.  0.
         13    1    3    3    0    0 -0.25721469487E+01  0.10113440265E+02  0.37011575661E+02  0.38454720268E+02  0.10566000000E+00 0.  1.
         22    1    1    0    0    0  0.24865993534E+02  0.13153148922E+02  0.98141619828E+01  0.29793300194E+02  0.00000000000E+00 0. -1.
</event>
<event>
 5    1  0.1261010E-009  0.9118800E+02  0.7561462E-02  0.1125453E+00
         25   -1    0    0    0    0  0.00000000000E+00  0.00000000000E+00  0.99999998245E-14  0.12509000000E+03  0.12509000000E+03 0.  0.
        -13    1    3    3    0    0 -0.25739757830E+02 -0.18311272225E+02  0.26412994600E+02  0.41176392161E+02  0.10566000000E+00 0.  1.
         23    2    1    0    0    0  0.23528135231E+02 -0.19122145436E+02  0.85542465697E+01  0.93587544097E+02  0.88126180459E+02 0.  0.
         13    1    3    3    0    0  0.49267893061E+02 -0.81087321056E+00 -0.17858748030E+02  0.52411151936E+02  0.10566000000E+00 0. -1.
         22    1    1    0    0    0 -0.23528135231E+02  0.19122145436E+02 -0.85542465697E+01  0.31502455903E+02  0.00000000000E+00 0.  1.
</event>
<event>
 5    1  0.1261010E-009  0.9118800E+02  0.7561462E-02  0.1125453E+00
         25   -1    0    0    0    0  0.00000000000E+00  0.00000000000E+00  0.99999998245E-14  0.12509000000E+03  0.12509000000E+03 0.  0.
        -13    1    3    3    0    0 -0.19819649498E+02 -0.52402687450E+02 -0.84685269320E+01  0.56662044356E+02  0.10566000000E+00 0.  1.
         23    2    1    0    0    0  0.75044241414E+01 -0.26451691462E+02 -0.13106810907E+02  0.94630242039E+02  0.89594005678E+02 0.  0.
         13    1    3    3    0    0  0.27324073640E+02  0.25950995988E+02 -0.46382839752E+01  0.37968197683E+02  0.10566000000E+00 0. -1.
         22    1    1    0    0    0 -0.75044241414E+01  0.26451691462E+02  0.13106810907E+02  0.30459757961E+02  0.00000000000E+00 0.  1.
</event>
<event>
 5    1  0.1261010E-009  0.9118800E+02  0.7561462E-02  0.1125453E+00
         25   -1    0    0    0    0  0.00000000000E+00  0.00000000000E+00  0.99999998245E-14  0.12509000000E+03  0.12509000000E+03 0.  0.
        -13    1    3    3    0    0 -0.18572762498E+02  0.37323278236E+02  0.44885292495E+02  0.61259083012E+02  0.10566000000E+00 0. -1.
         23    2    1    0    0    0 -0.16592483661E+02  0.22467414144E+02  0.18548658675E+02  0.91561684340E+02  0.85202077957E+02 0.  0.
         13    1    3    3    0    0  0.19802788365E+01 -0.14855864092E+02 -0.26336633820E+02  0.30302601328E+02  0.10566000000E+00 0.  1.
         22    1    1    0    0    0  0.16592483661E+02 -0.22467414144E+02 -0.18548658675E+02  0.33528315660E+02  0.00000000000E+00 0. -1.
</event>
<event>
 5    1  0.1261010E-009  0.9118800E+02  0.7561462E-02  0.1125453E+00
         25   -1    0    0    0    0  0.00000000000E+00  0.00000000000E+00  0.99999998245E-14  0.12509000000E+03  0.12509000000E+03 0.  0.
        -13    1    3    3    0    0 -0.16771248463E+02 -0.13810389758E+02  0.32748653341E+02  0.39299963103E+02  0.10566000000E+00 0. -1.
         23    2    1    0    0    0  0.11905193086E+02  0.25959860547E+02  0.36949466620E+01  0.96292420017E+02  0.91885415273E+02 0.  0.
         13    1    3    3    0    0  0.28676441549E+02  0.39770250305E+02 -0.29053706679E+02  0.56992456913E+02  0.10566000000E+00 0.  1.
         22    1    1    0    0    0 -0.11905193086E+02 -0.25959860547E+02 -0.36949466620E+01  0.28797579983E+02  0.00000000000E+00 0.  1.
</event>
<event>
 5    1  0.1261010E-009  0.9118800E+02  0.7561462E-02  0.1125453E+00
         25   -1    0    0    0    0  0.00000000000E+00  0.00000000000E+00  0.99999998245E-14  0.12509000000E+03  0.12509000000E+03 0.  0.
        -13    1    3    3    0    0  0.20058588450E+02  0.30019937118E+02 -0.11607071344E+02  0.37924647189E+02  0.10566000000E+00 0.  1.
         23    2    1    0    0    0 -0.15108386958E+02 -0.16109711121E+02 -0.18422366024E+02  0.96329441612E+02  0.91935801527E+02 0.  0.
         13    1    3    3    0    0 -0.35166975408E+02 -0.46129648239E+02 -0.68152946798E+01  0.58404794423E+02  0.10566000000E+00 0. -1.
         22    1    1    0    0    0  0.15108386958E+02  0.16109711121E+02  0.18422366024E+02  0.28760558388E+02  0.00000000000E+00 0. -1.
</event>
<event>
 5    1  0.1261010E-009  0.9118800E+02  0.7561462E-02  0.1125453E+00
         25   -1    0    0    0    0  0.00000000000E+00  0.00000000000E+00  0.99999998245E-14  0.12509000000E+03  0.12509000000E+03 0.  0.
        -13    1    3    3    0    0 -0.83646407910E+01  0.55750740957E+01 -0.51686525786E+02  0.52655073627E+02  0.10566000000E+00 0. -1.
         23    2    1    0    0    0 -0.21055333197E+02  0.21668782290E+02 -0.32169847523E+02  0.80956540226E+02  0.67868985065E+02 0.  0.
         13    1    3    3    0    0 -0.12690692406E+02  0.16093708194E+02  0.19516678263E+02  0.28301466599E+02  0.10566000000E+00 0.  1.
         22    1    1    0    0    0  0.21055333197E+02 -0.21668782290E+02  0.32169847523E+02  0.44133459774E+02  0.00000000000E+00 0. -1.
</event>
<event>
 5    1  0.1261010E-009  0.9118800E+02  0.7561462E-02  0.1125453E+00
         25   -1    0    0    0    0  0.00000000000E+00  0.00000000000E+00  0.99999998245E-14  0.12509000000E+03  0.12509000000E+03 0.  0.
        -13    1    3    3    0    0  0.28768621827E+02  0.24385897551E+02  0.13090383057E+02  0.39920857879E+02  0.10566000000E+00 0.  1.
         23    2    1    0    0    0  0.71565247948E+01 -0.26905306999E+02  0.94135120882E+01  0.95700791068E+02  0.91076428396E+02 0.  0.
         13    1    3    3    0    0 -0.21612097033E+02 -0.51291204550E+02 -0.36768709684E+01  0.55779933188E+02  0.10566000000E+00 0. -1.
         22    1    1    0    0    0 -0.71565247948E+01  0.26905306999E+02 -0.94135120882E+01  0.29389208932E+02  0.00000000000E+00 0. -1.
</event>
<event>
 5    1  0.1261010E-009  0.9118800E+02  0.7561462E-02  0.1125453E+00
         25   -1    0    0    0    0  0.00000000000E+00  0.00000000000E+00  0.99999998245E-14  0.12509000000E+03  0.12509000000E+03 0.  0.
        -13    1    3    3    0    0  0.18259885044E+02  0.14657144285E+02  0.45315663445E+02  0.51007605295E+02  0.10566000000E+00 0. -1.
         23    2    1    0    0    0  0.24547375465E+02  0.16336069817E+02  0.12226776151E+01  0.95578379241E+02  0.90908144951E+02 0.  0.
         13    1    3    3    0    0  0.62874904209E+01  0.16789255318E+01 -0.44092985830E+02  0.44570773946E+02  0.10566000000E+00 0.  1.
         22    1    1    0    0    0 -0.24547375465E+02 -0.16336069817E+02 -0.12226776151E+01  0.29511620759E+02  0.00000000000E+00 0. -1.
</event>
<event>
 5    1  0.1261010E-009  0.9118800E+02  0.7561462E-02  0.1125453E+00
         25   -1    0    0    0    0  0.00000000000E+00  0.00000000000E+00  0.99999998245E-14  0.12509000000E+03  0.12509000000E+03 0.  0.
        -13    1    3    3    0    0 -0.29579626612E+02 -0.19780964719E+02  0.27876606384E+02  0.45203508970E+02  0.10566000000E+00 0.  1.
         23    2    1    0    0    0 -0.14600130175E+02  0.24013892972E+02  0.62167562300E+01  0.96306690343E+02  0.91904840405E+02 0.  0.
         13    1    3    3    0    0  0.14979496437E+02  0.43794857691E+02 -0.21659850154E+02  0.51103181372E+02  0.10566000000E+00 0. -1.
         22    1    1    0    0    0  0.14600130175E+02 -0.24013892972E+02 -0.62167562300E+01  0.28783309657E+02  0.00000000000E+00 0. -1.
</event>
<event>
 5    1  0.1261010E-009  0.9118800E+02  0.7561462E-02  0.1125453E+00
         25   -1    0    0    0    0  0.00000000000E+00  0.00000000000E+00  0.99999998245E-14  0.12509000000E+03  0.12509000000E+03 0.  0.
        -13    1    3    3    0    0 -0.34540842114E+01 -0.58964084027E+02 -0.14862035494E+01  0.59083956095E+02  0.10566000000E+00 0.  1.
         23    2    1    0    0    0 -0.53184634028E+01 -0.22507365356E+02  0.13233324482E+02  0.98444392011E+02  0.94769773100E+02 0.  0.
         13    1    3    3    0    0 -0.18643791914E+01  0.36456718671E+02  0.14719528031E+02  0.39360435916E+02  0.10566000000E+00 0. -1.
         22    1    1    0    0    0  0.53184634028E+01  0.22507365356E+02 -0.13233324482E+02  0.26645607989E+02  0.00000000000E+00 0.  1.
</event>
<event>
 5    1  0.1261010E-009  0.9118800E+02  0.7561462E-02  0.1125453E+00
         25   -1    0    0    0    0  0.00000000000E+00  0.00000000000E+00  0.99999998245E-14  0.12509000000E+03  0.12509000000E+03 0.  0.
        -13    1    3    3    0    0 -0.28109684688E+01  0.58201761550E+01  0.55276340651E+02  0.55653041193E+02  0.10566000000E+00 0. -1.
         23    2    1    0    0    0 -0.36523498838E+01  0.22446444270E+02  0.19423258270E+02  0.95182718581E+02  0.90362074094E+02 0.  0.
         13    1    3    3    0    0 -0.84138141504E+00  0.16626268115E+02 -0.35853082381E+02  0.39529677388E+02  0.10566000000E+00 0.  1.
         22    1    1    0    0    0  0.36523498838E+01 -0.22446444270E+02 -0.19423258270E+02  0.29907281419E+02  0.00000000000E+00 0. -1.
</event>
<event>
 5    1  0.1261010E-009  0.9118800E+02  0.7561462E-02  0.1125453E+00
         25   -1    0    0    0    0  0.00000000000E+00  0.00000000000E+00  0.99999998245E-14  0.12509000000E+03  0.12509000000E+03 0.  0.
        -13    1    3    3    0    0 -0.11623541609E+02  0.36582546229E+02 -0.15936201230E+02  0.41561557741E+02  0.10566000000E+00 0.  1.
         23    2    1    0    0    0 -0.20905712346E+02 -0.11930984613E+02  0.11878086595E+02  0.98248127046E+02  0.94510360937E+02 0.  0.
         13    1    3    3    0    0 -0.92821707364E+01 -0.48513530842E+02  0.27814287825E+02  0.56686569305E+02  0.10566000000E+00 0. -1.
         22    1    1    0    0    0  0.20905712346E+02  0.11930984613E+02 -0.11878086595E+02  0.26841872954E+02  0.00000000000E+00 0. -1.
</event>
<event>
 5    1  0.1261010E-009  0.9118800E+02  0.7561462E-02  0.1125453E+00
         25   -1    0    0    0    0  0.00000000000E+00  0.00000000000E+00  0.99999998245E-14  0.12509000000E+03  0.12509000000E+03 0.  0.
        -13    1    3    3    0    0  0.40284542946E+01 -0.46429617095E+02 -0.37140888815E+02  0.59593578292E+02  0.10566000000E+00 0.  1.
         23    2    1    0    0    0  0.14582473788E+02 -0.17162662155E+02 -0.19115598857E+02  0.95549999430E+02  0.90869085818E+02 0.  0.
         13    1    3    3    0    0  0.10554019493E+02  0.29266954940E+02  0.18025289958E+02  0.35956421138E+02  0.10566000000E+00 0. -1.
         22    1    1    0    0    0 -0.14582473788E+02  0.17162662155E+02  0.19115598857E+02  0.29540000570E+02  0.00000000000E+00 0.  1.
</event>
<event>
 5    1  0.1261010E-009  0.9118800E+02  0.7561462E-02  0.1125453E+00
         25   -1    0    0    0    0  0.00000000000E+00  0.00000000000E+00  0.99999998245E-14  0.12509000000E+03  0.12509000000E+03 0.  0.
        -13    1    3    3    0    0 -0.40097908389E+02 -0.42640329706E+02  0.13485437029E+02  0.60065865102E+02  0.10566000000E+00 0. -1.
         23    2    1    0    0    0 -0.17817161752E+02 -0.14726813454E+02  0.17626404334E+02  0.96020765109E+02  0.91514845325E+02 0.  0.
         13    1    3    3    0    0  0.22280746637E+02  0.27913516251E+02  0.41409673048E+01  0.35954900006E+02  0.10566000000E+00 0.  1.
         22    1    1    0    0    0  0.17817161752E+02  0.14726813454E+02 -0.17626404334E+02  0.29069234891E+02  0.00000000000E+00 0.  1.
</event>
<event>
 5    1  0.1261010E-009  0.9118800E+02  0.7561462E-02  0.1125453E+00
         25   -1    0    0    0    0  0.00000000000E+00  0.00000000000E+00  0.99999998245E-14  0.12509000000E+03  0.12509000000E+03 0.  0.
        -13    1    3    3    0    0 -0.35659723969E+02 -0.42025022059E+02  0.15680146773E+02  0.57302674976E+02  0.10566000000E+00 0.  1.
         23    2    1    0    0    0 -0.50240813755E+00 -0.27912802050E+02  0.88973202352E+01  0.95789159746E+02  0.91197718640E+02 0.  0.
         13    1    3    3    0    0  0.35157315831E+02  0.14112220009E+02 -0.67828265382E+01  0.38486484769E+02  0.10566000000E+00 0. -1.
         22    1    1    0    0    0  0.50240813755E+00  0.27912802050E+02 -0.88973202352E+01  0.29300840254E+02  0.00000000000E+00 0.  1.
</event>
<event>
 5    1  0.1261010E-009  0.9118800E+02  0.7561462E-02  0.1125453E+00
         25   -1    0    0    0    0  0.00000000000E+00  0.00000000000E+00  0.99999998245E-14  0.12509000000E+03  0.12509000000E+03 0.  0.
        -13    1    3    3    0    0  0.35964796592E+02 -0.10339894803E+02  0.47494360088E+02  0.60465737593E+02  0.10566000000E+00 0. -1.
         23    2    1    0    0    0  0.10332315400E+02  0.17681152472E+01  0.28846931074E+02  0.94397518747E+02  0.89268489066E+02 0.  0.
         13    1    3    3    0    0 -0.25632481192E+02  0.12108010050E+02 -0.18647429014E+02  0.33931781154E+02  0.10566000000E+00 0.  1.
         22    1    1    0    0    0 -0.10332315400E+02 -0.17681152472E+01 -0.28846931074E+02  0.30692481253E+02  0.00000000000E+00 0. -1.
</event>
<event>
 5    1  0.1261010E-009  0.9118800E+02  0.7561462E-02  0.1125453E+00
         25   -1    0    0    0    0  0.00000000000E+00  0.00000000000E+00  0.99999998245E-14  0.12509000000E+03  0.12509000000E+03 0.  0.
        -13    1    3    3    0    0 -0.19605077292E+02  0.12121079819E+02  0.25374438752E+02  0.34280503754E+02  0.10566000000E+00 0. -1.
         23    2    1    0    0    0  0.28511300731E+00 -0.49509233498E+01 -0.29543428465E+02  0.95133246222E+02  0.90293562561E+02 0.  0.
         13    1    3    3    0    0  0.19890190299E+02 -0.17072003169E+02 -0.54917867216E+02  0.60852742469E+02  0.10566000000E+00 0.  1.
         22    1    1    0    0    0 -0.28511300731E+00  0.49509233498E+01  0.29543428465E+02  0.29956753778E+02  0.00000000000E+00 0.  1.
</event>
<event>
 5    1  0.1261010E-009  0.9118800E+02  0.7561462E-02  0.1125453E+00
         25   -1    0    0    0    0  0.00000000000E+00  0.00000000000E+00  0.99999998245E-14  0.12509000000E+03  0.12509000000E+03 0.  0.
        -13    1    3    3    0    0  0.20786753921E+02  0.31324241783E+01  0.54361152485E+02  0.58284194113E+02  0.10566000000E+00 0.  1.
         23    2    1    0    0    0  0.22594074165E+02 -0.66114329778E+01  0.19517116234E+02  0.94510250827E+02  0.89426318564E+02 0.  0.
         13    1    3    3    0    0  0.18073202438E+01 -0.97438571561E+01 -0.34844036251E+02  0.36226056714E+02  0.10566000000E+00 0. -1.
         22    1    1    0    0    0 -0.22594074165E+02  0.66114329778E+01 -0.19517116234E+02  0.30579749173E+02  0.00000000000E+00 0.  1.
</event>
<event>
 5    1  0.1261010E-009  0.9118800E+02  0.7561462E-02  0.1125453E+00
         25   -1    0    0    0    0  0.00000000000E+00  0.00000000000E+00  0.99999998245E-14  0.12509000000E+03  0.12509000000E+03 0.  0.
        -13    1    3    3    0    0  0.53217387975E+02  0.87801340779E+00 -0.67616471702E+01  0.53652514638E+02  0.10566000000E+00 0. -1.
         23    2    1    0    0    0  0.24088467843E+02  0.23626677477E+02 -0.70823230022E+01  0.90613435920E+02  0.83798337087E+02 0.  0.
         13    1    3    3    0    0 -0.29128920132E+02  0.22748664070E+02 -0.32067583203E+00  0.36960921282E+02  0.10566000000E+00 0.  1.
         22    1    1    0    0    0 -0.24088467843E+02 -0.23626677477E+02  0.70823230022E+01  0.34476564080E+02  0.00000000000E+00 0. -1.
</event>
<event>
 5    1  0.1261010E-009  0.9118800E+02  0.7561462E-02  0.1125453E+00
         25   -1    0    0    0    0  0.00000000000E+00  0.00000000000E+00  0.99999998245E-14  0.12509000000E+03  0.12509000000E+03 0.  0.
        -13    1    3    3    0    0  0.24101543083E+02  0.13629087394E+02  0.20241967645E+02  0.34298466735E+02  0.10566000000E+00 0.  1.
         23    2    1    0    0    0 -0.15286483182E+02 -0.27109450210E+02  0.16993607913E+01  0.93921318831E+02  0.88598687603E+02 0.  0.
         13    1    3    3    0    0 -0.39388026264E+02 -0.40738537604E+02 -0.18542606854E+02  0.59622852096E+02  0.10566000000E+00 0. -1.
         22    1    1    0    0    0  0.15286483182E+02  0.27109450210E+02 -0.16993607913E+01  0.31168681169E+02  0.00000000000E+00 0. -1.
</event>
<event>
 5    1  0.1261010E-009  0.9118800E+02  0.7561462E-02  0.1125453E+00
         25   -1    0    0    0    0  0.00000000000E+00  0.00000000000E+00  0.99999998245E-14  0.12509000000E+03  0.12509000000E+03 0.  0.
        -13    1    3    3    0    0  0.58739304170E+01 -0.26907183958E+02  0.30876303543E+02  0.41374592344E+02  0.10566000000E+00 0.  1.
         23    2    1    0    0    0 -0.11617911273E+02  0.22021075586E+02  0.16262622150E+02  0.95351531453E+02  0.90595463678E+02 0.  0.
         13    1    3    3    0    0 -0.17491841690E+02  0.48928259544E+02 -0.14613681394E+02  0.53976939109E+02  0.10566000000E+00 0. -1.
         22    1    1    0    0    0  0.11617911273E+02 -0.22021075586E+02 -0.16262622150E+02  0.29738468547E+02  0.00000000000E+00 0. -1.
</event>
<event>
 5    1  0.1261010E-009  0.9118800E+02  0.7561462E-02  0.1125453E+00
         25   -1    0    0    0    0  0.00000000000E+00  0.00000000000E+00  0.99999998245E-14  0.12509000000E+03  0.12509000000E+03 0.  0.
        -13    1    3    3    0    0  0.15395940097E+02  0.36409811391E+02 -0.33669353705E+02  0.51926350536E+02  0.10566000000E+00 0. -1.
         23    2    1    0    0    0  0.13959131768E+02  0.25392958208E+02  0.79817628279E+01  0.95033915356E+02  0.90155847530E+02 0.  0.
         13    1    3    3    0    0 -0.14368083291E+01 -0.11016853183E+02  0.41651116533E+02  0.43107564820E+02  0.10566000000E+00 0.  1.
         22    1    1    0    0    0 -0.13959131768E+02 -0.25392958208E+02 -0.79817628279E+01  0.30056084644E+02  0.00000000000E+00 0.  1.
</event>
<event>
 5    1  0.1261010E-009  0.9118800E+02  0.7561462E-02  0.1125453E+00
         25   -1    0    0    0    0  0.00000000000E+00  0.00000000000E+00  0.99999998245E-14  0.12509000000E+03  0.12509000000E+03 0.  0.
        -13    1    3    3    0    0 -0.21933791352E+02 -0.35726678419E+02  0.29811304872E+02  0.51441343452E+02  0.10566000000E+00 0.  1.
         23    2    1    0    0    0 -0.26068339976E+02 -0.57962061044E+01 -0.54054382472E+01  0.97843475140E+02  0.93973254230E+02 0.  0.
         13    1    3    3    0    0 -0.41345486237E+01  0.29930472314E+02 -0.35216743119E+02  0.46402131688E+02  0.10566000000E+00 0. -1.
         22    1    1    0    0    0  0.26068339976E+02  0.57962061044E+01  0.54054382472E+01  0.27246524860E+02  0.00000000000E+00 0.  1.
</event>
<event>
 5    1  0.1261010E-009  0.9118800E+02  0.7561462E-02  0.1125453E+00
         25   -1    0    0    0    0  0.00000000000E+00  0.00000000000E+00  0.99999998245E-14  0.12509000000E+03  0.12509000000E+03 0.  0.
        -13    1    3    3    0    0  0.33185530335E+02 -0.14326681973E+02 -0.47907246591E+02  0.60013737427E+02  0.10566000000E+00 0. -1.
         23    2    1    0    0    0  0.18549155075E+02  0.54832875349E+01 -0.22903236937E+02  0.95111743573E+02  0.90263768519E+02 0.  0.
         13    1    3    3    0    0 -0.14636375260E+02  0.19809969508E+02  0.25004009654E+02  0.35098006146E+02  0.10566000000E+00 0.  1.
         22    1    1    0    0    0 -0.18549155075E+02 -0.54832875349E+01  0.22903236937E+02  0.29978256427E+02  0.00000000000E+00 0. -1.
</event>
<event>
 5    1  0.1261010E-009  0.9118800E+02  0.7561462E-02  0.1125453E+00
         25   -1    0    0    0    0  0.00000000000E+00  0.00000000000E+00  0.99999998245E-14  0.12509000000E+03  0.12509000000E+03 0.  0.
        -13    1    3    3    0    0 -0.30289342377E+02 -0.14770893480E+01 -0.10685894709E+02  0.32153157922E+02  0.10566000000E+00 0. -1.
         23    2    1    0    0    0  0.56592886630E+01  0.21851970992E+01  0.34528318883E+02  0.90032797610E+02  0.82927059553E+02 0.  0.
         13    1    3    3    0    0  0.35948631040E+02  0.36622864472E+01  0.45214213592E+02  0.57879639688E+02  0.10566000000E+00 0.  1.
         22    1    1    0    0    0 -0.56592886630E+01 -0.21851970992E+01 -0.34528318883E+02  0.35057202390E+02  0.00000000000E+00 0.  1.
</event>
<event>
 5    1  0.1261010E-009  0.9118800E+02  0.7561462E-02  0.1125453E+00
         25   -1    0    0    0    0  0.00000000000E+00  0.00000000000E+00  0.99999998245E-14  0.12509000000E+03  0.12509000000E+03 0.  0.
        -13    1    3    3    0    0 -0.20390888767E+02 -0.30197954981E+02 -0.43575926827E+02  0.56802969928E+02  0.10566000000E+00 0.  1.
         23    2    1    0    0    0 -0.22915357077E+02 -0.19810009746E+01 -0.26981679690E+02  0.89635113260E+02  0.82324993383E+02 0.  0.
         13    1    3    3    0    0 -0.25244683101E+01  0.28216954007E+02  0.16594247137E+02  0.32832143332E+02  0.10566000000E+00 0. -1.
         22    1    1    0    0    0  0.22915357077E+02  0.19810009746E+01  0.26981679690E+02  0.35454886740E+02  0.00000000000E+00 0.  1.
</event>
<event>
 5    1  0.1261010E-009  0.9118800E+02  0.7561462E-02  0.1125453E+00
         25   -1    0    0    0    0  0.00000000000E+00  0.00000000000E+00  0.99999998245E-14  0.12509000000E+03  0.12509000000E+03 0.  0.
        -13    1    3    3    0    0  0.16482284657E+01  0.24196110295E+02 -0.46933878920E+02  0.52829618255E+02  0.10566000000E+00 0.  1.
         23    2    1    0    0    0  0.22538325803E+02 -0.51325531970E+00 -0.20676047430E+02  0.94500156941E+02  0.89412198069E+02 0.  0.
         13    1    3    3    0    0  0.20890097338E+02 -0.24709365614E+02  0.26257831489E+02  0.41670538686E+02  0.10566000000E+00 0. -1.
         22    1    1    0    0    0 -0.22538325803E+02  0.51325531970E+00  0.20676047430E+02  0.30589843059E+02  0.00000000000E+00 0.  1.
</event>
<event>
 5    1  0.1261010E-009  0.9118800E+02  0.7561462E-02  0.1125453E+00
         25   -1    0    0    0    0  0.00000000000E+00  0.00000000000E+00  0.99999998245E-14  0.12509000000E+03  0.12509000000E+03 0.  0.
        -13    1    3    3    0    0  0.26449941162E+02  0.28505071964E+02 -0.70406895209E+01  0.39518615716E+02  0.10566000000E+00 0. -1.
         23    2    1    0    0    0  0.10354083214E+02 -0.23441691430E+02 -0.16348431627E+02  0.94692777217E+02  0.89681273988E+02 0.  0.
         13    1    3    3    0    0 -0.16095857948E+02 -0.51946763394E+02 -0.93077421057E+01  0.55174161501E+02  0.10566000000E+00 0.  1.
         22    1    1    0    0    0 -0.10354083214E+02  0.23441691430E+02  0.16348431627E+02  0.30397222783E+02  0.00000000000E+00 0.  1.
</event>
<event>
 5    1  0.1261010E-009  0.9118800E+02  0.7561462E-02  0.1125453E+00
         25   -1    0    0    0    0  0.00000000000E+00  0.00000000000E+00  0.99999998245E-14  0.12509000000E+03  0.12509000000E+03 0.  0.
        -13    1    3    3    0    0 -0.18555923971E+02  0.20576521737E+02 -0.26390380219E+02  0.38264590594E+02  0.10566000000E+00 0.  1.
         23    2    1    0    0    0  0.12650784198E+02 -0.24683112320E+02 -0.93387115085E+01  0.95823809485E+02  0.91245233065E+02 0.  0.
         13    1    3    3    0    0  0.31206708168E+02 -0.45259634056E+02  0.17051668710E+02  0.57559218892E+02  0.10566000000E+00 0. -1.
         22    1    1    0    0    0 -0.12650784198E+02  0.24683112320E+02  0.93387115085E+01  0.29266190515E+02  0.00000000000E+00 0. -1.
</event>
<event>
 5    1  0.1261010E-009  0.9118800E+02  0.7561462E-02  0.1125453E+00
         25   -1    0    0    0    0  0.00000000000E+00  0.00000000000E+00  0.99999998245E-14  0.12509000000E+03  0.12509000000E+03 0.  0.
        -13    1    3    3    0    0 -0.60683757443E+01  0.13682596015E+02 -0.33192110941E+02  0.36411069892E+02  0.10566000000E+00 0.  1.
         23    2    1    0    0    0  0.21333763159E+02 -0.18698899486E+02  0.80772230640E+01  0.95593901530E+02  0.90929501180E+02 0.  0.
         13    1    3    3    0    0  0.27402138903E+02 -0.32381495502E+02  0.41269334005E+02  0.59182831638E+02  0.10566000000E+00 0. -1.
         22    1    1    0    0    0 -0.21333763159E+02  0.18698899486E+02 -0.80772230640E+01  0.29496098470E+02  0.00000000000E+00 0. -1.
</event>
<event>
 5    1  0.1261010E-009  0.9118800E+02  0.7561462E-02  0.1125453E+00
         25   -1    0    0    0    0  0.00000000000E+00  0.00000000000E+00  0.99999998245E-14  0.12509000000E+03  0.12509000000E+03 0.  0.
        -13    1    3    3    0    0  0.36235434772E+02 -0.47540202776E+02  0.17783818569E+02  0.62364677342E+02  0.10566000000E+00 0. -1.
         23    2    1    0    0    0  0.15845406590E+02 -0.23671698452E+02  0.54789352399E+01  0.96082329480E+02  0.91598957905E+02 0.  0.
         13    1    3    3    0    0 -0.20390028182E+02  0.23868504323E+02 -0.12304883329E+02  0.33717652138E+02  0.10566000000E+00 0.  1.
         22    1    1    0    0    0 -0.15845406590E+02  0.23671698452E+02 -0.54789352399E+01  0.29007670520E+02  0.00000000000E+00 0. -1.
</event>
<event>
 5    1  0.1261010E-009  0.9118800E+02  0.7561462E-02  0.1125453E+00
         25   -1    0    0    0    0  0.00000000000E+00  0.00000000000E+00  0.99999998245E-14  0.12509000000E+03  0.12509000000E+03 0.  0.
        -13    1    3    3    0    0 -0.40893838799E+02  0.16894034359E+01  0.66782024869E+01  0.41470105958E+02  0.10566000000E+00 0. -1.
         23    2    1    0    0    0  0.22362386862E+01 -0.27067695642E+02 -0.10337294474E+02  0.96029363946E+02  0.91526598166E+02 0.  0.
         13    1    3    3    0    0  0.43130077485E+02 -0.28757099078E+02 -0.17015496961E+02  0.54559257987E+02  0.10566000000E+00 0.  1.
         22    1    1    0    0    0 -0.22362386862E+01  0.27067695642E+02  0.10337294474E+02  0.29060636054E+02  0.00000000000E+00 0. -1.
</event>
<event>
 5    1  0.1261010E-009  0.9118800E+02  0.7561462E-02  0.1125453E+00
         25   -1    0    0    0    0  0.00000000000E+00  0.00000000000E+00  0.99999998245E-14  0.12509000000E+03  0.12509000000E+03 0.  0.
        -13    1    3    3    0    0 -0.20815770660E+02 -0.21566004859E+01 -0.26772597631E+02  0.33981324015E+02  0.10566000000E+00 0. -1.
         23    2    1    0    0    0  0.11652514540E+02  0.19000400682E+02  0.20291980121E+02  0.94947658047E+02  0.90036087155E+02 0.  0.
         13    1    3    3    0    0  0.32468285201E+02  0.21157001168E+02  0.47064577752E+02  0.60966334032E+02  0.10566000000E+00 0.  1.
         22    1    1    0    0    0 -0.11652514540E+02 -0.19000400682E+02 -0.20291980121E+02  0.30142341953E+02  0.00000000000E+00 0.  1.
</event>
<event>
 5    1  0.1261010E-009  0.9118800E+02  0.7561462E-02  0.1125453E+00
         25   -1    0    0    0    0  0.00000000000E+00  0.00000000000E+00  0.99999998245E-14  0.12509000000E+03  0.12509000000E+03 0.  0.
        -13    1    3    3    0    0  0.15297167728E+02 -0.28705945389E+02 -0.39480943491E+02  0.51154576571E+02  0.10566000000E+00 0.  1.
         23    2    1    0    0    0  0.13157631096E+02  0.12424756107E+02 -0.23722676572E+02  0.95252721235E+02  0.90458928241E+02 0.  0.
         13    1    3    3    0    0 -0.21395366324E+01  0.41130701495E+02  0.15758266918E+02  0.44098144664E+02  0.10566000000E+00 0. -1.
         22    1    1    0    0    0 -0.13157631096E+02 -0.12424756107E+02  0.23722676572E+02  0.29837278765E+02  0.00000000000E+00 0.  1.
</event>
<event>
 5    1  0.1261010E-009  0.9118800E+02  0.7561462E-02  0.1125453E+00
         25   -1    0    0    0    0  0.00000000000E+00  0.00000000000E+00  0.99999998245E-14  0.12509000000E+03  0.12509000000E+03 0.  0.
        -13    1    3    3    0    0  0.19352970535E+02 -0.19465792632E+02 -0.45788886449E+02  0.53386213928E+02  0.10566000000E+00 0. -1.
         23    2    1    0    0    0  0.24074651923E+02 -0.14883049775E+02 -0.30570855159E+01  0.96621775474E+02  0.92332701077E+02 0.  0.
         13    1    3    3    0    0  0.47216813877E+01  0.45827428573E+01  0.42731800933E+02  0.43235561546E+02  0.10566000000E+00 0.  1.
         22    1    1    0    0    0 -0.24074651923E+02  0.14883049775E+02  0.30570855159E+01  0.28468224526E+02  0.00000000000E+00 0. -1.
</event>
<event>
 5    1  0.1261010E-009  0.9118800E+02  0.7561462E-02  0.1125453E+00
         25   -1    0    0    0    0  0.00000000000E+00  0.00000000000E+00  0.99999998245E-14  0.12509000000E+03  0.12509000000E+03 0.  0.
        -13    1    3    3    0    0  0.83471211061E+01  0.23325290810E+01 -0.49922413669E+02  0.50669257674E+02  0.10566000000E+00 0. -1.
         23    2    1    0    0    0 -0.16060348291E+02  0.18851082724E+02 -0.16000275753E+02  0.95605988549E+02  0.90946127544E+02 0.  0.
         13    1    3    3    0    0 -0.24407469397E+02  0.16518553643E+02  0.33922137917E+02  0.44936730875E+02  0.10566000000E+00 0.  1.
         22    1    1    0    0    0  0.16060348291E+02 -0.18851082724E+02  0.16000275753E+02  0.29484011451E+02  0.00000000000E+00 0.  1.
</event>
<event>
 5    1  0.1261010E-009  0.9118800E+02  0.7561462E-02  0.1125453E+00
         25   -1    0    0    0    0  0.00000000000E+00  0.00000000000E+00  0.99999998245E-14  0.12509000000E+03  0.12509000000E+03 0.  0.
        -13    1    3    3    0    0 -0.97056235887E+01  0.16211512393E+02  0.32158753435E+02  0.37298912180E+02  0.10566000000E+00 0. -1.
         23    2    1    0    0    0 -0.62950503642E+01  0.66441793915E+01 -0.26615633377E+02  0.96944579077E+02  0.92768996402E+02 0.  0.
         13    1    3    3    0    0  0.34105732245E+01 -0.95673330013E+01 -0.58774386812E+02  0.59645666897E+02  0.10566000000E+00 0.  1.
         22    1    1    0    0    0  0.62950503642E+01 -0.66441793915E+01  0.26615633377E+02  0.28145420923E+02  0.00000000000E+00 0.  1.
</event>
<event>
 5    1  0.1261010E-009  0.9118800E+02  0.7561462E-02  0.1125453E+00
         25   -1    0    0    0    0  0.00000000000E+00  0.00000000000E+00  0.99999998245E-14  0.12509000000E+03  0.12509000000E+03 0.  0.
        -13    1    3    3    0    0  0.20500767370E+02 -0.48230738687E+02 -0.20798638005E+02  0.56383331970E+02  0.10566000000E+00 0.  1.
         23    2    1    0    0    0  0.24741654473E+02 -0.15420422828E+02  0.85613497005E+00  0.95923720269E+02  0.91382100199E+02 0.  0.
         13    1    3    3    0    0  0.42408871035E+01  0.32810315859E+02  0.21654772975E+02  0.39540388299E+02  0.10566000000E+00 0. -1.
         22    1    1    0    0    0 -0.24741654473E+02  0.15420422828E+02 -0.85613497005E+00  0.29166279731E+02  0.00000000000E+00 0.  1.
</event>
<event>
 5    1  0.1261010E-009  0.9118800E+02  0.7561462E-02  0.1125453E+00
         25   -1    0    0    0    0  0.00000000000E+00  0.00000000000E+00  0.99999998245E-14  0.12509000000E+03  0.12509000000E+03 0.  0.
        -13    1    3    3    0    0 -0.16400670415E+02  0.14619235752E+02  0.35802633205E+02  0.42006472745E+02  0.10566000000E+00 0.  1.
         23    2    1    0    0    0  0.20907767906E+02 -0.16222639342E+02  0.10576228286E+02  0.96591484410E+02  0.92291654388E+02 0.  0.
         13    1    3    3    0    0  0.37308438321E+02 -0.30841875095E+02 -0.25226404919E+02  0.54585011665E+02  0.10566000000E+00 0. -1.
         22    1    1    0    0    0 -0.20907767906E+02  0.16222639342E+02 -0.10576228286E+02  0.28498515590E+02  0.00000000000E+00 0. -1.
</event>
<event>
 5    1  0.1261010E-009  0.9118800E+02  0.7561462E-02  0.1125453E+00
         25   -1    0    0    0    0  0.00000000000E+00  0.00000000000E+00  0.99999998245E-14  0.12509000000E+03  0.12509000000E+03 0.  0.
        -13    1    3    3    0    0 -0.22415662636E+02 -0.11166055116E+02  0.50245899883E+02  0.56140932815E+02  0.10566000000E+00 0.  1.
         23    2    1    0    0    0 -0.51560460312E+01 -0.23616572299E+02  0.17294110822E+02  0.95367726080E+02  0.90617821706E+02 0.  0.
         13    1    3    3    0    0  0.17259616605E+02 -0.12450517183E+02 -0.32951789061E+02  0.39226793265E+02  0.10566000000E+00 0. -1.
         22    1    1    0    0    0  0.51560460312E+01  0.23616572299E+02 -0.17294110822E+02  0.29722273920E+02  0.00000000000E+00 0.  1.
</event>
<event>
 5    1  0.1261010E-009  0.9118800E+02  0.7561462E-02  0.1125453E+00
         25   -1    0    0    0    0  0.00000000000E+00  0.00000000000E+00  0.99999998245E-14  0.12509000000E+03  0.12509000000E+03 0.  0.
        -13    1    3    3    0    0 -0.28545383918E+02  0.43267136114E+02 -0.19292098186E+02  0.55308952503E+02  0.10566000000E+00 0. -1.
         23    2    1    0    0    0 -0.27114255002E+02  0.99888223235E+01  0.39502074360E+01  0.95925577590E+02  0.91384642590E+02 0.  0.
         13    1    3    3    0    0  0.14311289153E+01 -0.33278313791E+02  0.23242305622E+02  0.40616625086E+02  0.10566000000E+00 0.  1.
         22    1    1    0    0    0  0.27114255002E+02 -0.99888223235E+01 -0.39502074360E+01  0.29164422410E+02  0.00000000000E+00 0. -1.
</event>
<event>
 5    1  0.1261010E-009  0.9118800E+02  0.7561462E-02  0.1125453E+00
         25   -1    0    0    0    0  0.00000000000E+00  0.00000000000E+00  0.99999998245E-14  0.12509000000E+03  0.12509000000E+03 0.  0.
        -13    1    3    3    0    0 -0.79889129633E+01  0.54774464160E+02 -0.17780739150E+02  0.58139749768E+02  0.10566000000E+00 0.  1.
         23    2    1    0    0    0  0.77485822010E+01  0.27335250548E+02  0.37891666877E+01  0.96426186003E+02  0.92067340106E+02 0.  0.
         13    1    3    3    0    0  0.15737495164E+02 -0.27439213612E+02  0.21569905838E+02  0.38286436235E+02  0.10566000000E+00 0. -1.
         22    1    1    0    0    0 -0.77485822010E+01 -0.27335250548E+02 -0.37891666877E+01  0.28663813997E+02  0.00000000000E+00 0.  1.
</event>
<event>
 4    1  0.1261010E-009  0.9118800E+02  0.7561462E-02  0.1125453E+00
         25   -1    0    0    0    0  0.00000000000E+00  0.00000000000E+00  0.99999998245E-14  0.12509000000E+03  0.12509000000E+03 0.  0.
        -13    1    1    0    0    0  0.36323416447E+02  0.17743817370E+02  0.30256326898E+02  0.50494456316E+02  0.10566000000E+00 0. -1.
         13    1    1    0    0    0  0.12635248636E+02 -0.14315755946E+02 -0.90745729082E+01  0.21141178157E+02  0.10566000000E+00 0.  1.
         22    1    1    0    0    0 -0.48958665083E+02 -0.34280614240E+01 -0.21181753990E+02  0.53454365527E+02  0.00000000000E+00 0. -1.
</event>
<event>
 5    1  0.1261010E-009  0.9118800E+02  0.7561462E-02  0.1125453E+00
         25   -1    0    0    0    0  0.00000000000E+00  0.00000000000E+00  0.99999998245E-14  0.12509000000E+03  0.12509000000E+03 0.  0.
        -13    1    3    3    0    0  0.15637909237E+02  0.21134136859E+02 -0.16437102678E+02  0.31006216386E+02  0.10566000000E+00 0. -1.
         23    2    1    0    0    0 -0.77393407884E+01 -0.32846018919E+02 -0.77102695475E+01  0.90474878866E+02  0.83591250108E+02 0.  0.
         13    1    3    3    0    0 -0.23377250026E+02 -0.53980155778E+02  0.87268331304E+01  0.59468662480E+02  0.10566000000E+00 0.  1.
         22    1    1    0    0    0  0.77393407884E+01  0.32846018919E+02  0.77102695475E+01  0.34615121134E+02  0.00000000000E+00 0.  1.
</event>
<event>
 5    1  0.1261010E-009  0.9118800E+02  0.7561462E-02  0.1125453E+00
         25   -1    0    0    0    0  0.00000000000E+00  0.00000000000E+00  0.99999998245E-14  0.12509000000E+03  0.12509000000E+03 0.  0.
        -13    1    3    3    0    0  0.31939126738E+02 -0.33229592328E+01 -0.14184069212E+02  0.35104826709E+02  0.10566000000E+00 0.  1.
         23    2    1    0    0    0 -0.25990550009E+02  0.12179300735E+02 -0.18536115084E+01  0.96327525632E+02  0.91933194563E+02 0.  0.
         13    1    3    3    0    0 -0.57929676747E+02  0.15502259968E+02  0.12330457703E+02  0.61222698922E+02  0.10566000000E+00 0. -1.
         22    1    1    0    0    0  0.25990550009E+02 -0.12179300735E+02  0.18536115084E+01  0.28762474368E+02  0.00000000000E+00 0. -1.
</event>
<event>
 5    1  0.1261010E-009  0.9118800E+02  0.7561462E-02  0.1125453E+00
         25   -1    0    0    0    0  0.00000000000E+00  0.00000000000E+00  0.99999998245E-14  0.12509000000E+03  0.12509000000E+03 0.  0.
        -13    1    3    3    0    0 -0.14175034475E+02 -0.21024292155E+02 -0.22972062915E+02  0.34215191094E+02  0.10566000000E+00 0.  1.
         23    2    1    0    0    0 -0.74776809954E+01  0.13059623189E+02  0.26471000711E+02  0.94640314458E+02  0.89608067557E+02 0.  0.
         13    1    3    3    0    0  0.66973534797E+01  0.34083915344E+02  0.49443063627E+02  0.60425123365E+02  0.10566000000E+00 0. -1.
         22    1    1    0    0    0  0.74776809954E+01 -0.13059623189E+02 -0.26471000711E+02  0.30449685542E+02  0.00000000000E+00 0. -1.
</event>
<event>
 5    1  0.1261010E-009  0.9118800E+02  0.7561462E-02  0.1125453E+00
         25   -1    0    0    0    0  0.00000000000E+00  0.00000000000E+00  0.99999998245E-14  0.12509000000E+03  0.12509000000E+03 0.  0.
        -13    1    3    3    0    0  0.17034896929E+02  0.26784595534E+02  0.19124800220E+02  0.37059026144E+02  0.10566000000E+00 0. -1.
         23    2    1    0    0    0 -0.16457808035E+02 -0.20740160461E+02  0.13212156324E+02  0.95499887192E+02  0.90800075318E+02 0.  0.
         13    1    3    3    0    0 -0.33492704964E+02 -0.47524755994E+02 -0.59126438957E+01  0.58440861048E+02  0.10566000000E+00 0.  1.
         22    1    1    0    0    0  0.16457808035E+02  0.20740160461E+02 -0.13212156324E+02  0.29590112808E+02  0.00000000000E+00 0.  1.
</event>
<event>
 5    1  0.1261010E-009  0.9118800E+02  0.7561462E-02  0.1125453E+00
         25   -1    0    0    0    0  0.00000000000E+00  0.00000000000E+00  0.99999998245E-14  0.12509000000E+03  0.12509000000E+03 0.  0.
        -13    1    3    3    0    0  0.87325085911E+01  0.19730260567E+02  0.30864077104E+02  0.37658230280E+02  0.10566000000E+00 0.  1.
         23    2    1    0    0    0  0.86126401183E+01 -0.27172281887E+02 -0.42786144803E+01  0.96266103411E+02  0.91849581661E+02 0.  0.
         13    1    3    3    0    0 -0.11986847274E+00 -0.46902542453E+02 -0.35142691584E+02  0.58607873130E+02  0.10566000000E+00 0. -1.
         22    1    1    0    0    0 -0.86126401183E+01  0.27172281887E+02  0.42786144803E+01  0.28823896589E+02  0.00000000000E+00 0. -1.
</event>
<event>
 5    1  0.1261010E-009  0.9118800E+02  0.7561462E-02  0.1125453E+00
         25   -1    0    0    0    0  0.00000000000E+00  0.00000000000E+00  0.99999998245E-14  0.12509000000E+03  0.12509000000E+03 0.  0.
        -13    1    3    3    0    0 -0.37314258339E+02 -0.14732011055E+02 -0.52594946590E+01  0.40460591607E+02  0.10566000000E+00 0. -1.
         23    2    1    0    0    0  0.16525003487E+02 -0.23387937105E+02  0.51984512869E+01  0.95985099415E+02  0.91466081536E+02 0.  0.
         13    1    3    3    0    0  0.53839261826E+02 -0.86559260507E+01  0.10457945946E+02  0.55524507807E+02  0.10566000000E+00 0.  1.
         22    1    1    0    0    0 -0.16525003487E+02  0.23387937105E+02 -0.51984512869E+01  0.29104900585E+02  0.00000000000E+00 0.  1.
</event>
<event>
 5    1  0.1261010E-009  0.9118800E+02  0.7561462E-02  0.1125453E+00
         25   -1    0    0    0    0  0.00000000000E+00  0.00000000000E+00  0.99999998245E-14  0.12509000000E+03  0.12509000000E+03 0.  0.
        -13    1    3    3    0    0  0.99879220620E+01 -0.13853903545E+02 -0.58179363721E+02  0.60634468395E+02  0.10566000000E+00 0. -1.
         23    2    1    0    0    0  0.15186606565E+02 -0.65932890178E+01 -0.24194375911E+02  0.95773241912E+02  0.91175882565E+02 0.  0.
         13    1    3    3    0    0  0.51986845032E+01  0.72606145272E+01  0.33984987809E+02  0.35138773517E+02  0.10566000000E+00 0.  1.
         22    1    1    0    0    0 -0.15186606565E+02  0.65932890178E+01  0.24194375911E+02  0.29316758088E+02  0.00000000000E+00 0. -1.
</event>
<event>
 5    1  0.1261010E-009  0.9118800E+02  0.7561462E-02  0.1125453E+00
         25   -1    0    0    0    0  0.00000000000E+00  0.00000000000E+00  0.99999998245E-14  0.12509000000E+03  0.12509000000E+03 0.  0.
        -13    1    3    3    0    0  0.40709596685E+02 -0.73621421829E+01  0.24727645713E+02  0.48196888140E+02  0.10566000000E+00 0. -1.
         23    2    1    0    0    0  0.16711932161E+02 -0.16985662097E+02 -0.15964006587E+02  0.96408108505E+02  0.92042775304E+02 0.  0.
         13    1    3    3    0    0 -0.23997664524E+02 -0.96235199145E+01 -0.40691652300E+02  0.48211220365E+02  0.10566000000E+00 0.  1.
         22    1    1    0    0    0 -0.16711932161E+02  0.16985662097E+02  0.15964006587E+02  0.28681891495E+02  0.00000000000E+00 0. -1.
</event>
<event>
 5    1  0.1261010E-009  0.9118800E+02  0.7561462E-02  0.1125453E+00
         25   -1    0    0    0    0  0.00000000000E+00  0.00000000000E+00  0.99999998245E-14  0.12509000000E+03  0.12509000000E+03 0.  0.
        -13    1    3    3    0    0 -0.37180510381E+02 -0.12059652185E+01  0.28368004295E+02  0.46782470392E+02  0.10566000000E+00 0. -1.
         23    2    1    0    0    0 -0.12273330206E+02  0.25577583046E+02 -0.49896815403E+01  0.96284717313E+02  0.91874928448E+02 0.  0.
         13    1    3    3    0    0  0.24907180175E+02  0.26783548264E+02 -0.33357685836E+02  0.49502246921E+02  0.10566000000E+00 0.  1.
         22    1    1    0    0    0  0.12273330206E+02 -0.25577583046E+02  0.49896815403E+01  0.28805282687E+02  0.00000000000E+00 0.  1.
</event>
<event>
 5    1  0.1261010E-009  0.9118800E+02  0.7561462E-02  0.1125453E+00
         25   -1    0    0    0    0  0.00000000000E+00  0.00000000000E+00  0.99999998245E-14  0.12509000000E+03  0.12509000000E+03 0.  0.
        -13    1    3    3    0    0  0.10115240057E+02 -0.35049296648E+01 -0.36610562055E+02  0.38143767923E+02  0.10566000000E+00 0.  1.
         23    2    1    0    0    0  0.18400428271E+02  0.20416464303E+01  0.21278381951E+02  0.96885149013E+02  0.92688826080E+02 0.  0.
         13    1    3    3    0    0  0.82851882149E+01  0.55465760951E+01  0.57888944006E+02  0.58741381090E+02  0.10566000000E+00 0. -1.
         22    1    1    0    0    0 -0.18400428271E+02 -0.20416464303E+01 -0.21278381951E+02  0.28204850987E+02  0.00000000000E+00 0. -1.
</event>
<event>
 5    1  0.1261010E-009  0.9118800E+02  0.7561462E-02  0.1125453E+00
         25   -1    0    0    0    0  0.00000000000E+00  0.00000000000E+00  0.99999998245E-14  0.12509000000E+03  0.12509000000E+03 0.  0.
        -13    1    3    3    0    0 -0.40869605020E+02 -0.16257124014E+02 -0.10858827889E+02  0.45305010792E+02  0.10566000000E+00 0.  1.
         23    2    1    0    0    0 -0.23907228192E+02  0.24461523560E+02  0.60365940489E+00  0.90880555407E+02  0.84196135610E+02 0.  0.
         13    1    3    3    0    0  0.16962376828E+02  0.40718647574E+02  0.11462487294E+02  0.45575544615E+02  0.10566000000E+00 0. -1.
         22    1    1    0    0    0  0.23907228192E+02 -0.24461523560E+02 -0.60365940489E+00  0.34209444593E+02  0.00000000000E+00 0.  1.
</event>
<event>
 5    1  0.1261010E-009  0.9118800E+02  0.7561462E-02  0.1125453E+00
         25   -1    0    0    0    0  0.00000000000E+00  0.00000000000E+00  0.99999998245E-14  0.12509000000E+03  0.12509000000E+03 0.  0.
        -13    1    3    3    0    0  0.16728496200E+02  0.56171985576E+02 -0.64140110164E+01  0.58960030953E+02  0.10566000000E+00 0. -1.
         23    2    1    0    0    0 -0.64511198769E+01  0.25908829310E+02 -0.83078538957E+01  0.97127438955E+02  0.93015238416E+02 0.  0.
         13    1    3    3    0    0 -0.23179616077E+02 -0.30263156266E+02 -0.18938428793E+01  0.38167408001E+02  0.10566000000E+00 0.  1.
         22    1    1    0    0    0  0.64511198769E+01 -0.25908829310E+02  0.83078538957E+01  0.27962561045E+02  0.00000000000E+00 0. -1.
</event>
<event>
 5    1  0.1261010E-009  0.9118800E+02  0.7561462E-02  0.1125453E+00
         25   -1    0    0    0    0  0.00000000000E+00  0.00000000000E+00  0.99999998245E-14  0.12509000000E+03  0.12509000000E+03 0.  0.
        -13    1    3    3    0    0  0.10861959662E+02  0.47359817365E+02  0.12628824632E+02  0.50203912638E+02  0.10566000000E+00 0.  1.
         23    2    1    0    0    0  0.20138179240E+02  0.24823839158E+01  0.19977119796E+02  0.96615558682E+02  0.92324278341E+02 0.  0.
         13    1    3    3    0    0  0.92762195778E+01 -0.44877433450E+02  0.73482951637E+01  0.46411646044E+02  0.10566000000E+00 0. -1.
         22    1    1    0    0    0 -0.20138179240E+02 -0.24823839158E+01 -0.19977119796E+02  0.28474441318E+02  0.00000000000E+00 0.  1.
</event>
<event>
 5    1  0.1261010E-009  0.9118800E+02  0.7561462E-02  0.1125453E+00
         25   -1    0    0    0    0  0.00000000000E+00  0.00000000000E+00  0.99999998245E-14  0.12509000000E+03  0.12509000000E+03 0.  0.
        -13    1    3    3    0    0  0.42671349022E+02  0.43472756225E+01  0.17372944857E+02  0.46277134848E+02  0.10566000000E+00 0. -1.
         23    2    1    0    0    0 -0.51464601439E+01 -0.79136332788E+01  0.26925468282E+02  0.96557693996E+02  0.92245844264E+02 0.  0.
         13    1    3    3    0    0 -0.47817809166E+02 -0.12260908901E+02  0.95525234253E+01  0.50280559149E+02  0.10566000000E+00 0.  1.
         22    1    1    0    0    0  0.51464601439E+01  0.79136332788E+01 -0.26925468282E+02  0.28532306004E+02  0.00000000000E+00 0.  1.
</event>
<event>
 5    1  0.1261010E-009  0.9118800E+02  0.7561462E-02  0.1125453E+00
         25   -1    0    0    0    0  0.00000000000E+00  0.00000000000E+00  0.99999998245E-14  0.12509000000E+03  0.12509000000E+03 0.  0.
        -13    1    3    3    0    0 -0.58144508328E+01  0.25101045064E+02 -0.30628331731E+02  0.40024694508E+02  0.10566000000E+00 0.  1.
         23    2    1    0    0    0  0.10834065508E+01  0.10616780991E+02  0.24993198615E+02  0.97913727530E+02  0.94066722349E+02 0.  0.
         13    1    3    3    0    0  0.68978573836E+01 -0.14484264073E+02  0.55621530346E+02  0.57889033022E+02  0.10566000000E+00 0. -1.
         22    1    1    0    0    0 -0.10834065508E+01 -0.10616780991E+02 -0.24993198615E+02  0.27176272470E+02  0.00000000000E+00 0. -1.
</event>
<event>
 5    1  0.1261010E-009  0.9118800E+02  0.7561462E-02  0.1125453E+00
         25   -1    0    0    0    0  0.00000000000E+00  0.00000000000E+00  0.99999998245E-14  0.12509000000E+03  0.12509000000E+03 0.  0.
        -13    1    3    3    0    0 -0.26444228184E+02 -0.73460028044E+00  0.50953892657E+02  0.57412082202E+02  0.10566000000E+00 0.  1.
         23    2    1    0    0    0 -0.16119326798E+02  0.17190163845E+02  0.30963979503E+02  0.86178530532E+02  0.76893671186E+02 0.  0.
         13    1    3    3    0    0  0.10324901386E+02  0.17924764126E+02 -0.19989913154E+02  0.28766448330E+02  0.10566000000E+00 0. -1.
         22    1    1    0    0    0  0.16119326798E+02 -0.17190163845E+02 -0.30963979503E+02  0.38911469468E+02  0.00000000000E+00 0. -1.
</event>
<event>
 5    1  0.1261010E-009  0.9118800E+02  0.7561462E-02  0.1125453E+00
         25   -1    0    0    0    0  0.00000000000E+00  0.00000000000E+00  0.99999998245E-14  0.12509000000E+03  0.12509000000E+03 0.  0.
        -13    1    3    3    0    0 -0.13925484079E+02  0.38871904267E+02 -0.38709759546E+02  0.56598592706E+02  0.10566000000E+00 0.  1.
         23    2    1    0    0    0 -0.23445688547E+02  0.89916205735E+01 -0.16067131555E+02  0.95278890185E+02  0.90495108412E+02 0.  0.
         13    1    3    3    0    0 -0.95202044678E+01 -0.29880283694E+02  0.22642627991E+02  0.38680297479E+02  0.10566000000E+00 0. -1.
         22    1    1    0    0    0  0.23445688547E+02 -0.89916205735E+01  0.16067131555E+02  0.29811109815E+02  0.00000000000E+00 0.  1.
</event>
<event>
 5    1  0.1261010E-009  0.9118800E+02  0.7561462E-02  0.1125453E+00
         25   -1    0    0    0    0  0.00000000000E+00  0.00000000000E+00  0.99999998245E-14  0.12509000000E+03  0.12509000000E+03 0.  0.
        -13    1    3    3    0    0  0.22723920780E+02 -0.31156495635E+02 -0.15871936026E+02  0.41701718347E+02  0.10566000000E+00 0. -1.
         23    2    1    0    0    0 -0.21653537973E+02  0.19942600899E-01 -0.19354301669E+02  0.96047529418E+02  0.91551421670E+02 0.  0.
         13    1    3    3    0    0 -0.44377458753E+02  0.31176438236E+02 -0.34823656431E+01  0.54345811071E+02  0.10566000000E+00 0.  1.
         22    1    1    0    0    0  0.21653537973E+02 -0.19942600899E-01  0.19354301669E+02  0.29042470582E+02  0.00000000000E+00 0.  1.
</event>
<event>
 5    1  0.1261010E-009  0.9118800E+02  0.7561462E-02  0.1125453E+00
         25   -1    0    0    0    0  0.00000000000E+00  0.00000000000E+00  0.99999998245E-14  0.12509000000E+03  0.12509000000E+03 0.  0.
        -13    1    3    3    0    0  0.18219206485E+02  0.35955504132E+02 -0.10202252247E+02  0.41579260182E+02  0.10566000000E+00 0.  1.
         23    2    1    0    0    0  0.11277627506E+02 -0.16496969378E+02 -0.21558703013E+02  0.95694208525E+02  0.91067387075E+02 0.  0.
         13    1    3    3    0    0 -0.69415789781E+01 -0.52452473511E+02 -0.11356450766E+02  0.54114948343E+02  0.10566000000E+00 0. -1.
         22    1    1    0    0    0 -0.11277627506E+02  0.16496969378E+02  0.21558703013E+02  0.29395791475E+02  0.00000000000E+00 0. -1.
</event>
<event>
 5    1  0.1261010E-009  0.9118800E+02  0.7561462E-02  0.1125453E+00
         25   -1    0    0    0    0  0.00000000000E+00  0.00000000000E+00  0.99999998245E-14  0.12509000000E+03  0.12509000000E+03 0.  0.
        -13    1    3    3    0    0  0.14924863368E+02 -0.29152644295E+02  0.17020961531E+02  0.36910059759E+02  0.10566000000E+00 0.  1.
         23    2    1    0    0    0 -0.32214775320E+01  0.25245541296E+02 -0.63899553271E+01  0.98849824659E+02  0.95303415643E+02 0.  0.
         13    1    3    3    0    0 -0.18146340900E+02  0.54398185592E+02 -0.23410916858E+02  0.61939764900E+02  0.10566000000E+00 0. -1.
         22    1    1    0    0    0  0.32214775320E+01 -0.25245541296E+02  0.63899553271E+01  0.26240175341E+02  0.00000000000E+00 0. -1.
</event>
<event>
 5    1  0.1261010E-009  0.9118800E+02  0.7561462E-02  0.1125453E+00
         25   -1    0    0    0    0  0.00000000000E+00  0.00000000000E+00  0.99999998245E-14  0.12509000000E+03  0.12509000000E+03 0.  0.
        -13    1    3    3    0    0  0.10969575663E+02  0.46552731492E+02 -0.74641467091E+01  0.48406745911E+02  0.10566000000E+00 0.  1.
         23    2    1    0    0    0 -0.23188241701E+02  0.20108678671E+02 -0.12605313477E+02  0.91909471991E+02  0.85711163816E+02 0.  0.
         13    1    3    3    0    0 -0.34157817364E+02 -0.26444052820E+02 -0.51411667682E+01  0.43502726080E+02  0.10566000000E+00 0. -1.
         22    1    1    0    0    0  0.23188241701E+02 -0.20108678671E+02  0.12605313477E+02  0.33180528009E+02  0.00000000000E+00 0.  1.
</event>
<event>
 5    1  0.1261010E-009  0.9118800E+02  0.7561462E-02  0.1125453E+00
         25   -1    0    0    0    0  0.00000000000E+00  0.00000000000E+00  0.99999998245E-14  0.12509000000E+03  0.12509000000E+03 0.  0.
        -13    1    3    3    0    0  0.50170188332E+02 -0.68045683247E+01  0.34346905098E+02  0.61180642373E+02  0.10566000000E+00 0. -1.
         23    2    1    0    0    0  0.19976372391E+02 -0.10897540579E+02  0.19715496257E+02  0.94981651702E+02  0.90083303241E+02 0.  0.
         13    1    3    3    0    0 -0.30193815941E+02 -0.40929722539E+01 -0.14631408841E+02  0.33801009329E+02  0.10566000000E+00 0.  1.
         22    1    1    0    0    0 -0.19976372391E+02  0.10897540579E+02 -0.19715496257E+02  0.30108348298E+02  0.00000000000E+00 0. -1.
</event>
<event>
 5    1  0.1261010E-009  0.9118800E+02  0.7561462E-02  0.1125453E+00
         25   -1    0    0    0    0  0.00000000000E+00  0.00000000000E+00  0.99999998245E-14  0.12509000000E+03  0.12509000000E+03 0.  0.
        -13    1    3    3    0    0  0.88188172109E+00  0.26379222265E+02 -0.44528963837E+02  0.51763702216E+02  0.10566000000E+00 0.  1.
         23    2    1    0    0    0  0.61391789573E+01 -0.11407442599E+02 -0.29686612843E+02  0.92699966857E+02  0.86857179371E+02 0.  0.
         13    1    3    3    0    0  0.52572972362E+01 -0.37786664864E+02  0.14842350994E+02  0.40936264642E+02  0.10566000000E+00 0. -1.
         22    1    1    0    0    0 -0.61391789573E+01  0.11407442599E+02  0.29686612843E+02  0.32390033143E+02  0.00000000000E+00 0.  1.
</event>
<event>
 5    1  0.1261010E-009  0.9118800E+02  0.7561462E-02  0.1125453E+00
         25   -1    0    0    0    0  0.00000000000E+00  0.00000000000E+00  0.99999998245E-14  0.12509000000E+03  0.12509000000E+03 0.  0.
        -13    1    3    3    0    0 -0.20643349401E+02  0.16420429675E+02  0.22337941814E+02  0.34565491372E+02  0.10566000000E+00 0. -1.
         23    2    1    0    0    0  0.49448622703E+01 -0.57717014704E+01 -0.28466866493E+02  0.95626010306E+02  0.90973661894E+02 0.  0.
         13    1    3    3    0    0  0.25588211672E+02 -0.22192131146E+02 -0.50804808308E+02  0.61060518934E+02  0.10566000000E+00 0.  1.
         22    1    1    0    0    0 -0.49448622703E+01  0.57717014704E+01  0.28466866493E+02  0.29463989694E+02  0.00000000000E+00 0.  1.
</event>
<event>
 5    1  0.1261010E-009  0.9118800E+02  0.7561462E-02  0.1125453E+00
         25   -1    0    0    0    0  0.00000000000E+00  0.00000000000E+00  0.99999998245E-14  0.12509000000E+03  0.12509000000E+03 0.  0.
        -13    1    3    3    0    0  0.31470484218E+02  0.11445311270E+02  0.36616560720E+02  0.49620260076E+02  0.10566000000E+00 0.  1.
         23    2    1    0    0    0  0.45552369481E+01  0.26924042657E+02 -0.20159709909E+00  0.97782585291E+02  0.93892167342E+02 0.  0.
         13    1    3    3    0    0 -0.26915247270E+02  0.15478731387E+02 -0.36818157819E+02  0.48162325216E+02  0.10566000000E+00 0. -1.
         22    1    1    0    0    0 -0.45552369481E+01 -0.26924042657E+02  0.20159709909E+00  0.27307414709E+02  0.00000000000E+00 0. -1.
</event>
<event>
 5    1  0.1261010E-009  0.9118800E+02  0.7561462E-02  0.1125453E+00
         25   -1    0    0    0    0  0.00000000000E+00  0.00000000000E+00  0.99999998245E-14  0.12509000000E+03  0.12509000000E+03 0.  0.
        -13    1    3    3    0    0  0.15267560977E+02  0.19267181213E+01  0.50590143945E+02  0.52878960744E+02  0.10566000000E+00 0.  1.
         23    2    1    0    0    0  0.14033112465E+02 -0.22201540822E+02  0.18883168477E+02  0.92741727835E+02  0.86917301901E+02 0.  0.
         13    1    3    3    0    0 -0.12344485118E+01 -0.24128258944E+02 -0.31706975468E+02  0.39862767091E+02  0.10566000000E+00 0. -1.
         22    1    1    0    0    0 -0.14033112465E+02  0.22201540822E+02 -0.18883168477E+02  0.32348272165E+02  0.00000000000E+00 0.  1.
</event>
<event>
 5    1  0.1261010E-009  0.9118800E+02  0.7561462E-02  0.1125453E+00
         25   -1    0    0    0    0  0.00000000000E+00  0.00000000000E+00  0.99999998245E-14  0.12509000000E+03  0.12509000000E+03 0.  0.
        -13    1    3    3    0    0  0.22410348322E+02  0.43501220907E+02  0.54836931181E+01  0.49240856883E+02  0.10566000000E+00 0. -1.
         23    2    1    0    0    0 -0.48252731367E+01  0.30883358879E+02 -0.19460422736E+02  0.88269174784E+02  0.80222652958E+02 0.  0.
         13    1    3    3    0    0 -0.27235621459E+02 -0.12617862028E+02 -0.24944115855E+02  0.39028317902E+02  0.10566000000E+00 0.  1.
         22    1    1    0    0    0  0.48252731367E+01 -0.30883358879E+02  0.19460422736E+02  0.36820825216E+02  0.00000000000E+00 0. -1.
</event>
<event>
 4    1  0.1261010E-009  0.9118800E+02  0.7561462E-02  0.1125453E+00
         25   -1    0    0    0    0  0.00000000000E+00  0.00000000000E+00  0.99999998245E-14  0.12509000000E+03  0.12509000000E+03 0.  0.
        -13    1    1    0    0    0  0.29917526654E+02  0.10787293573E+02  0.25455433266E+02  0.40735909840E+02  0.10566000000E+00 0.  1.
         13    1    1    0    0    0  0.20428378492E+02 -0.18715237043E+02 -0.17503034369E+02  0.32771117185E+02  0.10566000000E+00 0. -1.
         22    1    1    0    0    0 -0.50345905146E+02  0.79279434705E+01 -0.79523988965E+01  0.51582972975E+02  0.00000000000E+00 0. -1.
</event>
<event>
 5    1  0.1261010E-009  0.9118800E+02  0.7561462E-02  0.1125453E+00
         25   -1    0    0    0    0  0.00000000000E+00  0.00000000000E+00  0.99999998245E-14  0.12509000000E+03  0.12509000000E+03 0.  0.
        -13    1    3    3    0    0  0.45409879449E+01 -0.34861296316E+02  0.76761720631E+00  0.35164342061E+02  0.10566000000E+00 0.  1.
         23    2    1    0    0    0 -0.14754140986E+02  0.23372401158E+02 -0.57556543160E+01  0.96857370495E+02  0.92651329459E+02 0.  0.
         13    1    3    3    0    0 -0.19295128931E+02  0.58233697475E+02 -0.65232715224E+01  0.61693028434E+02  0.10566000000E+00 0. -1.
         22    1    1    0    0    0  0.14754140986E+02 -0.23372401158E+02  0.57556543160E+01  0.28232629505E+02  0.00000000000E+00 0. -1.
</event>
<event>
 5    1  0.1261010E-009  0.9118800E+02  0.7561462E-02  0.1125453E+00
         25   -1    0    0    0    0  0.00000000000E+00  0.00000000000E+00  0.99999998245E-14  0.12509000000E+03  0.12509000000E+03 0.  0.
        -13    1    3    3    0    0 -0.51172852576E+02 -0.15528073362E+01 -0.30343112530E+02  0.59512920390E+02  0.10566000000E+00 0. -1.
         23    2    1    0    0    0 -0.32118812230E+02  0.16322740168E+01 -0.32813230919E+01  0.92762774651E+02  0.86947586868E+02 0.  0.
         13    1    3    3    0    0  0.19054040346E+02  0.31850813530E+01  0.27061789438E+02  0.33249854261E+02  0.10566000000E+00 0.  1.
         22    1    1    0    0    0  0.32118812230E+02 -0.16322740168E+01  0.32813230919E+01  0.32327225349E+02  0.00000000000E+00 0. -1.
</event>
<event>
 5    1  0.1261010E-009  0.9118800E+02  0.7561462E-02  0.1125453E+00
         25   -1    0    0    0    0  0.00000000000E+00  0.00000000000E+00  0.99999998245E-14  0.12509000000E+03  0.12509000000E+03 0.  0.
        -13    1    3    3    0    0  0.56236406607E+02  0.14292500471E+02  0.80858802213E+01  0.58584994843E+02  0.10566000000E+00 0.  1.
         23    2    1    0    0    0  0.22773845304E+02  0.17488550191E+02 -0.71614205029E+01  0.95496362824E+02  0.90795219870E+02 0.  0.
         13    1    3    3    0    0 -0.33462561303E+02  0.31960497203E+01 -0.15247300724E+02  0.36911367981E+02  0.10566000000E+00 0. -1.
         22    1    1    0    0    0 -0.22773845304E+02 -0.17488550191E+02  0.71614205029E+01  0.29593637176E+02  0.00000000000E+00 0.  1.
</event>
<event>
 5    1  0.1261010E-009  0.9118800E+02  0.7561462E-02  0.1125453E+00
         25   -1    0    0    0    0  0.00000000000E+00  0.00000000000E+00  0.99999998245E-14  0.12509000000E+03  0.12509000000E+03 0.  0.
        -13    1    3    3    0    0 -0.73881183857E+01  0.18205188202E+02 -0.36987278327E+02  0.41881775187E+02  0.10566000000E+00 0. -1.
         23    2    1    0    0    0  0.26607765191E+02  0.13937034316E+02  0.34188666728E+01  0.94859175609E+02  0.89913071652E+02 0.  0.
         13    1    3    3    0    0  0.33995883577E+02 -0.42681538855E+01  0.40406144999E+02  0.52977400422E+02  0.10566000000E+00 0.  1.
         22    1    1    0    0    0 -0.26607765191E+02 -0.13937034316E+02 -0.34188666728E+01  0.30230824391E+02  0.00000000000E+00 0.  1.
</event>
<event>
 5    1  0.1261010E-009  0.9118800E+02  0.7561462E-02  0.1125453E+00
         25   -1    0    0    0    0  0.00000000000E+00  0.00000000000E+00  0.99999998245E-14  0.12509000000E+03  0.12509000000E+03 0.  0.
        -13    1    3    3    0    0  0.51401644315E+01  0.34836417607E+02  0.86503468849E+01  0.36260680459E+02  0.10566000000E+00 0. -1.
         23    2    1    0    0    0  0.12894821205E+02 -0.10694639937E+02 -0.26110871237E+02  0.94066954791E+02  0.88804068880E+02 0.  0.
         13    1    3    3    0    0  0.77546567734E+01 -0.45531057544E+02 -0.34761218122E+02  0.57806274332E+02  0.10566000000E+00 0.  1.
         22    1    1    0    0    0 -0.12894821205E+02  0.10694639937E+02  0.26110871237E+02  0.31023045209E+02  0.00000000000E+00 0.  1.
</event>
<event>
 5    1  0.1261010E-009  0.9118800E+02  0.7561462E-02  0.1125453E+00
         25   -1    0    0    0    0  0.00000000000E+00  0.00000000000E+00  0.99999998245E-14  0.12509000000E+03  0.12509000000E+03 0.  0.
        -13    1    3    3    0    0 -0.31272374275E+02 -0.20628944994E+02  0.38758028927E+02  0.53904644834E+02  0.10566000000E+00 0.  1.
         23    2    1    0    0    0 -0.21274775768E+02 -0.19564703538E+02 -0.22233476976E+01  0.96101433573E+02  0.91625043254E+02 0.  0.
         13    1    3    3    0    0  0.99975985068E+01  0.10642414565E+01 -0.40981376625E+02  0.42196788739E+02  0.10566000000E+00 0. -1.
         22    1    1    0    0    0  0.21274775768E+02  0.19564703538E+02  0.22233476976E+01  0.28988566427E+02  0.00000000000E+00 0.  1.
</event>
<event>
 5    1  0.1261010E-009  0.9118800E+02  0.7561462E-02  0.1125453E+00
         25   -1    0    0    0    0  0.00000000000E+00  0.00000000000E+00  0.99999998245E-14  0.12509000000E+03  0.12509000000E+03 0.  0.
        -13    1    3    3    0    0 -0.44843915863E+02 -0.25985252201E+02  0.28003243319E+02  0.58910125804E+02  0.10566000000E+00 0. -1.
         23    2    1    0    0    0 -0.26583435906E+02 -0.90871722681E+01 -0.81774449082E+00  0.96984404997E+02  0.92822682261E+02 0.  0.
         13    1    3    3    0    0  0.18260479957E+02  0.16898079933E+02 -0.28820987810E+02  0.38074279193E+02  0.10566000000E+00 0.  1.
         22    1    1    0    0    0  0.26583435906E+02  0.90871722681E+01  0.81774449082E+00  0.28105595003E+02  0.00000000000E+00 0. -1.
</event>
<event>
 5    1  0.1261010E-009  0.9118800E+02  0.7561462E-02  0.1125453E+00
         25   -1    0    0    0    0  0.00000000000E+00  0.00000000000E+00  0.99999998245E-14  0.12509000000E+03  0.12509000000E+03 0.  0.
        -13    1    3    3    0    0  0.30830141985E+02  0.46317127125E+02  0.22385050569E+02  0.59973957456E+02  0.10566000000E+00 0. -1.
         23    2    1    0    0    0  0.27888921499E+01  0.26881838011E+02  0.10219405928E+02  0.96196274180E+02  0.91754431905E+02 0.  0.
         13    1    3    3    0    0 -0.28041249836E+02 -0.19435289114E+02 -0.12165644641E+02  0.36222316724E+02  0.10566000000E+00 0.  1.
         22    1    1    0    0    0 -0.27888921499E+01 -0.26881838011E+02 -0.10219405928E+02  0.28893725820E+02  0.00000000000E+00 0. -1.
</event>
<event>
 5    1  0.1261010E-009  0.9118800E+02  0.7561462E-02  0.1125453E+00
         25   -1    0    0    0    0  0.00000000000E+00  0.00000000000E+00  0.99999998245E-14  0.12509000000E+03  0.12509000000E+03 0.  0.
        -13    1    3    3    0    0 -0.11078546793E+02 -0.49174769886E+02 -0.33751484169E+02  0.60663547869E+02  0.10566000000E+00 0.  1.
         23    2    1    0    0    0 -0.62286317753E+01 -0.24488200639E+02 -0.41976289766E+01  0.99475786888E+02  0.96121507810E+02 0.  0.
         13    1    3    3    0    0  0.48499150175E+01  0.24686569248E+02  0.29553855192E+02  0.38812239019E+02  0.10566000000E+00 0. -1.
         22    1    1    0    0    0  0.62286317753E+01  0.24488200639E+02  0.41976289766E+01  0.25614213112E+02  0.00000000000E+00 0.  1.
</event>
<event>
 5    1  0.1261010E-009  0.9118800E+02  0.7561462E-02  0.1125453E+00
         25   -1    0    0    0    0  0.00000000000E+00  0.00000000000E+00  0.99999998245E-14  0.12509000000E+03  0.12509000000E+03 0.  0.
        -13    1    3    3    0    0 -0.97837849883E+01  0.33218400798E+02  0.17653244779E+02  0.38869432920E+02  0.10566000000E+00 0. -1.
         23    2    1    0    0    0 -0.26295664209E+01 -0.25036646315E+02  0.97568480276E+01  0.98091030359E+02  0.94302205038E+02 0.  0.
         13    1    3    3    0    0  0.71542185674E+01 -0.58255047113E+02 -0.78963967518E+01  0.59221597438E+02  0.10566000000E+00 0.  1.
         22    1    1    0    0    0  0.26295664209E+01  0.25036646315E+02 -0.97568480276E+01  0.26998969641E+02  0.00000000000E+00 0.  1.
</event>
<event>
 5    1  0.1261010E-009  0.9118800E+02  0.7561462E-02  0.1125453E+00
         25   -1    0    0    0    0  0.00000000000E+00  0.00000000000E+00  0.99999998245E-14  0.12509000000E+03  0.12509000000E+03 0.  0.
        -13    1    3    3    0    0  0.43230655210E+01  0.40068172049E+02  0.14784189910E+02  0.42927039755E+02  0.10566000000E+00 0.  1.
         23    2    1    0    0    0  0.26054804726E+02  0.58550406800E+01 -0.16120642611E+02  0.93896900301E+02  0.88564205056E+02 0.  0.
         13    1    3    3    0    0  0.21731739205E+02 -0.34213131369E+02 -0.30904832520E+02  0.50969860546E+02  0.10566000000E+00 0. -1.
         22    1    1    0    0    0 -0.26054804726E+02 -0.58550406800E+01  0.16120642611E+02  0.31193099699E+02  0.00000000000E+00 0. -1.
</event>
<event>
 5    1  0.1261010E-009  0.9118800E+02  0.7561462E-02  0.1125453E+00
         25   -1    0    0    0    0  0.00000000000E+00  0.00000000000E+00  0.99999998245E-14  0.12509000000E+03  0.12509000000E+03 0.  0.
        -13    1    3    3    0    0 -0.81720351914E+01 -0.26358903969E+01  0.46159901521E+02  0.46951866308E+02  0.10566000000E+00 0. -1.
         23    2    1    0    0    0  0.16664984923E+02  0.21129302122E+02  0.11320010373E+02  0.95895620995E+02  0.91343627914E+02 0.  0.
         13    1    3    3    0    0  0.24837020115E+02  0.23765192519E+02 -0.34839891148E+02  0.48943754687E+02  0.10566000000E+00 0.  1.
         22    1    1    0    0    0 -0.16664984923E+02 -0.21129302122E+02 -0.11320010373E+02  0.29194379005E+02  0.00000000000E+00 0.  1.
</event>
<event>
 5    1  0.1261010E-009  0.9118800E+02  0.7561462E-02  0.1125453E+00
         25   -1    0    0    0    0  0.00000000000E+00  0.00000000000E+00  0.99999998245E-14  0.12509000000E+03  0.12509000000E+03 0.  0.
        -13    1    3    3    0    0 -0.35343400014E+02 -0.33444487817E+01  0.42966882009E+02  0.55736033011E+02  0.10566000000E+00 0.  1.
         23    2    1    0    0    0  0.28545272327E+00 -0.88133427469E+01  0.29638532668E+02  0.94167530623E+02  0.88945627837E+02 0.  0.
         13    1    3    3    0    0  0.35628852737E+02 -0.54688939652E+01 -0.13328349341E+02  0.38431497613E+02  0.10566000000E+00 0. -1.
         22    1    1    0    0    0 -0.28545272327E+00  0.88133427469E+01 -0.29638532668E+02  0.30922469377E+02  0.00000000000E+00 0.  1.
</event>
<event>
 5    1  0.1261010E-009  0.9118800E+02  0.7561462E-02  0.1125453E+00
         25   -1    0    0    0    0  0.00000000000E+00  0.00000000000E+00  0.99999998245E-14  0.12509000000E+03  0.12509000000E+03 0.  0.
        -13    1    3    3    0    0  0.22142851939E+02  0.19723691674E+02  0.49893610145E+02  0.58040618558E+02  0.10566000000E+00 0.  1.
         23    2    1    0    0    0  0.60185675497E+01  0.24136846667E+02  0.16934805591E+02  0.94996841927E+02  0.90104393974E+02 0.  0.
         13    1    3    3    0    0 -0.16124284389E+02  0.44131549925E+01 -0.32958804554E+02  0.36956223369E+02  0.10566000000E+00 0. -1.
         22    1    1    0    0    0 -0.60185675497E+01 -0.24136846667E+02 -0.16934805591E+02  0.30093158073E+02  0.00000000000E+00 0.  1.
</event>
<event>
 5    1  0.1261010E-009  0.9118800E+02  0.7561462E-02  0.1125453E+00
         25   -1    0    0    0    0  0.00000000000E+00  0.00000000000E+00  0.99999998245E-14  0.12509000000E+03  0.12509000000E+03 0.  0.
        -13    1    3    3    0    0  0.28145132196E+02  0.25080807811E+02  0.22127236102E+01  0.37763774925E+02  0.10566000000E+00 0.  1.
         23    2    1    0    0    0 -0.25189151548E+01 -0.25135085352E+02 -0.10114336111E+02  0.97879390963E+02  0.94021050468E+02 0.  0.
         13    1    3    3    0    0 -0.30664047351E+02 -0.50215893164E+02 -0.12327059721E+02  0.60115616037E+02  0.10566000000E+00 0. -1.
         22    1    1    0    0    0  0.25189151548E+01  0.25135085352E+02  0.10114336111E+02  0.27210609037E+02  0.00000000000E+00 0. -1.
</event>
<event>
 5    1  0.1261010E-009  0.9118800E+02  0.7561462E-02  0.1125453E+00
         25   -1    0    0    0    0  0.00000000000E+00  0.00000000000E+00  0.99999998245E-14  0.12509000000E+03  0.12509000000E+03 0.  0.
        -13    1    3    3    0    0 -0.35384546349E+02  0.15060027010E+01 -0.27667751210E+02  0.44942738964E+02  0.10566000000E+00 0.  1.
         23    2    1    0    0    0  0.80122973443E+01  0.24456614170E+02 -0.13447314996E+02  0.96052900180E+02  0.91558759641E+02 0.  0.
         13    1    3    3    0    0  0.43396843694E+02  0.22950611469E+02  0.14220436214E+02  0.51110161216E+02  0.10566000000E+00 0. -1.
         22    1    1    0    0    0 -0.80122973443E+01 -0.24456614170E+02  0.13447314996E+02  0.29037099820E+02  0.00000000000E+00 0.  1.
</event>
<event>
 5    1  0.1261010E-009  0.9118800E+02  0.7561462E-02  0.1125453E+00
         25   -1    0    0    0    0  0.00000000000E+00  0.00000000000E+00  0.99999998245E-14  0.12509000000E+03  0.12509000000E+03 0.  0.
        -13    1    3    3    0    0  0.27040613399E+02 -0.31785510319E+02  0.72016426788E+01  0.42348415089E+02  0.10566000000E+00 0.  1.
         23    2    1    0    0    0  0.79346772683E+01  0.16268940842E+02 -0.17725087640E+02  0.99755906937E+02  0.96485360017E+02 0.  0.
         13    1    3    3    0    0 -0.19105936130E+02  0.48054451162E+02 -0.24926730318E+02  0.57407491848E+02  0.10566000000E+00 0. -1.
         22    1    1    0    0    0 -0.79346772683E+01 -0.16268940842E+02  0.17725087640E+02  0.25334093063E+02  0.00000000000E+00 0. -1.
</event>
<event>
 5    1  0.1261010E-009  0.9118800E+02  0.7561462E-02  0.1125453E+00
         25   -1    0    0    0    0  0.00000000000E+00  0.00000000000E+00  0.99999998245E-14  0.12509000000E+03  0.12509000000E+03 0.  0.
        -13    1    3    3    0    0  0.33747183812E+02  0.31034122292E+02 -0.37743257543E+01  0.46002672320E+02  0.10566000000E+00 0. -1.
         23    2    1    0    0    0  0.26631043958E+02 -0.15942092873E+02 -0.56035730680E+01  0.93550138577E+02  0.88073069489E+02 0.  0.
         13    1    3    3    0    0 -0.71161398532E+01 -0.46976215165E+02 -0.18292473137E+01  0.47547466256E+02  0.10566000000E+00 0.  1.
         22    1    1    0    0    0 -0.26631043958E+02  0.15942092873E+02  0.56035730680E+01  0.31539861423E+02  0.00000000000E+00 0.  1.
</event>
<event>
 5    1  0.1261010E-009  0.9118800E+02  0.7561462E-02  0.1125453E+00
         25   -1    0    0    0    0  0.00000000000E+00  0.00000000000E+00  0.99999998245E-14  0.12509000000E+03  0.12509000000E+03 0.  0.
        -13    1    3    3    0    0 -0.39744945299E+02  0.24289704574E+02 -0.32717673969E+02  0.56921944618E+02  0.10566000000E+00 0.  1.
         23    2    1    0    0    0 -0.65994044296E+01  0.25732597455E+02 -0.13024237388E+02  0.95503694550E+02  0.90805320343E+02 0.  0.
         13    1    3    3    0    0  0.33145540869E+02  0.14428928811E+01  0.19693436581E+02  0.38581749932E+02  0.10566000000E+00 0. -1.
         22    1    1    0    0    0  0.65994044296E+01 -0.25732597455E+02  0.13024237388E+02  0.29586305450E+02  0.00000000000E+00 0.  1.
</event>
<event>
 5    1  0.1261010E-009  0.9118800E+02  0.7561462E-02  0.1125453E+00
         25   -1    0    0    0    0  0.00000000000E+00  0.00000000000E+00  0.99999998245E-14  0.12509000000E+03  0.12509000000E+03 0.  0.
        -13    1    3    3    0    0  0.81261895553E+01  0.38842816185E+02  0.95841376680E+00  0.39695453731E+02  0.10566000000E+00 0.  1.
         23    2    1    0    0    0 -0.16711406953E+02 -0.47172250951E+01 -0.23808318033E+02  0.95622062466E+02  0.90968233400E+02 0.  0.
         13    1    3    3    0    0 -0.24837596508E+02 -0.43560041280E+02 -0.24766731800E+02  0.55926608736E+02  0.10566000000E+00 0. -1.
         22    1    1    0    0    0  0.16711406953E+02  0.47172250951E+01  0.23808318033E+02  0.29467937534E+02  0.00000000000E+00 0. -1.
</event>
<event>
 5    1  0.1261010E-009  0.9118800E+02  0.7561462E-02  0.1125453E+00
         25   -1    0    0    0    0  0.00000000000E+00  0.00000000000E+00  0.99999998245E-14  0.12509000000E+03  0.12509000000E+03 0.  0.
        -13    1    3    3    0    0  0.20109165572E+02  0.29764500276E+02 -0.44387584908E+01  0.36194167454E+02  0.10566000000E+00 0.  1.
         23    2    1    0    0    0 -0.13447997411E+02 -0.16569311381E+02 -0.20378672279E+02  0.95582695856E+02  0.90914084438E+02 0.  0.
         13    1    3    3    0    0 -0.33557162983E+02 -0.46333811657E+02 -0.15939913788E+02  0.59388528402E+02  0.10566000000E+00 0. -1.
         22    1    1    0    0    0  0.13447997411E+02  0.16569311381E+02  0.20378672279E+02  0.29507304144E+02  0.00000000000E+00 0. -1.
</event>
<event>
 5    1  0.1261010E-009  0.9118800E+02  0.7561462E-02  0.1125453E+00
         25   -1    0    0    0    0  0.00000000000E+00  0.00000000000E+00  0.99999998245E-14  0.12509000000E+03  0.12509000000E+03 0.  0.
        -13    1    3    3    0    0  0.10920378499E+02 -0.71876651353E+01 -0.45802326989E+02  0.47631728063E+02  0.10566000000E+00 0. -1.
         23    2    1    0    0    0  0.23752535545E+02  0.16541352805E+02 -0.62984536661E+01  0.95467882992E+02  0.90755974277E+02 0.  0.
         13    1    3    3    0    0  0.12832157046E+02  0.23729017941E+02  0.39503873322E+02  0.47836154929E+02  0.10566000000E+00 0.  1.
         22    1    1    0    0    0 -0.23752535545E+02 -0.16541352805E+02  0.62984536661E+01  0.29622117008E+02  0.00000000000E+00 0. -1.
</event>
<event>
 5    1  0.1261010E-009  0.9118800E+02  0.7561462E-02  0.1125453E+00
         25   -1    0    0    0    0  0.00000000000E+00  0.00000000000E+00  0.99999998245E-14  0.12509000000E+03  0.12509000000E+03 0.  0.
        -13    1    3    3    0    0  0.81595416322E+01 -0.31700953826E+02  0.10092386584E+02  0.34254868619E+02  0.10566000000E+00 0.  1.
         23    2    1    0    0    0 -0.31865113027E+02  0.16506112716E+01 -0.12208643097E+02  0.90926263201E+02  0.84264016209E+02 0.  0.
         13    1    3    3    0    0 -0.40024654659E+02  0.33351565097E+02 -0.22301029681E+02  0.56671394582E+02  0.10566000000E+00 0. -1.
         22    1    1    0    0    0  0.31865113027E+02 -0.16506112716E+01  0.12208643097E+02  0.34163736799E+02  0.00000000000E+00 0. -1.
</event>
<event>
 5    1  0.1261010E-009  0.9118800E+02  0.7561462E-02  0.1125453E+00
         25   -1    0    0    0    0  0.00000000000E+00  0.00000000000E+00  0.99999998245E-14  0.12509000000E+03  0.12509000000E+03 0.  0.
        -13    1    3    3    0    0  0.32620245451E+02  0.10082077683E+02  0.10393931469E+02  0.35689966084E+02  0.10566000000E+00 0.  1.
         23    2    1    0    0    0 -0.24724035676E+02  0.13513298275E+02 -0.76320156615E+01  0.95898651394E+02  0.91347777782E+02 0.  0.
         13    1    3    3    0    0 -0.57344281127E+02  0.34312205919E+01 -0.18025947131E+02  0.60208685310E+02  0.10566000000E+00 0. -1.
         22    1    1    0    0    0  0.24724035676E+02 -0.13513298275E+02  0.76320156615E+01  0.29191348606E+02  0.00000000000E+00 0. -1.
</event>
<event>
 5    1  0.1261010E-009  0.9118800E+02  0.7561462E-02  0.1125453E+00
         25   -1    0    0    0    0  0.00000000000E+00  0.00000000000E+00  0.99999998245E-14  0.12509000000E+03  0.12509000000E+03 0.  0.
        -13    1    3    3    0    0  0.63545072436E+01 -0.50823461778E+02  0.17824446643E+02  0.54232149981E+02  0.10566000000E+00 0. -1.
         23    2    1    0    0    0  0.19721607505E+02 -0.10662087996E+02  0.17644572132E+02  0.96560141102E+02  0.92249162603E+02 0.  0.
         13    1    3    3    0    0  0.13367100261E+02  0.40161373782E+02 -0.17987451050E+00  0.42327991121E+02  0.10566000000E+00 0.  1.
         22    1    1    0    0    0 -0.19721607505E+02  0.10662087996E+02 -0.17644572132E+02  0.28529858898E+02  0.00000000000E+00 0. -1.
</event>
<event>
 5    1  0.1261010E-009  0.9118800E+02  0.7561462E-02  0.1125453E+00
         25   -1    0    0    0    0  0.00000000000E+00  0.00000000000E+00  0.99999998245E-14  0.12509000000E+03  0.12509000000E+03 0.  0.
        -13    1    3    3    0    0  0.57964444847E+02  0.10283168719E+02  0.17217197647E+02  0.61335662417E+02  0.10566000000E+00 0. -1.
         23    2    1    0    0    0  0.19662410054E+02 -0.41083802539E+01  0.23663630681E+01  0.10486405548E+03  0.10289500134E+03 0.  0.
         13    1    3    3    0    0 -0.38302034793E+02 -0.14391548973E+02 -0.14850834579E+02  0.43528393065E+02  0.10566000000E+00 0.  1.
         22    1    1    0    0    0 -0.19662410054E+02  0.41083802539E+01 -0.23663630681E+01  0.20225944518E+02  0.00000000000E+00 0. -1.
</event>
<event>
 5    1  0.1261010E-009  0.9118800E+02  0.7561462E-02  0.1125453E+00
         25   -1    0    0    0    0  0.00000000000E+00  0.00000000000E+00  0.99999998245E-14  0.12509000000E+03  0.12509000000E+03 0.  0.
        -13    1    3    3    0    0 -0.94347146821E+01  0.41500027662E+02 -0.39989632676E+02  0.58399041282E+02  0.10566000000E+00 0.  1.
         23    2    1    0    0    0  0.66079395151E+01  0.28451723659E+02 -0.11285202998E+02  0.93776724053E+02  0.88394302552E+02 0.  0.
         13    1    3    3    0    0  0.16042654197E+02 -0.13048304003E+02  0.28704429678E+02  0.35377682771E+02  0.10566000000E+00 0. -1.
         22    1    1    0    0    0 -0.66079395151E+01 -0.28451723659E+02  0.11285202998E+02  0.31313275947E+02  0.00000000000E+00 0.  1.
</event>
<event>
 5    1  0.1261010E-009  0.9118800E+02  0.7561462E-02  0.1125453E+00
         25   -1    0    0    0    0  0.00000000000E+00  0.00000000000E+00  0.99999998245E-14  0.12509000000E+03  0.12509000000E+03 0.  0.
        -13    1    3    3    0    0  0.27883637974E+02 -0.24280036459E+02 -0.19102833843E+02  0.41616665676E+02  0.10566000000E+00 0. -1.
         23    2    1    0    0    0 -0.11875795061E+02 -0.22068592986E+02  0.16542844979E+02  0.95061296653E+02  0.90193830702E+02 0.  0.
         13    1    3    3    0    0 -0.39759433036E+02  0.22114434734E+01  0.35645678821E+02  0.53444630977E+02  0.10566000000E+00 0.  1.
         22    1    1    0    0    0  0.11875795061E+02  0.22068592986E+02 -0.16542844979E+02  0.30028703347E+02  0.00000000000E+00 0.  1.
</event>
<event>
 5    1  0.1261010E-009  0.9118800E+02  0.7561462E-02  0.1125453E+00
         25   -1    0    0    0    0  0.00000000000E+00  0.00000000000E+00  0.99999998245E-14  0.12509000000E+03  0.12509000000E+03 0.  0.
        -13    1    3    3    0    0  0.14682713475E+02  0.27733255651E+02 -0.18685800161E+02  0.36522401834E+02  0.10566000000E+00 0. -1.
         23    2    1    0    0    0 -0.28618773373E+02 -0.44353200157E+01  0.54540881594E+01  0.95620467757E+02  0.90966040495E+02 0.  0.
         13    1    3    3    0    0 -0.43301486848E+02 -0.32168575667E+02  0.24139888321E+02  0.59098065923E+02  0.10566000000E+00 0.  1.
         22    1    1    0    0    0  0.28618773373E+02  0.44353200157E+01 -0.54540881594E+01  0.29469532243E+02  0.00000000000E+00 0.  1.
</event>
<event>
 5    1  0.1261010E-009  0.9118800E+02  0.7561462E-02  0.1125453E+00
         25   -1    0    0    0    0  0.00000000000E+00  0.00000000000E+00  0.99999998245E-14  0.12509000000E+03  0.12509000000E+03 0.  0.
        -13    1    3    3    0    0  0.27403033288E+02  0.16949208607E+02 -0.43494691217E+02  0.54129485809E+02  0.10566000000E+00 0. -1.
         23    2    1    0    0    0  0.21320562448E+02 -0.13313108842E+02 -0.17835101336E+02  0.94269615677E+02  0.89089080981E+02 0.  0.
         13    1    3    3    0    0 -0.60824708404E+01 -0.30262317450E+02  0.25659589881E+02  0.40140129868E+02  0.10566000000E+00 0.  1.
         22    1    1    0    0    0 -0.21320562448E+02  0.13313108842E+02  0.17835101336E+02  0.30820384323E+02  0.00000000000E+00 0. -1.
</event>
<event>
 5    1  0.1261010E-009  0.9118800E+02  0.7561462E-02  0.1125453E+00
         25   -1    0    0    0    0  0.00000000000E+00  0.00000000000E+00  0.99999998245E-14  0.12509000000E+03  0.12509000000E+03 0.  0.
        -13    1    3    3    0    0 -0.58315573895E+01  0.34399049380E+02 -0.12804719414E+02  0.37165490218E+02  0.10566000000E+00 0. -1.
         23    2    1    0    0    0  0.24331506708E+02 -0.12659490817E+02  0.75336011790E+01  0.96646370254E+02  0.92366015450E+02 0.  0.
         13    1    3    3    0    0  0.30163064097E+02 -0.47058540197E+02  0.20338320593E+02  0.59480880036E+02  0.10566000000E+00 0.  1.
         22    1    1    0    0    0 -0.24331506708E+02  0.12659490817E+02 -0.75336011790E+01  0.28443629746E+02  0.00000000000E+00 0.  1.
</event>
<event>
 5    1  0.1261010E-009  0.9118800E+02  0.7561462E-02  0.1125453E+00
         25   -1    0    0    0    0  0.00000000000E+00  0.00000000000E+00  0.99999998245E-14  0.12509000000E+03  0.12509000000E+03 0.  0.
        -13    1    3    3    0    0 -0.39123228854E+02 -0.29920526107E+02  0.15476803466E+02  0.51627584953E+02  0.10566000000E+00 0.  1.
         23    2    1    0    0    0 -0.10849223349E+02  0.60978674348E+00  0.27977490029E+02  0.95076379168E+02  0.90214746246E+02 0.  0.
         13    1    3    3    0    0  0.28274005506E+02  0.30530312851E+02  0.12500686563E+02  0.43448794215E+02  0.10566000000E+00 0. -1.
         22    1    1    0    0    0  0.10849223349E+02 -0.60978674348E+00 -0.27977490029E+02  0.30013620832E+02  0.00000000000E+00 0.  1.
</event>
<event>
 5    1  0.1261010E-009  0.9118800E+02  0.7561462E-02  0.1125453E+00
         25   -1    0    0    0    0  0.00000000000E+00  0.00000000000E+00  0.99999998245E-14  0.12509000000E+03  0.12509000000E+03 0.  0.
        -13    1    3    3    0    0 -0.38857752332E+02  0.90372952693E+00 -0.23884780611E+01  0.38941721005E+02  0.10566000000E+00 0.  1.
         23    2    1    0    0    0  0.94842569842E+01 -0.60119225540E+01  0.26938079145E+02  0.95905167443E+02  0.91356700306E+02 0.  0.
         13    1    3    3    0    0  0.48342009316E+02 -0.69156520810E+01  0.29326557206E+02  0.56963446438E+02  0.10566000000E+00 0. -1.
         22    1    1    0    0    0 -0.94842569842E+01  0.60119225540E+01 -0.26938079145E+02  0.29184832557E+02  0.00000000000E+00 0. -1.
</event>
<event>
 5    1  0.1261010E-009  0.9118800E+02  0.7561462E-02  0.1125453E+00
         25   -1    0    0    0    0  0.00000000000E+00  0.00000000000E+00  0.99999998245E-14  0.12509000000E+03  0.12509000000E+03 0.  0.
        -13    1    3    3    0    0 -0.55119278683E+02 -0.46899616494E+01  0.18064306963E+02  0.58193306943E+02  0.10566000000E+00 0. -1.
         23    2    1    0    0    0 -0.16293096461E+02  0.15220465877E+01  0.21957220073E+02  0.97705677270E+02  0.93789648892E+02 0.  0.
         13    1    3    3    0    0  0.38826182223E+02  0.62120082371E+01  0.38929131098E+01  0.39512370327E+02  0.10566000000E+00 0.  1.
         22    1    1    0    0    0  0.16293096461E+02 -0.15220465877E+01 -0.21957220073E+02  0.27384322730E+02  0.00000000000E+00 0. -1.
</event>
<event>
 5    1  0.1261010E-009  0.9118800E+02  0.7561462E-02  0.1125453E+00
         25   -1    0    0    0    0  0.00000000000E+00  0.00000000000E+00  0.99999998245E-14  0.12509000000E+03  0.12509000000E+03 0.  0.
        -13    1    3    3    0    0  0.18612451559E+02  0.34090150035E+02  0.36706245955E+02  0.53440820901E+02  0.10566000000E+00 0. -1.
         23    2    1    0    0    0  0.24791415001E+02  0.16903059615E+02 -0.70918644471E+00  0.95076159401E+02  0.90214441522E+02 0.  0.
         13    1    3    3    0    0  0.61789634411E+01 -0.17187090420E+02 -0.37415432400E+02  0.41635338500E+02  0.10566000000E+00 0.  1.
         22    1    1    0    0    0 -0.24791415001E+02 -0.16903059615E+02  0.70918644471E+00  0.30013840599E+02  0.00000000000E+00 0. -1.
</event>
<event>
 5    1  0.1261010E-009  0.9118800E+02  0.7561462E-02  0.1125453E+00
         25   -1    0    0    0    0  0.00000000000E+00  0.00000000000E+00  0.99999998245E-14  0.12509000000E+03  0.12509000000E+03 0.  0.
        -13    1    3    3    0    0 -0.20180353467E+02  0.27652155884E+01 -0.28101645696E+02  0.34707444997E+02  0.10566000000E+00 0.  1.
         23    2    1    0    0    0  0.20928903417E+02 -0.21823816195E+01  0.18517718601E+02  0.97059878881E+02  0.92924336954E+02 0.  0.
         13    1    3    3    0    0  0.41109256885E+02 -0.49475972079E+01  0.46619364297E+02  0.62352433884E+02  0.10566000000E+00 0. -1.
         22    1    1    0    0    0 -0.20928903417E+02  0.21823816195E+01 -0.18517718601E+02  0.28030121119E+02  0.00000000000E+00 0. -1.
</event>
<event>
 5    1  0.1261010E-009  0.9118800E+02  0.7561462E-02  0.1125453E+00
         25   -1    0    0    0    0  0.00000000000E+00  0.00000000000E+00  0.99999998245E-14  0.12509000000E+03  0.12509000000E+03 0.  0.
        -13    1    3    3    0    0  0.12238799889E+02  0.19214812130E+02  0.28749176476E+02  0.36681378655E+02  0.10566000000E+00 0.  1.
         23    2    1    0    0    0  0.13030081497E+01  0.12713908959E+02 -0.27719767893E+02  0.94565799056E+02  0.89503985988E+02 0.  0.
         13    1    3    3    0    0 -0.10935791740E+02 -0.65009031711E+01 -0.56468944369E+02  0.57884420401E+02  0.10566000000E+00 0. -1.
         22    1    1    0    0    0 -0.13030081497E+01 -0.12713908959E+02  0.27719767893E+02  0.30524200944E+02  0.00000000000E+00 0. -1.
</event>
<event>
 5    1  0.1261010E-009  0.9118800E+02  0.7561462E-02  0.1125453E+00
         25   -1    0    0    0    0  0.00000000000E+00  0.00000000000E+00  0.99999998245E-14  0.12509000000E+03  0.12509000000E+03 0.  0.
        -13    1    3    3    0    0 -0.42434527083E+01  0.41307855695E+02  0.25042755398E+02  0.48492232316E+02  0.10566000000E+00 0.  1.
         23    2    1    0    0    0  0.22477808048E+02  0.61530398909E+01 -0.41381346031E+01  0.10142069683E+03  0.98620088385E+02 0.  0.
         13    1    3    3    0    0  0.26721260756E+02 -0.35154815804E+02 -0.29180890001E+02  0.52928464515E+02  0.10566000000E+00 0. -1.
         22    1    1    0    0    0 -0.22477808048E+02 -0.61530398909E+01  0.41381346031E+01  0.23669303169E+02  0.00000000000E+00 0. -1.
</event>
<event>
 5    1  0.1261010E-009  0.9118800E+02  0.7561462E-02  0.1125453E+00
         25   -1    0    0    0    0  0.00000000000E+00  0.00000000000E+00  0.99999998245E-14  0.12509000000E+03  0.12509000000E+03 0.  0.
        -13    1    3    3    0    0  0.29592504748E+02  0.17850949998E+02 -0.14283649854E+02  0.37395274705E+02  0.10566000000E+00 0.  1.
         23    2    1    0    0    0 -0.72470622753E+01  0.86531650341E+01  0.28403326883E+02  0.94526195349E+02  0.89448619064E+02 0.  0.
         13    1    3    3    0    0 -0.36839567023E+02 -0.91977849638E+01  0.42686976737E+02  0.57130920644E+02  0.10566000000E+00 0. -1.
         22    1    1    0    0    0  0.72470622753E+01 -0.86531650341E+01 -0.28403326883E+02  0.30563804651E+02  0.00000000000E+00 0. -1.
</event>
<event>
 5    1  0.1261010E-009  0.9118800E+02  0.7561462E-02  0.1125453E+00
         25   -1    0    0    0    0  0.00000000000E+00  0.00000000000E+00  0.99999998245E-14  0.12509000000E+03  0.12509000000E+03 0.  0.
        -13    1    3    3    0    0  0.14490726964E+02  0.32178708853E+02 -0.23457565471E+02  0.42375924925E+02  0.10566000000E+00 0.  1.
         23    2    1    0    0    0 -0.20534686947E+02 -0.97628406675E+01 -0.15443820486E+02  0.97603675816E+02  0.93653507760E+02 0.  0.
         13    1    3    3    0    0 -0.35025413911E+02 -0.41941549520E+02  0.80137449851E+01  0.55227750891E+02  0.10566000000E+00 0. -1.
         22    1    1    0    0    0  0.20534686947E+02  0.97628406675E+01  0.15443820486E+02  0.27486324184E+02  0.00000000000E+00 0. -1.
</event>
<event>
 5    1  0.1261010E-009  0.9118800E+02  0.7561462E-02  0.1125453E+00
         25   -1    0    0    0    0  0.00000000000E+00  0.00000000000E+00  0.99999998245E-14  0.12509000000E+03  0.12509000000E+03 0.  0.
        -13    1    3    3    0    0  0.28662151718E+02  0.17440730568E+02 -0.43375695359E+02  0.54837579595E+02  0.10566000000E+00 0.  1.
         23    2    1    0    0    0  0.19186132589E+01  0.24388865965E+02 -0.88153441054E+01  0.99085997393E+02  0.95612900425E+02 0.  0.
         13    1    3    3    0    0 -0.26743538459E+02  0.69481353969E+01  0.34560351254E+02  0.44248417798E+02  0.10566000000E+00 0. -1.
         22    1    1    0    0    0 -0.19186132589E+01 -0.24388865965E+02  0.88153441054E+01  0.26004002607E+02  0.00000000000E+00 0.  1.
</event>
<event>
 5    1  0.1261010E-009  0.9118800E+02  0.7561462E-02  0.1125453E+00
         25   -1    0    0    0    0  0.00000000000E+00  0.00000000000E+00  0.99999998245E-14  0.12509000000E+03  0.12509000000E+03 0.  0.
        -13    1    3    3    0    0 -0.53686768506E+01 -0.35454712686E+02 -0.10031046544E+02  0.37235633492E+02  0.10566000000E+00 0.  1.
         23    2    1    0    0    0  0.89874487375E+01  0.13732376533E+02  0.21984775281E+02  0.97654935863E+02  0.93721949159E+02 0.  0.
         13    1    3    3    0    0  0.14356125588E+02  0.49187089219E+02  0.32015821825E+02  0.60419302370E+02  0.10566000000E+00 0. -1.
         22    1    1    0    0    0 -0.89874487375E+01 -0.13732376533E+02 -0.21984775281E+02  0.27435064137E+02  0.00000000000E+00 0. -1.
</event>
<event>
 5    1  0.1261010E-009  0.9118800E+02  0.7561462E-02  0.1125453E+00
         25   -1    0    0    0    0  0.00000000000E+00  0.00000000000E+00  0.99999998245E-14  0.12509000000E+03  0.12509000000E+03 0.  0.
        -13    1    3    3    0    0  0.71434166656E-01  0.48027267571E+02 -0.17457072838E+02  0.51101703390E+02  0.10566000000E+00 0. -1.
         23    2    1    0    0    0  0.16898966972E+02  0.21517800644E+02  0.12957543251E+02  0.94816434693E+02  0.89853589420E+02 0.  0.
         13    1    3    3    0    0  0.16827532805E+02 -0.26509466927E+02  0.30414616089E+02  0.43714731304E+02  0.10566000000E+00 0.  1.
         22    1    1    0    0    0 -0.16898966972E+02 -0.21517800644E+02 -0.12957543251E+02  0.30273565307E+02  0.00000000000E+00 0. -1.
</event>
<event>
 5    1  0.1261010E-009  0.9118800E+02  0.7561462E-02  0.1125453E+00
         25   -1    0    0    0    0  0.00000000000E+00  0.00000000000E+00  0.99999998245E-14  0.12509000000E+03  0.12509000000E+03 0.  0.
        -13    1    3    3    0    0  0.42217786553E+02 -0.27517448454E+02  0.33792390993E+02  0.60675269459E+02  0.10566000000E+00 0.  1.
         23    2    1    0    0    0  0.26484500693E+02 -0.84948978231E+01  0.85269249201E+01  0.95998755362E+02  0.91484755651E+02 0.  0.
         13    1    3    3    0    0 -0.15733285860E+02  0.19022550631E+02 -0.25265466073E+02  0.35323485903E+02  0.10566000000E+00 0. -1.
         22    1    1    0    0    0 -0.26484500693E+02  0.84948978231E+01 -0.85269249201E+01  0.29091244638E+02  0.00000000000E+00 0.  1.
</event>
<event>
 5    1  0.1261010E-009  0.9118800E+02  0.7561462E-02  0.1125453E+00
         25   -1    0    0    0    0  0.00000000000E+00  0.00000000000E+00  0.99999998245E-14  0.12509000000E+03  0.12509000000E+03 0.  0.
        -13    1    3    3    0    0  0.27969512713E+02 -0.20845054703E+02 -0.62772700065E+01  0.35443267763E+02  0.10566000000E+00 0.  1.
         23    2    1    0    0    0  0.82231131331E+01  0.30415928566E+02 -0.13428866195E+02  0.90839704419E+02  0.84135421503E+02 0.  0.
         13    1    3    3    0    0 -0.19746399580E+02  0.51260983269E+02 -0.71515961885E+01  0.55396436656E+02  0.10566000000E+00 0. -1.
         22    1    1    0    0    0 -0.82231131331E+01 -0.30415928566E+02  0.13428866195E+02  0.34250295581E+02  0.00000000000E+00 0. -1.
</event>
<event>
 5    1  0.1261010E-009  0.9118800E+02  0.7561462E-02  0.1125453E+00
         25   -1    0    0    0    0  0.00000000000E+00  0.00000000000E+00  0.99999998245E-14  0.12509000000E+03  0.12509000000E+03 0.  0.
        -13    1    3    3    0    0  0.29016906194E+02  0.89202962317E+01 -0.19759263862E+02  0.36221432914E+02  0.10566000000E+00 0.  1.
         23    2    1    0    0    0 -0.51880278975E+01  0.84591878547E+01  0.28236606285E+02  0.95160425544E+02  0.90331208132E+02 0.  0.
         13    1    3    3    0    0 -0.34204934092E+02 -0.46110837701E+00  0.47995870146E+02  0.58938992630E+02  0.10566000000E+00 0. -1.
         22    1    1    0    0    0  0.51880278975E+01 -0.84591878547E+01 -0.28236606285E+02  0.29929574456E+02  0.00000000000E+00 0. -1.
</event>
<event>
 5    1  0.1261010E-009  0.9118800E+02  0.7561462E-02  0.1125453E+00
         25   -1    0    0    0    0  0.00000000000E+00  0.00000000000E+00  0.99999998245E-14  0.12509000000E+03  0.12509000000E+03 0.  0.
        -13    1    3    3    0    0 -0.28348480910E+02 -0.47087691100E+00 -0.29599276626E+02  0.40987637597E+02  0.10566000000E+00 0.  1.
         23    2    1    0    0    0  0.34312393938E+01  0.29458971562E+02  0.27246150097E+01  0.95306985777E+02  0.90533936187E+02 0.  0.
         13    1    3    3    0    0  0.31779720304E+02  0.29929848473E+02  0.32323891635E+02  0.54319348180E+02  0.10566000000E+00 0. -1.
         22    1    1    0    0    0 -0.34312393938E+01 -0.29458971562E+02 -0.27246150097E+01  0.29783014223E+02  0.00000000000E+00 0.  1.
</event>
<event>
 5    1  0.1261010E-009  0.9118800E+02  0.7561462E-02  0.1125453E+00
         25   -1    0    0    0    0  0.00000000000E+00  0.00000000000E+00  0.99999998245E-14  0.12509000000E+03  0.12509000000E+03 0.  0.
        -13    1    3    3    0    0 -0.21878016254E+02 -0.11757837923E+02 -0.31107499766E+02  0.39806809136E+02  0.10566000000E+00 0.  1.
         23    2    1    0    0    0  0.25821941742E+02  0.83800671235E+01 -0.15223382844E+02  0.93965257663E+02  0.88660701905E+02 0.  0.
         13    1    3    3    0    0  0.47699957996E+02  0.20137905047E+02  0.15884116922E+02  0.54158448528E+02  0.10566000000E+00 0. -1.
         22    1    1    0    0    0 -0.25821941742E+02 -0.83800671235E+01  0.15223382844E+02  0.31124742337E+02  0.00000000000E+00 0. -1.
</event>
<event>
 5    1  0.1261010E-009  0.9118800E+02  0.7561462E-02  0.1125453E+00
         25   -1    0    0    0    0  0.00000000000E+00  0.00000000000E+00  0.99999998245E-14  0.12509000000E+03  0.12509000000E+03 0.  0.
        -13    1    3    3    0    0 -0.99541010830E+01  0.29735377611E+02  0.29846373627E+02  0.43290807255E+02  0.10566000000E+00 0.  1.
         23    2    1    0    0    0  0.24085351646E+02  0.25247839943E+02 -0.20252918913E+01  0.90137755537E+02  0.83085230820E+02 0.  0.
         13    1    3    3    0    0  0.34039452729E+02 -0.44875376675E+01 -0.31871665519E+02  0.46846948283E+02  0.10566000000E+00 0. -1.
         22    1    1    0    0    0 -0.24085351646E+02 -0.25247839943E+02  0.20252918913E+01  0.34952244463E+02  0.00000000000E+00 0.  1.
</event>
<event>
 5    1  0.1261010E-009  0.9118800E+02  0.7561462E-02  0.1125453E+00
         25   -1    0    0    0    0  0.00000000000E+00  0.00000000000E+00  0.99999998245E-14  0.12509000000E+03  0.12509000000E+03 0.  0.
        -13    1    3    3    0    0 -0.35180490660E+01 -0.11467892370E+02 -0.55351536736E+02  0.56636498901E+02  0.10566000000E+00 0.  1.
         23    2    1    0    0    0 -0.19228186494E+02  0.15323094040E+01 -0.21073641472E+02  0.96521319721E+02  0.92196505725E+02 0.  0.
         13    1    3    3    0    0 -0.15710137428E+02  0.13000201774E+02  0.34277895264E+02  0.39884820821E+02  0.10566000000E+00 0. -1.
         22    1    1    0    0    0  0.19228186494E+02 -0.15323094040E+01  0.21073641472E+02  0.28568680279E+02  0.00000000000E+00 0.  1.
</event>
<event>
 5    1  0.1261010E-009  0.9118800E+02  0.7561462E-02  0.1125453E+00
         25   -1    0    0    0    0  0.00000000000E+00  0.00000000000E+00  0.99999998245E-14  0.12509000000E+03  0.12509000000E+03 0.  0.
        -13    1    3    3    0    0 -0.74517417678E+01  0.26630401498E+02  0.26243661298E+02  0.38124108668E+02  0.10566000000E+00 0.  1.
         23    2    1    0    0    0 -0.11590959269E+02 -0.26849294328E+02  0.10332002200E+02  0.94074113552E+02  0.88814152185E+02 0.  0.
         13    1    3    3    0    0 -0.41392175014E+01 -0.53479695827E+02 -0.15911659098E+02  0.55950004884E+02  0.10566000000E+00 0. -1.
         22    1    1    0    0    0  0.11590959269E+02  0.26849294328E+02 -0.10332002200E+02  0.31015886448E+02  0.00000000000E+00 0. -1.
</event>
<event>
 5    1  0.1261010E-009  0.9118800E+02  0.7561462E-02  0.1125453E+00
         25   -1    0    0    0    0  0.00000000000E+00  0.00000000000E+00  0.99999998245E-14  0.12509000000E+03  0.12509000000E+03 0.  0.
        -13    1    3    3    0    0 -0.73306244441E+01  0.28140463705E+01 -0.57833042186E+02  0.58363763109E+02  0.10566000000E+00 0. -1.
         23    2    1    0    0    0  0.75252480290E+01  0.13148819609E+02 -0.24829599728E+02  0.96003407940E+02  0.91491117047E+02 0.  0.
         13    1    3    3    0    0  0.14855872473E+02  0.10334773239E+02  0.33003442458E+02  0.37639644831E+02  0.10566000000E+00 0.  1.
         22    1    1    0    0    0 -0.75252480290E+01 -0.13148819609E+02  0.24829599728E+02  0.29086592060E+02  0.00000000000E+00 0. -1.
</event>
<event>
 5    1  0.1261010E-009  0.9118800E+02  0.7561462E-02  0.1125453E+00
         25   -1    0    0    0    0  0.00000000000E+00  0.00000000000E+00  0.99999998245E-14  0.12509000000E+03  0.12509000000E+03 0.  0.
        -13    1    3    3    0    0 -0.33126988343E+01  0.79875361013E+01 -0.22931875381E+02  0.24508300207E+02  0.10566000000E+00 0. -1.
         23    2    1    0    0    0  0.16383411500E+02  0.28116007825E+02  0.27641180477E+02  0.82393853492E+02  0.70468334497E+02 0.  0.
         13    1    3    3    0    0  0.19696110335E+02  0.20128471724E+02  0.50573055858E+02  0.57885553285E+02  0.10566000000E+00 0.  1.
         22    1    1    0    0    0 -0.16383411500E+02 -0.28116007825E+02 -0.27641180477E+02  0.42696146508E+02  0.00000000000E+00 0.  1.
</event>
<event>
 5    1  0.1261010E-009  0.9118800E+02  0.7561462E-02  0.1125453E+00
         25   -1    0    0    0    0  0.00000000000E+00  0.00000000000E+00  0.99999998245E-14  0.12509000000E+03  0.12509000000E+03 0.  0.
        -13    1    3    3    0    0  0.12427453096E+02  0.33129837211E+02 -0.17680193148E+02  0.39555380138E+02  0.10566000000E+00 0. -1.
         23    2    1    0    0    0 -0.10836714309E+02 -0.18604873888E+02 -0.19114914618E+02  0.96298409730E+02  0.91893569124E+02 0.  0.
         13    1    3    3    0    0 -0.23264167406E+02 -0.51734711099E+02 -0.14347214695E+01  0.56743029592E+02  0.10566000000E+00 0.  1.
         22    1    1    0    0    0  0.10836714309E+02  0.18604873888E+02  0.19114914618E+02  0.28791590270E+02  0.00000000000E+00 0.  1.
</event>
<event>
 5    1  0.1261010E-009  0.9118800E+02  0.7561462E-02  0.1125453E+00
         25   -1    0    0    0    0  0.00000000000E+00  0.00000000000E+00  0.99999998245E-14  0.12509000000E+03  0.12509000000E+03 0.  0.
        -13    1    3    3    0    0  0.42450723609E+01 -0.75408931365E+01 -0.41973220163E+02  0.42856132392E+02  0.10566000000E+00 0.  1.
         23    2    1    0    0    0 -0.69949687865E+01 -0.27896230433E+02  0.55834826209E+01  0.95793165036E+02  0.91203212272E+02 0.  0.
         13    1    3    3    0    0 -0.11240041147E+02 -0.20355337297E+02  0.47556702784E+02  0.52937032645E+02  0.10566000000E+00 0. -1.
         22    1    1    0    0    0  0.69949687865E+01  0.27896230433E+02 -0.55834826209E+01  0.29296834964E+02  0.00000000000E+00 0. -1.
</event>
<event>
 5    1  0.1261010E-009  0.9118800E+02  0.7561462E-02  0.1125453E+00
         25   -1    0    0    0    0  0.00000000000E+00  0.00000000000E+00  0.99999998245E-14  0.12509000000E+03  0.12509000000E+03 0.  0.
        -13    1    3    3    0    0 -0.52961873361E+02  0.69022648977E+01  0.25658098263E+02  0.59253273844E+02  0.10566000000E+00 0.  1.
         23    2    1    0    0    0 -0.19659713325E+02 -0.67090115822E+01  0.21036873200E+02  0.95525406337E+02  0.90835224760E+02 0.  0.
         13    1    3    3    0    0  0.33302160036E+02 -0.13611276480E+02 -0.46212250630E+01  0.36272132493E+02  0.10566000000E+00 0. -1.
         22    1    1    0    0    0  0.19659713325E+02  0.67090115822E+01 -0.21036873200E+02  0.29564593663E+02  0.00000000000E+00 0.  1.
</event>
<event>
 5    1  0.1261010E-009  0.9118800E+02  0.7561462E-02  0.1125453E+00
         25   -1    0    0    0    0  0.00000000000E+00  0.00000000000E+00  0.99999998245E-14  0.12509000000E+03  0.12509000000E+03 0.  0.
        -13    1    3    3    0    0 -0.22048238123E+02 -0.16798773149E+02 -0.12570124731E+02  0.30435879870E+02  0.10566000000E+00 0.  1.
         23    2    1    0    0    0  0.63091403212E+01  0.32922606909E+02  0.68412676008E+01  0.90877338021E+02  0.84191355412E+02 0.  0.
         13    1    3    3    0    0  0.28357378445E+02  0.49721380059E+02  0.19411392332E+02  0.60441458151E+02  0.10566000000E+00 0. -1.
         22    1    1    0    0    0 -0.63091403212E+01 -0.32922606909E+02 -0.68412676008E+01  0.34212661979E+02  0.00000000000E+00 0. -1.
</event>
<event>
 5    1  0.1261010E-009  0.9118800E+02  0.7561462E-02  0.1125453E+00
         25   -1    0    0    0    0  0.00000000000E+00  0.00000000000E+00  0.99999998245E-14  0.12509000000E+03  0.12509000000E+03 0.  0.
        -13    1    3    3    0    0 -0.32118159624E+02  0.98790361060E+01  0.29373008035E+02  0.44631337613E+02  0.10566000000E+00 0. -1.
         23    2    1    0    0    0  0.69995188631E+01 -0.19625315704E+02  0.23023327122E+02  0.94038110000E+02  0.88763428617E+02 0.  0.
         13    1    3    3    0    0  0.39117678487E+02 -0.29504351810E+02 -0.63496809133E+01  0.49406772387E+02  0.10566000000E+00 0.  1.
         22    1    1    0    0    0 -0.69995188631E+01  0.19625315704E+02 -0.23023327122E+02  0.31051890000E+02  0.00000000000E+00 0.  1.
</event>
<event>
 5    1  0.1261010E-009  0.9118800E+02  0.7561462E-02  0.1125453E+00
         25   -1    0    0    0    0  0.00000000000E+00  0.00000000000E+00  0.99999998245E-14  0.12509000000E+03  0.12509000000E+03 0.  0.
        -13    1    3    3    0    0  0.52090408777E+01 -0.23078287585E+02 -0.30133608854E+02  0.38311708541E+02  0.10566000000E+00 0. -1.
         23    2    1    0    0    0  0.10038444502E+02 -0.56382633559E+01  0.25659240795E+02  0.96966041889E+02  0.92797932411E+02 0.  0.
         13    1    3    3    0    0  0.48294036240E+01  0.17440024229E+02  0.55792849649E+02  0.58654333348E+02  0.10566000000E+00 0.  1.
         22    1    1    0    0    0 -0.10038444502E+02  0.56382633559E+01 -0.25659240795E+02  0.28123958111E+02  0.00000000000E+00 0.  1.
</event>
<event>
 5    1  0.1261010E-009  0.9118800E+02  0.7561462E-02  0.1125453E+00
         25   -1    0    0    0    0  0.00000000000E+00  0.00000000000E+00  0.99999998245E-14  0.12509000000E+03  0.12509000000E+03 0.  0.
        -13    1    3    3    0    0  0.21294339160E+02 -0.53781184220E+02 -0.14067422491E+02  0.59529557330E+02  0.10566000000E+00 0. -1.
         23    2    1    0    0    0 -0.22013438513E+01 -0.27061029933E+02 -0.12645341709E+02  0.95139208312E+02  0.90301821884E+02 0.  0.
         13    1    3    3    0    0 -0.23495683012E+02  0.26720154287E+02  0.14220807828E+01  0.35609650982E+02  0.10566000000E+00 0.  1.
         22    1    1    0    0    0  0.22013438513E+01  0.27061029933E+02  0.12645341709E+02  0.29950791688E+02  0.00000000000E+00 0. -1.
</event>
<event>
 5    1  0.1261010E-009  0.9118800E+02  0.7561462E-02  0.1125453E+00
         25   -1    0    0    0    0  0.00000000000E+00  0.00000000000E+00  0.99999998245E-14  0.12509000000E+03  0.12509000000E+03 0.  0.
        -13    1    3    3    0    0 -0.13316952648E+02 -0.31172215213E+02  0.17104271396E+02  0.37968611947E+02  0.10566000000E+00 0.  1.
         23    2    1    0    0    0 -0.78664623269E+00  0.24527752613E+02  0.17306302853E+02  0.95061054314E+02  0.90193494601E+02 0.  0.
         13    1    3    3    0    0  0.12530306415E+02  0.55699967827E+02  0.20203145668E+00  0.57092442368E+02  0.10566000000E+00 0. -1.
         22    1    1    0    0    0  0.78664623269E+00 -0.24527752613E+02 -0.17306302853E+02  0.30028945686E+02  0.00000000000E+00 0. -1.
</event>
<event>
 5    1  0.1261010E-009  0.9118800E+02  0.7561462E-02  0.1125453E+00
         25   -1    0    0    0    0  0.00000000000E+00  0.00000000000E+00  0.99999998245E-14  0.12509000000E+03  0.12509000000E+03 0.  0.
        -13    1    3    3    0    0 -0.18437864645E+01 -0.41070698990E+02  0.16342574395E+02  0.44241301586E+02  0.10566000000E+00 0. -1.
         23    2    1    0    0    0  0.90518564259E+01  0.83278664798E+01  0.26534034839E+02  0.95843727251E+02  0.91272534662E+02 0.  0.
         13    1    3    3    0    0  0.10895642890E+02  0.49398565470E+02  0.10191460444E+02  0.51602425665E+02  0.10566000000E+00 0.  1.
         22    1    1    0    0    0 -0.90518564259E+01 -0.83278664798E+01 -0.26534034839E+02  0.29246272749E+02  0.00000000000E+00 0.  1.
</event>
<event>
 5    1  0.1261010E-009  0.9118800E+02  0.7561462E-02  0.1125453E+00
         25   -1    0    0    0    0  0.00000000000E+00  0.00000000000E+00  0.99999998245E-14  0.12509000000E+03  0.12509000000E+03 0.  0.
        -13    1    3    3    0    0 -0.20981677806E+02  0.32559399307E+02  0.68398218465E+01  0.39333695653E+02  0.10566000000E+00 0.  1.
         23    2    1    0    0    0 -0.16800682742E+02 -0.23706411199E+02  0.18452724829E+01  0.95975366170E+02  0.91452769277E+02 0.  0.
         13    1    3    3    0    0  0.41809950637E+01 -0.56265810506E+02 -0.49945493636E+01  0.56641670517E+02  0.10566000000E+00 0. -1.
         22    1    1    0    0    0  0.16800682742E+02  0.23706411199E+02 -0.18452724829E+01  0.29114633830E+02  0.00000000000E+00 0. -1.
</event>
<event>
 5    1  0.1261010E-009  0.9118800E+02  0.7561462E-02  0.1125453E+00
         25   -1    0    0    0    0  0.00000000000E+00  0.00000000000E+00  0.99999998245E-14  0.12509000000E+03  0.12509000000E+03 0.  0.
        -13    1    3    3    0    0  0.83997449570E+01 -0.39325223995E+02  0.10839249564E+02  0.41647682442E+02  0.10566000000E+00 0.  1.
         23    2    1    0    0    0 -0.27548346784E+02 -0.10764546371E+01  0.13875376371E+02  0.94225842235E+02  0.89027597465E+02 0.  0.
         13    1    3    3    0    0 -0.35948091741E+02  0.38248769358E+02  0.30361268067E+01  0.52578159793E+02  0.10566000000E+00 0. -1.
         22    1    1    0    0    0  0.27548346784E+02  0.10764546371E+01 -0.13875376371E+02  0.30864157765E+02  0.00000000000E+00 0. -1.
</event>
<event>
 5    1  0.1261010E-009  0.9118800E+02  0.7561462E-02  0.1125453E+00
         25   -1    0    0    0    0  0.00000000000E+00  0.00000000000E+00  0.99999998245E-14  0.12509000000E+03  0.12509000000E+03 0.  0.
        -13    1    3    3    0    0  0.39393382944E+02  0.30648299102E+02 -0.16223701213E+02  0.52482154136E+02  0.10566000000E+00 0. -1.
         23    2    1    0    0    0  0.12263657746E+02  0.13621683710E+00 -0.27617894225E+02  0.94871397488E+02  0.89930073521E+02 0.  0.
         13    1    3    3    0    0 -0.27129725198E+02 -0.30512082265E+02 -0.11394193012E+02  0.42389243352E+02  0.10566000000E+00 0.  1.
         22    1    1    0    0    0 -0.12263657746E+02 -0.13621683710E+00  0.27617894225E+02  0.30218602512E+02  0.00000000000E+00 0.  1.
</event>
<event>
 5    1  0.1261010E-009  0.9118800E+02  0.7561462E-02  0.1125453E+00
         25   -1    0    0    0    0  0.00000000000E+00  0.00000000000E+00  0.99999998245E-14  0.12509000000E+03  0.12509000000E+03 0.  0.
        -13    1    3    3    0    0 -0.11056875780E+02 -0.62080856109E+00  0.30836316682E+02  0.32764759969E+02  0.10566000000E+00 0. -1.
         23    2    1    0    0    0  0.10377564471E+02  0.12588610821E+02 -0.25697076025E+02  0.94651427711E+02  0.89623579960E+02 0.  0.
         13    1    3    3    0    0  0.21434440251E+02  0.13209419382E+02 -0.56533392707E+02  0.61886667742E+02  0.10566000000E+00 0.  1.
         22    1    1    0    0    0 -0.10377564471E+02 -0.12588610821E+02  0.25697076025E+02  0.30438572289E+02  0.00000000000E+00 0.  1.
</event>
<event>
 5    1  0.1261010E-009  0.9118800E+02  0.7561462E-02  0.1125453E+00
         25   -1    0    0    0    0  0.00000000000E+00  0.00000000000E+00  0.99999998245E-14  0.12509000000E+03  0.12509000000E+03 0.  0.
        -13    1    3    3    0    0 -0.24347335766E+02 -0.14867164323E+02 -0.50928076467E+02  0.58373842349E+02  0.10566000000E+00 0.  1.
         23    2    1    0    0    0 -0.32823044175E+01  0.46400985281E+01 -0.31597770333E+02  0.92985123008E+02  0.87266889335E+02 0.  0.
         13    1    3    3    0    0  0.21065031348E+02  0.19507262851E+02  0.19330306134E+02  0.34611280660E+02  0.10566000000E+00 0. -1.
         22    1    1    0    0    0  0.32823044175E+01 -0.46400985281E+01  0.31597770333E+02  0.32104876992E+02  0.00000000000E+00 0.  1.
</event>
<event>
 5    1  0.1261010E-009  0.9118800E+02  0.7561462E-02  0.1125453E+00
         25   -1    0    0    0    0  0.00000000000E+00  0.00000000000E+00  0.99999998245E-14  0.12509000000E+03  0.12509000000E+03 0.  0.
        -13    1    3    3    0    0 -0.14955201409E+02 -0.27989974444E+02 -0.14920519941E+02  0.35067503446E+02  0.10566000000E+00 0. -1.
         23    2    1    0    0    0  0.11270068021E+02 -0.40508259491E+02  0.18325008404E+02  0.79223460419E+02  0.64595798838E+02 0.  0.
         13    1    3    3    0    0  0.26225269431E+02 -0.12518285047E+02  0.33245528345E+02  0.44155956973E+02  0.10566000000E+00 0.  1.
         22    1    1    0    0    0 -0.11270068021E+02  0.40508259491E+02 -0.18325008404E+02  0.45866539581E+02  0.00000000000E+00 0. -1.
</event>
<event>
 5    1  0.1261010E-009  0.9118800E+02  0.7561462E-02  0.1125453E+00
         25   -1    0    0    0    0  0.00000000000E+00  0.00000000000E+00  0.99999998245E-14  0.12509000000E+03  0.12509000000E+03 0.  0.
        -13    1    3    3    0    0  0.28858885185E+02  0.28046637211E+02  0.42428096204E+02  0.58477377031E+02  0.10566000000E+00 0.  1.
         23    2    1    0    0    0  0.26791914074E+02  0.11168285183E+02  0.11311357942E+02  0.93937406654E+02  0.88621398639E+02 0.  0.
         13    1    3    3    0    0 -0.20669711106E+01 -0.16878352028E+02 -0.31116738262E+02  0.35460029623E+02  0.10566000000E+00 0. -1.
         22    1    1    0    0    0 -0.26791914074E+02 -0.11168285183E+02 -0.11311357942E+02  0.31152593346E+02  0.00000000000E+00 0.  1.
</event>
<event>
 5    1  0.1261010E-009  0.9118800E+02  0.7561462E-02  0.1125453E+00
         25   -1    0    0    0    0  0.00000000000E+00  0.00000000000E+00  0.99999998245E-14  0.12509000000E+03  0.12509000000E+03 0.  0.
        -13    1    3    3    0    0 -0.20283922524E+02 -0.39533718806E+02  0.77800391625E+01  0.45109783961E+02  0.10566000000E+00 0. -1.
         23    2    1    0    0    0 -0.80677727892E+01 -0.13953323156E+01  0.32099381643E+02  0.91962878001E+02  0.85789071089E+02 0.  0.
         13    1    3    3    0    0  0.12216149735E+02  0.38138386490E+02  0.24319342481E+02  0.46853094040E+02  0.10566000000E+00 0.  1.
         22    1    1    0    0    0  0.80677727892E+01  0.13953323156E+01 -0.32099381643E+02  0.33127121999E+02  0.00000000000E+00 0.  1.
</event>
<event>
 5    1  0.1261010E-009  0.9118800E+02  0.7561462E-02  0.1125453E+00
         25   -1    0    0    0    0  0.00000000000E+00  0.00000000000E+00  0.99999998245E-14  0.12509000000E+03  0.12509000000E+03 0.  0.
        -13    1    3    3    0    0 -0.57504170181E+02 -0.12819497705E+02 -0.10473196404E+01  0.58925182665E+02  0.10566000000E+00 0.  1.
         23    2    1    0    0    0 -0.27244912058E+02 -0.86420799015E+00  0.13624759164E+02  0.94615975802E+02  0.89574085127E+02 0.  0.
         13    1    3    3    0    0  0.30259258123E+02  0.11955289715E+02  0.14672078804E+02  0.35690793137E+02  0.10566000000E+00 0. -1.
         22    1    1    0    0    0  0.27244912058E+02  0.86420799015E+00 -0.13624759164E+02  0.30474024198E+02  0.00000000000E+00 0.  1.
</event>
<event>
 5    1  0.1261010E-009  0.9118800E+02  0.7561462E-02  0.1125453E+00
         25   -1    0    0    0    0  0.00000000000E+00  0.00000000000E+00  0.99999998245E-14  0.12509000000E+03  0.12509000000E+03 0.  0.
        -13    1    3    3    0    0 -0.28863742633E+02 -0.31208414259E+02 -0.19088272750E+02  0.46598863505E+02  0.10566000000E+00 0.  1.
         23    2    1    0    0    0  0.18881599993E+02 -0.15238476871E+02  0.10039719329E+01  0.10080556146E+03  0.97836737812E+02 0.  0.
         13    1    3    3    0    0  0.47745342625E+02  0.15969937388E+02  0.20092244683E+02  0.54206697954E+02  0.10566000000E+00 0. -1.
         22    1    1    0    0    0 -0.18881599993E+02  0.15238476871E+02 -0.10039719329E+01  0.24284438542E+02  0.00000000000E+00 0.  1.
</event>
<event>
 5    1  0.1261010E-009  0.9118800E+02  0.7561462E-02  0.1125453E+00
         25   -1    0    0    0    0  0.00000000000E+00  0.00000000000E+00  0.99999998245E-14  0.12509000000E+03  0.12509000000E+03 0.  0.
        -13    1    3    3    0    0 -0.83959775037E+01 -0.28744600899E+02  0.22312637689E+02  0.37344470591E+02  0.10566000000E+00 0. -1.
         23    2    1    0    0    0  0.28155656045E+02  0.75978107252E+01 -0.47207045712E+01  0.95547611018E+02  0.90865797880E+02 0.  0.
         13    1    3    3    0    0  0.36551633549E+02  0.36342411624E+02 -0.27033342260E+02  0.58203140426E+02  0.10566000000E+00 0.  1.
         22    1    1    0    0    0 -0.28155656045E+02 -0.75978107252E+01  0.47207045712E+01  0.29542388982E+02  0.00000000000E+00 0. -1.
</event>
<event>
 5    1  0.1261010E-009  0.9118800E+02  0.7561462E-02  0.1125453E+00
         25   -1    0    0    0    0  0.00000000000E+00  0.00000000000E+00  0.99999998245E-14  0.12509000000E+03  0.12509000000E+03 0.  0.
        -13    1    3    3    0    0  0.17746521298E+02  0.31730859764E+02 -0.69108737599E+01  0.37007537336E+02  0.10566000000E+00 0. -1.
         23    2    1    0    0    0 -0.29412295774E+02 -0.22077418206E+01  0.57485574598E+00  0.95589360587E+02  0.90923254075E+02 0.  0.
         13    1    3    3    0    0 -0.47158817072E+02 -0.33938601584E+02  0.74857295059E+01  0.58581823251E+02  0.10566000000E+00 0.  1.
         22    1    1    0    0    0  0.29412295774E+02  0.22077418206E+01 -0.57485574598E+00  0.29500639413E+02  0.00000000000E+00 0.  1.
</event>
<event>
 5    1  0.1261010E-009  0.9118800E+02  0.7561462E-02  0.1125453E+00
         25   -1    0    0    0    0  0.00000000000E+00  0.00000000000E+00  0.99999998245E-14  0.12509000000E+03  0.12509000000E+03 0.  0.
        -13    1    3    3    0    0  0.24464996388E+02  0.16546043376E+02  0.10866831230E+02  0.31470729014E+02  0.10566000000E+00 0.  1.
         23    2    1    0    0    0  0.11848083348E+02 -0.33396376331E+02 -0.11789296494E+02  0.87744551243E+02  0.79400401322E+02 0.  0.
         13    1    3    3    0    0 -0.12616913040E+02 -0.49942419706E+02 -0.22656127724E+02  0.56273822229E+02  0.10566000000E+00 0. -1.
         22    1    1    0    0    0 -0.11848083348E+02  0.33396376331E+02  0.11789296494E+02  0.37345448757E+02  0.00000000000E+00 0.  1.
</event>
<event>
 5    1  0.1261010E-009  0.9118800E+02  0.7561462E-02  0.1125453E+00
         25   -1    0    0    0    0  0.00000000000E+00  0.00000000000E+00  0.99999998245E-14  0.12509000000E+03  0.12509000000E+03 0.  0.
        -13    1    3    3    0    0 -0.43754378023E+01 -0.10391086244E+02  0.38821327764E+02  0.40425558533E+02  0.10566000000E+00 0.  1.
         23    2    1    0    0    0  0.19590515809E+02 -0.18700080236E+02 -0.10624189625E+02  0.95997823806E+02  0.91483481896E+02 0.  0.
         13    1    3    3    0    0  0.23965953611E+02 -0.83089939919E+01 -0.49445517390E+02  0.55572265273E+02  0.10566000000E+00 0. -1.
         22    1    1    0    0    0 -0.19590515809E+02  0.18700080236E+02  0.10624189625E+02  0.29092176194E+02  0.00000000000E+00 0. -1.
</event>
