<event>
 5    1  0.1681104E-003  0.9118800E+02  0.7818608E-02  0.1130116E+00
         25   -1    0    0    0    0  0.00000000000E+00  0.00000000000E+00  0.99999998245E-14  0.12500000000E+03  0.12500000000E+03 0.  0.
        -11    1    3    3    0    0  0.17072523161E+02  0.43957845676E+02  0.39761012981E+02  0.61682261608E+02  0.51100000000E-03 0.  1.
         23    2    1    0    0    0  0.15566593475E+02  0.20459768705E+02  0.19805660061E+02  0.92547185972E+02  0.86670620703E+02 0.  0.
         11    1    3    3    0    0 -0.15059296862E+01 -0.23498076971E+02 -0.19955352921E+02  0.30864924364E+02  0.51100000000E-03 0. -1.
         22    1    1    0    0    0 -0.15566593475E+02 -0.20459768705E+02 -0.19805660061E+02  0.32452814028E+02  0.00000000000E+00 0.  1.
</event>
<event>
 5    1  0.1681104E-003  0.9118800E+02  0.7818608E-02  0.1130116E+00
         25   -1    0    0    0    0  0.00000000000E+00  0.00000000000E+00  0.99999998245E-14  0.12500000000E+03  0.12500000000E+03 0.  0.
        -11    1    3    3    0    0 -0.23832088219E+02 -0.97313038834E+01  0.37086384770E+02  0.45144951431E+02  0.51100000000E-03 0.  1.
         23    2    1    0    0    0  0.11812407884E+02  0.20321244094E+02  0.17408588037E+02  0.95750301215E+02  0.91173325616E+02 0.  0.
         11    1    3    3    0    0  0.35644496102E+02  0.30052547977E+02 -0.19677796732E+02  0.50605349785E+02  0.51100000000E-03 0. -1.
         22    1    1    0    0    0 -0.11812407884E+02 -0.20321244094E+02 -0.17408588037E+02  0.29249698785E+02  0.00000000000E+00 0. -1.
</event>
<event>
 5    1  0.1681104E-003  0.9118800E+02  0.7818608E-02  0.1130116E+00
         25   -1    0    0    0    0  0.00000000000E+00  0.00000000000E+00  0.99999998245E-14  0.12500000000E+03  0.12500000000E+03 0.  0.
        -11    1    3    3    0    0  0.38427441656E+02 -0.18240492809E+02 -0.12252750842E+02  0.44266395309E+02  0.51100000000E-03 0. -1.
         23    2    1    0    0    0  0.77751644049E+01 -0.40686071183E+02 -0.24346821821E+01  0.83506178205E+02  0.72467541363E+02 0.  0.
         11    1    3    3    0    0 -0.30652277252E+02 -0.22445578374E+02  0.98180686601E+01  0.39239782896E+02  0.51100000000E-03 0.  1.
         22    1    1    0    0    0 -0.77751644049E+01  0.40686071183E+02  0.24346821821E+01  0.41493821795E+02  0.00000000000E+00 0.  1.
</event>
<event>
 5    1  0.1681104E-003  0.9118800E+02  0.7818608E-02  0.1130116E+00
         25   -1    0    0    0    0  0.00000000000E+00  0.00000000000E+00  0.99999998245E-14  0.12500000000E+03  0.12500000000E+03 0.  0.
        -11    1    3    3    0    0 -0.32052314473E+02 -0.26832863936E+02 -0.40987998265E+02  0.58543739649E+02  0.51100000000E-03 0.  1.
         23    2    1    0    0    0  0.17162937490E+01 -0.13870981432E+02 -0.20721800965E+02  0.10000514402E+03  0.96831224332E+02 0.  0.
         11    1    3    3    0    0  0.33768608223E+02  0.12961882503E+02  0.20266197300E+02  0.41461404373E+02  0.51100000000E-03 0. -1.
         22    1    1    0    0    0 -0.17162937490E+01  0.13870981432E+02  0.20721800965E+02  0.24994855978E+02  0.00000000000E+00 0.  1.
</event>
<event>
 5    1  0.1681104E-003  0.9118800E+02  0.7818608E-02  0.1130116E+00
         25   -1    0    0    0    0  0.00000000000E+00  0.00000000000E+00  0.99999998245E-14  0.12500000000E+03  0.12500000000E+03 0.  0.
        -11    1    3    3    0    0  0.37122864180E+02 -0.18224766890E+02 -0.57092081609E+01  0.41747385921E+02  0.51100000000E-03 0.  1.
         23    2    1    0    0    0 -0.14028473833E+02 -0.77611026478E+01 -0.23190847300E+02  0.96806947826E+02  0.92610674096E+02 0.  0.
         11    1    3    3    0    0 -0.51151338013E+02  0.10463664242E+02 -0.17481639139E+02  0.55059561905E+02  0.51100000000E-03 0. -1.
         22    1    1    0    0    0  0.14028473833E+02  0.77611026478E+01  0.23190847300E+02  0.28193052174E+02  0.00000000000E+00 0.  1.
</event>
<event>
 5    1  0.1681104E-003  0.9118800E+02  0.7818608E-02  0.1130116E+00
         25   -1    0    0    0    0  0.00000000000E+00  0.00000000000E+00  0.99999998245E-14  0.12500000000E+03  0.12500000000E+03 0.  0.
        -11    1    3    3    0    0 -0.22507037568E+02  0.10054496242E+02 -0.29599857764E+02  0.38520270179E+02  0.51100000000E-03 0. -1.
         23    2    1    0    0    0 -0.89759204122E+01 -0.15644644991E+02  0.21279015503E+02  0.97105223340E+02  0.93012396136E+02 0.  0.
         11    1    3    3    0    0  0.13531117156E+02 -0.25699141233E+02  0.50878873267E+02  0.58584953160E+02  0.51100000000E-03 0.  1.
         22    1    1    0    0    0  0.89759204122E+01  0.15644644991E+02 -0.21279015503E+02  0.27894776660E+02  0.00000000000E+00 0.  1.
</event>
<event>
 5    1  0.1681104E-003  0.9118800E+02  0.7818608E-02  0.1130116E+00
         25   -1    0    0    0    0  0.00000000000E+00  0.00000000000E+00  0.99999998245E-14  0.12500000000E+03  0.12500000000E+03 0.  0.
        -11    1    3    3    0    0 -0.38621155971E+02 -0.13049319721E+02 -0.65962721800E+01  0.41296358686E+02  0.51100000000E-03 0.  1.
         23    2    1    0    0    0  0.16722264550E+01 -0.14957956820E+02  0.27194772021E+02  0.93917972414E+02  0.88625578156E+02 0.  0.
         11    1    3    3    0    0  0.40293382426E+02 -0.19086370994E+01  0.33791044201E+02  0.52621613729E+02  0.51100000000E-03 0. -1.
         22    1    1    0    0    0 -0.16722264550E+01  0.14957956820E+02 -0.27194772021E+02  0.31082027586E+02  0.00000000000E+00 0. -1.
</event>
<event>
 5    1  0.1681104E-003  0.9118800E+02  0.7818608E-02  0.1130116E+00
         25   -1    0    0    0    0  0.00000000000E+00  0.00000000000E+00  0.99999998245E-14  0.12500000000E+03  0.12500000000E+03 0.  0.
        -11    1    3    3    0    0  0.48152879190E+02  0.31666015786E+02  0.23392235400E+01  0.57679357633E+02  0.51100000000E-03 0.  1.
         23    2    1    0    0    0  0.21233686565E+02  0.12183954175E+02  0.18195106373E+02  0.94497867610E+02  0.89439738944E+02 0.  0.
         11    1    3    3    0    0 -0.26919192625E+02 -0.19482061611E+02  0.15855882833E+02  0.36818509976E+02  0.51100000000E-03 0. -1.
         22    1    1    0    0    0 -0.21233686565E+02 -0.12183954175E+02 -0.18195106373E+02  0.30502132390E+02  0.00000000000E+00 0.  1.
</event>
<event>
 5    1  0.1681104E-003  0.9118800E+02  0.7818608E-02  0.1130116E+00
         25   -1    0    0    0    0  0.00000000000E+00  0.00000000000E+00  0.99999998245E-14  0.12500000000E+03  0.12500000000E+03 0.  0.
        -11    1    3    3    0    0  0.33460034919E+02 -0.38840048340E+02 -0.96875379713E+01  0.52172518475E+02  0.51100000000E-03 0.  1.
         23    2    1    0    0    0  0.24916878058E+02 -0.55491519813E+01  0.15815381272E+02  0.94970511416E+02  0.90097879298E+02 0.  0.
         11    1    3    3    0    0 -0.85431568618E+01  0.33290896359E+02  0.25502919243E+02  0.42797992940E+02  0.51100000000E-03 0. -1.
         22    1    1    0    0    0 -0.24916878058E+02  0.55491519813E+01 -0.15815381272E+02  0.30029488584E+02  0.00000000000E+00 0.  1.
</event>
<event>
 4    1  0.1681104E-003  0.9118800E+02  0.7818608E-02  0.1130116E+00
         25   -1    0    0    0    0  0.00000000000E+00  0.00000000000E+00  0.99999998245E-14  0.12500000000E+03  0.12500000000E+03 0.  0.
        -11    1    1    0    0    0 -0.21323689155E+02 -0.27066273081E+02 -0.40614228153E+02  0.53261603303E+02  0.51100000000E-03 0.  1.
         11    1    1    0    0    0  0.75028022070E+01  0.15693755414E+02 -0.85752299332E+01  0.19393828106E+02  0.51100000000E-03 0. -1.
         22    1    1    0    0    0  0.13820886948E+02  0.11372517667E+02  0.49189458086E+02  0.52344568591E+02  0.00000000000E+00 0.  1.
</event>
<event>
 5    1  0.1681104E-003  0.9118800E+02  0.7818608E-02  0.1130116E+00
         25   -1    0    0    0    0  0.00000000000E+00  0.00000000000E+00  0.99999998245E-14  0.12500000000E+03  0.12500000000E+03 0.  0.
        -11    1    3    3    0    0 -0.10356837340E+02  0.45109002428E+02 -0.20430291046E+02  0.50591332976E+02  0.51100000000E-03 0. -1.
         23    2    1    0    0    0 -0.16570999114E+02  0.15554172017E+02  0.15471354531E+02  0.97506490042E+02  0.93550106951E+02 0.  0.
         11    1    3    3    0    0 -0.62141617749E+01 -0.29554830411E+02  0.35901645577E+02  0.46915157067E+02  0.51100000000E-03 0.  1.
         22    1    1    0    0    0  0.16570999114E+02 -0.15554172017E+02 -0.15471354531E+02  0.27493509958E+02  0.00000000000E+00 0. -1.
</event>
<event>
 5    1  0.1681104E-003  0.9118800E+02  0.7818608E-02  0.1130116E+00
         25   -1    0    0    0    0  0.00000000000E+00  0.00000000000E+00  0.99999998245E-14  0.12500000000E+03  0.12500000000E+03 0.  0.
        -11    1    3    3    0    0  0.38813591054E+01 -0.20150450004E+02  0.49366844187E+02  0.53462050925E+02  0.51100000000E-03 0. -1.
         23    2    1    0    0    0  0.21945248346E+02 -0.14731115573E+02  0.10695572832E+02  0.96486933360E+02  0.92177726920E+02 0.  0.
         11    1    3    3    0    0  0.18063889241E+02  0.54193344310E+01 -0.38671271355E+02  0.43024882436E+02  0.51100000000E-03 0.  1.
         22    1    1    0    0    0 -0.21945248346E+02  0.14731115573E+02 -0.10695572832E+02  0.28513066640E+02  0.00000000000E+00 0. -1.
</event>
<event>
 5    1  0.1681104E-003  0.9118800E+02  0.7818608E-02  0.1130116E+00
         25   -1    0    0    0    0  0.00000000000E+00  0.00000000000E+00  0.99999998245E-14  0.12500000000E+03  0.12500000000E+03 0.  0.
        -11    1    3    3    0    0 -0.24374133164E+01 -0.33258960790E+02 -0.49220242480E+01  0.33709431610E+02  0.51100000000E-03 0.  1.
         23    2    1    0    0    0  0.83966263247E+01  0.19316674808E+02  0.22661269235E+02  0.94061829683E+02  0.88828246750E+02 0.  0.
         11    1    3    3    0    0  0.10834039641E+02  0.52575635598E+02  0.27583293483E+02  0.60352398072E+02  0.51100000000E-03 0. -1.
         22    1    1    0    0    0 -0.83966263247E+01 -0.19316674808E+02 -0.22661269235E+02  0.30938170317E+02  0.00000000000E+00 0. -1.
</event>
<event>
 5    1  0.1681104E-003  0.9118800E+02  0.7818608E-02  0.1130116E+00
         25   -1    0    0    0    0  0.00000000000E+00  0.00000000000E+00  0.99999998245E-14  0.12500000000E+03  0.12500000000E+03 0.  0.
        -11    1    3    3    0    0 -0.22429389833E+02 -0.47287299764E+02 -0.18143224186E+02  0.55392624341E+02  0.51100000000E-03 0.  1.
         23    2    1    0    0    0  0.95054965046E+01 -0.23843077019E+02  0.83091193461E+00  0.99318543651E+02  0.95940793789E+02 0.  0.
         11    1    3    3    0    0  0.31934886338E+02  0.23444222744E+02  0.18974136121E+02  0.43925919311E+02  0.51100000000E-03 0. -1.
         22    1    1    0    0    0 -0.95054965046E+01  0.23843077019E+02 -0.83091193461E+00  0.25681456349E+02  0.00000000000E+00 0.  1.
</event>
<event>
 5    1  0.1681104E-003  0.9118800E+02  0.7818608E-02  0.1130116E+00
         25   -1    0    0    0    0  0.00000000000E+00  0.00000000000E+00  0.99999998245E-14  0.12500000000E+03  0.12500000000E+03 0.  0.
        -11    1    3    3    0    0 -0.35091428956E+02  0.26209204751E+02 -0.21775866726E+02  0.48913384383E+02  0.51100000000E-03 0. -1.
         23    2    1    0    0    0 -0.21978766948E+02  0.69253898696E+01  0.18497017989E+02  0.95450602444E+02  0.90761504015E+02 0.  0.
         11    1    3    3    0    0  0.13112662008E+02 -0.19283814881E+02  0.40272884715E+02  0.46537218061E+02  0.51100000000E-03 0.  1.
         22    1    1    0    0    0  0.21978766948E+02 -0.69253898696E+01 -0.18497017989E+02  0.29549397556E+02  0.00000000000E+00 0. -1.
</event>
<event>
 5    1  0.1681104E-003  0.9118800E+02  0.7818608E-02  0.1130116E+00
         25   -1    0    0    0    0  0.00000000000E+00  0.00000000000E+00  0.99999998245E-14  0.12500000000E+03  0.12500000000E+03 0.  0.
        -11    1    3    3    0    0  0.15282502715E+02 -0.81808373453E+01 -0.30457046196E+02  0.35044438248E+02  0.51100000000E-03 0. -1.
         23    2    1    0    0    0 -0.27829974648E+02  0.26271479673E+01  0.10162715171E+02  0.95256258222E+02  0.90493450346E+02 0.  0.
         11    1    3    3    0    0 -0.43112477362E+02  0.10807985313E+02  0.40619761366E+02  0.60211819974E+02  0.51100000000E-03 0.  1.
         22    1    1    0    0    0  0.27829974648E+02 -0.26271479673E+01 -0.10162715171E+02  0.29743741778E+02  0.00000000000E+00 0.  1.
</event>
<event>
 5    1  0.1681104E-003  0.9118800E+02  0.7818608E-02  0.1130116E+00
         25   -1    0    0    0    0  0.00000000000E+00  0.00000000000E+00  0.99999998245E-14  0.12500000000E+03  0.12500000000E+03 0.  0.
        -11    1    3    3    0    0 -0.27089750985E+01 -0.43625821113E+02 -0.30252444146E+01  0.43814414499E+02  0.51100000000E-03 0.  1.
         23    2    1    0    0    0  0.25396854788E+02 -0.38112675513E+00 -0.13186302059E+02  0.96381403726E+02  0.92034509459E+02 0.  0.
         11    1    3    3    0    0  0.28105829887E+02  0.43244694357E+02 -0.10161057644E+02  0.52566989227E+02  0.51100000000E-03 0. -1.
         22    1    1    0    0    0 -0.25396854788E+02  0.38112675513E+00  0.13186302059E+02  0.28618596274E+02  0.00000000000E+00 0. -1.
</event>
<event>
 5    1  0.1681104E-003  0.9118800E+02  0.7818608E-02  0.1130116E+00
         25   -1    0    0    0    0  0.00000000000E+00  0.00000000000E+00  0.99999998245E-14  0.12500000000E+03  0.12500000000E+03 0.  0.
        -11    1    3    3    0    0  0.46610840535E+02 -0.32666719660E+02  0.21668830807E+02  0.60903392824E+02  0.51100000000E-03 0.  1.
         23    2    1    0    0    0  0.27641739423E+02 -0.88352710793E+01  0.52383593275E+01  0.95511558505E+02  0.90845416099E+02 0.  0.
         11    1    3    3    0    0 -0.18969101112E+02  0.23831448580E+02 -0.16430471480E+02  0.34608165680E+02  0.51100000000E-03 0. -1.
         22    1    1    0    0    0 -0.27641739423E+02  0.88352710793E+01 -0.52383593275E+01  0.29488441495E+02  0.00000000000E+00 0.  1.
</event>
<event>
 4    1  0.1681104E-003  0.9118800E+02  0.7818608E-02  0.1130116E+00
         25   -1    0    0    0    0  0.00000000000E+00  0.00000000000E+00  0.99999998245E-14  0.12500000000E+03  0.12500000000E+03 0.  0.
        -11    1    1    0    0    0  0.31354492883E+02  0.28707285841E+02  0.17472610735E+02  0.45961990933E+02  0.51100000000E-03 0.  1.
         11    1    1    0    0    0 -0.12898199277E+02  0.20633689413E+02 -0.39684719903E+01  0.24654846453E+02  0.51100000000E-03 0. -1.
         22    1    1    0    0    0 -0.18456293606E+02 -0.49340975255E+02 -0.13504138744E+02  0.54383162615E+02  0.00000000000E+00 0.  1.
</event>
<event>
 5    1  0.1681104E-003  0.9118800E+02  0.7818608E-02  0.1130116E+00
         25   -1    0    0    0    0  0.00000000000E+00  0.00000000000E+00  0.99999998245E-14  0.12500000000E+03  0.12500000000E+03 0.  0.
        -11    1    3    3    0    0 -0.79147979147E+01 -0.15406583989E+02  0.40484753834E+02  0.44034329216E+02  0.51100000000E-03 0. -1.
         23    2    1    0    0    0 -0.22205166458E+02 -0.13188443144E+02 -0.10567438048E+02  0.97095247773E+02  0.92998988936E+02 0.  0.
         11    1    3    3    0    0 -0.14290368543E+02  0.22181408451E+01 -0.51052191882E+02  0.53060918557E+02  0.51100000000E-03 0.  1.
         22    1    1    0    0    0  0.22205166458E+02  0.13188443144E+02  0.10567438048E+02  0.27904752227E+02  0.00000000000E+00 0.  1.
</event>
<event>
 5    1  0.1681104E-003  0.9118800E+02  0.7818608E-02  0.1130116E+00
         25   -1    0    0    0    0  0.00000000000E+00  0.00000000000E+00  0.99999998245E-14  0.12500000000E+03  0.12500000000E+03 0.  0.
        -11    1    3    3    0    0 -0.35685815489E+02 -0.10784956126E+02  0.10196912107E+02  0.38649317233E+02  0.51100000000E-03 0.  1.
         23    2    1    0    0    0  0.16818983331E+02 -0.17912385206E+02 -0.13802856990E+02  0.96817547922E+02  0.92624980326E+02 0.  0.
         11    1    3    3    0    0  0.52504798821E+02 -0.71274290799E+01 -0.23999769097E+02  0.58168230689E+02  0.51100000000E-03 0. -1.
         22    1    1    0    0    0 -0.16818983331E+02  0.17912385206E+02  0.13802856990E+02  0.28182452078E+02  0.00000000000E+00 0. -1.
</event>
<event>
 5    1  0.1681104E-003  0.9118800E+02  0.7818608E-02  0.1130116E+00
         25   -1    0    0    0    0  0.00000000000E+00  0.00000000000E+00  0.99999998245E-14  0.12500000000E+03  0.12500000000E+03 0.  0.
        -11    1    3    3    0    0  0.20503771632E+01  0.74968526051E+01 -0.60189051705E+02  0.60688786368E+02  0.51100000000E-03 0. -1.
         23    2    1    0    0    0 -0.56329255412E+01  0.11440945972E+02 -0.24837655022E+02  0.97079860282E+02  0.92978304300E+02 0.  0.
         11    1    3    3    0    0 -0.76833027044E+01  0.39440933664E+01  0.35351396682E+02  0.36391073914E+02  0.51100000000E-03 0.  1.
         22    1    1    0    0    0  0.56329255412E+01 -0.11440945972E+02  0.24837655022E+02  0.27920139718E+02  0.00000000000E+00 0. -1.
</event>
<event>
 5    1  0.1681104E-003  0.9118800E+02  0.7818608E-02  0.1130116E+00
         25   -1    0    0    0    0  0.00000000000E+00  0.00000000000E+00  0.99999998245E-14  0.12500000000E+03  0.12500000000E+03 0.  0.
        -11    1    3    3    0    0 -0.27043235796E+02  0.47214306076E+02 -0.22002619071E+02  0.58691077233E+02  0.51100000000E-03 0. -1.
         23    2    1    0    0    0 -0.82828342350E+00  0.28359219516E+02 -0.22617233787E+01  0.96538679272E+02  0.92247871617E+02 0.  0.
         11    1    3    3    0    0  0.26214952372E+02 -0.18855086560E+02  0.19740895692E+02  0.37847602038E+02  0.51100000000E-03 0.  1.
         22    1    1    0    0    0  0.82828342350E+00 -0.28359219516E+02  0.22617233787E+01  0.28461320728E+02  0.00000000000E+00 0. -1.
</event>
<event>
 5    1  0.1681104E-003  0.9118800E+02  0.7818608E-02  0.1130116E+00
         25   -1    0    0    0    0  0.00000000000E+00  0.00000000000E+00  0.99999998245E-14  0.12500000000E+03  0.12500000000E+03 0.  0.
        -11    1    3    3    0    0  0.25566089109E+02 -0.27974608400E+02  0.27292441747E+01  0.37995426060E+02  0.51100000000E-03 0. -1.
         23    2    1    0    0    0 -0.42992895861E+01  0.17573078963E+02  0.22669329033E+02  0.95996629954E+02  0.91510422841E+02 0.  0.
         11    1    3    3    0    0 -0.29865378695E+02  0.45547687363E+02  0.19940084858E+02  0.58001203894E+02  0.51100000000E-03 0.  1.
         22    1    1    0    0    0  0.42992895861E+01 -0.17573078963E+02 -0.22669329033E+02  0.29003370046E+02  0.00000000000E+00 0.  1.
</event>
<event>
 5    1  0.1681104E-003  0.9118800E+02  0.7818608E-02  0.1130116E+00
         25   -1    0    0    0    0  0.00000000000E+00  0.00000000000E+00  0.99999998245E-14  0.12500000000E+03  0.12500000000E+03 0.  0.
        -11    1    3    3    0    0  0.34221167777E+02  0.27913990674E+02 -0.34265904762E+00  0.44163294882E+02  0.51100000000E-03 0. -1.
         23    2    1    0    0    0  0.11407186753E+02 -0.14137774374E+02  0.21582720001E+02  0.96789817857E+02  0.92587550266E+02 0.  0.
         11    1    3    3    0    0 -0.22813981024E+02 -0.42051765048E+02  0.21925379049E+02  0.52626522975E+02  0.51100000000E-03 0.  1.
         22    1    1    0    0    0 -0.11407186753E+02  0.14137774374E+02 -0.21582720001E+02  0.28210182143E+02  0.00000000000E+00 0.  1.
</event>
<event>
 5    1  0.1681104E-003  0.9118800E+02  0.7818608E-02  0.1130116E+00
         25   -1    0    0    0    0  0.00000000000E+00  0.00000000000E+00  0.99999998245E-14  0.12500000000E+03  0.12500000000E+03 0.  0.
        -11    1    3    3    0    0 -0.38276030280E+02  0.16854895610E+02 -0.16601760310E+02  0.44997338207E+02  0.51100000000E-03 0. -1.
         23    2    1    0    0    0  0.21279966570E+01 -0.11307734728E+02 -0.27280433637E+02  0.95392310224E+02  0.90681186340E+02 0.  0.
         11    1    3    3    0    0  0.40404026937E+02 -0.28162630339E+02 -0.10678673327E+02  0.50394972017E+02  0.51100000000E-03 0.  1.
         22    1    1    0    0    0 -0.21279966570E+01  0.11307734728E+02  0.27280433637E+02  0.29607689776E+02  0.00000000000E+00 0.  1.
</event>
<event>
 5    1  0.1681104E-003  0.9118800E+02  0.7818608E-02  0.1130116E+00
         25   -1    0    0    0    0  0.00000000000E+00  0.00000000000E+00  0.99999998245E-14  0.12500000000E+03  0.12500000000E+03 0.  0.
        -11    1    3    3    0    0  0.21288001294E+02  0.54390744345E+02 -0.19082929355E+02  0.61446645657E+02  0.51100000000E-03 0.  1.
         23    2    1    0    0    0  0.16754460821E+02  0.20726008830E+02 -0.85727240888E+01  0.97004089625E+02  0.92876382392E+02 0.  0.
         11    1    3    3    0    0 -0.45335404729E+01 -0.33664735515E+02  0.10510205266E+02  0.35557443968E+02  0.51100000000E-03 0. -1.
         22    1    1    0    0    0 -0.16754460821E+02 -0.20726008830E+02  0.85727240888E+01  0.27995910375E+02  0.00000000000E+00 0.  1.
</event>
<event>
 5    1  0.1681104E-003  0.9118800E+02  0.7818608E-02  0.1130116E+00
         25   -1    0    0    0    0  0.00000000000E+00  0.00000000000E+00  0.99999998245E-14  0.12500000000E+03  0.12500000000E+03 0.  0.
        -11    1    3    3    0    0  0.19485007078E+02 -0.41631484608E+02 -0.99562475959E+01  0.47031615727E+02  0.51100000000E-03 0.  1.
         23    2    1    0    0    0 -0.10431252271E+02 -0.67935229989E+01 -0.26404046013E+02  0.95808620715E+02  0.91253247497E+02 0.  0.
         11    1    3    3    0    0 -0.29916259350E+02  0.34837961609E+02 -0.16447798417E+02  0.48777004988E+02  0.51100000000E-03 0. -1.
         22    1    1    0    0    0  0.10431252271E+02  0.67935229989E+01  0.26404046013E+02  0.29191379285E+02  0.00000000000E+00 0.  1.
</event>
<event>
 5    1  0.1681104E-003  0.9118800E+02  0.7818608E-02  0.1130116E+00
         25   -1    0    0    0    0  0.00000000000E+00  0.00000000000E+00  0.99999998245E-14  0.12500000000E+03  0.12500000000E+03 0.  0.
        -11    1    3    3    0    0  0.25730580754E+02 -0.12692526112E+02 -0.53004397494E+02  0.60271296311E+02  0.51100000000E-03 0.  1.
         23    2    1    0    0    0  0.31449095038E+01 -0.14086802575E+02 -0.22874593070E+02  0.97952348148E+02  0.94143969733E+02 0.  0.
         11    1    3    3    0    0 -0.22585671250E+02 -0.13942764630E+01  0.30129804424E+02  0.37681051837E+02  0.51100000000E-03 0. -1.
         22    1    1    0    0    0 -0.31449095038E+01  0.14086802575E+02  0.22874593070E+02  0.27047651852E+02  0.00000000000E+00 0.  1.
</event>
<event>
 5    1  0.1681104E-003  0.9118800E+02  0.7818608E-02  0.1130116E+00
         25   -1    0    0    0    0  0.00000000000E+00  0.00000000000E+00  0.99999998245E-14  0.12500000000E+03  0.12500000000E+03 0.  0.
        -11    1    3    3    0    0  0.10647260393E+02  0.30798871025E+02 -0.64742289184E+01  0.33224241912E+02  0.51100000000E-03 0.  1.
         23    2    1    0    0    0 -0.20442366375E+02 -0.16234263615E+02  0.16514104502E+02  0.94110563203E+02  0.88896798597E+02 0.  0.
         11    1    3    3    0    0 -0.31089626768E+02 -0.47033134640E+02  0.22988333420E+02  0.60886321291E+02  0.51100000000E-03 0. -1.
         22    1    1    0    0    0  0.20442366375E+02  0.16234263615E+02 -0.16514104502E+02  0.30889436797E+02  0.00000000000E+00 0. -1.
</event>
<event>
 5    1  0.1681104E-003  0.9118800E+02  0.7818608E-02  0.1130116E+00
         25   -1    0    0    0    0  0.00000000000E+00  0.00000000000E+00  0.99999998245E-14  0.12500000000E+03  0.12500000000E+03 0.  0.
        -11    1    3    3    0    0  0.16442553013E+02 -0.21050528652E+02 -0.27273489136E+02  0.38174933084E+02  0.51100000000E-03 0. -1.
         23    2    1    0    0    0  0.15977229266E+02  0.47168963876E+01  0.24130561428E+02  0.95677568972E+02  0.91073554026E+02 0.  0.
         11    1    3    3    0    0 -0.46532374666E+00  0.25767425039E+02  0.51404050564E+02  0.57502635888E+02  0.51100000000E-03 0.  1.
         22    1    1    0    0    0 -0.15977229266E+02 -0.47168963876E+01 -0.24130561428E+02  0.29322431028E+02  0.00000000000E+00 0.  1.
</event>
<event>
 5    1  0.1681104E-003  0.9118800E+02  0.7818608E-02  0.1130116E+00
         25   -1    0    0    0    0  0.00000000000E+00  0.00000000000E+00  0.99999998245E-14  0.12500000000E+03  0.12500000000E+03 0.  0.
        -11    1    3    3    0    0  0.65715132588E+00  0.57143318275E+02 -0.24573833902E+02  0.62206623315E+02  0.51100000000E-03 0.  1.
         23    2    1    0    0    0 -0.38343367874E+01  0.27045433940E+02 -0.10485304140E+02  0.95740826422E+02  0.91160334606E+02 0.  0.
         11    1    3    3    0    0 -0.44914881133E+01 -0.30097884335E+02  0.14088529762E+02  0.33534203107E+02  0.51100000000E-03 0. -1.
         22    1    1    0    0    0  0.38343367874E+01 -0.27045433940E+02  0.10485304140E+02  0.29259173578E+02  0.00000000000E+00 0.  1.
</event>
<event>
 5    1  0.1681104E-003  0.9118800E+02  0.7818608E-02  0.1130116E+00
         25   -1    0    0    0    0  0.00000000000E+00  0.00000000000E+00  0.99999998245E-14  0.12500000000E+03  0.12500000000E+03 0.  0.
        -11    1    3    3    0    0 -0.21977135329E+02  0.31719385973E+02 -0.46313594595E+02  0.60283189767E+02  0.51100000000E-03 0.  1.
         23    2    1    0    0    0 -0.11936205440E+02  0.57115142990E+01 -0.29060167553E+02  0.93069016080E+02  0.87419986387E+02 0.  0.
         11    1    3    3    0    0  0.10040929889E+02 -0.26007871674E+02  0.17253427042E+02  0.32785826313E+02  0.51100000000E-03 0. -1.
         22    1    1    0    0    0  0.11936205440E+02 -0.57115142990E+01  0.29060167553E+02  0.31930983920E+02  0.00000000000E+00 0.  1.
</event>
<event>
 5    1  0.1681104E-003  0.9118800E+02  0.7818608E-02  0.1130116E+00
         25   -1    0    0    0    0  0.00000000000E+00  0.00000000000E+00  0.99999998245E-14  0.12500000000E+03  0.12500000000E+03 0.  0.
        -11    1    3    3    0    0  0.22198960679E+02 -0.45174223718E+02 -0.25410067018E+02  0.56384180848E+02  0.51100000000E-03 0. -1.
         23    2    1    0    0    0  0.19805048214E+02 -0.61464400474E+01 -0.20583138659E+02  0.95782124357E+02  0.91216945187E+02 0.  0.
         11    1    3    3    0    0 -0.23939124652E+01  0.39027783670E+02  0.48269283588E+01  0.39397943509E+02  0.51100000000E-03 0.  1.
         22    1    1    0    0    0 -0.19805048214E+02  0.61464400474E+01  0.20583138659E+02  0.29217875643E+02  0.00000000000E+00 0. -1.
</event>
<event>
 5    1  0.1681104E-003  0.9118800E+02  0.7818608E-02  0.1130116E+00
         25   -1    0    0    0    0  0.00000000000E+00  0.00000000000E+00  0.99999998245E-14  0.12500000000E+03  0.12500000000E+03 0.  0.
        -11    1    3    3    0    0 -0.43464632880E+02 -0.44597836636E+01  0.40871865802E+01  0.43883585497E+02  0.51100000000E-03 0.  1.
         23    2    1    0    0    0  0.39702384255E+01 -0.15233384986E+02  0.23879001807E+02  0.96398854243E+02  0.92058207460E+02 0.  0.
         11    1    3    3    0    0  0.47434871305E+02 -0.10773601323E+02  0.19791815227E+02  0.52515268746E+02  0.51100000000E-03 0. -1.
         22    1    1    0    0    0 -0.39702384255E+01  0.15233384986E+02 -0.23879001807E+02  0.28601145757E+02  0.00000000000E+00 0. -1.
</event>
<event>
 5    1  0.1681104E-003  0.9118800E+02  0.7818608E-02  0.1130116E+00
         25   -1    0    0    0    0  0.00000000000E+00  0.00000000000E+00  0.99999998245E-14  0.12500000000E+03  0.12500000000E+03 0.  0.
        -11    1    3    3    0    0 -0.45890354144E+02 -0.34336377725E+02 -0.16193829556E+02  0.59557968020E+02  0.51100000000E-03 0.  1.
         23    2    1    0    0    0 -0.10964940832E+02 -0.24747355558E+02 -0.49297734165E+01  0.97487017601E+02  0.93524084600E+02 0.  0.
         11    1    3    3    0    0  0.34925413312E+02  0.95890221675E+01  0.11264056139E+02  0.37929049581E+02  0.51100000000E-03 0. -1.
         22    1    1    0    0    0  0.10964940832E+02  0.24747355558E+02  0.49297734165E+01  0.27512982399E+02  0.00000000000E+00 0.  1.
</event>
<event>
 5    1  0.1681104E-003  0.9118800E+02  0.7818608E-02  0.1130116E+00
         25   -1    0    0    0    0  0.00000000000E+00  0.00000000000E+00  0.99999998245E-14  0.12500000000E+03  0.12500000000E+03 0.  0.
        -11    1    3    3    0    0 -0.52255128621E+02  0.26430037363E+01  0.28563045566E+02  0.59610666061E+02  0.51100000000E-03 0.  1.
         23    2    1    0    0    0 -0.16168130968E+02  0.57233489803E+01  0.23085198353E+02  0.96240800332E+02  0.91843345339E+02 0.  0.
         11    1    3    3    0    0  0.36086997652E+02  0.30803452440E+01 -0.54778472138E+01  0.36630134271E+02  0.51100000000E-03 0. -1.
         22    1    1    0    0    0  0.16168130968E+02 -0.57233489803E+01 -0.23085198353E+02  0.28759199668E+02  0.00000000000E+00 0.  1.
</event>
<event>
 5    1  0.1681104E-003  0.9118800E+02  0.7818608E-02  0.1130116E+00
         25   -1    0    0    0    0  0.00000000000E+00  0.00000000000E+00  0.99999998245E-14  0.12500000000E+03  0.12500000000E+03 0.  0.
        -11    1    3    3    0    0  0.41296374989E+02 -0.34447103930E+02  0.25128204060E+02  0.59358404594E+02  0.51100000000E-03 0. -1.
         23    2    1    0    0    0  0.17799149765E+02 -0.24313076363E+02  0.51513967240E+00  0.94863630221E+02  0.89949472234E+02 0.  0.
         11    1    3    3    0    0 -0.23497225224E+02  0.10134027567E+02 -0.24613064388E+02  0.35505225626E+02  0.51100000000E-03 0.  1.
         22    1    1    0    0    0 -0.17799149765E+02  0.24313076363E+02 -0.51513967240E+00  0.30136369779E+02  0.00000000000E+00 0. -1.
</event>
<event>
 5    1  0.1681104E-003  0.9118800E+02  0.7818608E-02  0.1130116E+00
         25   -1    0    0    0    0  0.00000000000E+00  0.00000000000E+00  0.99999998245E-14  0.12500000000E+03  0.12500000000E+03 0.  0.
        -11    1    3    3    0    0  0.35759783905E+02 -0.86006567452E+01 -0.89260189627E+01  0.37847156513E+02  0.51100000000E-03 0. -1.
         23    2    1    0    0    0 -0.20210433421E+02 -0.20421045475E+02 -0.84429648520E+01  0.95053975676E+02  0.90213601629E+02 0.  0.
         11    1    3    3    0    0 -0.55970217325E+02 -0.11820388729E+02  0.48305411065E+00  0.57206819163E+02  0.51100000000E-03 0.  1.
         22    1    1    0    0    0  0.20210433421E+02  0.20421045475E+02  0.84429648520E+01  0.29946024324E+02  0.00000000000E+00 0.  1.
</event>
<event>
 5    1  0.1681104E-003  0.9118800E+02  0.7818608E-02  0.1130116E+00
         25   -1    0    0    0    0  0.00000000000E+00  0.00000000000E+00  0.99999998245E-14  0.12500000000E+03  0.12500000000E+03 0.  0.
        -11    1    3    3    0    0 -0.16110096913E+02 -0.21943095925E+02  0.41980112460E+02  0.50033633925E+02  0.51100000000E-03 0.  1.
         23    2    1    0    0    0 -0.27775856905E+00  0.16226826032E+02  0.26023626429E+02  0.94330533663E+02  0.89205568300E+02 0.  0.
         11    1    3    3    0    0  0.15832338344E+02  0.38169921957E+02 -0.15956486031E+02  0.44296899737E+02  0.51100000000E-03 0. -1.
         22    1    1    0    0    0  0.27775856905E+00 -0.16226826032E+02 -0.26023626429E+02  0.30669466337E+02  0.00000000000E+00 0. -1.
</event>
<event>
 5    1  0.1681104E-003  0.9118800E+02  0.7818608E-02  0.1130116E+00
         25   -1    0    0    0    0  0.00000000000E+00  0.00000000000E+00  0.99999998245E-14  0.12500000000E+03  0.12500000000E+03 0.  0.
        -11    1    3    3    0    0 -0.10687335308E+02  0.45200392090E+02 -0.15651278406E+02  0.49012825843E+02  0.51100000000E-03 0.  1.
         23    2    1    0    0    0  0.23700471624E+02  0.20800897556E+02 -0.17205511921E+01  0.93419151520E+02  0.87919212234E+02 0.  0.
         11    1    3    3    0    0  0.34387806932E+02 -0.24399494535E+02  0.13930727213E+02  0.44406325677E+02  0.51100000000E-03 0. -1.
         22    1    1    0    0    0 -0.23700471624E+02 -0.20800897556E+02  0.17205511921E+01  0.31580848480E+02  0.00000000000E+00 0. -1.
</event>
<event>
 5    1  0.1681104E-003  0.9118800E+02  0.7818608E-02  0.1130116E+00
         25   -1    0    0    0    0  0.00000000000E+00  0.00000000000E+00  0.99999998245E-14  0.12500000000E+03  0.12500000000E+03 0.  0.
        -11    1    3    3    0    0  0.20979978224E+02  0.18860942245E+02  0.19087214950E+02  0.34061949495E+02  0.51100000000E-03 0. -1.
         23    2    1    0    0    0  0.78493672625E+01 -0.18347756022E+02 -0.24858391521E+02  0.93122228019E+02  0.87496039937E+02 0.  0.
         11    1    3    3    0    0 -0.13130610961E+02 -0.37208698267E+02 -0.43945606471E+02  0.59060278523E+02  0.51100000000E-03 0.  1.
         22    1    1    0    0    0 -0.78493672625E+01  0.18347756022E+02  0.24858391521E+02  0.31877771981E+02  0.00000000000E+00 0.  1.
</event>
<event>
 5    1  0.1681104E-003  0.9118800E+02  0.7818608E-02  0.1130116E+00
         25   -1    0    0    0    0  0.00000000000E+00  0.00000000000E+00  0.99999998245E-14  0.12500000000E+03  0.12500000000E+03 0.  0.
        -11    1    3    3    0    0  0.91132697530E+01  0.33305633630E+02 -0.20526386489E+02  0.40170255907E+02  0.51100000000E-03 0.  1.
         23    2    1    0    0    0 -0.73621138344E+01  0.10937373675E+02  0.26848032551E+02  0.95089404639E+02  0.90262678664E+02 0.  0.
         11    1    3    3    0    0 -0.16475383587E+02 -0.22368259955E+02  0.47374419040E+02  0.54919148732E+02  0.51100000000E-03 0. -1.
         22    1    1    0    0    0  0.73621138344E+01 -0.10937373675E+02 -0.26848032551E+02  0.29910595361E+02  0.00000000000E+00 0.  1.
</event>
<event>
 5    1  0.1681104E-003  0.9118800E+02  0.7818608E-02  0.1130116E+00
         25   -1    0    0    0    0  0.00000000000E+00  0.00000000000E+00  0.99999998245E-14  0.12500000000E+03  0.12500000000E+03 0.  0.
        -11    1    3    3    0    0 -0.54863361364E+02 -0.25765415602E+01  0.22239778632E+02  0.59255672644E+02  0.51100000000E-03 0.  1.
         23    2    1    0    0    0 -0.20987207510E+02  0.10894299166E+02  0.16512053654E+02  0.96159116705E+02  0.91732105482E+02 0.  0.
         11    1    3    3    0    0  0.33876153855E+02  0.13470840726E+02 -0.57277249780E+01  0.36903444061E+02  0.51100000000E-03 0. -1.
         22    1    1    0    0    0  0.20987207510E+02 -0.10894299166E+02 -0.16512053654E+02  0.28840883295E+02  0.00000000000E+00 0.  1.
</event>
<event>
 5    1  0.1681104E-003  0.9118800E+02  0.7818608E-02  0.1130116E+00
         25   -1    0    0    0    0  0.00000000000E+00  0.00000000000E+00  0.99999998245E-14  0.12500000000E+03  0.12500000000E+03 0.  0.
        -11    1    3    3    0    0 -0.22374773728E+02 -0.42818481404E+02 -0.25499475773E+02  0.54628528390E+02  0.51100000000E-03 0.  1.
         23    2    1    0    0    0 -0.26730245076E+02 -0.46638243225E+01 -0.11947927735E+02  0.95351893209E+02  0.90625456150E+02 0.  0.
         11    1    3    3    0    0 -0.43554713474E+01  0.38154657082E+02  0.13551548038E+02  0.40723364819E+02  0.51100000000E-03 0. -1.
         22    1    1    0    0    0  0.26730245076E+02  0.46638243225E+01  0.11947927735E+02  0.29648106791E+02  0.00000000000E+00 0.  1.
</event>
<event>
 5    1  0.1681104E-003  0.9118800E+02  0.7818608E-02  0.1130116E+00
         25   -1    0    0    0    0  0.00000000000E+00  0.00000000000E+00  0.99999998245E-14  0.12500000000E+03  0.12500000000E+03 0.  0.
        -11    1    3    3    0    0  0.39861604062E+02  0.21485152423E+02 -0.36065856527E+02  0.57890459148E+02  0.51100000000E-03 0. -1.
         23    2    1    0    0    0  0.25596172882E+02 -0.41011507648E+01 -0.96395771034E+01  0.97343084942E+02  0.93331512553E+02 0.  0.
         11    1    3    3    0    0 -0.14265431180E+02 -0.25586303188E+02  0.26426279424E+02  0.39452625794E+02  0.51100000000E-03 0.  1.
         22    1    1    0    0    0 -0.25596172882E+02  0.41011507648E+01  0.96395771034E+01  0.27656915058E+02  0.00000000000E+00 0. -1.
</event>
<event>
 5    1  0.1681104E-003  0.9118800E+02  0.7818608E-02  0.1130116E+00
         25   -1    0    0    0    0  0.00000000000E+00  0.00000000000E+00  0.99999998245E-14  0.12500000000E+03  0.12500000000E+03 0.  0.
        -11    1    3    3    0    0  0.14703667235E+02 -0.76556186300E+01 -0.50620217037E+02  0.53265492581E+02  0.51100000000E-03 0.  1.
         23    2    1    0    0    0  0.21720260663E+02  0.12753649732E+02 -0.12954439716E+02  0.96676108793E+02  0.92433907189E+02 0.  0.
         11    1    3    3    0    0  0.70165934290E+01  0.20409268362E+02  0.37665777321E+02  0.43410616212E+02  0.51100000000E-03 0. -1.
         22    1    1    0    0    0 -0.21720260663E+02 -0.12753649732E+02  0.12954439716E+02  0.28323891207E+02  0.00000000000E+00 0.  1.
</event>
<event>
 5    1  0.1681104E-003  0.9118800E+02  0.7818608E-02  0.1130116E+00
         25   -1    0    0    0    0  0.00000000000E+00  0.00000000000E+00  0.99999998245E-14  0.12500000000E+03  0.12500000000E+03 0.  0.
        -11    1    3    3    0    0 -0.11198663007E+01 -0.12819807434E+02 -0.50211861410E+02  0.51834665907E+02  0.51100000000E-03 0.  1.
         23    2    1    0    0    0  0.38746672763E+01 -0.26017942830E+02 -0.63098162463E+01  0.97948933909E+02  0.94139436355E+02 0.  0.
         11    1    3    3    0    0  0.49945335770E+01 -0.13198135396E+02  0.43902045163E+02  0.46114268002E+02  0.51100000000E-03 0. -1.
         22    1    1    0    0    0 -0.38746672763E+01  0.26017942830E+02  0.63098162463E+01  0.27051066091E+02  0.00000000000E+00 0. -1.
</event>
<event>
 5    1  0.1681104E-003  0.9118800E+02  0.7818608E-02  0.1130116E+00
         25   -1    0    0    0    0  0.00000000000E+00  0.00000000000E+00  0.99999998245E-14  0.12500000000E+03  0.12500000000E+03 0.  0.
        -11    1    3    3    0    0 -0.30227352214E+02  0.48136661884E+02 -0.34656894862E+01  0.56945957214E+02  0.51100000000E-03 0. -1.
         23    2    1    0    0    0 -0.89418668161E+01  0.23815889682E+02  0.16258495258E+02  0.94809070044E+02  0.89873619662E+02 0.  0.
         11    1    3    3    0    0  0.21285485398E+02 -0.24320772201E+02  0.19724184745E+02  0.37863112830E+02  0.51100000000E-03 0.  1.
         22    1    1    0    0    0  0.89418668161E+01 -0.23815889682E+02 -0.16258495258E+02  0.30190929956E+02  0.00000000000E+00 0. -1.
</event>
<event>
 5    1  0.1681104E-003  0.9118800E+02  0.7818608E-02  0.1130116E+00
         25   -1    0    0    0    0  0.00000000000E+00  0.00000000000E+00  0.99999998245E-14  0.12500000000E+03  0.12500000000E+03 0.  0.
        -11    1    3    3    0    0  0.48147923513E+02 -0.13053611480E+02  0.41883263223E+01  0.50061575973E+02  0.51100000000E-03 0. -1.
         23    2    1    0    0    0  0.18772361519E+02  0.21821464081E+02 -0.23188111649E+01  0.96121725522E+02  0.91681139720E+02 0.  0.
         11    1    3    3    0    0 -0.29375561995E+02  0.34875075561E+02 -0.65071374872E+01  0.46060149548E+02  0.51100000000E-03 0.  1.
         22    1    1    0    0    0 -0.18772361519E+02 -0.21821464081E+02  0.23188111649E+01  0.28878274478E+02  0.00000000000E+00 0. -1.
</event>
<event>
 5    1  0.1681104E-003  0.9118800E+02  0.7818608E-02  0.1130116E+00
         25   -1    0    0    0    0  0.00000000000E+00  0.00000000000E+00  0.99999998245E-14  0.12500000000E+03  0.12500000000E+03 0.  0.
        -11    1    3    3    0    0 -0.38408869381E+02  0.21114016657E+02  0.81391574990E+01  0.44579017839E+02  0.51100000000E-03 0. -1.
         23    2    1    0    0    0 -0.13839157176E+02 -0.24274282151E+02  0.69595067869E+01  0.96204205515E+02  0.91793525800E+02 0.  0.
         11    1    3    3    0    0  0.24569712204E+02 -0.45388298808E+02 -0.11796507120E+01  0.51625187676E+02  0.51100000000E-03 0.  1.
         22    1    1    0    0    0  0.13839157176E+02  0.24274282151E+02 -0.69595067869E+01  0.28795794485E+02  0.00000000000E+00 0.  1.
</event>
<event>
 5    1  0.1681104E-003  0.9118800E+02  0.7818608E-02  0.1130116E+00
         25   -1    0    0    0    0  0.00000000000E+00  0.00000000000E+00  0.99999998245E-14  0.12500000000E+03  0.12500000000E+03 0.  0.
        -11    1    3    3    0    0  0.17212421436E+02  0.54736510741E+02  0.23985036743E+02  0.62190313133E+02  0.51100000000E-03 0.  1.
         23    2    1    0    0    0  0.72920702033E+01  0.28310565609E+02  0.77388450770E+01  0.94758436943E+02  0.89803169409E+02 0.  0.
         11    1    3    3    0    0 -0.99203512324E+01 -0.26425945131E+02 -0.16246191666E+02  0.32568123811E+02  0.51100000000E-03 0. -1.
         22    1    1    0    0    0 -0.72920702033E+01 -0.28310565609E+02 -0.77388450770E+01  0.30241563057E+02  0.00000000000E+00 0.  1.
</event>
<event>
 5    1  0.1681104E-003  0.9118800E+02  0.7818608E-02  0.1130116E+00
         25   -1    0    0    0    0  0.00000000000E+00  0.00000000000E+00  0.99999998245E-14  0.12500000000E+03  0.12500000000E+03 0.  0.
        -11    1    3    3    0    0 -0.45295438353E+02 -0.28594926539E+01 -0.89481029428E+01  0.46259290747E+02  0.51100000000E-03 0. -1.
         23    2    1    0    0    0 -0.10022304508E+02  0.10251549722E+02  0.24504432924E+02  0.96609718348E+02  0.92344082577E+02 0.  0.
         11    1    3    3    0    0  0.35273133845E+02  0.13111042376E+02  0.33452535867E+02  0.50350427601E+02  0.51100000000E-03 0.  1.
         22    1    1    0    0    0  0.10022304508E+02 -0.10251549722E+02 -0.24504432924E+02  0.28390281652E+02  0.00000000000E+00 0.  1.
</event>
<event>
 5    1  0.1681104E-003  0.9118800E+02  0.7818608E-02  0.1130116E+00
         25   -1    0    0    0    0  0.00000000000E+00  0.00000000000E+00  0.99999998245E-14  0.12500000000E+03  0.12500000000E+03 0.  0.
        -11    1    3    3    0    0 -0.28915716381E+02  0.16429573577E+02 -0.24544696562E+02  0.41333904622E+02  0.51100000000E-03 0. -1.
         23    2    1    0    0    0 -0.83969932365E+01 -0.26163621914E+02  0.49810780792E+01  0.97074102595E+02  0.92970563345E+02 0.  0.
         11    1    3    3    0    0  0.20518723144E+02 -0.42593195490E+02  0.29525774642E+02  0.55740197972E+02  0.51100000000E-03 0.  1.
         22    1    1    0    0    0  0.83969932365E+01  0.26163621914E+02 -0.49810780792E+01  0.27925897405E+02  0.00000000000E+00 0.  1.
</event>
<event>
 5    1  0.1681104E-003  0.9118800E+02  0.7818608E-02  0.1130116E+00
         25   -1    0    0    0    0  0.00000000000E+00  0.00000000000E+00  0.99999998245E-14  0.12500000000E+03  0.12500000000E+03 0.  0.
        -11    1    3    3    0    0 -0.33458811333E+02 -0.20579038304E+02 -0.46759768235E+02  0.61069344183E+02  0.51100000000E-03 0.  1.
         23    2    1    0    0    0 -0.61091209649E+01  0.35321291578E+01 -0.90642695179E+01  0.11351269060E+03  0.11292994576E+03 0.  0.
         11    1    3    3    0    0  0.27349690368E+02  0.24111167462E+02  0.37695498717E+02  0.52443346417E+02  0.51100000000E-03 0. -1.
         22    1    1    0    0    0  0.61091209649E+01 -0.35321291578E+01  0.90642695179E+01  0.11487309400E+02  0.00000000000E+00 0.  1.
</event>
<event>
 5    1  0.1681104E-003  0.9118800E+02  0.7818608E-02  0.1130116E+00
         25   -1    0    0    0    0  0.00000000000E+00  0.00000000000E+00  0.99999998245E-14  0.12500000000E+03  0.12500000000E+03 0.  0.
        -11    1    3    3    0    0  0.32178533678E+02  0.12579440627E+02 -0.23644897519E+02  0.41866233830E+02  0.51100000000E-03 0. -1.
         23    2    1    0    0    0  0.81188524733E+01  0.16881391183E+02  0.23486543874E+02  0.94958114625E+02  0.90080678595E+02 0.  0.
         11    1    3    3    0    0 -0.24059681205E+02  0.43019505564E+01  0.47131441393E+02  0.53091880795E+02  0.51100000000E-03 0.  1.
         22    1    1    0    0    0 -0.81188524733E+01 -0.16881391183E+02 -0.23486543874E+02  0.30041885375E+02  0.00000000000E+00 0.  1.
</event>
<event>
 5    1  0.1681104E-003  0.9118800E+02  0.7818608E-02  0.1130116E+00
         25   -1    0    0    0    0  0.00000000000E+00  0.00000000000E+00  0.99999998245E-14  0.12500000000E+03  0.12500000000E+03 0.  0.
        -11    1    3    3    0    0 -0.23702274797E+02  0.45898440805E+02 -0.32287015843E+02  0.60917288934E+02  0.51100000000E-03 0. -1.
         23    2    1    0    0    0 -0.86983943761E+01  0.15723801758E+02 -0.22884763991E+02  0.95903394883E+02  0.91382978287E+02 0.  0.
         11    1    3    3    0    0  0.15003880421E+02 -0.30174639047E+02  0.94022518518E+01  0.34986105948E+02  0.51100000000E-03 0.  1.
         22    1    1    0    0    0  0.86983943761E+01 -0.15723801758E+02  0.22884763991E+02  0.29096605117E+02  0.00000000000E+00 0. -1.
</event>
<event>
 5    1  0.1681104E-003  0.9118800E+02  0.7818608E-02  0.1130116E+00
         25   -1    0    0    0    0  0.00000000000E+00  0.00000000000E+00  0.99999998245E-14  0.12500000000E+03  0.12500000000E+03 0.  0.
        -11    1    3    3    0    0 -0.13684502642E+02 -0.27166523469E+02  0.45114005789E+02  0.54411020286E+02  0.51100000000E-03 0.  1.
         23    2    1    0    0    0 -0.25673617298E+02 -0.68397515002E+01  0.10226066207E+02  0.96530907007E+02  0.92237339250E+02 0.  0.
         11    1    3    3    0    0 -0.11989114656E+02  0.20326771969E+02 -0.34887939582E+02  0.42119886722E+02  0.51100000000E-03 0. -1.
         22    1    1    0    0    0  0.25673617298E+02  0.68397515002E+01 -0.10226066207E+02  0.28469092993E+02  0.00000000000E+00 0.  1.
</event>
<event>
 5    1  0.1681104E-003  0.9118800E+02  0.7818608E-02  0.1130116E+00
         25   -1    0    0    0    0  0.00000000000E+00  0.00000000000E+00  0.99999998245E-14  0.12500000000E+03  0.12500000000E+03 0.  0.
        -11    1    3    3    0    0  0.41561949312E+02  0.11774759202E+02  0.59761948790E+01  0.43609121642E+02  0.51100000000E-03 0. -1.
         23    2    1    0    0    0 -0.60683552046E+01  0.74529011683E+01  0.27362263343E+02  0.95998894401E+02  0.91513515944E+02 0.  0.
         11    1    3    3    0    0 -0.47630304517E+02 -0.43218580335E+01  0.21386068464E+02  0.52389772760E+02  0.51100000000E-03 0.  1.
         22    1    1    0    0    0  0.60683552046E+01 -0.74529011683E+01 -0.27362263343E+02  0.29001105599E+02  0.00000000000E+00 0.  1.
</event>
<event>
 5    1  0.1681104E-003  0.9118800E+02  0.7818608E-02  0.1130116E+00
         25   -1    0    0    0    0  0.00000000000E+00  0.00000000000E+00  0.99999998245E-14  0.12500000000E+03  0.12500000000E+03 0.  0.
        -11    1    3    3    0    0 -0.32543490777E+02  0.30697178220E+02  0.39898042381E+02  0.59943718008E+02  0.51100000000E-03 0. -1.
         23    2    1    0    0    0 -0.22969415404E+02  0.45088832493E+01  0.20175689607E+02  0.94097208487E+02  0.88878018214E+02 0.  0.
         11    1    3    3    0    0  0.95740753721E+01 -0.26188294970E+02 -0.19722352774E+02  0.34153490479E+02  0.51100000000E-03 0.  1.
         22    1    1    0    0    0  0.22969415404E+02 -0.45088832493E+01 -0.20175689607E+02  0.30902791513E+02  0.00000000000E+00 0. -1.
</event>
<event>
 5    1  0.1681104E-003  0.9118800E+02  0.7818608E-02  0.1130116E+00
         25   -1    0    0    0    0  0.00000000000E+00  0.00000000000E+00  0.99999998245E-14  0.12500000000E+03  0.12500000000E+03 0.  0.
        -11    1    3    3    0    0 -0.40628036205E+02  0.22662682556E+02 -0.21756379351E+02  0.51357322255E+02  0.51100000000E-03 0. -1.
         23    2    1    0    0    0 -0.11573642615E+02 -0.90939896441E+01 -0.26526785710E+02  0.94663220158E+02  0.89670536073E+02 0.  0.
         11    1    3    3    0    0  0.29054393589E+02 -0.31756672201E+02 -0.47704063589E+01  0.43305897903E+02  0.51100000000E-03 0.  1.
         22    1    1    0    0    0  0.11573642615E+02  0.90939896441E+01  0.26526785710E+02  0.30336779842E+02  0.00000000000E+00 0.  1.
</event>
<event>
 5    1  0.1681104E-003  0.9118800E+02  0.7818608E-02  0.1130116E+00
         25   -1    0    0    0    0  0.00000000000E+00  0.00000000000E+00  0.99999998245E-14  0.12500000000E+03  0.12500000000E+03 0.  0.
        -11    1    3    3    0    0 -0.39974441701E+02  0.10954330490E+02  0.31146150461E+01  0.41565059520E+02  0.51100000000E-03 0.  1.
         23    2    1    0    0    0 -0.37556105196E+00 -0.17063199032E+02  0.24957816758E+02  0.94764484052E+02  0.89811586184E+02 0.  0.
         11    1    3    3    0    0  0.39598880649E+02 -0.28017529522E+02  0.21843201712E+02  0.53199424531E+02  0.51100000000E-03 0. -1.
         22    1    1    0    0    0  0.37556105196E+00  0.17063199032E+02 -0.24957816758E+02  0.30235515948E+02  0.00000000000E+00 0. -1.
</event>
<event>
 5    1  0.1681104E-003  0.9118800E+02  0.7818608E-02  0.1130116E+00
         25   -1    0    0    0    0  0.00000000000E+00  0.00000000000E+00  0.99999998245E-14  0.12500000000E+03  0.12500000000E+03 0.  0.
        -11    1    3    3    0    0 -0.24456709690E+02 -0.16859646918E+02  0.23257002383E+02  0.37726204463E+02  0.51100000000E-03 0. -1.
         23    2    1    0    0    0  0.41774658089E+01 -0.11704569003E+02 -0.26706487508E+02  0.95543512919E+02  0.90889373580E+02 0.  0.
         11    1    3    3    0    0  0.28634175499E+02  0.51550779149E+01 -0.49963489891E+02  0.57817308457E+02  0.51100000000E-03 0.  1.
         22    1    1    0    0    0 -0.41774658089E+01  0.11704569003E+02  0.26706487508E+02  0.29456487081E+02  0.00000000000E+00 0.  1.
</event>
<event>
 5    1  0.1681104E-003  0.9118800E+02  0.7818608E-02  0.1130116E+00
         25   -1    0    0    0    0  0.00000000000E+00  0.00000000000E+00  0.99999998245E-14  0.12500000000E+03  0.12500000000E+03 0.  0.
        -11    1    3    3    0    0 -0.12848344540E+02  0.49491030280E+02 -0.28956102770E+02  0.58761364207E+02  0.51100000000E-03 0. -1.
         23    2    1    0    0    0 -0.26759422594E+01  0.29288328821E+02  0.10733758618E+00  0.95589484985E+02  0.90952576908E+02 0.  0.
         11    1    3    3    0    0  0.10172402281E+02 -0.20202701460E+02  0.29063440356E+02  0.36828120778E+02  0.51100000000E-03 0.  1.
         22    1    1    0    0    0  0.26759422594E+01 -0.29288328821E+02 -0.10733758618E+00  0.29410515015E+02  0.00000000000E+00 0. -1.
</event>
<event>
 5    1  0.1681104E-003  0.9118800E+02  0.7818608E-02  0.1130116E+00
         25   -1    0    0    0    0  0.00000000000E+00  0.00000000000E+00  0.99999998245E-14  0.12500000000E+03  0.12500000000E+03 0.  0.
        -11    1    3    3    0    0 -0.24537083064E+02 -0.50926228965E+02  0.22608051822E+02  0.60882454364E+02  0.51100000000E-03 0.  1.
         23    2    1    0    0    0 -0.16592148336E+02 -0.17376636187E+02  0.16389559663E+02  0.95916249597E+02  0.91400560169E+02 0.  0.
         11    1    3    3    0    0  0.79449347278E+01  0.33549592778E+02 -0.62184921595E+01  0.35033795233E+02  0.51100000000E-03 0. -1.
         22    1    1    0    0    0  0.16592148336E+02  0.17376636187E+02 -0.16389559663E+02  0.29083750403E+02  0.00000000000E+00 0.  1.
</event>
<event>
 5    1  0.1681104E-003  0.9118800E+02  0.7818608E-02  0.1130116E+00
         25   -1    0    0    0    0  0.00000000000E+00  0.00000000000E+00  0.99999998245E-14  0.12500000000E+03  0.12500000000E+03 0.  0.
        -11    1    3    3    0    0  0.50012898457E+02  0.38346588133E+01  0.18285061002E+02  0.53388557542E+02  0.51100000000E-03 0.  1.
         23    2    1    0    0    0  0.14188183350E+02  0.24145099573E+02  0.87513581365E+01  0.95659300461E+02  0.91048476732E+02 0.  0.
         11    1    3    3    0    0 -0.35824715107E+02  0.20310440760E+02 -0.95337028657E+01  0.42270742919E+02  0.51100000000E-03 0. -1.
         22    1    1    0    0    0 -0.14188183350E+02 -0.24145099573E+02 -0.87513581365E+01  0.29340699539E+02  0.00000000000E+00 0.  1.
</event>
<event>
 5    1  0.1681104E-003  0.9118800E+02  0.7818608E-02  0.1130116E+00
         25   -1    0    0    0    0  0.00000000000E+00  0.00000000000E+00  0.99999998245E-14  0.12500000000E+03  0.12500000000E+03 0.  0.
        -11    1    3    3    0    0  0.31834431288E+02  0.26244555165E+02 -0.11352184818E+02  0.42791118140E+02  0.51100000000E-03 0. -1.
         23    2    1    0    0    0  0.14580172400E+02 -0.23943259351E+02 -0.48870002047E+00  0.96962526446E+02  0.92820426694E+02 0.  0.
         11    1    3    3    0    0 -0.17254258888E+02 -0.50187814516E+02  0.10863484798E+02  0.54171408307E+02  0.51100000000E-03 0.  1.
         22    1    1    0    0    0 -0.14580172400E+02  0.23943259351E+02  0.48870002047E+00  0.28037473554E+02  0.00000000000E+00 0.  1.
</event>
<event>
 5    1  0.1681104E-003  0.9118800E+02  0.7818608E-02  0.1130116E+00
         25   -1    0    0    0    0  0.00000000000E+00  0.00000000000E+00  0.99999998245E-14  0.12500000000E+03  0.12500000000E+03 0.  0.
        -11    1    3    3    0    0  0.17565967903E+02  0.21034116670E+02  0.35084202127E+01  0.27627998572E+02  0.51100000000E-03 0.  1.
         23    2    1    0    0    0 -0.33484584919E+02 -0.12173572738E+02  0.72399072065E+01  0.88643026023E+02  0.80844025788E+02 0.  0.
         11    1    3    3    0    0 -0.51050552823E+02 -0.33207689408E+02  0.37314869938E+01  0.61015027450E+02  0.51100000000E-03 0. -1.
         22    1    1    0    0    0  0.33484584919E+02  0.12173572738E+02 -0.72399072065E+01  0.36356973977E+02  0.00000000000E+00 0. -1.
</event>
<event>
 5    1  0.1681104E-003  0.9118800E+02  0.7818608E-02  0.1130116E+00
         25   -1    0    0    0    0  0.00000000000E+00  0.00000000000E+00  0.99999998245E-14  0.12500000000E+03  0.12500000000E+03 0.  0.
        -11    1    3    3    0    0 -0.40525941402E+02  0.52551318780E+01  0.13238100810E+02  0.42955973401E+02  0.51100000000E-03 0.  1.
         23    2    1    0    0    0 -0.50522333745E+01 -0.27050674556E+02 -0.92825572419E+01  0.95958134960E+02  0.91457824926E+02 0.  0.
         11    1    3    3    0    0  0.35473708027E+02 -0.32305806434E+02 -0.22520658052E+02  0.53002161559E+02  0.51100000000E-03 0. -1.
         22    1    1    0    0    0  0.50522333745E+01  0.27050674556E+02  0.92825572419E+01  0.29041865040E+02  0.00000000000E+00 0. -1.
</event>
<event>
 5    1  0.1681104E-003  0.9118800E+02  0.7818608E-02  0.1130116E+00
         25   -1    0    0    0    0  0.00000000000E+00  0.00000000000E+00  0.99999998245E-14  0.12500000000E+03  0.12500000000E+03 0.  0.
        -11    1    3    3    0    0 -0.31372042477E+02 -0.80743516755E+01  0.93790977907E+01  0.33724882205E+02  0.51100000000E-03 0.  1.
         23    2    1    0    0    0  0.23337760923E+02 -0.30386252895E+01 -0.18246616794E+02  0.95220420538E+02  0.90443933652E+02 0.  0.
         11    1    3    3    0    0  0.54709803399E+02  0.50357263860E+01 -0.27625714584E+02  0.61495538332E+02  0.51100000000E-03 0. -1.
         22    1    1    0    0    0 -0.23337760923E+02  0.30386252895E+01  0.18246616794E+02  0.29779579462E+02  0.00000000000E+00 0. -1.
</event>
<event>
 5    1  0.1681104E-003  0.9118800E+02  0.7818608E-02  0.1130116E+00
         25   -1    0    0    0    0  0.00000000000E+00  0.00000000000E+00  0.99999998245E-14  0.12500000000E+03  0.12500000000E+03 0.  0.
        -11    1    3    3    0    0  0.31675333511E+02 -0.39254907394E+02  0.34334972452E+02  0.61017742019E+02  0.51100000000E-03 0.  1.
         23    2    1    0    0    0  0.45792101363E+01 -0.10357072971E+02  0.17709889655E+02  0.10397909808E+03  0.10183208983E+03 0.  0.
         11    1    3    3    0    0 -0.27096123374E+02  0.28897834422E+02 -0.16625082797E+02  0.42961356060E+02  0.51100000000E-03 0. -1.
         22    1    1    0    0    0 -0.45792101363E+01  0.10357072971E+02 -0.17709889655E+02  0.21020901921E+02  0.00000000000E+00 0.  1.
</event>
<event>
 5    1  0.1681104E-003  0.9118800E+02  0.7818608E-02  0.1130116E+00
         25   -1    0    0    0    0  0.00000000000E+00  0.00000000000E+00  0.99999998245E-14  0.12500000000E+03  0.12500000000E+03 0.  0.
        -11    1    3    3    0    0  0.32733049911E+02 -0.20680202558E+02  0.31852963585E+02  0.50137158114E+02  0.51100000000E-03 0.  1.
         23    2    1    0    0    0  0.20158722877E+02  0.15156466559E+02 -0.11449518057E+00  0.99778864107E+02  0.96538676326E+02 0.  0.
         11    1    3    3    0    0 -0.12574327034E+02  0.35836669117E+02 -0.31967458766E+02  0.49641705993E+02  0.51100000000E-03 0. -1.
         22    1    1    0    0    0 -0.20158722877E+02 -0.15156466559E+02  0.11449518057E+00  0.25221135893E+02  0.00000000000E+00 0.  1.
</event>
<event>
 4    1  0.1681104E-003  0.9118800E+02  0.7818608E-02  0.1130116E+00
         25   -1    0    0    0    0  0.00000000000E+00  0.00000000000E+00  0.99999998245E-14  0.12500000000E+03  0.12500000000E+03 0.  0.
        -11    1    1    0    0    0 -0.16374380409E+02  0.22651521203E+02 -0.34886944657E+02  0.44702468101E+02  0.51100000000E-03 0. -1.
         11    1    1    0    0    0 -0.14585251845E+02 -0.17297760591E+02 -0.10622742467E+02  0.24995694642E+02  0.51100000000E-03 0.  1.
         22    1    1    0    0    0  0.30959632253E+02 -0.53537606120E+01  0.45509687123E+02  0.55301837257E+02  0.00000000000E+00 0. -1.
</event>
<event>
 5    1  0.1681104E-003  0.9118800E+02  0.7818608E-02  0.1130116E+00
         25   -1    0    0    0    0  0.00000000000E+00  0.00000000000E+00  0.99999998245E-14  0.12500000000E+03  0.12500000000E+03 0.  0.
        -11    1    3    3    0    0  0.88126727517E+01 -0.24499614287E+02 -0.47021372839E+02  0.53748523749E+02  0.51100000000E-03 0.  1.
         23    2    1    0    0    0 -0.12439236602E+02 -0.24440683314E+02 -0.11247098224E+02  0.95359169604E+02  0.90635491950E+02 0.  0.
         11    1    3    3    0    0 -0.21251909354E+02  0.58930972857E-01  0.35774274615E+02  0.41610645855E+02  0.51100000000E-03 0. -1.
         22    1    1    0    0    0  0.12439236602E+02  0.24440683314E+02  0.11247098224E+02  0.29640830396E+02  0.00000000000E+00 0.  1.
</event>
<event>
 5    1  0.1681104E-003  0.9118800E+02  0.7818608E-02  0.1130116E+00
         25   -1    0    0    0    0  0.00000000000E+00  0.00000000000E+00  0.99999998245E-14  0.12500000000E+03  0.12500000000E+03 0.  0.
        -11    1    3    3    0    0 -0.17555076770E+02  0.23725688762E+02  0.24602949227E+02  0.38423874591E+02  0.51100000000E-03 0.  1.
         23    2    1    0    0    0 -0.98855457980E+01 -0.28033001103E+02  0.26811514124E+01  0.95154368168E+02  0.90352598424E+02 0.  0.
         11    1    3    3    0    0  0.76695309720E+01 -0.51758689865E+02 -0.21921797815E+02  0.56730493577E+02  0.51100000000E-03 0. -1.
         22    1    1    0    0    0  0.98855457980E+01  0.28033001103E+02 -0.26811514124E+01  0.29845631832E+02  0.00000000000E+00 0. -1.
</event>
<event>
 5    1  0.1681104E-003  0.9118800E+02  0.7818608E-02  0.1130116E+00
         25   -1    0    0    0    0  0.00000000000E+00  0.00000000000E+00  0.99999998245E-14  0.12500000000E+03  0.12500000000E+03 0.  0.
        -11    1    3    3    0    0 -0.62723159739E+01 -0.68861145930E+01 -0.45198387874E+02  0.46148182939E+02  0.51100000000E-03 0. -1.
         23    2    1    0    0    0 -0.28021656647E+02  0.48905513639E+01 -0.13115407689E+01  0.96524556666E+02  0.92228732868E+02 0.  0.
         11    1    3    3    0    0 -0.21749340673E+02  0.11776665957E+02  0.43886847105E+02  0.50376373727E+02  0.51100000000E-03 0.  1.
         22    1    1    0    0    0  0.28021656647E+02 -0.48905513639E+01  0.13115407689E+01  0.28475443334E+02  0.00000000000E+00 0.  1.
</event>
<event>
 5    1  0.1681104E-003  0.9118800E+02  0.7818608E-02  0.1130116E+00
         25   -1    0    0    0    0  0.00000000000E+00  0.00000000000E+00  0.99999998245E-14  0.12500000000E+03  0.12500000000E+03 0.  0.
        -11    1    3    3    0    0  0.37669494878E+02 -0.15474193666E+02  0.49543100034E+01  0.41024220917E+02  0.51100000000E-03 0. -1.
         23    2    1    0    0    0 -0.10693644784E+00  0.17655675386E+02 -0.20988970458E+02  0.97572437410E+02  0.93638183197E+02 0.  0.
         11    1    3    3    0    0 -0.37776431326E+02  0.33129869053E+02 -0.25943280461E+02  0.56548216493E+02  0.51100000000E-03 0.  1.
         22    1    1    0    0    0  0.10693644784E+00 -0.17655675386E+02  0.20988970458E+02  0.27427562590E+02  0.00000000000E+00 0.  1.
</event>
<event>
 5    1  0.1681104E-003  0.9118800E+02  0.7818608E-02  0.1130116E+00
         25   -1    0    0    0    0  0.00000000000E+00  0.00000000000E+00  0.99999998245E-14  0.12500000000E+03  0.12500000000E+03 0.  0.
        -11    1    3    3    0    0 -0.38039994267E+02  0.13430268001E+02 -0.31297708457E+02  0.51058396149E+02  0.51100000000E-03 0. -1.
         23    2    1    0    0    0 -0.25953320798E+02 -0.11106230405E+02  0.48173443408E+01  0.96362087703E+02  0.92008270963E+02 0.  0.
         11    1    3    3    0    0  0.12086673469E+02 -0.24536498406E+02  0.36115052798E+02  0.45303691554E+02  0.51100000000E-03 0.  1.
         22    1    1    0    0    0  0.25953320798E+02  0.11106230405E+02 -0.48173443408E+01  0.28637912297E+02  0.00000000000E+00 0. -1.
</event>
<event>
 5    1  0.1681104E-003  0.9118800E+02  0.7818608E-02  0.1130116E+00
         25   -1    0    0    0    0  0.00000000000E+00  0.00000000000E+00  0.99999998245E-14  0.12500000000E+03  0.12500000000E+03 0.  0.
        -11    1    3    3    0    0  0.16573782462E+02  0.30401454835E+02  0.51032298082E+02  0.61670367025E+02  0.51100000000E-03 0.  1.
         23    2    1    0    0    0  0.14206757089E+02  0.11037188006E+02  0.24112346244E+02  0.94915839592E+02  0.90021996745E+02 0.  0.
         11    1    3    3    0    0 -0.23670253731E+01 -0.19364266829E+02 -0.26919951838E+02  0.33245472566E+02  0.51100000000E-03 0. -1.
         22    1    1    0    0    0 -0.14206757089E+02 -0.11037188006E+02 -0.24112346244E+02  0.30084160408E+02  0.00000000000E+00 0.  1.
</event>
<event>
 5    1  0.1681104E-003  0.9118800E+02  0.7818608E-02  0.1130116E+00
         25   -1    0    0    0    0  0.00000000000E+00  0.00000000000E+00  0.99999998245E-14  0.12500000000E+03  0.12500000000E+03 0.  0.
        -11    1    3    3    0    0  0.27186921054E+02 -0.22658279346E+02  0.25484444852E+01  0.35482684071E+02  0.51100000000E-03 0. -1.
         23    2    1    0    0    0 -0.75209652910E+01  0.26920776022E+02  0.70585508522E+01  0.96170913287E+02  0.91748178848E+02 0.  0.
         11    1    3    3    0    0 -0.34707886345E+02  0.49579055368E+02  0.45101063670E+01  0.60688229217E+02  0.51100000000E-03 0.  1.
         22    1    1    0    0    0  0.75209652910E+01 -0.26920776022E+02 -0.70585508522E+01  0.28829086713E+02  0.00000000000E+00 0.  1.
</event>
<event>
 5    1  0.1681104E-003  0.9118800E+02  0.7818608E-02  0.1130116E+00
         25   -1    0    0    0    0  0.00000000000E+00  0.00000000000E+00  0.99999998245E-14  0.12500000000E+03  0.12500000000E+03 0.  0.
        -11    1    3    3    0    0  0.38589885911E+02 -0.22375901100E+02  0.31875721495E+02  0.54826288090E+02  0.51100000000E-03 0.  1.
         23    2    1    0    0    0  0.10860474551E+02 -0.26654272141E+02  0.14975646324E+01  0.96179125088E+02  0.91759366127E+02 0.  0.
         11    1    3    3    0    0 -0.27729411361E+02 -0.42783710409E+01 -0.30378156862E+02  0.41352836998E+02  0.51100000000E-03 0. -1.
         22    1    1    0    0    0 -0.10860474551E+02  0.26654272141E+02 -0.14975646324E+01  0.28820874912E+02  0.00000000000E+00 0.  1.
</event>
<event>
 5    1  0.1681104E-003  0.9118800E+02  0.7818608E-02  0.1130116E+00
         25   -1    0    0    0    0  0.00000000000E+00  0.00000000000E+00  0.99999998245E-14  0.12500000000E+03  0.12500000000E+03 0.  0.
        -11    1    3    3    0    0  0.28546415106E+02 -0.15096998859E+02  0.11977264189E+02  0.34442300266E+02  0.51100000000E-03 0. -1.
         23    2    1    0    0    0 -0.24758289558E+02  0.14578687991E+02  0.47695711563E+01  0.95875099066E+02  0.91344265100E+02 0.  0.
         11    1    3    3    0    0 -0.53304704664E+02  0.29675686850E+02 -0.72076930327E+01  0.61432798800E+02  0.51100000000E-03 0.  1.
         22    1    1    0    0    0  0.24758289558E+02 -0.14578687991E+02 -0.47695711563E+01  0.29124900934E+02  0.00000000000E+00 0.  1.
</event>
<event>
 5    1  0.1681104E-003  0.9118800E+02  0.7818608E-02  0.1130116E+00
         25   -1    0    0    0    0  0.00000000000E+00  0.00000000000E+00  0.99999998245E-14  0.12500000000E+03  0.12500000000E+03 0.  0.
        -11    1    3    3    0    0 -0.50763715924E+02  0.45284089719E+00  0.36168479215E+02  0.62332325548E+02  0.51100000000E-03 0. -1.
         23    2    1    0    0    0 -0.22426926085E+02 -0.18002551810E+01  0.19082695729E+02  0.95498182961E+02  0.90827009970E+02 0.  0.
         11    1    3    3    0    0  0.28336789838E+02 -0.22530960782E+01 -0.17085783487E+02  0.33165857412E+02  0.51100000000E-03 0.  1.
         22    1    1    0    0    0  0.22426926085E+02  0.18002551810E+01 -0.19082695729E+02  0.29501817039E+02  0.00000000000E+00 0. -1.
</event>
<event>
 5    1  0.1681104E-003  0.9118800E+02  0.7818608E-02  0.1130116E+00
         25   -1    0    0    0    0  0.00000000000E+00  0.00000000000E+00  0.99999998245E-14  0.12500000000E+03  0.12500000000E+03 0.  0.
        -11    1    3    3    0    0  0.36239829061E+02  0.28764720213E+02 -0.38283248440E+02  0.60052822171E+02  0.51100000000E-03 0.  1.
         23    2    1    0    0    0  0.14062387161E+02  0.23459278217E+02 -0.11233694848E+02  0.95431699964E+02  0.90735467106E+02 0.  0.
         11    1    3    3    0    0 -0.22177441901E+02 -0.53054419968E+01  0.27049553592E+02  0.35378877792E+02  0.51100000000E-03 0. -1.
         22    1    1    0    0    0 -0.14062387161E+02 -0.23459278217E+02  0.11233694848E+02  0.29568300036E+02  0.00000000000E+00 0.  1.
</event>
<event>
 5    1  0.1681104E-003  0.9118800E+02  0.7818608E-02  0.1130116E+00
         25   -1    0    0    0    0  0.00000000000E+00  0.00000000000E+00  0.99999998245E-14  0.12500000000E+03  0.12500000000E+03 0.  0.
        -11    1    3    3    0    0 -0.10049761861E+02  0.27792237157E+02 -0.99595404974E+01  0.31186513220E+02  0.51100000000E-03 0. -1.
         23    2    1    0    0    0  0.19307742379E+02 -0.18627077080E+02  0.17876564213E+02  0.92761382405E+02  0.86978995173E+02 0.  0.
         11    1    3    3    0    0  0.29357504241E+02 -0.46419314237E+02  0.27836104710E+02  0.61574869185E+02  0.51100000000E-03 0.  1.
         22    1    1    0    0    0 -0.19307742379E+02  0.18627077080E+02 -0.17876564213E+02  0.32238617595E+02  0.00000000000E+00 0.  1.
</event>
<event>
 5    1  0.1681104E-003  0.9118800E+02  0.7818608E-02  0.1130116E+00
         25   -1    0    0    0    0  0.00000000000E+00  0.00000000000E+00  0.99999998245E-14  0.12500000000E+03  0.12500000000E+03 0.  0.
        -11    1    3    3    0    0  0.21575316454E+02 -0.32336817642E-01  0.31530374582E+02  0.38205494989E+02  0.51100000000E-03 0.  1.
         23    2    1    0    0    0 -0.28516223097E+02 -0.83283286696E+01  0.76021350066E+01  0.94335223875E+02  0.89212140255E+02 0.  0.
         11    1    3    3    0    0 -0.50091539551E+02 -0.82959918519E+01 -0.23928239576E+02  0.56129728886E+02  0.51100000000E-03 0. -1.
         22    1    1    0    0    0  0.28516223097E+02  0.83283286696E+01 -0.76021350066E+01  0.30664776125E+02  0.00000000000E+00 0. -1.
</event>
<event>
 5    1  0.1681104E-003  0.9118800E+02  0.7818608E-02  0.1130116E+00
         25   -1    0    0    0    0  0.00000000000E+00  0.00000000000E+00  0.99999998245E-14  0.12500000000E+03  0.12500000000E+03 0.  0.
        -11    1    3    3    0    0 -0.77011528037E+01 -0.29790669628E+02  0.20986716409E+02  0.37245590575E+02  0.51100000000E-03 0. -1.
         23    2    1    0    0    0  0.19221304282E+02  0.20538781184E+02  0.69964427073E+01  0.96012929065E+02  0.91532684142E+02 0.  0.
         11    1    3    3    0    0  0.26922457086E+02  0.50329450812E+02 -0.13990273702E+02  0.58767338490E+02  0.51100000000E-03 0.  1.
         22    1    1    0    0    0 -0.19221304282E+02 -0.20538781184E+02 -0.69964427073E+01  0.28987070935E+02  0.00000000000E+00 0.  1.
</event>
<event>
 5    1  0.1681104E-003  0.9118800E+02  0.7818608E-02  0.1130116E+00
         25   -1    0    0    0    0  0.00000000000E+00  0.00000000000E+00  0.99999998245E-14  0.12500000000E+03  0.12500000000E+03 0.  0.
        -11    1    3    3    0    0  0.32982988710E+02  0.33916139845E+02 -0.27552353099E+02  0.54747732809E+02  0.51100000000E-03 0. -1.
         23    2    1    0    0    0  0.25213761974E+02 -0.35021372208E+01 -0.16984032664E+02  0.94398429395E+02  0.89300657045E+02 0.  0.
         11    1    3    3    0    0 -0.77692267368E+01 -0.37418277066E+02  0.10568320435E+02  0.39650696585E+02  0.51100000000E-03 0.  1.
         22    1    1    0    0    0 -0.25213761974E+02  0.35021372208E+01  0.16984032664E+02  0.30601570605E+02  0.00000000000E+00 0. -1.
</event>
<event>
 5    1  0.1681104E-003  0.9118800E+02  0.7818608E-02  0.1130116E+00
         25   -1    0    0    0    0  0.00000000000E+00  0.00000000000E+00  0.99999998245E-14  0.12500000000E+03  0.12500000000E+03 0.  0.
        -11    1    3    3    0    0 -0.38659174478E+02 -0.80333351947E+00 -0.41239035686E+02  0.56531718359E+02  0.51100000000E-03 0. -1.
         23    2    1    0    0    0 -0.28927998829E+02  0.59627657382E+01 -0.45152663318E+01  0.95120720866E+02  0.90306036434E+02 0.  0.
         11    1    3    3    0    0  0.97311756484E+01  0.67660992577E+01  0.36723769354E+02  0.38589002507E+02  0.51100000000E-03 0.  1.
         22    1    1    0    0    0  0.28927998829E+02 -0.59627657382E+01  0.45152663318E+01  0.29879279134E+02  0.00000000000E+00 0. -1.
</event>
<event>
 5    1  0.1681104E-003  0.9118800E+02  0.7818608E-02  0.1130116E+00
         25   -1    0    0    0    0  0.00000000000E+00  0.00000000000E+00  0.99999998245E-14  0.12500000000E+03  0.12500000000E+03 0.  0.
        -11    1    3    3    0    0 -0.22844104496E+02 -0.33183791898E+02  0.41282787786E+02  0.57682629297E+02  0.51100000000E-03 0. -1.
         23    2    1    0    0    0 -0.22689615203E+02 -0.29798285460E+01  0.15929869094E+02  0.97117052782E+02  0.93028292446E+02 0.  0.
         11    1    3    3    0    0  0.15448929329E+00  0.30203963352E+02 -0.25352918691E+02  0.39434423485E+02  0.51100000000E-03 0.  1.
         22    1    1    0    0    0  0.22689615203E+02  0.29798285460E+01 -0.15929869094E+02  0.27882947218E+02  0.00000000000E+00 0. -1.
</event>
<event>
 5    1  0.1681104E-003  0.9118800E+02  0.7818608E-02  0.1130116E+00
         25   -1    0    0    0    0  0.00000000000E+00  0.00000000000E+00  0.99999998245E-14  0.12500000000E+03  0.12500000000E+03 0.  0.
        -11    1    3    3    0    0 -0.10990071348E+02  0.51414835288E+02 -0.18323760474E+02  0.55677887479E+02  0.51100000000E-03 0.  1.
         23    2    1    0    0    0  0.62550220712E+01  0.27229836152E+02  0.85995700298E+01  0.95767451656E+02  0.91196836097E+02 0.  0.
         11    1    3    3    0    0  0.17245093419E+02 -0.24184999136E+02  0.26923330504E+02  0.40089564177E+02  0.51100000000E-03 0. -1.
         22    1    1    0    0    0 -0.62550220712E+01 -0.27229836152E+02 -0.85995700298E+01  0.29232548344E+02  0.00000000000E+00 0.  1.
</event>
<event>
 5    1  0.1681104E-003  0.9118800E+02  0.7818608E-02  0.1130116E+00
         25   -1    0    0    0    0  0.00000000000E+00  0.00000000000E+00  0.99999998245E-14  0.12500000000E+03  0.12500000000E+03 0.  0.
        -11    1    3    3    0    0  0.77191147689E+01  0.10593813419E+02 -0.44384541994E+02  0.46279597922E+02  0.51100000000E-03 0.  1.
         23    2    1    0    0    0  0.17478808819E+02 -0.18080136546E+02 -0.19722679818E+00  0.99851660221E+02  0.96632888062E+02 0.  0.
         11    1    3    3    0    0  0.97596940497E+01 -0.28673949964E+02  0.44187315196E+02  0.53572062299E+02  0.51100000000E-03 0. -1.
         22    1    1    0    0    0 -0.17478808819E+02  0.18080136546E+02  0.19722679818E+00  0.25148339779E+02  0.00000000000E+00 0.  1.
</event>
<event>
 5    1  0.1681104E-003  0.9118800E+02  0.7818608E-02  0.1130116E+00
         25   -1    0    0    0    0  0.00000000000E+00  0.00000000000E+00  0.99999998245E-14  0.12500000000E+03  0.12500000000E+03 0.  0.
        -11    1    3    3    0    0 -0.34575195689E+02  0.15438748890E+02 -0.18940066602E+02  0.42338224424E+02  0.51100000000E-03 0.  1.
         23    2    1    0    0    0 -0.34200444425E+01 -0.18570696957E+02  0.16039134885E+02  0.10022458200E+03  0.97114084966E+02 0.  0.
         11    1    3    3    0    0  0.31155151247E+02 -0.34009445847E+02  0.34979201486E+02  0.57886357571E+02  0.51100000000E-03 0. -1.
         22    1    1    0    0    0  0.34200444425E+01  0.18570696957E+02 -0.16039134885E+02  0.24775418005E+02  0.00000000000E+00 0. -1.
</event>
<event>
 5    1  0.1681104E-003  0.9118800E+02  0.7818608E-02  0.1130116E+00
         25   -1    0    0    0    0  0.00000000000E+00  0.00000000000E+00  0.99999998245E-14  0.12500000000E+03  0.12500000000E+03 0.  0.
        -11    1    3    3    0    0 -0.30400039847E+02 -0.52593030924E+02 -0.31872943887E+01  0.60830487178E+02  0.51100000000E-03 0.  1.
         23    2    1    0    0    0 -0.98231434555E+01 -0.26089936145E+02 -0.10568480423E+02  0.95186048671E+02  0.90396416786E+02 0.  0.
         11    1    3    3    0    0  0.20576896392E+02  0.26503094779E+02 -0.73811860343E+01  0.34355561493E+02  0.51100000000E-03 0. -1.
         22    1    1    0    0    0  0.98231434555E+01  0.26089936145E+02  0.10568480423E+02  0.29813951329E+02  0.00000000000E+00 0.  1.
</event>
<event>
 5    1  0.1681104E-003  0.9118800E+02  0.7818608E-02  0.1130116E+00
         25   -1    0    0    0    0  0.00000000000E+00  0.00000000000E+00  0.99999998245E-14  0.12500000000E+03  0.12500000000E+03 0.  0.
        -11    1    3    3    0    0  0.44528790099E+02 -0.82445268919E+01  0.23098107083E+02  0.50836088780E+02  0.51100000000E-03 0.  1.
         23    2    1    0    0    0  0.20916093223E+02  0.22205303691E+02  0.28569142761E+01  0.94361455209E+02  0.89248886841E+02 0.  0.
         11    1    3    3    0    0 -0.23612696876E+02  0.30449830582E+02 -0.20241192807E+02  0.43525366429E+02  0.51100000000E-03 0. -1.
         22    1    1    0    0    0 -0.20916093223E+02 -0.22205303691E+02 -0.28569142761E+01  0.30638544791E+02  0.00000000000E+00 0.  1.
</event>
<event>
 5    1  0.1681104E-003  0.9118800E+02  0.7818608E-02  0.1130116E+00
         25   -1    0    0    0    0  0.00000000000E+00  0.00000000000E+00  0.99999998245E-14  0.12500000000E+03  0.12500000000E+03 0.  0.
        -11    1    3    3    0    0 -0.22136210063E+02 -0.74646749681E+01 -0.32100667982E+02  0.39701209724E+02  0.51100000000E-03 0. -1.
         23    2    1    0    0    0 -0.18629772836E+02  0.55604764432E+01  0.22105941503E+02  0.95560910613E+02  0.90913297450E+02 0.  0.
         11    1    3    3    0    0  0.35064372277E+01  0.13025151411E+02  0.54206609485E+02  0.55859700890E+02  0.51100000000E-03 0.  1.
         22    1    1    0    0    0  0.18629772836E+02 -0.55604764432E+01 -0.22105941503E+02  0.29439089387E+02  0.00000000000E+00 0.  1.
</event>
<event>
 5    1  0.1681104E-003  0.9118800E+02  0.7818608E-02  0.1130116E+00
         25   -1    0    0    0    0  0.00000000000E+00  0.00000000000E+00  0.99999998245E-14  0.12500000000E+03  0.12500000000E+03 0.  0.
        -11    1    3    3    0    0  0.12222352055E+02 -0.30285230846E+02 -0.40741848945E+01  0.32911701262E+02  0.51100000000E-03 0. -1.
         23    2    1    0    0    0 -0.13123547025E+02  0.26623022788E+02 -0.21873721453E+01  0.95237650869E+02  0.90467744071E+02 0.  0.
         11    1    3    3    0    0 -0.25345899080E+02  0.56908253634E+02  0.18868127492E+01  0.62325949607E+02  0.51100000000E-03 0.  1.
         22    1    1    0    0    0  0.13123547025E+02 -0.26623022788E+02  0.21873721453E+01  0.29762349131E+02  0.00000000000E+00 0.  1.
</event>
<event>
 5    1  0.1681104E-003  0.9118800E+02  0.7818608E-02  0.1130116E+00
         25   -1    0    0    0    0  0.00000000000E+00  0.00000000000E+00  0.99999998245E-14  0.12500000000E+03  0.12500000000E+03 0.  0.
        -11    1    3    3    0    0 -0.60605440461E+02  0.15960444397E+01 -0.16114252119E+01  0.60647864453E+02  0.51100000000E-03 0. -1.
         23    2    1    0    0    0 -0.25500686548E+02  0.84106496182E+01 -0.80164641144E+01  0.96977014108E+02  0.92839934979E+02 0.  0.
         11    1    3    3    0    0  0.35104753912E+02  0.68146051785E+01 -0.64050389025E+01  0.36329149654E+02  0.51100000000E-03 0.  1.
         22    1    1    0    0    0  0.25500686548E+02 -0.84106496182E+01  0.80164641144E+01  0.28022985892E+02  0.00000000000E+00 0. -1.
</event>
<event>
 5    1  0.1681104E-003  0.9118800E+02  0.7818608E-02  0.1130116E+00
         25   -1    0    0    0    0  0.00000000000E+00  0.00000000000E+00  0.99999998245E-14  0.12500000000E+03  0.12500000000E+03 0.  0.
        -11    1    3    3    0    0 -0.43909894672E+01  0.48589837125E+02  0.28901153730E+02  0.56705641232E+02  0.51100000000E-03 0. -1.
         23    2    1    0    0    0 -0.73685580592E+01  0.27315225791E+02 -0.44339862181E+01  0.96363005715E+02  0.92009518142E+02 0.  0.
         11    1    3    3    0    0 -0.29775685920E+01 -0.21274611333E+02 -0.33335139949E+02  0.39657364483E+02  0.51100000000E-03 0.  1.
         22    1    1    0    0    0  0.73685580592E+01 -0.27315225791E+02  0.44339862181E+01  0.28636994285E+02  0.00000000000E+00 0. -1.
</event>
<event>
 5    1  0.1681104E-003  0.9118800E+02  0.7818608E-02  0.1130116E+00
         25   -1    0    0    0    0  0.00000000000E+00  0.00000000000E+00  0.99999998245E-14  0.12500000000E+03  0.12500000000E+03 0.  0.
        -11    1    3    3    0    0  0.61249170220E+00  0.12547015799E+02  0.63037341141E+01  0.14054885826E+02  0.51100000000E-03 0.  1.
         23    2    1    0    0    0  0.17621952012E+02 -0.46121268875E+02  0.69335622602E+01  0.75142413607E+02  0.56219244052E+02 0.  0.
         11    1    3    3    0    0  0.17009460309E+02 -0.58668284674E+02  0.62982814615E+00  0.61087527781E+02  0.51100000000E-03 0. -1.
         22    1    1    0    0    0 -0.17621952012E+02  0.46121268875E+02 -0.69335622602E+01  0.49857586393E+02  0.00000000000E+00 0. -1.
</event>
<event>
 5    1  0.1681104E-003  0.9118800E+02  0.7818608E-02  0.1130116E+00
         25   -1    0    0    0    0  0.00000000000E+00  0.00000000000E+00  0.99999998245E-14  0.12500000000E+03  0.12500000000E+03 0.  0.
        -11    1    3    3    0    0  0.24857012373E+02 -0.99636036702E+01 -0.19500775812E+02  0.33127401343E+02  0.51100000000E-03 0.  1.
         23    2    1    0    0    0 -0.22101601995E+02  0.19569343528E+02  0.70834980165E+01  0.94641871583E+02  0.89640771392E+02 0.  0.
         11    1    3    3    0    0 -0.46958614368E+02  0.29532947198E+02  0.26584273829E+02  0.61514470239E+02  0.51100000000E-03 0. -1.
         22    1    1    0    0    0  0.22101601995E+02 -0.19569343528E+02 -0.70834980165E+01  0.30358128417E+02  0.00000000000E+00 0. -1.
</event>
<event>
 5    1  0.1681104E-003  0.9118800E+02  0.7818608E-02  0.1130116E+00
         25   -1    0    0    0    0  0.00000000000E+00  0.00000000000E+00  0.99999998245E-14  0.12500000000E+03  0.12500000000E+03 0.  0.
        -11    1    3    3    0    0  0.30312888512E+02 -0.19512793830E+02  0.29888723774E+02  0.46829009621E+02  0.51100000000E-03 0.  1.
         23    2    1    0    0    0 -0.15520720247E+02 -0.21200128492E+02  0.12798708765E+02  0.95774238229E+02  0.91206137717E+02 0.  0.
         11    1    3    3    0    0 -0.45833608759E+02 -0.16873346616E+01 -0.17090015009E+02  0.48945228607E+02  0.51100000000E-03 0. -1.
         22    1    1    0    0    0  0.15520720247E+02  0.21200128492E+02 -0.12798708765E+02  0.29225761771E+02  0.00000000000E+00 0. -1.
</event>
<event>
 5    1  0.1681104E-003  0.9118800E+02  0.7818608E-02  0.1130116E+00
         25   -1    0    0    0    0  0.00000000000E+00  0.00000000000E+00  0.99999998245E-14  0.12500000000E+03  0.12500000000E+03 0.  0.
        -11    1    3    3    0    0 -0.42913145085E+02 -0.45598505721E+01 -0.28862950127E+02  0.51917243269E+02  0.51100000000E-03 0. -1.
         23    2    1    0    0    0 -0.34709277201E+02 -0.10615959652E+01  0.75978824018E+01  0.89453006782E+02  0.82086854584E+02 0.  0.
         11    1    3    3    0    0  0.82038678839E+01  0.34982546069E+01  0.36460832529E+02  0.37535763513E+02  0.51100000000E-03 0.  1.
         22    1    1    0    0    0  0.34709277201E+02  0.10615959652E+01 -0.75978824018E+01  0.35546993218E+02  0.00000000000E+00 0. -1.
</event>
<event>
 5    1  0.1681104E-003  0.9118800E+02  0.7818608E-02  0.1130116E+00
         25   -1    0    0    0    0  0.00000000000E+00  0.00000000000E+00  0.99999998245E-14  0.12500000000E+03  0.12500000000E+03 0.  0.
        -11    1    3    3    0    0 -0.43712569119E+02  0.34491355351E+02  0.18962718526E+02  0.58821994077E+02  0.51100000000E-03 0. -1.
         23    2    1    0    0    0 -0.21427136417E+02  0.10853788181E+02  0.23226896694E+02  0.91587193728E+02  0.85274840557E+02 0.  0.
         11    1    3    3    0    0  0.22285432702E+02 -0.23637567171E+02  0.42641781685E+01  0.32765199651E+02  0.51100000000E-03 0.  1.
         22    1    1    0    0    0  0.21427136417E+02 -0.10853788181E+02 -0.23226896694E+02  0.33412806272E+02  0.00000000000E+00 0. -1.
</event>
<event>
 5    1  0.1681104E-003  0.9118800E+02  0.7818608E-02  0.1130116E+00
         25   -1    0    0    0    0  0.00000000000E+00  0.00000000000E+00  0.99999998245E-14  0.12500000000E+03  0.12500000000E+03 0.  0.
        -11    1    3    3    0    0 -0.29944133097E+02 -0.74923786737E+01 -0.42126648644E+02  0.52224911406E+02  0.51100000000E-03 0.  1.
         23    2    1    0    0    0 -0.18213652124E+02 -0.23680501249E+02 -0.45607266835E+01  0.94779088515E+02  0.89831910414E+02 0.  0.
         11    1    3    3    0    0  0.11730480973E+02 -0.16188122576E+02  0.37565921960E+02  0.42554177109E+02  0.51100000000E-03 0. -1.
         22    1    1    0    0    0  0.18213652124E+02  0.23680501249E+02  0.45607266835E+01  0.30220911485E+02  0.00000000000E+00 0.  1.
</event>
<event>
 5    1  0.1681104E-003  0.9118800E+02  0.7818608E-02  0.1130116E+00
         25   -1    0    0    0    0  0.00000000000E+00  0.00000000000E+00  0.99999998245E-14  0.12500000000E+03  0.12500000000E+03 0.  0.
        -11    1    3    3    0    0  0.11924301522E+02 -0.28882446249E+02 -0.41826646584E+02  0.52209702478E+02  0.51100000000E-03 0.  1.
         23    2    1    0    0    0 -0.14843054767E+02 -0.24303948336E+02 -0.83354452818E+01  0.95327153362E+02  0.90591325968E+02 0.  0.
         11    1    3    3    0    0 -0.26767356289E+02  0.45784979128E+01  0.33491201302E+02  0.43117450884E+02  0.51100000000E-03 0. -1.
         22    1    1    0    0    0  0.14843054767E+02  0.24303948336E+02  0.83354452818E+01  0.29672846638E+02  0.00000000000E+00 0.  1.
</event>
<event>
 5    1  0.1681104E-003  0.9118800E+02  0.7818608E-02  0.1130116E+00
         25   -1    0    0    0    0  0.00000000000E+00  0.00000000000E+00  0.99999998245E-14  0.12500000000E+03  0.12500000000E+03 0.  0.
        -11    1    3    3    0    0  0.11363052475E+02  0.23805349701E+02  0.56324731714E+02  0.62195570895E+02  0.51100000000E-03 0.  1.
         23    2    1    0    0    0  0.24018682863E+01  0.72020327247E+01  0.26032938152E+02  0.97882623367E+02  0.94051346836E+02 0.  0.
         11    1    3    3    0    0 -0.89611841882E+01 -0.16603316976E+02 -0.30291793562E+02  0.35687052472E+02  0.51100000000E-03 0. -1.
         22    1    1    0    0    0 -0.24018682863E+01 -0.72020327247E+01 -0.26032938152E+02  0.27117376633E+02  0.00000000000E+00 0.  1.
</event>
<event>
 5    1  0.1681104E-003  0.9118800E+02  0.7818608E-02  0.1130116E+00
         25   -1    0    0    0    0  0.00000000000E+00  0.00000000000E+00  0.99999998245E-14  0.12500000000E+03  0.12500000000E+03 0.  0.
        -11    1    3    3    0    0  0.54842243907E+01 -0.55687933556E+02  0.56247958293E+01  0.56239318890E+02  0.51100000000E-03 0. -1.
         23    2    1    0    0    0  0.17432135850E+02 -0.16191243013E+02  0.12582630996E+02  0.98086094423E+02  0.94321384669E+02 0.  0.
         11    1    3    3    0    0  0.11947911460E+02  0.39496690542E+02  0.69578351665E+01  0.41846775533E+02  0.51100000000E-03 0.  1.
         22    1    1    0    0    0 -0.17432135850E+02  0.16191243013E+02 -0.12582630996E+02  0.26913905577E+02  0.00000000000E+00 0. -1.
</event>
<event>
 5    1  0.1681104E-003  0.9118800E+02  0.7818608E-02  0.1130116E+00
         25   -1    0    0    0    0  0.00000000000E+00  0.00000000000E+00  0.99999998245E-14  0.12500000000E+03  0.12500000000E+03 0.  0.
        -11    1    3    3    0    0 -0.48363466631E+01 -0.21462546233E+01 -0.58849142698E+02  0.59086531921E+02  0.51100000000E-03 0.  1.
         23    2    1    0    0    0 -0.67734990712E+01 -0.14586222188E+02 -0.24280235418E+02  0.95876676026E+02  0.91346423063E+02 0.  0.
         11    1    3    3    0    0 -0.19371524082E+01 -0.12439967564E+02  0.34568907280E+02  0.36790144105E+02  0.51100000000E-03 0. -1.
         22    1    1    0    0    0  0.67734990712E+01  0.14586222188E+02  0.24280235418E+02  0.29123323974E+02  0.00000000000E+00 0.  1.
</event>
<event>
 5    1  0.1681104E-003  0.9118800E+02  0.7818608E-02  0.1130116E+00
         25   -1    0    0    0    0  0.00000000000E+00  0.00000000000E+00  0.99999998245E-14  0.12500000000E+03  0.12500000000E+03 0.  0.
        -11    1    3    3    0    0 -0.40156706209E+02  0.42489341192E+02  0.20410442068E+02  0.61923269569E+02  0.51100000000E-03 0.  1.
         23    2    1    0    0    0 -0.20920556130E+02  0.16819896059E+02  0.14327253683E+02  0.94572236850E+02  0.89543616257E+02 0.  0.
         11    1    3    3    0    0  0.19236150079E+02 -0.25669445133E+02 -0.60831883853E+01  0.32648967280E+02  0.51100000000E-03 0. -1.
         22    1    1    0    0    0  0.20920556130E+02 -0.16819896059E+02 -0.14327253683E+02  0.30427763150E+02  0.00000000000E+00 0.  1.
</event>
<event>
 5    1  0.1681104E-003  0.9118800E+02  0.7818608E-02  0.1130116E+00
         25   -1    0    0    0    0  0.00000000000E+00  0.00000000000E+00  0.99999998245E-14  0.12500000000E+03  0.12500000000E+03 0.  0.
        -11    1    3    3    0    0 -0.11539591474E+02  0.85854729923E+01  0.32889952460E+02  0.35897374430E+02  0.51100000000E-03 0. -1.
         23    2    1    0    0    0  0.20649332796E+02 -0.24874801191E+02  0.21781963757E+00  0.92670475961E+02  0.86848252661E+02 0.  0.
         11    1    3    3    0    0  0.32188924270E+02 -0.33460274183E+02 -0.32672132822E+02  0.56773101531E+02  0.51100000000E-03 0.  1.
         22    1    1    0    0    0 -0.20649332796E+02  0.24874801191E+02 -0.21781963757E+00  0.32329524039E+02  0.00000000000E+00 0.  1.
</event>
<event>
 5    1  0.1681104E-003  0.9118800E+02  0.7818608E-02  0.1130116E+00
         25   -1    0    0    0    0  0.00000000000E+00  0.00000000000E+00  0.99999998245E-14  0.12500000000E+03  0.12500000000E+03 0.  0.
        -11    1    3    3    0    0  0.65184682841E+01 -0.35366841565E+02 -0.41960900234E+02  0.55263198060E+02  0.51100000000E-03 0. -1.
         23    2    1    0    0    0  0.11603604160E+02 -0.10168662864E+02 -0.41227801124E+02  0.80979812365E+02  0.67970236804E+02 0.  0.
         11    1    3    3    0    0  0.50851358759E+01  0.25198178701E+02  0.73309911039E+00  0.25716614305E+02  0.51100000000E-03 0.  1.
         22    1    1    0    0    0 -0.11603604160E+02  0.10168662864E+02  0.41227801124E+02  0.44020187635E+02  0.00000000000E+00 0. -1.
</event>
<event>
 5    1  0.1681104E-003  0.9118800E+02  0.7818608E-02  0.1130116E+00
         25   -1    0    0    0    0  0.00000000000E+00  0.00000000000E+00  0.99999998245E-14  0.12500000000E+03  0.12500000000E+03 0.  0.
        -11    1    3    3    0    0 -0.19953740743E+02  0.34893975020E+02 -0.79742506051E+01  0.40979628297E+02  0.51100000000E-03 0.  1.
         23    2    1    0    0    0  0.21065412616E+02 -0.86654394545E+01 -0.81347895247E+01  0.10081289082E+03  0.97868394828E+02 0.  0.
         11    1    3    3    0    0  0.41019153360E+02 -0.43559414475E+02 -0.16053891954E+00  0.59833262528E+02  0.51100000000E-03 0. -1.
         22    1    1    0    0    0 -0.21065412616E+02  0.86654394545E+01  0.81347895247E+01  0.24187109175E+02  0.00000000000E+00 0. -1.
</event>
<event>
 5    1  0.1681104E-003  0.9118800E+02  0.7818608E-02  0.1130116E+00
         25   -1    0    0    0    0  0.00000000000E+00  0.00000000000E+00  0.99999998245E-14  0.12500000000E+03  0.12500000000E+03 0.  0.
        -11    1    3    3    0    0 -0.20830540841E+02  0.41571871351E+01  0.36546680606E+02  0.42271189954E+02  0.51100000000E-03 0.  1.
         23    2    1    0    0    0  0.12875888048E+02 -0.25734136785E+02  0.10146226244E+02  0.94488031921E+02  0.89425991636E+02 0.  0.
         11    1    3    3    0    0  0.33706428889E+02 -0.29891323920E+02 -0.26400454362E+02  0.52216841966E+02  0.51100000000E-03 0. -1.
         22    1    1    0    0    0 -0.12875888048E+02  0.25734136785E+02 -0.10146226244E+02  0.30511968079E+02  0.00000000000E+00 0. -1.
</event>
<event>
 5    1  0.1681104E-003  0.9118800E+02  0.7818608E-02  0.1130116E+00
         25   -1    0    0    0    0  0.00000000000E+00  0.00000000000E+00  0.99999998245E-14  0.12500000000E+03  0.12500000000E+03 0.  0.
        -11    1    3    3    0    0  0.26842872845E+02  0.11491834576E+00 -0.27193436105E+02  0.38210417378E+02  0.51100000000E-03 0. -1.
         23    2    1    0    0    0 -0.19280436769E+02 -0.16672117857E+02  0.76314813202E+01  0.98392965912E+02  0.94727195029E+02 0.  0.
         11    1    3    3    0    0 -0.46123309613E+02 -0.16787036203E+02  0.34824917425E+02  0.60182548534E+02  0.51100000000E-03 0.  1.
         22    1    1    0    0    0  0.19280436769E+02  0.16672117857E+02 -0.76314813202E+01  0.26607034088E+02  0.00000000000E+00 0.  1.
</event>
<event>
 5    1  0.1681104E-003  0.9118800E+02  0.7818608E-02  0.1130116E+00
         25   -1    0    0    0    0  0.00000000000E+00  0.00000000000E+00  0.99999998245E-14  0.12500000000E+03  0.12500000000E+03 0.  0.
        -11    1    3    3    0    0 -0.42449573252E+02 -0.26688612130E+02 -0.18867204750E+02  0.53574431421E+02  0.51100000000E-03 0.  1.
         23    2    1    0    0    0 -0.18204982641E+02  0.65708984462E+01 -0.23000595508E+02  0.94939635846E+02  0.90055032960E+02 0.  0.
         11    1    3    3    0    0  0.24244590611E+02  0.33259510577E+02 -0.41333907576E+01  0.41365204425E+02  0.51100000000E-03 0. -1.
         22    1    1    0    0    0  0.18204982641E+02 -0.65708984462E+01  0.23000595508E+02  0.30060364154E+02  0.00000000000E+00 0.  1.
</event>
<event>
 5    1  0.1681104E-003  0.9118800E+02  0.7818608E-02  0.1130116E+00
         25   -1    0    0    0    0  0.00000000000E+00  0.00000000000E+00  0.99999998245E-14  0.12500000000E+03  0.12500000000E+03 0.  0.
        -11    1    3    3    0    0  0.29586697235E+02 -0.94909376932E+01 -0.13619081660E+02  0.33925358319E+02  0.51100000000E-03 0. -1.
         23    2    1    0    0    0 -0.70326355667E+01  0.32530816562E+02  0.15185985487E+01  0.91683065406E+02  0.85415258306E+02 0.  0.
         11    1    3    3    0    0 -0.36619332801E+02  0.42021754255E+02  0.15137680209E+02  0.57757707086E+02  0.51100000000E-03 0.  1.
         22    1    1    0    0    0  0.70326355667E+01 -0.32530816562E+02 -0.15185985487E+01  0.33316934594E+02  0.00000000000E+00 0.  1.
</event>
<event>
 5    1  0.1681104E-003  0.9118800E+02  0.7818608E-02  0.1130116E+00
         25   -1    0    0    0    0  0.00000000000E+00  0.00000000000E+00  0.99999998245E-14  0.12500000000E+03  0.12500000000E+03 0.  0.
        -11    1    3    3    0    0  0.36858042072E+02 -0.32117384750E+02 -0.21766799284E+02  0.53514813089E+02  0.51100000000E-03 0. -1.
         23    2    1    0    0    0 -0.40793364561E+01 -0.15670831656E+02 -0.22061680620E+02  0.97633346889E+02  0.93719457544E+02 0.  0.
         11    1    3    3    0    0 -0.40937378528E+02  0.16446553094E+02 -0.29488133645E+00  0.44118533800E+02  0.51100000000E-03 0.  1.
         22    1    1    0    0    0  0.40793364561E+01  0.15670831656E+02  0.22061680620E+02  0.27366653111E+02  0.00000000000E+00 0. -1.
</event>
<event>
 5    1  0.1681104E-003  0.9118800E+02  0.7818608E-02  0.1130116E+00
         25   -1    0    0    0    0  0.00000000000E+00  0.00000000000E+00  0.99999998245E-14  0.12500000000E+03  0.12500000000E+03 0.  0.
        -11    1    3    3    0    0  0.49828838850E+02 -0.99007604940E+00 -0.10692772263E+02  0.50972824237E+02  0.51100000000E-03 0.  1.
         23    2    1    0    0    0  0.93426738938E+01  0.97147282842E+01 -0.26124876478E+02  0.95603220039E+02  0.90971451619E+02 0.  0.
         11    1    3    3    0    0 -0.40486164956E+02  0.10704804334E+02 -0.15432104214E+02  0.44630395802E+02  0.51100000000E-03 0. -1.
         22    1    1    0    0    0 -0.93426738938E+01 -0.97147282842E+01  0.26124876478E+02  0.29396779961E+02  0.00000000000E+00 0.  1.
</event>
<event>
 5    1  0.1681104E-003  0.9118800E+02  0.7818608E-02  0.1130116E+00
         25   -1    0    0    0    0  0.00000000000E+00  0.00000000000E+00  0.99999998245E-14  0.12500000000E+03  0.12500000000E+03 0.  0.
        -11    1    3    3    0    0  0.38263525508E+02 -0.13519707745E+02 -0.14603450998E+02  0.43129348049E+02  0.51100000000E-03 0. -1.
         23    2    1    0    0    0 -0.13169904902E+02 -0.21271251535E+02 -0.16246318717E+02  0.95169555672E+02  0.90373607419E+02 0.  0.
         11    1    3    3    0    0 -0.51433430409E+02 -0.77515437898E+01 -0.16428677188E+01  0.52040207623E+02  0.51100000000E-03 0.  1.
         22    1    1    0    0    0  0.13169904902E+02  0.21271251535E+02  0.16246318717E+02  0.29830444328E+02  0.00000000000E+00 0.  1.
</event>
<event>
 5    1  0.1681104E-003  0.9118800E+02  0.7818608E-02  0.1130116E+00
         25   -1    0    0    0    0  0.00000000000E+00  0.00000000000E+00  0.99999998245E-14  0.12500000000E+03  0.12500000000E+03 0.  0.
        -11    1    3    3    0    0 -0.35930200377E+02 -0.48908481397E+01 -0.32235898021E+02  0.48518582174E+02  0.51100000000E-03 0. -1.
         23    2    1    0    0    0 -0.22446097923E+02  0.18690248720E+02  0.57627391902E+01  0.95228169822E+02  0.90454643084E+02 0.  0.
         11    1    3    3    0    0  0.13484102454E+02  0.23581096860E+02  0.37998637211E+02  0.46709587648E+02  0.51100000000E-03 0.  1.
         22    1    1    0    0    0  0.22446097923E+02 -0.18690248720E+02 -0.57627391902E+01  0.29771830178E+02  0.00000000000E+00 0.  1.
</event>
<event>
 5    1  0.1681104E-003  0.9118800E+02  0.7818608E-02  0.1130116E+00
         25   -1    0    0    0    0  0.00000000000E+00  0.00000000000E+00  0.99999998245E-14  0.12500000000E+03  0.12500000000E+03 0.  0.
        -11    1    3    3    0    0 -0.18458946168E+01 -0.40016439285E+02  0.25399390317E+02  0.47432602382E+02  0.51100000000E-03 0.  1.
         23    2    1    0    0    0  0.26725079031E+02 -0.10265480631E+02 -0.90935838737E+00  0.96356730730E+02  0.92000992835E+02 0.  0.
         11    1    3    3    0    0  0.28570973647E+02  0.29750958654E+02 -0.26308748704E+02  0.48924128348E+02  0.51100000000E-03 0. -1.
         22    1    1    0    0    0 -0.26725079031E+02  0.10265480631E+02  0.90935838737E+00  0.28643269270E+02  0.00000000000E+00 0.  1.
</event>
<event>
 5    1  0.1681104E-003  0.9118800E+02  0.7818608E-02  0.1130116E+00
         25   -1    0    0    0    0  0.00000000000E+00  0.00000000000E+00  0.99999998245E-14  0.12500000000E+03  0.12500000000E+03 0.  0.
        -11    1    3    3    0    0 -0.50981323051E+02 -0.29478854169E+02  0.26355679977E+01  0.58949506886E+02  0.51100000000E-03 0. -1.
         23    2    1    0    0    0 -0.25593895256E+02 -0.14281759985E+02 -0.13588698286E+02  0.92694135769E+02  0.86882299360E+02 0.  0.
         11    1    3    3    0    0  0.25387427796E+02  0.15197094184E+02 -0.16224266284E+02  0.33744628882E+02  0.51100000000E-03 0.  1.
         22    1    1    0    0    0  0.25593895256E+02  0.14281759985E+02  0.13588698286E+02  0.32305864231E+02  0.00000000000E+00 0. -1.
</event>
<event>
 5    1  0.1681104E-003  0.9118800E+02  0.7818608E-02  0.1130116E+00
         25   -1    0    0    0    0  0.00000000000E+00  0.00000000000E+00  0.99999998245E-14  0.12500000000E+03  0.12500000000E+03 0.  0.
        -11    1    3    3    0    0 -0.36520391254E+02  0.24800440041E+01  0.28795492271E+02  0.46573275288E+02  0.51100000000E-03 0. -1.
         23    2    1    0    0    0 -0.15557830128E+02  0.21838950242E+02 -0.11396933183E+02  0.95864524855E+02  0.91329793680E+02 0.  0.
         11    1    3    3    0    0  0.20962561126E+02  0.19358906238E+02 -0.40192425455E+02  0.49291249567E+02  0.51100000000E-03 0.  1.
         22    1    1    0    0    0  0.15557830128E+02 -0.21838950242E+02  0.11396933183E+02  0.29135475145E+02  0.00000000000E+00 0. -1.
</event>
<event>
 5    1  0.1681104E-003  0.9118800E+02  0.7818608E-02  0.1130116E+00
         25   -1    0    0    0    0  0.00000000000E+00  0.00000000000E+00  0.99999998245E-14  0.12500000000E+03  0.12500000000E+03 0.  0.
        -11    1    3    3    0    0 -0.14322154209E+02 -0.50147811072E+02 -0.24423282522E+02  0.57588399752E+02  0.51100000000E-03 0.  1.
         23    2    1    0    0    0 -0.48188052063E+01 -0.27886344116E+02  0.55978384024E+01  0.96152038780E+02  0.91722460145E+02 0.  0.
         11    1    3    3    0    0  0.95033490029E+01  0.22261466957E+02  0.30021120924E+02  0.38563639029E+02  0.51100000000E-03 0. -1.
         22    1    1    0    0    0  0.48188052063E+01  0.27886344116E+02 -0.55978384024E+01  0.28847961220E+02  0.00000000000E+00 0.  1.
</event>
<event>
 5    1  0.1681104E-003  0.9118800E+02  0.7818608E-02  0.1130116E+00
         25   -1    0    0    0    0  0.00000000000E+00  0.00000000000E+00  0.99999998245E-14  0.12500000000E+03  0.12500000000E+03 0.  0.
        -11    1    3    3    0    0  0.47027030150E+02 -0.32233133650E+02  0.50519985692E+01  0.57236694170E+02  0.51100000000E-03 0.  1.
         23    2    1    0    0    0  0.21756919467E+02 -0.82778207243E+01  0.19203746150E+02  0.94822695170E+02  0.89892568060E+02 0.  0.
         11    1    3    3    0    0 -0.25270110683E+02  0.23955312926E+02  0.14151747580E+02  0.37586001000E+02  0.51100000000E-03 0. -1.
         22    1    1    0    0    0 -0.21756919467E+02  0.82778207243E+01 -0.19203746150E+02  0.30177304830E+02  0.00000000000E+00 0.  1.
</event>
<event>
 5    1  0.1681104E-003  0.9118800E+02  0.7818608E-02  0.1130116E+00
         25   -1    0    0    0    0  0.00000000000E+00  0.00000000000E+00  0.99999998245E-14  0.12500000000E+03  0.12500000000E+03 0.  0.
        -11    1    3    3    0    0 -0.46381784165E+02  0.22371503565E+01  0.16857180070E+02  0.49400802263E+02  0.51100000000E-03 0.  1.
         23    2    1    0    0    0 -0.15561002839E+02  0.28669375333E+02  0.32714729704E+01  0.92216156010E+02  0.86191873181E+02 0.  0.
         11    1    3    3    0    0  0.30820781326E+02  0.26432224977E+02 -0.13585707100E+02  0.42815353747E+02  0.51100000000E-03 0. -1.
         22    1    1    0    0    0  0.15561002839E+02 -0.28669375333E+02 -0.32714729704E+01  0.32783843990E+02  0.00000000000E+00 0.  1.
</event>
<event>
 5    1  0.1681104E-003  0.9118800E+02  0.7818608E-02  0.1130116E+00
         25   -1    0    0    0    0  0.00000000000E+00  0.00000000000E+00  0.99999998245E-14  0.12500000000E+03  0.12500000000E+03 0.  0.
        -11    1    3    3    0    0 -0.13602747952E+02 -0.35367828261E+02  0.49430406909E+02  0.62283891619E+02  0.51100000000E-03 0. -1.
         23    2    1    0    0    0 -0.97490967876E+01 -0.18631898044E+02  0.22691220426E+02  0.94063225810E+02  0.88830211372E+02 0.  0.
         11    1    3    3    0    0  0.38536511647E+01  0.16735930217E+02 -0.26739186484E+02  0.31779334191E+02  0.51100000000E-03 0.  1.
         22    1    1    0    0    0  0.97490967876E+01  0.18631898044E+02 -0.22691220426E+02  0.30936774190E+02  0.00000000000E+00 0. -1.
</event>
<event>
 5    1  0.1681104E-003  0.9118800E+02  0.7818608E-02  0.1130116E+00
         25   -1    0    0    0    0  0.00000000000E+00  0.00000000000E+00  0.99999998245E-14  0.12500000000E+03  0.12500000000E+03 0.  0.
        -11    1    3    3    0    0  0.29144856875E+02 -0.44634717996E+01  0.11520413959E+02  0.31655413452E+02  0.51100000000E-03 0.  1.
         23    2    1    0    0    0 -0.21159202534E+02 -0.28928129826E+02  0.10689755626E+02  0.87599205591E+02  0.79213644012E+02 0.  0.
         11    1    3    3    0    0 -0.50304059409E+02 -0.24464658026E+02 -0.83065833271E+00  0.55943792139E+02  0.51100000000E-03 0. -1.
         22    1    1    0    0    0  0.21159202534E+02  0.28928129826E+02 -0.10689755626E+02  0.37400794409E+02  0.00000000000E+00 0. -1.
</event>
<event>
 5    1  0.1681104E-003  0.9118800E+02  0.7818608E-02  0.1130116E+00
         25   -1    0    0    0    0  0.00000000000E+00  0.00000000000E+00  0.99999998245E-14  0.12500000000E+03  0.12500000000E+03 0.  0.
        -11    1    3    3    0    0 -0.21294998778E+02  0.38142065351E+02 -0.19043458420E+02  0.47654458669E+02  0.51100000000E-03 0. -1.
         23    2    1    0    0    0 -0.69965712233E+01 -0.72072708419E+01 -0.27295219248E+02  0.95915197170E+02  0.91399120852E+02 0.  0.
         11    1    3    3    0    0  0.14298427555E+02 -0.45349336192E+02 -0.82517608273E+01  0.48260738501E+02  0.51100000000E-03 0.  1.
         22    1    1    0    0    0  0.69965712233E+01  0.72072708419E+01  0.27295219248E+02  0.29084802830E+02  0.00000000000E+00 0. -1.
</event>
<event>
 5    1  0.1681104E-003  0.9118800E+02  0.7818608E-02  0.1130116E+00
         25   -1    0    0    0    0  0.00000000000E+00  0.00000000000E+00  0.99999998245E-14  0.12500000000E+03  0.12500000000E+03 0.  0.
        -11    1    3    3    0    0  0.19645936287E+02  0.11106870999E+02  0.25338147014E+02  0.33931505866E+02  0.51100000000E-03 0. -1.
         23    2    1    0    0    0 -0.23886058627E+02  0.56505448998E+01 -0.17190324436E+02  0.95033690441E+02  0.90185490020E+02 0.  0.
         11    1    3    3    0    0 -0.43531994914E+02 -0.54563260991E+01 -0.42528471449E+02  0.61102184575E+02  0.51100000000E-03 0.  1.
         22    1    1    0    0    0  0.23886058627E+02 -0.56505448998E+01  0.17190324436E+02  0.29966309559E+02  0.00000000000E+00 0.  1.
</event>
<event>
 5    1  0.1681104E-003  0.9118800E+02  0.7818608E-02  0.1130116E+00
         25   -1    0    0    0    0  0.00000000000E+00  0.00000000000E+00  0.99999998245E-14  0.12500000000E+03  0.12500000000E+03 0.  0.
        -11    1    3    3    0    0 -0.33041749472E+02  0.11819493614E+02  0.19179079591E+02  0.39991183175E+02  0.51100000000E-03 0.  1.
         23    2    1    0    0    0 -0.42800011052E+01  0.10881393316E+02 -0.27663368362E+02  0.94966933572E+02  0.90092915332E+02 0.  0.
         11    1    3    3    0    0  0.28761748367E+02 -0.93810029857E+00 -0.46842447952E+02  0.54975750397E+02  0.51100000000E-03 0. -1.
         22    1    1    0    0    0  0.42800011052E+01 -0.10881393316E+02  0.27663368362E+02  0.30033066428E+02  0.00000000000E+00 0. -1.
</event>
<event>
 5    1  0.1681104E-003  0.9118800E+02  0.7818608E-02  0.1130116E+00
         25   -1    0    0    0    0  0.00000000000E+00  0.00000000000E+00  0.99999998245E-14  0.12500000000E+03  0.12500000000E+03 0.  0.
        -11    1    3    3    0    0 -0.40531259134E+02 -0.26630866845E+02  0.16871715616E+02  0.51348230972E+02  0.51100000000E-03 0. -1.
         23    2    1    0    0    0  0.11838498606E+01 -0.14457865162E+02  0.25510458750E+02  0.95653537331E+02  0.91040564216E+02 0.  0.
         11    1    3    3    0    0  0.41715108994E+02  0.12173001683E+02  0.86387431341E+01  0.44305306359E+02  0.51100000000E-03 0.  1.
         22    1    1    0    0    0 -0.11838498606E+01  0.14457865162E+02 -0.25510458750E+02  0.29346462669E+02  0.00000000000E+00 0.  1.
</event>
<event>
 5    1  0.1681104E-003  0.9118800E+02  0.7818608E-02  0.1130116E+00
         25   -1    0    0    0    0  0.00000000000E+00  0.00000000000E+00  0.99999998245E-14  0.12500000000E+03  0.12500000000E+03 0.  0.
        -11    1    3    3    0    0  0.37323772141E+02  0.18580875276E+02  0.37628014665E+02  0.56162090246E+02  0.51100000000E-03 0.  1.
         23    2    1    0    0    0  0.22118403014E+02 -0.10727237106E+02  0.17385249466E+02  0.94891126444E+02  0.89987674773E+02 0.  0.
         11    1    3    3    0    0 -0.15205369128E+02 -0.29308112382E+02 -0.20242765199E+02  0.38729036198E+02  0.51100000000E-03 0. -1.
         22    1    1    0    0    0 -0.22118403014E+02  0.10727237106E+02 -0.17385249466E+02  0.30108873556E+02  0.00000000000E+00 0.  1.
</event>
<event>
 5    1  0.1681104E-003  0.9118800E+02  0.7818608E-02  0.1130116E+00
         25   -1    0    0    0    0  0.00000000000E+00  0.00000000000E+00  0.99999998245E-14  0.12500000000E+03  0.12500000000E+03 0.  0.
        -11    1    3    3    0    0 -0.26364310882E+02 -0.30009592962E+02  0.10768511592E+02  0.41371649716E+02  0.51100000000E-03 0. -1.
         23    2    1    0    0    0  0.24549166409E+02 -0.11873047605E+02  0.11452023997E+02  0.95423325332E+02  0.90723929219E+02 0.  0.
         11    1    3    3    0    0  0.50913477291E+02  0.18136545357E+02  0.68351240548E+00  0.54051675616E+02  0.51100000000E-03 0.  1.
         22    1    1    0    0    0 -0.24549166409E+02  0.11873047605E+02 -0.11452023997E+02  0.29576674668E+02  0.00000000000E+00 0.  1.
</event>
<event>
 5    1  0.1681104E-003  0.9118800E+02  0.7818608E-02  0.1130116E+00
         25   -1    0    0    0    0  0.00000000000E+00  0.00000000000E+00  0.99999998245E-14  0.12500000000E+03  0.12500000000E+03 0.  0.
        -11    1    3    3    0    0 -0.37358272735E+02 -0.24993389110E+02 -0.99358634064E+01  0.46032938456E+02  0.51100000000E-03 0.  1.
         23    2    1    0    0    0  0.31882526947E+01 -0.23427148567E+02  0.17990083169E+02  0.95290753331E+02  0.90541086434E+02 0.  0.
         11    1    3    3    0    0  0.40546525430E+02  0.15662405427E+01  0.27925946575E+02  0.49257814875E+02  0.51100000000E-03 0. -1.
         22    1    1    0    0    0 -0.31882526947E+01  0.23427148567E+02 -0.17990083169E+02  0.29709246669E+02  0.00000000000E+00 0. -1.
</event>
<event>
 5    1  0.1681104E-003  0.9118800E+02  0.7818608E-02  0.1130116E+00
         25   -1    0    0    0    0  0.00000000000E+00  0.00000000000E+00  0.99999998245E-14  0.12500000000E+03  0.12500000000E+03 0.  0.
        -11    1    3    3    0    0 -0.34065657607E+02 -0.76496720892E+01 -0.51408752028E+02  0.62143755089E+02  0.51100000000E-03 0. -1.
         23    2    1    0    0    0 -0.13343066094E+02  0.29417029718E+00 -0.25178377094E+02  0.96503076972E+02  0.92199616284E+02 0.  0.
         11    1    3    3    0    0  0.20722591512E+02  0.79438423864E+01  0.26230374934E+02  0.34359321883E+02  0.51100000000E-03 0.  1.
         22    1    1    0    0    0  0.13343066094E+02 -0.29417029718E+00  0.25178377094E+02  0.28496923028E+02  0.00000000000E+00 0. -1.
</event>
<event>
 5    1  0.1681104E-003  0.9118800E+02  0.7818608E-02  0.1130116E+00
         25   -1    0    0    0    0  0.00000000000E+00  0.00000000000E+00  0.99999998245E-14  0.12500000000E+03  0.12500000000E+03 0.  0.
        -11    1    3    3    0    0  0.28967053552E+02 -0.53856532182E+02  0.49211474471E+00  0.61154381915E+02  0.51100000000E-03 0.  1.
         23    2    1    0    0    0  0.20927855912E+02 -0.20607985983E+02  0.31297782955E+01  0.95462570330E+02  0.90777985120E+02 0.  0.
         11    1    3    3    0    0 -0.80391976399E+01  0.33248546200E+02  0.26376635508E+01  0.34308188415E+02  0.51100000000E-03 0. -1.
         22    1    1    0    0    0 -0.20927855912E+02  0.20607985983E+02 -0.31297782955E+01  0.29537429670E+02  0.00000000000E+00 0.  1.
</event>
<event>
 5    1  0.1681104E-003  0.9118800E+02  0.7818608E-02  0.1130116E+00
         25   -1    0    0    0    0  0.00000000000E+00  0.00000000000E+00  0.99999998245E-14  0.12500000000E+03  0.12500000000E+03 0.  0.
        -11    1    3    3    0    0 -0.34763816489E+01  0.19307001397E+02 -0.29256886611E+02  0.35225146511E+02  0.51100000000E-03 0.  1.
         23    2    1    0    0    0  0.18275330032E+02  0.40548955808E+01  0.23894406794E+02  0.94645880971E+02  0.89646362128E+02 0.  0.
         11    1    3    3    0    0  0.21751711681E+02 -0.15252105816E+02  0.53151293405E+02  0.59420734460E+02  0.51100000000E-03 0. -1.
         22    1    1    0    0    0 -0.18275330032E+02 -0.40548955808E+01 -0.23894406794E+02  0.30354119029E+02  0.00000000000E+00 0. -1.
</event>
<event>
 5    1  0.1681104E-003  0.9118800E+02  0.7818608E-02  0.1130116E+00
         25   -1    0    0    0    0  0.00000000000E+00  0.00000000000E+00  0.99999998245E-14  0.12500000000E+03  0.12500000000E+03 0.  0.
        -11    1    3    3    0    0 -0.13899061352E+02  0.20313215286E+02  0.30701775101E+02  0.39349836293E+02  0.51100000000E-03 0.  1.
         23    2    1    0    0    0  0.29202272906E+02 -0.25290262872E+01  0.27774887412E+01  0.95557120376E+02  0.90908085966E+02 0.  0.
         11    1    3    3    0    0  0.43101334259E+02 -0.22842241573E+02 -0.27924286360E+02  0.56207284082E+02  0.51100000000E-03 0. -1.
         22    1    1    0    0    0 -0.29202272906E+02  0.25290262872E+01 -0.27774887412E+01  0.29442879624E+02  0.00000000000E+00 0. -1.
</event>
<event>
 5    1  0.1681104E-003  0.9118800E+02  0.7818608E-02  0.1130116E+00
         25   -1    0    0    0    0  0.00000000000E+00  0.00000000000E+00  0.99999998245E-14  0.12500000000E+03  0.12500000000E+03 0.  0.
        -11    1    3    3    0    0  0.94003553639E+01  0.49531639646E+02  0.53973043691E+01  0.50703854900E+02  0.51100000000E-03 0. -1.
         23    2    1    0    0    0  0.21599422781E+02  0.82838275396E+01  0.18180853970E+02  0.95577214369E+02  0.90935711315E+02 0.  0.
         11    1    3    3    0    0  0.12199067417E+02 -0.41247812106E+02  0.12783549601E+02  0.44873359469E+02  0.51100000000E-03 0.  1.
         22    1    1    0    0    0 -0.21599422781E+02 -0.82838275396E+01 -0.18180853970E+02  0.29422785631E+02  0.00000000000E+00 0. -1.
</event>
<event>
 5    1  0.1681104E-003  0.9118800E+02  0.7818608E-02  0.1130116E+00
         25   -1    0    0    0    0  0.00000000000E+00  0.00000000000E+00  0.99999998245E-14  0.12500000000E+03  0.12500000000E+03 0.  0.
        -11    1    3    3    0    0 -0.25280395152E+02  0.54675816043E+02  0.28427900020E+01  0.60304433454E+02  0.51100000000E-03 0.  1.
         23    2    1    0    0    0 -0.18969024112E+02  0.19120866431E+02 -0.58307497045E+01  0.97442259691E+02  0.93464244087E+02 0.  0.
         11    1    3    3    0    0  0.63113710404E+01 -0.35554949612E+02 -0.86735397065E+01  0.37137826237E+02  0.51100000000E-03 0. -1.
         22    1    1    0    0    0  0.18969024112E+02 -0.19120866431E+02  0.58307497045E+01  0.27557740309E+02  0.00000000000E+00 0.  1.
</event>
<event>
 5    1  0.1681104E-003  0.9118800E+02  0.7818608E-02  0.1130116E+00
         25   -1    0    0    0    0  0.00000000000E+00  0.00000000000E+00  0.99999998245E-14  0.12500000000E+03  0.12500000000E+03 0.  0.
        -11    1    3    3    0    0  0.41731509121E+01  0.21428672910E+02  0.28463892691E+02  0.35871944450E+02  0.51100000000E-03 0. -1.
         23    2    1    0    0    0 -0.99668445554E+01 -0.27569432525E+02 -0.25730540188E+01  0.95571574845E+02  0.90927958908E+02 0.  0.
         11    1    3    3    0    0 -0.14139995467E+02 -0.48998105435E+02 -0.31036946709E+02  0.59699630395E+02  0.51100000000E-03 0.  1.
         22    1    1    0    0    0  0.99668445554E+01  0.27569432525E+02  0.25730540188E+01  0.29428425155E+02  0.00000000000E+00 0.  1.
</event>
<event>
 5    1  0.1681104E-003  0.9118800E+02  0.7818608E-02  0.1130116E+00
         25   -1    0    0    0    0  0.00000000000E+00  0.00000000000E+00  0.99999998245E-14  0.12500000000E+03  0.12500000000E+03 0.  0.
        -11    1    3    3    0    0  0.47001984639E+02  0.13783721260E+02 -0.83453690149E+00  0.48988508692E+02  0.51100000000E-03 0. -1.
         23    2    1    0    0    0  0.15136867046E+02 -0.13278565062E+02 -0.21431667447E+02  0.95593174200E+02  0.90957647012E+02 0.  0.
         11    1    3    3    0    0 -0.31865117593E+02 -0.27062286321E+02 -0.20597130546E+02  0.46604665508E+02  0.51100000000E-03 0.  1.
         22    1    1    0    0    0 -0.15136867046E+02  0.13278565062E+02  0.21431667447E+02  0.29406825800E+02  0.00000000000E+00 0. -1.
</event>
<event>
 5    1  0.1681104E-003  0.9118800E+02  0.7818608E-02  0.1130116E+00
         25   -1    0    0    0    0  0.00000000000E+00  0.00000000000E+00  0.99999998245E-14  0.12500000000E+03  0.12500000000E+03 0.  0.
        -11    1    3    3    0    0  0.27512744733E+02 -0.24163286001E+02 -0.38160289069E+02  0.52886890391E+02  0.51100000000E-03 0. -1.
         23    2    1    0    0    0  0.10812483239E+02  0.12829533694E+02 -0.23676086023E+02  0.95981664797E+02  0.91489978682E+02 0.  0.
         11    1    3    3    0    0 -0.16700261494E+02  0.36992819695E+02  0.14484203046E+02  0.43094774406E+02  0.51100000000E-03 0.  1.
         22    1    1    0    0    0 -0.10812483239E+02 -0.12829533694E+02  0.23676086023E+02  0.29018335203E+02  0.00000000000E+00 0. -1.
</event>
<event>
 5    1  0.1681104E-003  0.9118800E+02  0.7818608E-02  0.1130116E+00
         25   -1    0    0    0    0  0.00000000000E+00  0.00000000000E+00  0.99999998245E-14  0.12500000000E+03  0.12500000000E+03 0.  0.
        -11    1    3    3    0    0  0.30697385296E+02  0.33841456338E+01 -0.30739678997E+02  0.43574186978E+02  0.51100000000E-03 0. -1.
         23    2    1    0    0    0  0.18561028052E+02  0.60525161973E+01  0.20730848171E+02  0.96523469653E+02  0.92227259600E+02 0.  0.
         11    1    3    3    0    0 -0.12136357244E+02  0.26683705635E+01  0.51470527168E+02  0.52949282676E+02  0.51100000000E-03 0.  1.
         22    1    1    0    0    0 -0.18561028052E+02 -0.60525161973E+01 -0.20730848171E+02  0.28476530347E+02  0.00000000000E+00 0.  1.
</event>
<event>
 5    1  0.1681104E-003  0.9118800E+02  0.7818608E-02  0.1130116E+00
         25   -1    0    0    0    0  0.00000000000E+00  0.00000000000E+00  0.99999998245E-14  0.12500000000E+03  0.12500000000E+03 0.  0.
        -11    1    3    3    0    0 -0.26388487457E+02 -0.13252334585E+02  0.41531796473E+02  0.50959461935E+02  0.51100000000E-03 0. -1.
         23    2    1    0    0    0 -0.25423924882E+02  0.13344379053E+02  0.54835258629E+01  0.95767869311E+02  0.91197408558E+02 0.  0.
         11    1    3    3    0    0  0.96456257434E+00  0.26596713638E+02 -0.36048270610E+02  0.44808407376E+02  0.51100000000E-03 0.  1.
         22    1    1    0    0    0  0.25423924882E+02 -0.13344379053E+02 -0.54835258629E+01  0.29232130689E+02  0.00000000000E+00 0. -1.
</event>
<event>
 5    1  0.1681104E-003  0.9118800E+02  0.7818608E-02  0.1130116E+00
         25   -1    0    0    0    0  0.00000000000E+00  0.00000000000E+00  0.99999998245E-14  0.12500000000E+03  0.12500000000E+03 0.  0.
        -11    1    3    3    0    0 -0.21689207994E+02  0.31703758961E+02 -0.16524597387E+02  0.41816412983E+02  0.51100000000E-03 0. -1.
         23    2    1    0    0    0  0.67181513152E+00 -0.17361782095E+02 -0.23054917663E+02  0.96131123306E+02  0.91693951963E+02 0.  0.
         11    1    3    3    0    0  0.22361023126E+02 -0.49065541056E+02 -0.65303202764E+01  0.54314710324E+02  0.51100000000E-03 0.  1.
         22    1    1    0    0    0 -0.67181513152E+00  0.17361782095E+02  0.23054917663E+02  0.28868876694E+02  0.00000000000E+00 0.  1.
</event>
<event>
 5    1  0.1681104E-003  0.9118800E+02  0.7818608E-02  0.1130116E+00
         25   -1    0    0    0    0  0.00000000000E+00  0.00000000000E+00  0.99999998245E-14  0.12500000000E+03  0.12500000000E+03 0.  0.
        -11    1    3    3    0    0 -0.30317498749E+02 -0.20793283217E+02 -0.41091985533E+02  0.55136762987E+02  0.51100000000E-03 0.  1.
         23    2    1    0    0    0 -0.32418487939E+02 -0.25449563815E+01 -0.10484178500E+02  0.90833449661E+02  0.84162713925E+02 0.  0.
         11    1    3    3    0    0 -0.21009891901E+01  0.18248326835E+02  0.30607807033E+02  0.35696686674E+02  0.51100000000E-03 0. -1.
         22    1    1    0    0    0  0.32418487939E+02  0.25449563815E+01  0.10484178500E+02  0.34166550339E+02  0.00000000000E+00 0.  1.
</event>
<event>
 5    1  0.1681104E-003  0.9118800E+02  0.7818608E-02  0.1130116E+00
         25   -1    0    0    0    0  0.00000000000E+00  0.00000000000E+00  0.99999998245E-14  0.12500000000E+03  0.12500000000E+03 0.  0.
        -11    1    3    3    0    0 -0.11173675382E+02 -0.31254460906E+02 -0.88743321286E+01  0.34357620975E+02  0.51100000000E-03 0.  1.
         23    2    1    0    0    0 -0.65371062460E+01  0.28995272180E+02 -0.14265536182E+01  0.95242738330E+02  0.90474773183E+02 0.  0.
         11    1    3    3    0    0  0.46365691363E+01  0.60249733086E+02  0.74477785105E+01  0.60885117355E+02  0.51100000000E-03 0. -1.
         22    1    1    0    0    0  0.65371062460E+01 -0.28995272180E+02  0.14265536182E+01  0.29757261670E+02  0.00000000000E+00 0. -1.
</event>
<event>
 5    1  0.1681104E-003  0.9118800E+02  0.7818608E-02  0.1130116E+00
         25   -1    0    0    0    0  0.00000000000E+00  0.00000000000E+00  0.99999998245E-14  0.12500000000E+03  0.12500000000E+03 0.  0.
        -11    1    3    3    0    0 -0.22229094261E+02  0.25952374801E+02 -0.72844576740E+01  0.34938828162E+02  0.51100000000E-03 0.  1.
         23    2    1    0    0    0  0.29554347147E+02  0.59386444698E+01 -0.15572026621E+02  0.91070441404E+02  0.84513965420E+02 0.  0.
         11    1    3    3    0    0  0.51783441408E+02 -0.20013730331E+02 -0.82875689473E+01  0.56131613242E+02  0.51100000000E-03 0. -1.
         22    1    1    0    0    0 -0.29554347147E+02 -0.59386444698E+01  0.15572026621E+02  0.33929558596E+02  0.00000000000E+00 0. -1.
</event>
<event>
 5    1  0.1681104E-003  0.9118800E+02  0.7818608E-02  0.1130116E+00
         25   -1    0    0    0    0  0.00000000000E+00  0.00000000000E+00  0.99999998245E-14  0.12500000000E+03  0.12500000000E+03 0.  0.
        -11    1    3    3    0    0  0.30510452408E+02 -0.27573183342E+02  0.14394825243E+00  0.41124066763E+02  0.51100000000E-03 0. -1.
         23    2    1    0    0    0  0.11412010957E+02  0.22809127883E+02  0.12788688560E+02  0.96468598633E+02  0.92152860282E+02 0.  0.
         11    1    3    3    0    0 -0.19098441450E+02  0.50382311225E+02  0.12644740308E+02  0.55344531870E+02  0.51100000000E-03 0.  1.
         22    1    1    0    0    0 -0.11412010957E+02 -0.22809127883E+02 -0.12788688560E+02  0.28531401367E+02  0.00000000000E+00 0. -1.
</event>
<event>
 5    1  0.1681104E-003  0.9118800E+02  0.7818608E-02  0.1130116E+00
         25   -1    0    0    0    0  0.00000000000E+00  0.00000000000E+00  0.99999998245E-14  0.12500000000E+03  0.12500000000E+03 0.  0.
        -11    1    3    3    0    0  0.25268527330E+02  0.15563487995E+02  0.39490609228E+02  0.49398672548E+02  0.51100000000E-03 0.  1.
         23    2    1    0    0    0  0.22314552233E+02  0.10117544771E+02 -0.94572233417E+01  0.98737040782E+02  0.95180146015E+02 0.  0.
         11    1    3    3    0    0 -0.29539750966E+01 -0.54459432247E+01 -0.48947832570E+02  0.49338368234E+02  0.51100000000E-03 0. -1.
         22    1    1    0    0    0 -0.22314552233E+02 -0.10117544771E+02  0.94572233417E+01  0.26262959218E+02  0.00000000000E+00 0.  1.
</event>
<event>
 5    1  0.1681104E-003  0.9118800E+02  0.7818608E-02  0.1130116E+00
         25   -1    0    0    0    0  0.00000000000E+00  0.00000000000E+00  0.99999998245E-14  0.12500000000E+03  0.12500000000E+03 0.  0.
        -11    1    3    3    0    0 -0.13611655067E+02  0.20999046677E+02  0.37841580075E+02  0.45367634915E+02  0.51100000000E-03 0.  1.
         23    2    1    0    0    0  0.59016086266E+01  0.24719422360E+02 -0.10400891474E+02  0.97539894945E+02  0.93594731349E+02 0.  0.
         11    1    3    3    0    0  0.19513263693E+02  0.37203756831E+01 -0.48242471549E+02  0.52172260029E+02  0.51100000000E-03 0. -1.
         22    1    1    0    0    0 -0.59016086266E+01 -0.24719422360E+02  0.10400891474E+02  0.27460105055E+02  0.00000000000E+00 0.  1.
</event>
<event>
 5    1  0.1681104E-003  0.9118800E+02  0.7818608E-02  0.1130116E+00
         25   -1    0    0    0    0  0.00000000000E+00  0.00000000000E+00  0.99999998245E-14  0.12500000000E+03  0.12500000000E+03 0.  0.
        -11    1    3    3    0    0 -0.45097806161E+02 -0.14584388827E+02 -0.52969170636E+01  0.47692492581E+02  0.51100000000E-03 0.  1.
         23    2    1    0    0    0  0.10006807738E+01 -0.24562525095E+02 -0.15485295406E+02  0.95946370711E+02  0.91441744721E+02 0.  0.
         11    1    3    3    0    0  0.46098486934E+02 -0.99781362687E+01 -0.10188378343E+02  0.48253878130E+02  0.51100000000E-03 0. -1.
         22    1    1    0    0    0 -0.10006807738E+01  0.24562525095E+02  0.15485295406E+02  0.29053629289E+02  0.00000000000E+00 0. -1.
</event>
<event>
 5    1  0.1681104E-003  0.9118800E+02  0.7818608E-02  0.1130116E+00
         25   -1    0    0    0    0  0.00000000000E+00  0.00000000000E+00  0.99999998245E-14  0.12500000000E+03  0.12500000000E+03 0.  0.
        -11    1    3    3    0    0 -0.15290933095E+02 -0.44612834562E+01 -0.52279076851E+02  0.54651784615E+02  0.51100000000E-03 0.  1.
         23    2    1    0    0    0  0.91232956225E+01  0.13354233525E+02 -0.24116364942E+02  0.95962625221E+02  0.91463961784E+02 0.  0.
         11    1    3    3    0    0  0.24414228717E+02  0.17815516981E+02  0.28162711909E+02  0.41310840606E+02  0.51100000000E-03 0. -1.
         22    1    1    0    0    0 -0.91232956225E+01 -0.13354233525E+02  0.24116364942E+02  0.29037374779E+02  0.00000000000E+00 0.  1.
</event>
<event>
 5    1  0.1681104E-003  0.9118800E+02  0.7818608E-02  0.1130116E+00
         25   -1    0    0    0    0  0.00000000000E+00  0.00000000000E+00  0.99999998245E-14  0.12500000000E+03  0.12500000000E+03 0.  0.
        -11    1    3    3    0    0 -0.15824973724E+02 -0.19320951604E+02  0.54630350715E+02  0.60068329290E+02  0.51100000000E-03 0. -1.
         23    2    1    0    0    0  0.50183293635E+00 -0.10790799807E+01  0.30614023001E+02  0.94362854993E+02  0.89250847325E+02 0.  0.
         11    1    3    3    0    0  0.16326806660E+02  0.18241871623E+02 -0.24016327714E+02  0.34294525703E+02  0.51100000000E-03 0.  1.
         22    1    1    0    0    0 -0.50183293635E+00  0.10790799807E+01 -0.30614023001E+02  0.30637145007E+02  0.00000000000E+00 0. -1.
</event>
<event>
 5    1  0.1681104E-003  0.9118800E+02  0.7818608E-02  0.1130116E+00
         25   -1    0    0    0    0  0.00000000000E+00  0.00000000000E+00  0.99999998245E-14  0.12500000000E+03  0.12500000000E+03 0.  0.
        -11    1    3    3    0    0  0.17092309352E+02  0.10603367962E+02  0.29090913210E+02  0.35367494721E+02  0.51100000000E-03 0. -1.
         23    2    1    0    0    0  0.11826899392E+01 -0.23827974192E+02 -0.17475964324E+02  0.95426693816E+02  0.90728570219E+02 0.  0.
         11    1    3    3    0    0 -0.15909619413E+02 -0.34431342155E+02 -0.46566877534E+02  0.60059199095E+02  0.51100000000E-03 0.  1.
         22    1    1    0    0    0 -0.11826899392E+01  0.23827974192E+02  0.17475964324E+02  0.29573306184E+02  0.00000000000E+00 0.  1.
</event>
<event>
 5    1  0.1681104E-003  0.9118800E+02  0.7818608E-02  0.1130116E+00
         25   -1    0    0    0    0  0.00000000000E+00  0.00000000000E+00  0.99999998245E-14  0.12500000000E+03  0.12500000000E+03 0.  0.
        -11    1    3    3    0    0  0.32249698848E+02 -0.25066200975E+02 -0.26319806241E+01  0.40930243456E+02  0.51100000000E-03 0.  1.
         23    2    1    0    0    0  0.10427976478E+02  0.26024141070E+02 -0.49344019623E+01  0.96533406691E+02  0.92240726758E+02 0.  0.
         11    1    3    3    0    0 -0.21821722370E+02  0.51090342045E+02 -0.23024213383E+01  0.55603163235E+02  0.51100000000E-03 0. -1.
         22    1    1    0    0    0 -0.10427976478E+02 -0.26024141070E+02  0.49344019623E+01  0.28466593309E+02  0.00000000000E+00 0. -1.
</event>
<event>
 5    1  0.1681104E-003  0.9118800E+02  0.7818608E-02  0.1130116E+00
         25   -1    0    0    0    0  0.00000000000E+00  0.00000000000E+00  0.99999998245E-14  0.12500000000E+03  0.12500000000E+03 0.  0.
        -11    1    3    3    0    0 -0.35273849987E+02  0.12381334737E+02 -0.19267216810E+02  0.42056718686E+02  0.51100000000E-03 0. -1.
         23    2    1    0    0    0  0.78030675134E+00  0.30398391470E+02  0.11213637546E+02  0.92589866560E+02  0.86732154591E+02 0.  0.
         11    1    3    3    0    0  0.36054156739E+02  0.18017056734E+02  0.30480854356E+02  0.50533147873E+02  0.51100000000E-03 0.  1.
         22    1    1    0    0    0 -0.78030675134E+00 -0.30398391470E+02 -0.11213637546E+02  0.32410133440E+02  0.00000000000E+00 0.  1.
</event>
<event>
 5    1  0.1681104E-003  0.9118800E+02  0.7818608E-02  0.1130116E+00
         25   -1    0    0    0    0  0.00000000000E+00  0.00000000000E+00  0.99999998245E-14  0.12500000000E+03  0.12500000000E+03 0.  0.
        -11    1    3    3    0    0 -0.28892096043E+02  0.43052689546E+02  0.23700854112E+02  0.57008927168E+02  0.51100000000E-03 0.  1.
         23    2    1    0    0    0 -0.24130360156E+02  0.71706794579E+01  0.85507995410E+00  0.99812223463E+02  0.96581860956E+02 0.  0.
         11    1    3    3    0    0  0.47617358866E+01 -0.35882010088E+02 -0.22845774158E+02  0.42803296296E+02  0.51100000000E-03 0. -1.
         22    1    1    0    0    0  0.24130360156E+02 -0.71706794579E+01 -0.85507995410E+00  0.25187776537E+02  0.00000000000E+00 0.  1.
</event>
<event>
 5    1  0.1681104E-003  0.9118800E+02  0.7818608E-02  0.1130116E+00
         25   -1    0    0    0    0  0.00000000000E+00  0.00000000000E+00  0.99999998245E-14  0.12500000000E+03  0.12500000000E+03 0.  0.
        -11    1    3    3    0    0  0.50705681507E+02 -0.21211619752E+02  0.33725924340E+01  0.55066989473E+02  0.51100000000E-03 0.  1.
         23    2    1    0    0    0  0.11722020724E+02 -0.27261037376E+02  0.64349264595E+01  0.94635905954E+02  0.89632452207E+02 0.  0.
         11    1    3    3    0    0 -0.38983660782E+02 -0.60494176237E+01  0.30623340255E+01  0.39568916482E+02  0.51100000000E-03 0. -1.
         22    1    1    0    0    0 -0.11722020724E+02  0.27261037376E+02 -0.64349264595E+01  0.30364094046E+02  0.00000000000E+00 0.  1.
</event>
<event>
 4    1  0.1681104E-003  0.9118800E+02  0.7818608E-02  0.1130116E+00
         25   -1    0    0    0    0  0.00000000000E+00  0.00000000000E+00  0.99999998245E-14  0.12500000000E+03  0.12500000000E+03 0.  0.
        -11    1    1    0    0    0 -0.16082241418E+02  0.24671004137E+02  0.21595845291E+02  0.36519549125E+02  0.51100000000E-03 0.  1.
         11    1    1    0    0    0  0.11111117972E+02  0.28983390351E+02 -0.14044670081E+02  0.34069731681E+02  0.51100000000E-03 0. -1.
         22    1    1    0    0    0  0.49711234456E+01 -0.53654394488E+02 -0.75511752100E+01  0.54410719195E+02  0.00000000000E+00 0.  1.
</event>
<event>
 5    1  0.1681104E-003  0.9118800E+02  0.7818608E-02  0.1130116E+00
         25   -1    0    0    0    0  0.00000000000E+00  0.00000000000E+00  0.99999998245E-14  0.12500000000E+03  0.12500000000E+03 0.  0.
        -11    1    3    3    0    0 -0.10524710470E+02  0.58739312595E+02 -0.10687649050E+01  0.59684324855E+02  0.51100000000E-03 0.  1.
         23    2    1    0    0    0 -0.12830713050E+02  0.24324026089E+02 -0.10691917221E+02  0.95494025412E+02  0.90821287994E+02 0.  0.
         11    1    3    3    0    0 -0.23060025801E+01 -0.34415286507E+02 -0.96231523159E+01  0.35809700557E+02  0.51100000000E-03 0. -1.
         22    1    1    0    0    0  0.12830713050E+02 -0.24324026089E+02  0.10691917221E+02  0.29505974588E+02  0.00000000000E+00 0.  1.
</event>
<event>
 5    1  0.1681104E-003  0.9118800E+02  0.7818608E-02  0.1130116E+00
         25   -1    0    0    0    0  0.00000000000E+00  0.00000000000E+00  0.99999998245E-14  0.12500000000E+03  0.12500000000E+03 0.  0.
        -11    1    3    3    0    0 -0.35606585262E+02 -0.63063051785E+01 -0.44473165539E+02  0.57318939735E+02  0.51100000000E-03 0. -1.
         23    2    1    0    0    0 -0.32974694101E+01 -0.14063835423E+02 -0.25793512911E+02  0.95437015042E+02  0.90742789028E+02 0.  0.
         11    1    3    3    0    0  0.32309115852E+02 -0.77575302447E+01  0.18679652628E+02  0.38118075308E+02  0.51100000000E-03 0.  1.
         22    1    1    0    0    0  0.32974694101E+01  0.14063835423E+02  0.25793512911E+02  0.29562984958E+02  0.00000000000E+00 0. -1.
</event>
<event>
 5    1  0.1681104E-003  0.9118800E+02  0.7818608E-02  0.1130116E+00
         25   -1    0    0    0    0  0.00000000000E+00  0.00000000000E+00  0.99999998245E-14  0.12500000000E+03  0.12500000000E+03 0.  0.
        -11    1    3    3    0    0 -0.25044975994E+02 -0.21300343773E+02  0.27184372825E+01  0.32990079856E+02  0.51100000000E-03 0. -1.
         23    2    1    0    0    0  0.28816835727E+02  0.88592581389E+01  0.28145712953E+01  0.94720992625E+02  0.89751034290E+02 0.  0.
         11    1    3    3    0    0  0.53861811720E+02  0.30159601912E+02  0.96134012837E-01  0.61730912769E+02  0.51100000000E-03 0.  1.
         22    1    1    0    0    0 -0.28816835727E+02 -0.88592581389E+01 -0.28145712953E+01  0.30279007375E+02  0.00000000000E+00 0.  1.
</event>
<event>
 5    1  0.1681104E-003  0.9118800E+02  0.7818608E-02  0.1130116E+00
         25   -1    0    0    0    0  0.00000000000E+00  0.00000000000E+00  0.99999998245E-14  0.12500000000E+03  0.12500000000E+03 0.  0.
        -11    1    3    3    0    0 -0.93857459439E+01  0.48128715618E+02  0.17096317312E+02  0.51930237433E+02  0.51100000000E-03 0. -1.
         23    2    1    0    0    0  0.20712837919E+02  0.17992916659E+02  0.12756311587E+02  0.94742931571E+02  0.89781584375E+02 0.  0.
         11    1    3    3    0    0  0.30098583863E+02 -0.30135798959E+02 -0.43400057248E+01  0.42812694139E+02  0.51100000000E-03 0.  1.
         22    1    1    0    0    0 -0.20712837919E+02 -0.17992916659E+02 -0.12756311587E+02  0.30257068429E+02  0.00000000000E+00 0. -1.
</event>
<event>
 5    1  0.1681104E-003  0.9118800E+02  0.7818608E-02  0.1130116E+00
         25   -1    0    0    0    0  0.00000000000E+00  0.00000000000E+00  0.99999998245E-14  0.12500000000E+03  0.12500000000E+03 0.  0.
        -11    1    3    3    0    0  0.37641459859E+01  0.33463461866E+02  0.48824993046E+02  0.59311483048E+02  0.51100000000E-03 0.  1.
         23    2    1    0    0    0 -0.29293293392E+01  0.23909575820E+02  0.11710657283E+02  0.98215895007E+02  0.94493247123E+02 0.  0.
         11    1    3    3    0    0 -0.66934753251E+01 -0.95538860466E+01 -0.37114335763E+02  0.38904411960E+02  0.51100000000E-03 0. -1.
         22    1    1    0    0    0  0.29293293392E+01 -0.23909575820E+02 -0.11710657283E+02  0.26784104993E+02  0.00000000000E+00 0.  1.
</event>
<event>
 5    1  0.1681104E-003  0.9118800E+02  0.7818608E-02  0.1130116E+00
         25   -1    0    0    0    0  0.00000000000E+00  0.00000000000E+00  0.99999998245E-14  0.12500000000E+03  0.12500000000E+03 0.  0.
        -11    1    3    3    0    0  0.35547013125E+02 -0.34570187718E+02  0.74440223612E+01  0.50140816609E+02  0.51100000000E-03 0. -1.
         23    2    1    0    0    0  0.27581642141E+02  0.89325532981E+01 -0.37634022808E+01  0.95764735535E+02  0.91193113138E+02 0.  0.
         11    1    3    3    0    0 -0.79653709846E+01  0.43502741016E+02 -0.11207424642E+02  0.45623918927E+02  0.51100000000E-03 0.  1.
         22    1    1    0    0    0 -0.27581642141E+02 -0.89325532981E+01  0.37634022808E+01  0.29235264465E+02  0.00000000000E+00 0.  1.
</event>
<event>
 5    1  0.1681104E-003  0.9118800E+02  0.7818608E-02  0.1130116E+00
         25   -1    0    0    0    0  0.00000000000E+00  0.00000000000E+00  0.99999998245E-14  0.12500000000E+03  0.12500000000E+03 0.  0.
        -11    1    3    3    0    0  0.18543048904E+02 -0.16916232807E+02 -0.33073477120E+02  0.41519374804E+02  0.51100000000E-03 0.  1.
         23    2    1    0    0    0 -0.27837078185E+02 -0.25934254833E+01 -0.95849946837E+01  0.95444951350E+02  0.90753720791E+02 0.  0.
         11    1    3    3    0    0 -0.46380127089E+02  0.14322807323E+02  0.23488482437E+02  0.53925576546E+02  0.51100000000E-03 0. -1.
         22    1    1    0    0    0  0.27837078185E+02  0.25934254833E+01  0.95849946837E+01  0.29555048650E+02  0.00000000000E+00 0. -1.
</event>
<event>
 5    1  0.1681104E-003  0.9118800E+02  0.7818608E-02  0.1130116E+00
         25   -1    0    0    0    0  0.00000000000E+00  0.00000000000E+00  0.99999998245E-14  0.12500000000E+03  0.12500000000E+03 0.  0.
        -11    1    3    3    0    0 -0.30456878026E+02  0.99618821591E+01  0.37867609029E+02  0.49606615779E+02  0.51100000000E-03 0.  1.
         23    2    1    0    0    0  0.12364267907E+02  0.15511974540E+02  0.21401890583E+02  0.95818886321E+02  0.91267308387E+02 0.  0.
         11    1    3    3    0    0  0.42821145933E+02  0.55500923811E+01 -0.16465718445E+02  0.46212270542E+02  0.51100000000E-03 0. -1.
         22    1    1    0    0    0 -0.12364267907E+02 -0.15511974540E+02 -0.21401890583E+02  0.29181113679E+02  0.00000000000E+00 0.  1.
</event>
<event>
 5    1  0.1681104E-003  0.9118800E+02  0.7818608E-02  0.1130116E+00
         25   -1    0    0    0    0  0.00000000000E+00  0.00000000000E+00  0.99999998245E-14  0.12500000000E+03  0.12500000000E+03 0.  0.
        -11    1    3    3    0    0 -0.26185364979E+02  0.38574388673E+02 -0.10500051970E+02  0.47790248924E+02  0.51100000000E-03 0. -1.
         23    2    1    0    0    0 -0.32736404262E+01  0.16268660151E+02  0.24634498289E+02  0.95297398587E+02  0.90550260335E+02 0.  0.
         11    1    3    3    0    0  0.22911724553E+02 -0.22305728522E+02  0.35134550260E+02  0.47507149663E+02  0.51100000000E-03 0.  1.
         22    1    1    0    0    0  0.32736404262E+01 -0.16268660151E+02 -0.24634498289E+02  0.29702601413E+02  0.00000000000E+00 0. -1.
</event>
<event>
 5    1  0.1681104E-003  0.9118800E+02  0.7818608E-02  0.1130116E+00
         25   -1    0    0    0    0  0.00000000000E+00  0.00000000000E+00  0.99999998245E-14  0.12500000000E+03  0.12500000000E+03 0.  0.
        -11    1    3    3    0    0 -0.30605356379E+02  0.20165796192E+02  0.23706947266E+02  0.43650504282E+02  0.51100000000E-03 0. -1.
         23    2    1    0    0    0  0.89818697156E+01  0.34351882273E+02  0.75522784946E+01  0.88698998502E+02  0.80930523448E+02 0.  0.
         11    1    3    3    0    0  0.39587226095E+02  0.14186086080E+02 -0.16154668771E+02  0.45048494220E+02  0.51100000000E-03 0.  1.
         22    1    1    0    0    0 -0.89818697156E+01 -0.34351882273E+02 -0.75522784946E+01  0.36301001498E+02  0.00000000000E+00 0.  1.
</event>
<event>
 5    1  0.1681104E-003  0.9118800E+02  0.7818608E-02  0.1130116E+00
         25   -1    0    0    0    0  0.00000000000E+00  0.00000000000E+00  0.99999998245E-14  0.12500000000E+03  0.12500000000E+03 0.  0.
        -11    1    3    3    0    0  0.11865394840E+02 -0.35014672308E+02  0.52916265804E+01  0.37347237966E+02  0.51100000000E-03 0. -1.
         23    2    1    0    0    0  0.52018315852E+01  0.10288403158E+02 -0.28500132791E+02  0.94256417573E+02  0.89101652023E+02 0.  0.
         11    1    3    3    0    0 -0.66635632546E+01  0.45303075466E+02 -0.33791759371E+02  0.56909179607E+02  0.51100000000E-03 0.  1.
         22    1    1    0    0    0 -0.52018315852E+01 -0.10288403158E+02  0.28500132791E+02  0.30743582427E+02  0.00000000000E+00 0.  1.
</event>
<event>
 5    1  0.1681104E-003  0.9118800E+02  0.7818608E-02  0.1130116E+00
         25   -1    0    0    0    0  0.00000000000E+00  0.00000000000E+00  0.99999998245E-14  0.12500000000E+03  0.12500000000E+03 0.  0.
        -11    1    3    3    0    0  0.79360271132E+01 -0.28561344100E+02  0.28947720959E+02  0.41433096096E+02  0.51100000000E-03 0.  1.
         23    2    1    0    0    0 -0.98104121042E+01 -0.23713608204E+02 -0.19183065662E+02  0.92959878154E+02  0.87263792826E+02 0.  0.
         11    1    3    3    0    0 -0.17746439217E+02  0.48477358958E+01 -0.48130786621E+02  0.51526782058E+02  0.51100000000E-03 0. -1.
         22    1    1    0    0    0  0.98104121042E+01  0.23713608204E+02  0.19183065662E+02  0.32040121846E+02  0.00000000000E+00 0. -1.
</event>
<event>
 5    1  0.1681104E-003  0.9118800E+02  0.7818608E-02  0.1130116E+00
         25   -1    0    0    0    0  0.00000000000E+00  0.00000000000E+00  0.99999998245E-14  0.12500000000E+03  0.12500000000E+03 0.  0.
        -11    1    3    3    0    0 -0.42043464284E+02 -0.43039891967E+01 -0.61943721043E+01  0.42714721795E+02  0.51100000000E-03 0. -1.
         23    2    1    0    0    0  0.56128796191E+01 -0.24501230162E+02 -0.15733558340E+02  0.95346002713E+02  0.90617331004E+02 0.  0.
         11    1    3    3    0    0  0.47656343903E+02 -0.20197240965E+02 -0.95391862353E+01  0.52631280918E+02  0.51100000000E-03 0.  1.
         22    1    1    0    0    0 -0.56128796191E+01  0.24501230162E+02  0.15733558340E+02  0.29653997287E+02  0.00000000000E+00 0.  1.
</event>
<event>
 5    1  0.1681104E-003  0.9118800E+02  0.7818608E-02  0.1130116E+00
         25   -1    0    0    0    0  0.00000000000E+00  0.00000000000E+00  0.99999998245E-14  0.12500000000E+03  0.12500000000E+03 0.  0.
        -11    1    3    3    0    0 -0.41885782209E+02 -0.13136912423E+02 -0.88160270454E+01  0.44774094658E+02  0.51100000000E-03 0. -1.
         23    2    1    0    0    0  0.47388878706E+01 -0.19385775522E+02 -0.23608656358E+02  0.94086669447E+02  0.88863194641E+02 0.  0.
         11    1    3    3    0    0  0.46624670080E+02 -0.62488630995E+01 -0.14792629313E+02  0.49312574789E+02  0.51100000000E-03 0.  1.
         22    1    1    0    0    0 -0.47388878706E+01  0.19385775522E+02  0.23608656358E+02  0.30913330553E+02  0.00000000000E+00 0. -1.
</event>
<event>
 5    1  0.1681104E-003  0.9118800E+02  0.7818608E-02  0.1130116E+00
         25   -1    0    0    0    0  0.00000000000E+00  0.00000000000E+00  0.99999998245E-14  0.12500000000E+03  0.12500000000E+03 0.  0.
        -11    1    3    3    0    0 -0.10783188826E+02  0.18521989277E+02 -0.53789870190E+02  0.57902429857E+02  0.51100000000E-03 0. -1.
         23    2    1    0    0    0 -0.34024037896E+01  0.23504443633E+02 -0.16901500606E+02  0.95850455496E+02  0.91310535395E+02 0.  0.
         11    1    3    3    0    0  0.73807850361E+01  0.49824543561E+01  0.36888369583E+02  0.37948025640E+02  0.51100000000E-03 0.  1.
         22    1    1    0    0    0  0.34024037896E+01 -0.23504443633E+02  0.16901500606E+02  0.29149544504E+02  0.00000000000E+00 0.  1.
</event>
<event>
 5    1  0.1681104E-003  0.9118800E+02  0.7818608E-02  0.1130116E+00
         25   -1    0    0    0    0  0.00000000000E+00  0.00000000000E+00  0.99999998245E-14  0.12500000000E+03  0.12500000000E+03 0.  0.
        -11    1    3    3    0    0 -0.23555284743E+02 -0.20444380706E+02  0.55550724338E+01  0.31680955979E+02  0.51100000000E-03 0. -1.
         23    2    1    0    0    0  0.30954861480E+02 -0.97947614127E+01  0.16943598541E+02  0.88377242978E+02  0.80432025615E+02 0.  0.
         11    1    3    3    0    0  0.54510146222E+02  0.10649619293E+02  0.11388526108E+02  0.56696286999E+02  0.51100000000E-03 0.  1.
         22    1    1    0    0    0 -0.30954861480E+02  0.97947614127E+01 -0.16943598541E+02  0.36622757022E+02  0.00000000000E+00 0.  1.
</event>
<event>
 5    1  0.1681104E-003  0.9118800E+02  0.7818608E-02  0.1130116E+00
         25   -1    0    0    0    0  0.00000000000E+00  0.00000000000E+00  0.99999998245E-14  0.12500000000E+03  0.12500000000E+03 0.  0.
        -11    1    3    3    0    0  0.43285561532E+02  0.34612970674E+02 -0.41451603800E+01  0.55577692745E+02  0.51100000000E-03 0. -1.
         23    2    1    0    0    0  0.20866084706E+02 -0.24847495339E+01 -0.13635140174E+02  0.99950358910E+02  0.96760476060E+02 0.  0.
         11    1    3    3    0    0 -0.22419476826E+02 -0.37097720208E+02 -0.94899797939E+01  0.44372666165E+02  0.51100000000E-03 0.  1.
         22    1    1    0    0    0 -0.20866084706E+02  0.24847495339E+01  0.13635140174E+02  0.25049641090E+02  0.00000000000E+00 0. -1.
</event>
<event>
 5    1  0.1681104E-003  0.9118800E+02  0.7818608E-02  0.1130116E+00
         25   -1    0    0    0    0  0.00000000000E+00  0.00000000000E+00  0.99999998245E-14  0.12500000000E+03  0.12500000000E+03 0.  0.
        -11    1    3    3    0    0 -0.74557851092E+01  0.37016663370E+02 -0.95163222398E+01  0.38940756129E+02  0.51100000000E-03 0. -1.
         23    2    1    0    0    0 -0.83313942563E+01 -0.42401859072E+01  0.28473567101E+02  0.95031093943E+02  0.90181891119E+02 0.  0.
         11    1    3    3    0    0 -0.87560914713E+00 -0.41256849277E+02  0.37989889341E+02  0.56090337814E+02  0.51100000000E-03 0.  1.
         22    1    1    0    0    0  0.83313942563E+01  0.42401859072E+01 -0.28473567101E+02  0.29968906057E+02  0.00000000000E+00 0.  1.
</event>
<event>
 5    1  0.1681104E-003  0.9118800E+02  0.7818608E-02  0.1130116E+00
         25   -1    0    0    0    0  0.00000000000E+00  0.00000000000E+00  0.99999998245E-14  0.12500000000E+03  0.12500000000E+03 0.  0.
        -11    1    3    3    0    0  0.11914874403E+02  0.20668246896E+00 -0.48969182128E+02  0.50398291125E+02  0.51100000000E-03 0.  1.
         23    2    1    0    0    0 -0.39527613662E+01  0.25016804823E+02 -0.14200426062E+02  0.95963523866E+02  0.91465189916E+02 0.  0.
         11    1    3    3    0    0 -0.15867635769E+02  0.24810122354E+02  0.34768756066E+02  0.45565232741E+02  0.51100000000E-03 0. -1.
         22    1    1    0    0    0  0.39527613662E+01 -0.25016804823E+02  0.14200426062E+02  0.29036476134E+02  0.00000000000E+00 0.  1.
</event>
<event>
 5    1  0.1681104E-003  0.9118800E+02  0.7818608E-02  0.1130116E+00
         25   -1    0    0    0    0  0.00000000000E+00  0.00000000000E+00  0.99999998245E-14  0.12500000000E+03  0.12500000000E+03 0.  0.
        -11    1    3    3    0    0  0.34915763054E+02  0.58913193179E+01 -0.11854574644E+02  0.37340984095E+02  0.51100000000E-03 0.  1.
         23    2    1    0    0    0 -0.21720695447E+02  0.57167581536E+01 -0.20447860963E+02  0.94625916434E+02  0.89618519897E+02 0.  0.
         11    1    3    3    0    0 -0.56636458501E+02 -0.17456116431E+00 -0.85932863199E+01  0.57284932339E+02  0.51100000000E-03 0. -1.
         22    1    1    0    0    0  0.21720695447E+02 -0.57167581536E+01  0.20447860963E+02  0.30374083566E+02  0.00000000000E+00 0. -1.
</event>
<event>
 5    1  0.1681104E-003  0.9118800E+02  0.7818608E-02  0.1130116E+00
         25   -1    0    0    0    0  0.00000000000E+00  0.00000000000E+00  0.99999998245E-14  0.12500000000E+03  0.12500000000E+03 0.  0.
        -11    1    3    3    0    0 -0.44521530211E+02  0.14183213891E+02 -0.37594329504E+02  0.59972192053E+02  0.51100000000E-03 0.  1.
         23    2    1    0    0    0 -0.19317142029E+02 -0.58063679223E+01 -0.19801693931E+02  0.96733890131E+02  0.92512012910E+02 0.  0.
         11    1    3    3    0    0  0.25204388182E+02 -0.19989581813E+02  0.17792635572E+02  0.36761698078E+02  0.51100000000E-03 0. -1.
         22    1    1    0    0    0  0.19317142029E+02  0.58063679223E+01  0.19801693931E+02  0.28266109869E+02  0.00000000000E+00 0.  1.
</event>
<event>
 5    1  0.1681104E-003  0.9118800E+02  0.7818608E-02  0.1130116E+00
         25   -1    0    0    0    0  0.00000000000E+00  0.00000000000E+00  0.99999998245E-14  0.12500000000E+03  0.12500000000E+03 0.  0.
        -11    1    3    3    0    0 -0.73437988938E+00  0.31665926005E+02 -0.14336524088E+02  0.34767889017E+02  0.51100000000E-03 0.  1.
         23    2    1    0    0    0 -0.14316879991E+02 -0.22813797560E+02  0.10406635253E+02  0.96125435604E+02  0.91686197985E+02 0.  0.
         11    1    3    3    0    0 -0.13582500102E+02 -0.54479723564E+02  0.24743159341E+02  0.61357546586E+02  0.51100000000E-03 0. -1.
         22    1    1    0    0    0  0.14316879991E+02  0.22813797560E+02 -0.10406635253E+02  0.28874564396E+02  0.00000000000E+00 0. -1.
</event>
<event>
 5    1  0.1681104E-003  0.9118800E+02  0.7818608E-02  0.1130116E+00
         25   -1    0    0    0    0  0.00000000000E+00  0.00000000000E+00  0.99999998245E-14  0.12500000000E+03  0.12500000000E+03 0.  0.
        -11    1    3    3    0    0  0.36755051275E+02 -0.12901229688E+02  0.13901035967E+02  0.41359573534E+02  0.51100000000E-03 0. -1.
         23    2    1    0    0    0 -0.76187110336E+01  0.19374732191E+02  0.19449054069E+02  0.96509813804E+02  0.92208749319E+02 0.  0.
         11    1    3    3    0    0 -0.44373762309E+02  0.32275961880E+02  0.55480181021E+01  0.55150240270E+02  0.51100000000E-03 0.  1.
         22    1    1    0    0    0  0.76187110336E+01 -0.19374732191E+02 -0.19449054069E+02  0.28490186196E+02  0.00000000000E+00 0.  1.
</event>
<event>
 5    1  0.1681104E-003  0.9118800E+02  0.7818608E-02  0.1130116E+00
         25   -1    0    0    0    0  0.00000000000E+00  0.00000000000E+00  0.99999998245E-14  0.12500000000E+03  0.12500000000E+03 0.  0.
        -11    1    3    3    0    0  0.82221597945E+01 -0.35795038381E+02  0.23867347304E+02  0.43801129575E+02  0.51100000000E-03 0. -1.
         23    2    1    0    0    0  0.29579252271E+02 -0.16382590663E+01 -0.70096514809E+01  0.94557410235E+02  0.89522916389E+02 0.  0.
         11    1    3    3    0    0  0.21357092477E+02  0.34156779315E+02 -0.30876998785E+02  0.50756280661E+02  0.51100000000E-03 0.  1.
         22    1    1    0    0    0 -0.29579252271E+02  0.16382590663E+01  0.70096514809E+01  0.30442589765E+02  0.00000000000E+00 0.  1.
</event>
<event>
 5    1  0.1681104E-003  0.9118800E+02  0.7818608E-02  0.1130116E+00
         25   -1    0    0    0    0  0.00000000000E+00  0.00000000000E+00  0.99999998245E-14  0.12500000000E+03  0.12500000000E+03 0.  0.
        -11    1    3    3    0    0 -0.10324313393E+02 -0.45540702037E+02  0.19279732841E+02  0.50519848453E+02  0.51100000000E-03 0.  1.
         23    2    1    0    0    0 -0.10982700318E+02 -0.29690870797E+00  0.26473988472E+02  0.96336784433E+02  0.91973888187E+02 0.  0.
         11    1    3    3    0    0 -0.65838692455E+00  0.45243793329E+02  0.71942556314E+01  0.45816935979E+02  0.51100000000E-03 0. -1.
         22    1    1    0    0    0  0.10982700318E+02  0.29690870797E+00 -0.26473988472E+02  0.28663215567E+02  0.00000000000E+00 0.  1.
</event>
<event>
 5    1  0.1681104E-003  0.9118800E+02  0.7818608E-02  0.1130116E+00
         25   -1    0    0    0    0  0.00000000000E+00  0.00000000000E+00  0.99999998245E-14  0.12500000000E+03  0.12500000000E+03 0.  0.
        -11    1    3    3    0    0  0.51267328405E+01 -0.12454126148E+02  0.43252490761E+02  0.45300845522E+02  0.51100000000E-03 0.  1.
         23    2    1    0    0    0  0.26426944864E+02  0.27677806750E+01 -0.28067897174E+01  0.98280679402E+02  0.94578908064E+02 0.  0.
         11    1    3    3    0    0  0.21300212023E+02  0.15221906823E+02 -0.46059280478E+02  0.52979833880E+02  0.51100000000E-03 0. -1.
         22    1    1    0    0    0 -0.26426944864E+02 -0.27677806750E+01  0.28067897174E+01  0.26719320598E+02  0.00000000000E+00 0. -1.
</event>
<event>
 5    1  0.1681104E-003  0.9118800E+02  0.7818608E-02  0.1130116E+00
         25   -1    0    0    0    0  0.00000000000E+00  0.00000000000E+00  0.99999998245E-14  0.12500000000E+03  0.12500000000E+03 0.  0.
        -11    1    3    3    0    0  0.28857865738E+02  0.31811462508E+02  0.34169623574E+02  0.54884503617E+02  0.51100000000E-03 0. -1.
         23    2    1    0    0    0  0.26454505153E+02  0.11620060965E+02 -0.16344548272E+01  0.96059749443E+02  0.91596601251E+02 0.  0.
         11    1    3    3    0    0 -0.24033605845E+01 -0.20191401543E+02 -0.35804078401E+02  0.41175245826E+02  0.51100000000E-03 0.  1.
         22    1    1    0    0    0 -0.26454505153E+02 -0.11620060965E+02  0.16344548272E+01  0.28940250557E+02  0.00000000000E+00 0. -1.
</event>
<event>
 5    1  0.1681104E-003  0.9118800E+02  0.7818608E-02  0.1130116E+00
         25   -1    0    0    0    0  0.00000000000E+00  0.00000000000E+00  0.99999998245E-14  0.12500000000E+03  0.12500000000E+03 0.  0.
        -11    1    3    3    0    0  0.42665495514E+02  0.55256462640E+01  0.32874045520E+02  0.54144068403E+02  0.51100000000E-03 0.  1.
         23    2    1    0    0    0  0.24610028589E+01 -0.65115652231E+01  0.27710749744E+02  0.96428289024E+02  0.92098166410E+02 0.  0.
         11    1    3    3    0    0 -0.40204492655E+02 -0.12037211487E+02 -0.51632957768E+01  0.42284220621E+02  0.51100000000E-03 0. -1.
         22    1    1    0    0    0 -0.24610028589E+01  0.65115652231E+01 -0.27710749744E+02  0.28571710976E+02  0.00000000000E+00 0.  1.
</event>
<event>
 5    1  0.1681104E-003  0.9118800E+02  0.7818608E-02  0.1130116E+00
         25   -1    0    0    0    0  0.00000000000E+00  0.00000000000E+00  0.99999998245E-14  0.12500000000E+03  0.12500000000E+03 0.  0.
        -11    1    3    3    0    0 -0.96677933082E+01  0.32179806395E+02 -0.20123853445E+01  0.33660895147E+02  0.51100000000E-03 0. -1.
         23    2    1    0    0    0  0.16312095733E+02 -0.21522425197E+02 -0.14108390872E+02  0.94531229979E+02  0.89486353680E+02 0.  0.
         11    1    3    3    0    0  0.25979889041E+02 -0.53702231592E+02 -0.12096005527E+02  0.60870334832E+02  0.51100000000E-03 0.  1.
         22    1    1    0    0    0 -0.16312095733E+02  0.21522425197E+02  0.14108390872E+02  0.30468770021E+02  0.00000000000E+00 0.  1.
</event>
<event>
 5    1  0.1681104E-003  0.9118800E+02  0.7818608E-02  0.1130116E+00
         25   -1    0    0    0    0  0.00000000000E+00  0.00000000000E+00  0.99999998245E-14  0.12500000000E+03  0.12500000000E+03 0.  0.
        -11    1    3    3    0    0 -0.13155834628E+02 -0.31372344086E+02  0.12431573232E+02  0.36219386680E+02  0.51100000000E-03 0.  1.
         23    2    1    0    0    0  0.31321150833E+02 -0.18275721851E+02  0.20593442714E+02  0.83297405578E+02  0.72106528099E+02 0.  0.
         11    1    3    3    0    0  0.44476985462E+02  0.13096622234E+02  0.81618694817E+01  0.47078018898E+02  0.51100000000E-03 0. -1.
         22    1    1    0    0    0 -0.31321150833E+02  0.18275721851E+02 -0.20593442714E+02  0.41702594422E+02  0.00000000000E+00 0.  1.
</event>
<event>
 5    1  0.1681104E-003  0.9118800E+02  0.7818608E-02  0.1130116E+00
         25   -1    0    0    0    0  0.00000000000E+00  0.00000000000E+00  0.99999998245E-14  0.12500000000E+03  0.12500000000E+03 0.  0.
        -11    1    3    3    0    0 -0.23422508531E+02  0.44035433461E+02  0.53174636227E+00  0.49880016645E+02  0.51100000000E-03 0. -1.
         23    2    1    0    0    0 -0.17154113043E+01  0.13255281665E+02  0.26288202680E+02  0.95509073800E+02  0.90841997171E+02 0.  0.
         11    1    3    3    0    0  0.21707097227E+02 -0.30780151796E+02  0.25756456318E+02  0.45629057156E+02  0.51100000000E-03 0.  1.
         22    1    1    0    0    0  0.17154113043E+01 -0.13255281665E+02 -0.26288202680E+02  0.29490926200E+02  0.00000000000E+00 0.  1.
</event>
<event>
 5    1  0.1681104E-003  0.9118800E+02  0.7818608E-02  0.1130116E+00
         25   -1    0    0    0    0  0.00000000000E+00  0.00000000000E+00  0.99999998245E-14  0.12500000000E+03  0.12500000000E+03 0.  0.
        -11    1    3    3    0    0 -0.27463388655E+02  0.49921043444E+02 -0.73143959537E+01  0.57444309408E+02  0.51100000000E-03 0.  1.
         23    2    1    0    0    0  0.83325990283E+00  0.29043747173E+02  0.65015026868E+01  0.95225797927E+02  0.90451365284E+02 0.  0.
         11    1    3    3    0    0  0.28296648558E+02 -0.20877296271E+02  0.13815898641E+02  0.37781488519E+02  0.51100000000E-03 0. -1.
         22    1    1    0    0    0 -0.83325990283E+00 -0.29043747173E+02 -0.65015026868E+01  0.29774202073E+02  0.00000000000E+00 0.  1.
</event>
<event>
 5    1  0.1681104E-003  0.9118800E+02  0.7818608E-02  0.1130116E+00
         25   -1    0    0    0    0  0.00000000000E+00  0.00000000000E+00  0.99999998245E-14  0.12500000000E+03  0.12500000000E+03 0.  0.
        -11    1    3    3    0    0  0.24434159666E+02 -0.30102292709E+02 -0.32676364874E+02  0.50704250380E+02  0.51100000000E-03 0.  1.
         23    2    1    0    0    0  0.23447322486E+02  0.10746181188E+02 -0.10981424359E+02  0.96967001180E+02  0.92826452561E+02 0.  0.
         11    1    3    3    0    0 -0.98683717991E+00  0.40848473897E+02  0.21694940516E+02  0.46262750800E+02  0.51100000000E-03 0. -1.
         22    1    1    0    0    0 -0.23447322486E+02 -0.10746181188E+02  0.10981424359E+02  0.28032998820E+02  0.00000000000E+00 0.  1.
</event>
<event>
 5    1  0.1681104E-003  0.9118800E+02  0.7818608E-02  0.1130116E+00
         25   -1    0    0    0    0  0.00000000000E+00  0.00000000000E+00  0.99999998245E-14  0.12500000000E+03  0.12500000000E+03 0.  0.
        -11    1    3    3    0    0 -0.27601957382E+02 -0.16548165642E+01  0.19666483869E+02  0.33931947442E+02  0.51100000000E-03 0. -1.
         23    2    1    0    0    0  0.29689909538E+02  0.69258579537E+01  0.11407893496E+02  0.92448528900E+02  0.86528216351E+02 0.  0.
         11    1    3    3    0    0  0.57291866920E+02  0.85806745179E+01 -0.82585903724E+01  0.58516581458E+02  0.51100000000E-03 0.  1.
         22    1    1    0    0    0 -0.29689909538E+02 -0.69258579537E+01 -0.11407893496E+02  0.32551471100E+02  0.00000000000E+00 0.  1.
</event>
<event>
 5    1  0.1681104E-003  0.9118800E+02  0.7818608E-02  0.1130116E+00
         25   -1    0    0    0    0  0.00000000000E+00  0.00000000000E+00  0.99999998245E-14  0.12500000000E+03  0.12500000000E+03 0.  0.
        -11    1    3    3    0    0  0.11795495324E+01  0.48094560117E+02 -0.38035232633E+02  0.61328272205E+02  0.51100000000E-03 0.  1.
         23    2    1    0    0    0  0.90884446614E+01  0.22725936772E+02 -0.18983328696E+02  0.94025255499E+02  0.88776764273E+02 0.  0.
         11    1    3    3    0    0  0.79088951290E+01 -0.25368623346E+02  0.19051903938E+02  0.32696983294E+02  0.51100000000E-03 0. -1.
         22    1    1    0    0    0 -0.90884446614E+01 -0.22725936772E+02  0.18983328696E+02  0.30974744501E+02  0.00000000000E+00 0.  1.
</event>
<event>
 5    1  0.1681104E-003  0.9118800E+02  0.7818608E-02  0.1130116E+00
         25   -1    0    0    0    0  0.00000000000E+00  0.00000000000E+00  0.99999998245E-14  0.12500000000E+03  0.12500000000E+03 0.  0.
        -11    1    3    3    0    0  0.20827834608E+02  0.24360973314E+02  0.27619707716E+02  0.42309620298E+02  0.51100000000E-03 0.  1.
         23    2    1    0    0    0  0.33149676682E+01  0.17353890364E+02 -0.22807887920E+02  0.96149587997E+02  0.91719120139E+02 0.  0.
         11    1    3    3    0    0 -0.17512866939E+02 -0.70070829496E+01 -0.50427595636E+02  0.53839967698E+02  0.51100000000E-03 0. -1.
         22    1    1    0    0    0 -0.33149676682E+01 -0.17353890364E+02  0.22807887920E+02  0.28850412003E+02  0.00000000000E+00 0. -1.
</event>
<event>
 5    1  0.1681104E-003  0.9118800E+02  0.7818608E-02  0.1130116E+00
         25   -1    0    0    0    0  0.00000000000E+00  0.00000000000E+00  0.99999998245E-14  0.12500000000E+03  0.12500000000E+03 0.  0.
        -11    1    3    3    0    0  0.48485648945E+02 -0.33898265040E+02 -0.61174780707E+01  0.59475827565E+02  0.51100000000E-03 0. -1.
         23    2    1    0    0    0  0.19358510673E+02 -0.15825753093E+02  0.10873221464E+02  0.97734025940E+02  0.93853643962E+02 0.  0.
         11    1    3    3    0    0 -0.29127138272E+02  0.18072511947E+02  0.16990699535E+02  0.38258198375E+02  0.51100000000E-03 0.  1.
         22    1    1    0    0    0 -0.19358510673E+02  0.15825753093E+02 -0.10873221464E+02  0.27265974060E+02  0.00000000000E+00 0. -1.
</event>
<event>
 5    1  0.1681104E-003  0.9118800E+02  0.7818608E-02  0.1130116E+00
         25   -1    0    0    0    0  0.00000000000E+00  0.00000000000E+00  0.99999998245E-14  0.12500000000E+03  0.12500000000E+03 0.  0.
        -11    1    3    3    0    0  0.38941634600E+02  0.19131763527E+02  0.36514457259E+01  0.43540881217E+02  0.51100000000E-03 0.  1.
         23    2    1    0    0    0 -0.12714569877E+02  0.26165210991E+02  0.37081473103E+01  0.95673750498E+02  0.91068312955E+02 0.  0.
         11    1    3    3    0    0 -0.51656204477E+02  0.70334474638E+01  0.56701584438E-01  0.52132869281E+02  0.51100000000E-03 0. -1.
         22    1    1    0    0    0  0.12714569877E+02 -0.26165210991E+02 -0.37081473103E+01  0.29326249502E+02  0.00000000000E+00 0. -1.
</event>
<event>
 5    1  0.1681104E-003  0.9118800E+02  0.7818608E-02  0.1130116E+00
         25   -1    0    0    0    0  0.00000000000E+00  0.00000000000E+00  0.99999998245E-14  0.12500000000E+03  0.12500000000E+03 0.  0.
        -11    1    3    3    0    0 -0.55019890488E+02 -0.55052573660E+01 -0.28314705320E+02  0.62122610583E+02  0.51100000000E-03 0.  1.
         23    2    1    0    0    0 -0.25301862721E+02  0.19685182189E+01 -0.14874027413E+02  0.95584085725E+02  0.90945156172E+02 0.  0.
         11    1    3    3    0    0  0.29718027767E+02  0.74737755848E+01  0.13440677906E+02  0.33461475142E+02  0.51100000000E-03 0. -1.
         22    1    1    0    0    0  0.25301862721E+02 -0.19685182189E+01  0.14874027413E+02  0.29415914275E+02  0.00000000000E+00 0.  1.
</event>
<event>
 5    1  0.1681104E-003  0.9118800E+02  0.7818608E-02  0.1130116E+00
         25   -1    0    0    0    0  0.00000000000E+00  0.00000000000E+00  0.99999998245E-14  0.12500000000E+03  0.12500000000E+03 0.  0.
        -11    1    3    3    0    0 -0.16917101293E+02 -0.38351022104E+02  0.13758329162E+02  0.44116672973E+02  0.51100000000E-03 0. -1.
         23    2    1    0    0    0 -0.40293566035E+01  0.10518046429E+02  0.26472235003E+02  0.96231193257E+02  0.91830269053E+02 0.  0.
         11    1    3    3    0    0  0.12887744690E+02  0.48869068533E+02  0.12713905841E+02  0.52114520285E+02  0.51100000000E-03 0.  1.
         22    1    1    0    0    0  0.40293566035E+01 -0.10518046429E+02 -0.26472235003E+02  0.28768806743E+02  0.00000000000E+00 0.  1.
</event>
<event>
 5    1  0.1681104E-003  0.9118800E+02  0.7818608E-02  0.1130116E+00
         25   -1    0    0    0    0  0.00000000000E+00  0.00000000000E+00  0.99999998245E-14  0.12500000000E+03  0.12500000000E+03 0.  0.
        -11    1    3    3    0    0 -0.15810418422E+02 -0.44914154493E+02 -0.12662148382E+02  0.49270484130E+02  0.51100000000E-03 0. -1.
         23    2    1    0    0    0 -0.20866161235E+02 -0.72994588139E+01  0.16732478127E+02  0.97275379030E+02  0.93240789129E+02 0.  0.
         11    1    3    3    0    0 -0.50557428131E+01  0.37614695679E+02  0.29394626510E+02  0.48004894900E+02  0.51100000000E-03 0.  1.
         22    1    1    0    0    0  0.20866161235E+02  0.72994588139E+01 -0.16732478127E+02  0.27724620970E+02  0.00000000000E+00 0.  1.
</event>
<event>
 5    1  0.1681104E-003  0.9118800E+02  0.7818608E-02  0.1130116E+00
         25   -1    0    0    0    0  0.00000000000E+00  0.00000000000E+00  0.99999998245E-14  0.12500000000E+03  0.12500000000E+03 0.  0.
        -11    1    3    3    0    0 -0.11051561830E+02 -0.36267945924E+02 -0.44374085549E+02  0.58365746710E+02  0.51100000000E-03 0.  1.
         23    2    1    0    0    0 -0.96145480545E+01 -0.25986630291E+02 -0.80471657243E+01  0.96146900264E+02  0.91715457073E+02 0.  0.
         11    1    3    3    0    0  0.14370137760E+01  0.10281315633E+02  0.36326919824E+02  0.37781153555E+02  0.51100000000E-03 0. -1.
         22    1    1    0    0    0  0.96145480545E+01  0.25986630291E+02  0.80471657243E+01  0.28853099736E+02  0.00000000000E+00 0.  1.
</event>
<event>
 5    1  0.1681104E-003  0.9118800E+02  0.7818608E-02  0.1130116E+00
         25   -1    0    0    0    0  0.00000000000E+00  0.00000000000E+00  0.99999998245E-14  0.12500000000E+03  0.12500000000E+03 0.  0.
        -11    1    3    3    0    0 -0.13254234529E+02  0.48143433338E+02  0.10282340996E+02  0.50982265967E+02  0.51100000000E-03 0.  1.
         23    2    1    0    0    0 -0.20707815362E+02  0.94417784700E+01 -0.14940803330E+02  0.97775224484E+02  0.93908498663E+02 0.  0.
         11    1    3    3    0    0 -0.74535808331E+01 -0.38701654868E+02 -0.25223144326E+02  0.46792958517E+02  0.51100000000E-03 0. -1.
         22    1    1    0    0    0  0.20707815362E+02 -0.94417784700E+01  0.14940803330E+02  0.27224775516E+02  0.00000000000E+00 0.  1.
</event>
<event>
 5    1  0.1681104E-003  0.9118800E+02  0.7818608E-02  0.1130116E+00
         25   -1    0    0    0    0  0.00000000000E+00  0.00000000000E+00  0.99999998245E-14  0.12500000000E+03  0.12500000000E+03 0.  0.
        -11    1    3    3    0    0  0.36175512051E+02  0.13366788470E+02  0.46103525973E+01  0.38840623804E+02  0.51100000000E-03 0.  1.
         23    2    1    0    0    0 -0.14893520540E+02  0.11141757578E+02 -0.21772024350E+02  0.96364763659E+02  0.92011906375E+02 0.  0.
         11    1    3    3    0    0 -0.51069032592E+02 -0.22250308924E+01 -0.26382376948E+02  0.57524139854E+02  0.51100000000E-03 0. -1.
         22    1    1    0    0    0  0.14893520540E+02 -0.11141757578E+02  0.21772024350E+02  0.28635236341E+02  0.00000000000E+00 0. -1.
</event>
<event>
 5    1  0.1681104E-003  0.9118800E+02  0.7818608E-02  0.1130116E+00
         25   -1    0    0    0    0  0.00000000000E+00  0.00000000000E+00  0.99999998245E-14  0.12500000000E+03  0.12500000000E+03 0.  0.
        -11    1    3    3    0    0 -0.56523616542E+02 -0.15655455386E+00 -0.28250701652E+01  0.56594388044E+02  0.51100000000E-03 0.  1.
         23    2    1    0    0    0 -0.23382783719E+02 -0.19958725149E+00  0.17785203623E+02  0.95621302319E+02  0.90996294319E+02 0.  0.
         11    1    3    3    0    0  0.33140832823E+02 -0.43032697631E-01  0.20610273788E+02  0.39026914276E+02  0.51100000000E-03 0. -1.
         22    1    1    0    0    0  0.23382783719E+02  0.19958725149E+00 -0.17785203623E+02  0.29378697681E+02  0.00000000000E+00 0.  1.
</event>
<event>
 5    1  0.1681104E-003  0.9118800E+02  0.7818608E-02  0.1130116E+00
         25   -1    0    0    0    0  0.00000000000E+00  0.00000000000E+00  0.99999998245E-14  0.12500000000E+03  0.12500000000E+03 0.  0.
        -11    1    3    3    0    0  0.89224440067E+01  0.39815291067E+02  0.96278854296E+01  0.41923306023E+02  0.51100000000E-03 0.  1.
         23    2    1    0    0    0 -0.22039943470E+02  0.41648599534E+01 -0.17652964653E+02  0.96456483615E+02  0.92136425499E+02 0.  0.
         11    1    3    3    0    0 -0.30962387476E+02 -0.35650431114E+02 -0.27280850082E+02  0.54533177592E+02  0.51100000000E-03 0. -1.
         22    1    1    0    0    0  0.22039943470E+02 -0.41648599534E+01  0.17652964653E+02  0.28543516385E+02  0.00000000000E+00 0. -1.
</event>
<event>
 5    1  0.1681104E-003  0.9118800E+02  0.7818608E-02  0.1130116E+00
         25   -1    0    0    0    0  0.00000000000E+00  0.00000000000E+00  0.99999998245E-14  0.12500000000E+03  0.12500000000E+03 0.  0.
        -11    1    3    3    0    0  0.41866790726E+02  0.14043355537E+02 -0.18734419579E+02  0.47968974115E+02  0.51100000000E-03 0. -1.
         23    2    1    0    0    0  0.49475422841E+01 -0.13715448776E+02 -0.26447881646E+02  0.94799302105E+02  0.89860032975E+02 0.  0.
         11    1    3    3    0    0 -0.36919248442E+02 -0.27758804313E+02 -0.77134620672E+01  0.46830327990E+02  0.51100000000E-03 0.  1.
         22    1    1    0    0    0 -0.49475422841E+01  0.13715448776E+02  0.26447881646E+02  0.30200697895E+02  0.00000000000E+00 0.  1.
</event>
<event>
 5    1  0.1681104E-003  0.9118800E+02  0.7818608E-02  0.1130116E+00
         25   -1    0    0    0    0  0.00000000000E+00  0.00000000000E+00  0.99999998245E-14  0.12500000000E+03  0.12500000000E+03 0.  0.
        -11    1    3    3    0    0  0.28837647029E+02 -0.13266849043E+02 -0.24998727424E+02  0.40404895035E+02  0.51100000000E-03 0.  1.
         23    2    1    0    0    0 -0.24616905777E+02 -0.19412829342E+01 -0.15442966223E+02  0.95875339741E+02  0.91344594449E+02 0.  0.
         11    1    3    3    0    0 -0.53454552807E+02  0.11325566109E+02  0.95557612008E+01  0.55470444705E+02  0.51100000000E-03 0. -1.
         22    1    1    0    0    0  0.24616905777E+02  0.19412829342E+01  0.15442966223E+02  0.29124660259E+02  0.00000000000E+00 0. -1.
</event>
<event>
 5    1  0.1681104E-003  0.9118800E+02  0.7818608E-02  0.1130116E+00
         25   -1    0    0    0    0  0.00000000000E+00  0.00000000000E+00  0.99999998245E-14  0.12500000000E+03  0.12500000000E+03 0.  0.
        -11    1    3    3    0    0 -0.20584617132E+02 -0.54503595864E+01  0.34042654072E+02  0.40153893692E+02  0.51100000000E-03 0.  1.
         23    2    1    0    0    0  0.19101134986E+02 -0.25843825197E+02  0.77545575889E+01  0.91941115839E+02  0.85792068164E+02 0.  0.
         11    1    3    3    0    0  0.39685752118E+02 -0.20393465610E+02 -0.26288096483E+02  0.51787222147E+02  0.51100000000E-03 0. -1.
         22    1    1    0    0    0 -0.19101134986E+02  0.25843825197E+02 -0.77545575889E+01  0.33058884161E+02  0.00000000000E+00 0. -1.
</event>
<event>
 5    1  0.1681104E-003  0.9118800E+02  0.7818608E-02  0.1130116E+00
         25   -1    0    0    0    0  0.00000000000E+00  0.00000000000E+00  0.99999998245E-14  0.12500000000E+03  0.12500000000E+03 0.  0.
        -11    1    3    3    0    0 -0.30092460462E+02 -0.48409509016E+01 -0.50052928562E+02  0.58602786966E+02  0.51100000000E-03 0. -1.
         23    2    1    0    0    0  0.35252847064E-01 -0.46008050069E+01 -0.29662457484E+02  0.94982837684E+02  0.90114978894E+02 0.  0.
         11    1    3    3    0    0  0.30127713309E+02  0.24014589475E+00  0.20390471078E+02  0.36380050719E+02  0.51100000000E-03 0.  1.
         22    1    1    0    0    0 -0.35252847064E-01  0.46008050069E+01  0.29662457484E+02  0.30017162316E+02  0.00000000000E+00 0. -1.
</event>
<event>
 5    1  0.1681104E-003  0.9118800E+02  0.7818608E-02  0.1130116E+00
         25   -1    0    0    0    0  0.00000000000E+00  0.00000000000E+00  0.99999998245E-14  0.12500000000E+03  0.12500000000E+03 0.  0.
        -11    1    3    3    0    0 -0.34190184192E+02  0.74032403425E+01 -0.37545166138E+02  0.51316821445E+02  0.51100000000E-03 0.  1.
         23    2    1    0    0    0 -0.85767949378E+01  0.27116774729E+02 -0.71745381761E+01  0.95668193354E+02  0.91060684922E+02 0.  0.
         11    1    3    3    0    0  0.25613389254E+02  0.19713534386E+02  0.30370627962E+02  0.44351371908E+02  0.51100000000E-03 0. -1.
         22    1    1    0    0    0  0.85767949378E+01 -0.27116774729E+02  0.71745381761E+01  0.29331806646E+02  0.00000000000E+00 0.  1.
</event>
<event>
 5    1  0.1681104E-003  0.9118800E+02  0.7818608E-02  0.1130116E+00
         25   -1    0    0    0    0  0.00000000000E+00  0.00000000000E+00  0.99999998245E-14  0.12500000000E+03  0.12500000000E+03 0.  0.
        -11    1    3    3    0    0 -0.19249714643E+02  0.19336930518E+02  0.47637005619E+02  0.54897656601E+02  0.51100000000E-03 0.  1.
         23    2    1    0    0    0  0.13141274858E+02  0.12609064789E+02  0.14514626628E+02  0.10171146192E+03  0.99009421169E+02 0.  0.
         11    1    3    3    0    0  0.32390989501E+02 -0.67278657289E+01 -0.33122378992E+02  0.46813805319E+02  0.51100000000E-03 0. -1.
         22    1    1    0    0    0 -0.13141274858E+02 -0.12609064789E+02 -0.14514626628E+02  0.23288538079E+02  0.00000000000E+00 0.  1.
</event>
<event>
 5    1  0.1681104E-003  0.9118800E+02  0.7818608E-02  0.1130116E+00
         25   -1    0    0    0    0  0.00000000000E+00  0.00000000000E+00  0.99999998245E-14  0.12500000000E+03  0.12500000000E+03 0.  0.
        -11    1    3    3    0    0 -0.32044419293E+02 -0.26968386638E+02 -0.23180311928E+02  0.47869254715E+02  0.51100000000E-03 0. -1.
         23    2    1    0    0    0 -0.47699241700E+02 -0.12521689537E+02 -0.58338112076E+01  0.75340723719E+02  0.56658458589E+02 0.  0.
         11    1    3    3    0    0 -0.15654822406E+02  0.14446697101E+02  0.17346500720E+02  0.27471469003E+02  0.51100000000E-03 0.  1.
         22    1    1    0    0    0  0.47699241700E+02  0.12521689537E+02  0.58338112076E+01  0.49659276281E+02  0.00000000000E+00 0. -1.
</event>
<event>
 5    1  0.1681104E-003  0.9118800E+02  0.7818608E-02  0.1130116E+00
         25   -1    0    0    0    0  0.00000000000E+00  0.00000000000E+00  0.99999998245E-14  0.12500000000E+03  0.12500000000E+03 0.  0.
        -11    1    3    3    0    0  0.18627575968E+02 -0.31729740589E+02 -0.43052393413E+02  0.56632778522E+02  0.51100000000E-03 0.  1.
         23    2    1    0    0    0 -0.12480868878E+01 -0.27994119089E+02 -0.10262098748E+02  0.95158098332E+02  0.90357758843E+02 0.  0.
         11    1    3    3    0    0 -0.19875662856E+02  0.37356215002E+01  0.32790294665E+02  0.38525319810E+02  0.51100000000E-03 0. -1.
         22    1    1    0    0    0  0.12480868878E+01  0.27994119089E+02  0.10262098748E+02  0.29841901668E+02  0.00000000000E+00 0.  1.
</event>
<event>
 5    1  0.1681104E-003  0.9118800E+02  0.7818608E-02  0.1130116E+00
         25   -1    0    0    0    0  0.00000000000E+00  0.00000000000E+00  0.99999998245E-14  0.12500000000E+03  0.12500000000E+03 0.  0.
        -11    1    3    3    0    0  0.36013773305E+02  0.41566486008E+01 -0.31038777294E+02  0.47724996505E+02  0.51100000000E-03 0. -1.
         23    2    1    0    0    0 -0.48166766678E+01 -0.20124787943E+02 -0.19400537126E+02  0.96634734187E+02  0.92377938637E+02 0.  0.
         11    1    3    3    0    0 -0.40830449973E+02 -0.24281436544E+02  0.11638240168E+02  0.48909737682E+02  0.51100000000E-03 0.  1.
         22    1    1    0    0    0  0.48166766678E+01  0.20124787943E+02  0.19400537126E+02  0.28365265813E+02  0.00000000000E+00 0.  1.
</event>
<event>
 5    1  0.1681104E-003  0.9118800E+02  0.7818608E-02  0.1130116E+00
         25   -1    0    0    0    0  0.00000000000E+00  0.00000000000E+00  0.99999998245E-14  0.12500000000E+03  0.12500000000E+03 0.  0.
        -11    1    3    3    0    0 -0.24436848380E+02  0.38583739473E+02 -0.37789436944E+02  0.59278208941E+02  0.51100000000E-03 0. -1.
         23    2    1    0    0    0 -0.19643426690E+02  0.14882856696E+02 -0.52775339429E+01  0.99796508177E+02  0.96561519480E+02 0.  0.
         11    1    3    3    0    0  0.47934216902E+01 -0.23700882777E+02  0.32511903001E+02  0.40518299235E+02  0.51100000000E-03 0.  1.
         22    1    1    0    0    0  0.19643426690E+02 -0.14882856696E+02  0.52775339429E+01  0.25203491823E+02  0.00000000000E+00 0. -1.
</event>
<event>
 5    1  0.1681104E-003  0.9118800E+02  0.7818608E-02  0.1130116E+00
         25   -1    0    0    0    0  0.00000000000E+00  0.00000000000E+00  0.99999998245E-14  0.12500000000E+03  0.12500000000E+03 0.  0.
        -11    1    3    3    0    0  0.22359897574E+02 -0.11218683401E+02 -0.23829154619E+02  0.34549276214E+02  0.51100000000E-03 0. -1.
         23    2    1    0    0    0 -0.19936896725E+02 -0.12017316045E+02  0.19150747958E+02  0.94856229776E+02  0.89939187477E+02 0.  0.
         11    1    3    3    0    0 -0.42296794300E+02 -0.79863264394E+00  0.42979902577E+02  0.60306953562E+02  0.51100000000E-03 0.  1.
         22    1    1    0    0    0  0.19936896725E+02  0.12017316045E+02 -0.19150747958E+02  0.30143770224E+02  0.00000000000E+00 0.  1.
</event>
<event>
 5    1  0.1681104E-003  0.9118800E+02  0.7818608E-02  0.1130116E+00
         25   -1    0    0    0    0  0.00000000000E+00  0.00000000000E+00  0.99999998245E-14  0.12500000000E+03  0.12500000000E+03 0.  0.
        -11    1    3    3    0    0 -0.17209400901E+02  0.36355615822E+02 -0.37101460883E+02  0.54721226969E+02  0.51100000000E-03 0. -1.
         23    2    1    0    0    0  0.69727330351E+01  0.48070221985E+01 -0.28334499024E+02  0.95426865176E+02  0.90728806307E+02 0.  0.
         11    1    3    3    0    0  0.24182133936E+02 -0.31548593623E+02  0.87669618584E+01  0.40705638206E+02  0.51100000000E-03 0.  1.
         22    1    1    0    0    0 -0.69727330351E+01 -0.48070221985E+01  0.28334499024E+02  0.29573134824E+02  0.00000000000E+00 0. -1.
</event>
<event>
 5    1  0.1681104E-003  0.9118800E+02  0.7818608E-02  0.1130116E+00
         25   -1    0    0    0    0  0.00000000000E+00  0.00000000000E+00  0.99999998245E-14  0.12500000000E+03  0.12500000000E+03 0.  0.
        -11    1    3    3    0    0  0.10659114230E+02  0.42850564744E+02  0.17885008953E+02  0.47640960954E+02  0.51100000000E-03 0. -1.
         23    2    1    0    0    0  0.28972999064E+02  0.19600515668E+01 -0.20645986053E+00  0.95960042999E+02  0.91460432701E+02 0.  0.
         11    1    3    3    0    0  0.18313884834E+02 -0.40890513178E+02 -0.18091468814E+02  0.48319082046E+02  0.51100000000E-03 0.  1.
         22    1    1    0    0    0 -0.28972999064E+02 -0.19600515668E+01  0.20645986053E+00  0.29039957001E+02  0.00000000000E+00 0.  1.
</event>
<event>
 5    1  0.1681104E-003  0.9118800E+02  0.7818608E-02  0.1130116E+00
         25   -1    0    0    0    0  0.00000000000E+00  0.00000000000E+00  0.99999998245E-14  0.12500000000E+03  0.12500000000E+03 0.  0.
        -11    1    3    3    0    0  0.33489506770E+02 -0.29367030834E+02 -0.79284263195E+01  0.45241899914E+02  0.51100000000E-03 0.  1.
         23    2    1    0    0    0  0.31005582640E+01 -0.10275549367E+02 -0.33834693327E+02  0.89503706548E+02  0.82164022765E+02 0.  0.
         11    1    3    3    0    0 -0.30388948506E+02  0.19091481466E+02 -0.25906267007E+02  0.44261806633E+02  0.51100000000E-03 0. -1.
         22    1    1    0    0    0 -0.31005582640E+01  0.10275549367E+02  0.33834693327E+02  0.35496293452E+02  0.00000000000E+00 0.  1.
</event>
<event>
 5    1  0.1681104E-003  0.9118800E+02  0.7818608E-02  0.1130116E+00
         25   -1    0    0    0    0  0.00000000000E+00  0.00000000000E+00  0.99999998245E-14  0.12500000000E+03  0.12500000000E+03 0.  0.
        -11    1    3    3    0    0 -0.31922357652E+02 -0.17075047743E+02 -0.90190150836E+01  0.37308669326E+02  0.51100000000E-03 0. -1.
         23    2    1    0    0    0  0.25405171517E+02 -0.15623642503E+02 -0.16028362224E+01  0.95132123797E+02  0.90321818789E+02 0.  0.
         11    1    3    3    0    0  0.57327529170E+02  0.14514052400E+01  0.74161788612E+01  0.57823454472E+02  0.51100000000E-03 0.  1.
         22    1    1    0    0    0 -0.25405171517E+02  0.15623642503E+02  0.16028362224E+01  0.29867876203E+02  0.00000000000E+00 0.  1.
</event>
<event>
 5    1  0.1681104E-003  0.9118800E+02  0.7818608E-02  0.1130116E+00
         25   -1    0    0    0    0  0.00000000000E+00  0.00000000000E+00  0.99999998245E-14  0.12500000000E+03  0.12500000000E+03 0.  0.
        -11    1    3    3    0    0  0.46098496386E+00 -0.60864459754E+01 -0.46132945777E+02  0.46534997776E+02  0.51100000000E-03 0.  1.
         23    2    1    0    0    0  0.84134523206E+01 -0.28286897539E+02 -0.34653601149E+01  0.95285635240E+02  0.90534020181E+02 0.  0.
         11    1    3    3    0    0  0.79524673568E+01 -0.22200451564E+02  0.42667585662E+02  0.48750637464E+02  0.51100000000E-03 0. -1.
         22    1    1    0    0    0 -0.84134523206E+01  0.28286897539E+02  0.34653601149E+01  0.29714364760E+02  0.00000000000E+00 0.  1.
</event>
<event>
 5    1  0.1681104E-003  0.9118800E+02  0.7818608E-02  0.1130116E+00
         25   -1    0    0    0    0  0.00000000000E+00  0.00000000000E+00  0.99999998245E-14  0.12500000000E+03  0.12500000000E+03 0.  0.
        -11    1    3    3    0    0  0.36914680975E+02 -0.20712125944E+02 -0.15541835125E+02  0.45091401308E+02  0.51100000000E-03 0.  1.
         23    2    1    0    0    0 -0.11013059444E+02 -0.27450622965E+02 -0.19717559449E+01  0.95356923220E+02  0.90632393794E+02 0.  0.
         11    1    3    3    0    0 -0.47927740420E+02 -0.67384970216E+01  0.13570079180E+02  0.50265521912E+02  0.51100000000E-03 0. -1.
         22    1    1    0    0    0  0.11013059444E+02  0.27450622965E+02  0.19717559449E+01  0.29643076780E+02  0.00000000000E+00 0. -1.
</event>
<event>
 5    1  0.1681104E-003  0.9118800E+02  0.7818608E-02  0.1130116E+00
         25   -1    0    0    0    0  0.00000000000E+00  0.00000000000E+00  0.99999998245E-14  0.12500000000E+03  0.12500000000E+03 0.  0.
        -11    1    3    3    0    0 -0.48564583000E+02  0.60959778551E+01 -0.31632505819E+02  0.58277740970E+02  0.51100000000E-03 0. -1.
         23    2    1    0    0    0 -0.30196299392E+02 -0.65144800672E+00 -0.81182633149E+00  0.94785765880E+02  0.89841201406E+02 0.  0.
         11    1    3    3    0    0  0.18368283608E+02 -0.67474258618E+01  0.30820679488E+02  0.36508024910E+02  0.51100000000E-03 0.  1.
         22    1    1    0    0    0  0.30196299392E+02  0.65144800672E+00  0.81182633149E+00  0.30214234120E+02  0.00000000000E+00 0. -1.
</event>
<event>
 5    1  0.1681104E-003  0.9118800E+02  0.7818608E-02  0.1130116E+00
         25   -1    0    0    0    0  0.00000000000E+00  0.00000000000E+00  0.99999998245E-14  0.12500000000E+03  0.12500000000E+03 0.  0.
        -11    1    3    3    0    0  0.32887226139E+02  0.26226159297E+01  0.67193130348E+01  0.33668931159E+02  0.51100000000E-03 0.  1.
         23    2    1    0    0    0 -0.27895791336E+02 -0.36791842016E+01 -0.63390680591E+01  0.96157403818E+02  0.91729771364E+02 0.  0.
         11    1    3    3    0    0 -0.60783017475E+02 -0.63018001313E+01 -0.13058381094E+02  0.62488472660E+02  0.51100000000E-03 0. -1.
         22    1    1    0    0    0  0.27895791336E+02  0.36791842016E+01  0.63390680591E+01  0.28842596182E+02  0.00000000000E+00 0. -1.
</event>
<event>
 5    1  0.1681104E-003  0.9118800E+02  0.7818608E-02  0.1130116E+00
         25   -1    0    0    0    0  0.00000000000E+00  0.00000000000E+00  0.99999998245E-14  0.12500000000E+03  0.12500000000E+03 0.  0.
        -11    1    3    3    0    0 -0.78242741483E+01 -0.65603375620E+01 -0.58521992238E+02  0.59406067624E+02  0.51100000000E-03 0.  1.
         23    2    1    0    0    0 -0.14613162120E+02 -0.10549684541E+02 -0.23057711381E+02  0.95734005993E+02  0.91150981884E+02 0.  0.
         11    1    3    3    0    0 -0.67888879721E+01 -0.39893469786E+01  0.35464280857E+02  0.36327938369E+02  0.51100000000E-03 0. -1.
         22    1    1    0    0    0  0.14613162120E+02  0.10549684541E+02  0.23057711381E+02  0.29265994007E+02  0.00000000000E+00 0.  1.
</event>
<event>
 5    1  0.1681104E-003  0.9118800E+02  0.7818608E-02  0.1130116E+00
         25   -1    0    0    0    0  0.00000000000E+00  0.00000000000E+00  0.99999998245E-14  0.12500000000E+03  0.12500000000E+03 0.  0.
        -11    1    3    3    0    0 -0.13090262467E+02 -0.70619839135E+01 -0.34242729532E+02  0.37333511947E+02  0.51100000000E-03 0.  1.
         23    2    1    0    0    0 -0.22317937086E+02  0.15455748907E+02  0.16233303825E+02  0.93369466601E+02  0.87848543814E+02 0.  0.
         11    1    3    3    0    0 -0.92276746186E+01  0.22517732821E+02  0.50476033356E+02  0.56035954653E+02  0.51100000000E-03 0. -1.
         22    1    1    0    0    0  0.22317937086E+02 -0.15455748907E+02 -0.16233303825E+02  0.31630533399E+02  0.00000000000E+00 0. -1.
</event>
<event>
 5    1  0.1681104E-003  0.9118800E+02  0.7818608E-02  0.1130116E+00
         25   -1    0    0    0    0  0.00000000000E+00  0.00000000000E+00  0.99999998245E-14  0.12500000000E+03  0.12500000000E+03 0.  0.
        -11    1    3    3    0    0 -0.16306290367E+02 -0.33014437633E+02 -0.48540844385E+02  0.60926691782E+02  0.51100000000E-03 0.  1.
         23    2    1    0    0    0 -0.86365218300E+01 -0.21824394185E+02 -0.14902783542E+02  0.97197362568E+02  0.93136140365E+02 0.  0.
         11    1    3    3    0    0  0.76697685367E+01  0.11190043448E+02  0.33638060842E+02  0.36270670786E+02  0.51100000000E-03 0. -1.
         22    1    1    0    0    0  0.86365218300E+01  0.21824394185E+02  0.14902783542E+02  0.27802637432E+02  0.00000000000E+00 0.  1.
</event>
<event>
 5    1  0.1681104E-003  0.9118800E+02  0.7818608E-02  0.1130116E+00
         25   -1    0    0    0    0  0.00000000000E+00  0.00000000000E+00  0.99999998245E-14  0.12500000000E+03  0.12500000000E+03 0.  0.
        -11    1    3    3    0    0  0.22281595269E+02 -0.31742679241E+02  0.16538500821E+01  0.38817552647E+02  0.51100000000E-03 0.  1.
         23    2    1    0    0    0  0.87779430264E+00  0.14755477028E+02 -0.24565811804E+02  0.96329915682E+02  0.91964552522E+02 0.  0.
         11    1    3    3    0    0 -0.21403800967E+02  0.46498156269E+02 -0.26219661886E+02  0.57512363036E+02  0.51100000000E-03 0. -1.
         22    1    1    0    0    0 -0.87779430264E+00 -0.14755477028E+02  0.24565811804E+02  0.28670084318E+02  0.00000000000E+00 0. -1.
</event>
<event>
 5    1  0.1681104E-003  0.9118800E+02  0.7818608E-02  0.1130116E+00
         25   -1    0    0    0    0  0.00000000000E+00  0.00000000000E+00  0.99999998245E-14  0.12500000000E+03  0.12500000000E+03 0.  0.
        -11    1    3    3    0    0 -0.26828031278E+02 -0.23972960180E+02  0.44281390651E+02  0.57055128081E+02  0.51100000000E-03 0. -1.
         23    2    1    0    0    0 -0.20570169501E+02 -0.62601983162E+01  0.18985600873E+01  0.10341466964E+03  0.10113687463E+03 0.  0.
         11    1    3    3    0    0  0.62578617765E+01  0.17712761864E+02 -0.42382830564E+02  0.46359541561E+02  0.51100000000E-03 0.  1.
         22    1    1    0    0    0  0.20570169501E+02  0.62601983162E+01 -0.18985600873E+01  0.21585330358E+02  0.00000000000E+00 0. -1.
</event>
<event>
 5    1  0.1681104E-003  0.9118800E+02  0.7818608E-02  0.1130116E+00
         25   -1    0    0    0    0  0.00000000000E+00  0.00000000000E+00  0.99999998245E-14  0.12500000000E+03  0.12500000000E+03 0.  0.
        -11    1    3    3    0    0 -0.36170779053E+02  0.35061905637E+02  0.22948235922E+02  0.55355975435E+02  0.51100000000E-03 0.  1.
         23    2    1    0    0    0 -0.49093680033E+01  0.33609273566E+02  0.16191533306E+02  0.87372205557E+02  0.78854621864E+02 0.  0.
         11    1    3    3    0    0  0.31261411049E+02 -0.14526320715E+01 -0.67567026155E+01  0.32016230122E+02  0.51100000000E-03 0. -1.
         22    1    1    0    0    0  0.49093680033E+01 -0.33609273566E+02 -0.16191533306E+02  0.37627794443E+02  0.00000000000E+00 0.  1.
</event>
<event>
 5    1  0.1681104E-003  0.9118800E+02  0.7818608E-02  0.1130116E+00
         25   -1    0    0    0    0  0.00000000000E+00  0.00000000000E+00  0.99999998245E-14  0.12500000000E+03  0.12500000000E+03 0.  0.
        -11    1    3    3    0    0 -0.61245032318E+02 -0.60539393085E+01  0.68528714566E+01  0.61923872716E+02  0.51100000000E-03 0.  1.
         23    2    1    0    0    0 -0.26885202509E+02 -0.84307265982E+01  0.14535487219E+01  0.96786455934E+02  0.92583011311E+02 0.  0.
         11    1    3    3    0    0  0.34359829809E+02 -0.23767872897E+01 -0.53993227347E+01  0.34862583217E+02  0.51100000000E-03 0. -1.
         22    1    1    0    0    0  0.26885202509E+02  0.84307265982E+01 -0.14535487219E+01  0.28213544066E+02  0.00000000000E+00 0.  1.
</event>
<event>
 5    1  0.1681104E-003  0.9118800E+02  0.7818608E-02  0.1130116E+00
         25   -1    0    0    0    0  0.00000000000E+00  0.00000000000E+00  0.99999998245E-14  0.12500000000E+03  0.12500000000E+03 0.  0.
        -11    1    3    3    0    0  0.56191304779E+02  0.41882457721E+01  0.81762605725E+01  0.56937293337E+02  0.51100000000E-03 0.  1.
         23    2    1    0    0    0  0.26095724887E+02 -0.10660254050E+02 -0.99839155274E+01  0.95095043169E+02  0.90270486829E+02 0.  0.
         11    1    3    3    0    0 -0.30095579892E+02 -0.14848499823E+02 -0.18160176100E+02  0.38157749832E+02  0.51100000000E-03 0. -1.
         22    1    1    0    0    0 -0.26095724887E+02  0.10660254050E+02  0.99839155274E+01  0.29904956831E+02  0.00000000000E+00 0.  1.
</event>
<event>
 5    1  0.1681104E-003  0.9118800E+02  0.7818608E-02  0.1130116E+00
         25   -1    0    0    0    0  0.00000000000E+00  0.00000000000E+00  0.99999998245E-14  0.12500000000E+03  0.12500000000E+03 0.  0.
        -11    1    3    3    0    0 -0.13886719215E+02  0.34479179221E+01  0.59283516622E+02  0.60985772537E+02  0.51100000000E-03 0. -1.
         23    2    1    0    0    0 -0.13985032484E+02 -0.39120566677E+01  0.24670616086E+02  0.96372659589E+02  0.92022632527E+02 0.  0.
         11    1    3    3    0    0 -0.98313268896E-01 -0.73599745898E+01 -0.34612900536E+02  0.35386887052E+02  0.51100000000E-03 0.  1.
         22    1    1    0    0    0  0.13985032484E+02  0.39120566677E+01 -0.24670616086E+02  0.28627340411E+02  0.00000000000E+00 0. -1.
</event>
<event>
 5    1  0.1681104E-003  0.9118800E+02  0.7818608E-02  0.1130116E+00
         25   -1    0    0    0    0  0.00000000000E+00  0.00000000000E+00  0.99999998245E-14  0.12500000000E+03  0.12500000000E+03 0.  0.
        -11    1    3    3    0    0 -0.39821828677E+02 -0.43173792698E+02 -0.61366223168E+01  0.59054318630E+02  0.51100000000E-03 0.  1.
         23    2    1    0    0    0 -0.68258702520E+01 -0.25053358558E+02 -0.10581875884E+02  0.96960039641E+02  0.92817077686E+02 0.  0.
         11    1    3    3    0    0  0.32995958425E+02  0.18120434141E+02 -0.44452535676E+01  0.37905721011E+02  0.51100000000E-03 0. -1.
         22    1    1    0    0    0  0.68258702520E+01  0.25053358558E+02  0.10581875884E+02  0.28039960359E+02  0.00000000000E+00 0.  1.
</event>
<event>
 5    1  0.1681104E-003  0.9118800E+02  0.7818608E-02  0.1130116E+00
         25   -1    0    0    0    0  0.00000000000E+00  0.00000000000E+00  0.99999998245E-14  0.12500000000E+03  0.12500000000E+03 0.  0.
        -11    1    3    3    0    0  0.38387806357E+02 -0.13562075872E+02  0.46966509895E+02  0.62156308054E+02  0.51100000000E-03 0.  1.
         23    2    1    0    0    0  0.17891268595E+02 -0.60588223822E+01  0.28820658500E+02  0.90540789664E+02  0.83726921692E+02 0.  0.
         11    1    3    3    0    0 -0.20496537762E+02  0.75032534902E+01 -0.18145851395E+02  0.28384481611E+02  0.51100000000E-03 0. -1.
         22    1    1    0    0    0 -0.17891268595E+02  0.60588223822E+01 -0.28820658500E+02  0.34459210336E+02  0.00000000000E+00 0.  1.
</event>
<event>
 5    1  0.1681104E-003  0.9118800E+02  0.7818608E-02  0.1130116E+00
         25   -1    0    0    0    0  0.00000000000E+00  0.00000000000E+00  0.99999998245E-14  0.12500000000E+03  0.12500000000E+03 0.  0.
        -11    1    3    3    0    0  0.34361001326E+01  0.42434859983E+02 -0.74937151279E+01  0.43228230274E+02  0.51100000000E-03 0.  1.
         23    2    1    0    0    0 -0.94005287197E+01 -0.44294410463E+01 -0.27367511642E+02  0.95725940123E+02  0.91139920072E+02 0.  0.
         11    1    3    3    0    0 -0.12836628852E+02 -0.46864301030E+02 -0.19873796514E+02  0.52497709849E+02  0.51100000000E-03 0. -1.
         22    1    1    0    0    0  0.94005287197E+01  0.44294410463E+01  0.27367511642E+02  0.29274059877E+02  0.00000000000E+00 0. -1.
</event>
<event>
 5    1  0.1681104E-003  0.9118800E+02  0.7818608E-02  0.1130116E+00
         25   -1    0    0    0    0  0.00000000000E+00  0.00000000000E+00  0.99999998245E-14  0.12500000000E+03  0.12500000000E+03 0.  0.
        -11    1    3    3    0    0 -0.43229509698E+02  0.17871079746E+02 -0.34133566814E+01  0.46902206815E+02  0.51100000000E-03 0. -1.
         23    2    1    0    0    0 -0.16834263940E+02 -0.23346363187E+02 -0.45484899412E+01  0.95860098195E+02  0.91323734859E+02 0.  0.
         11    1    3    3    0    0  0.26395245758E+02 -0.41217442933E+02 -0.11351332598E+01  0.48957891380E+02  0.51100000000E-03 0.  1.
         22    1    1    0    0    0  0.16834263940E+02  0.23346363187E+02  0.45484899412E+01  0.29139901805E+02  0.00000000000E+00 0. -1.
</event>
<event>
 5    1  0.1681104E-003  0.9118800E+02  0.7818608E-02  0.1130116E+00
         25   -1    0    0    0    0  0.00000000000E+00  0.00000000000E+00  0.99999998245E-14  0.12500000000E+03  0.12500000000E+03 0.  0.
        -11    1    3    3    0    0 -0.20917472389E+02 -0.58478383054E+02 -0.98550671073E+00  0.62114677489E+02  0.51100000000E-03 0. -1.
         23    2    1    0    0    0 -0.93530930114E+01 -0.27681509957E+02 -0.53365905708E+01  0.95297718248E+02  0.90550701609E+02 0.  0.
         11    1    3    3    0    0  0.11564379378E+02  0.30796873098E+02 -0.43510838601E+01  0.33183040759E+02  0.51100000000E-03 0.  1.
         22    1    1    0    0    0  0.93530930114E+01  0.27681509957E+02  0.53365905708E+01  0.29702281752E+02  0.00000000000E+00 0. -1.
</event>
<event>
 5    1  0.1681104E-003  0.9118800E+02  0.7818608E-02  0.1130116E+00
         25   -1    0    0    0    0  0.00000000000E+00  0.00000000000E+00  0.99999998245E-14  0.12500000000E+03  0.12500000000E+03 0.  0.
        -11    1    3    3    0    0 -0.33383947885E+02  0.19281791038E+02 -0.66981434175E+01  0.39129791304E+02  0.51100000000E-03 0.  1.
         23    2    1    0    0    0  0.11858908531E+02 -0.18734312654E+02 -0.14157856640E+02  0.98693098115E+02  0.95122418644E+02 0.  0.
         11    1    3    3    0    0  0.45242856415E+02 -0.38016103693E+02 -0.74597132224E+01  0.59563306810E+02  0.51100000000E-03 0. -1.
         22    1    1    0    0    0 -0.11858908531E+02  0.18734312654E+02  0.14157856640E+02  0.26306901885E+02  0.00000000000E+00 0. -1.
</event>
<event>
 5    1  0.1681104E-003  0.9118800E+02  0.7818608E-02  0.1130116E+00
         25   -1    0    0    0    0  0.00000000000E+00  0.00000000000E+00  0.99999998245E-14  0.12500000000E+03  0.12500000000E+03 0.  0.
        -11    1    3    3    0    0 -0.19031875160E+02  0.10577238420E+02 -0.24104019147E+02  0.32482210269E+02  0.51100000000E-03 0. -1.
         23    2    1    0    0    0  0.77829487401E+01  0.16066749662E+02  0.28262933336E+02  0.91570849000E+02  0.85250878295E+02 0.  0.
         11    1    3    3    0    0  0.26814823900E+02  0.54895112415E+01  0.52366952483E+02  0.59088638731E+02  0.51100000000E-03 0.  1.
         22    1    1    0    0    0 -0.77829487401E+01 -0.16066749662E+02 -0.28262933336E+02  0.33429151000E+02  0.00000000000E+00 0.  1.
</event>
<event>
 5    1  0.1681104E-003  0.9118800E+02  0.7818608E-02  0.1130116E+00
         25   -1    0    0    0    0  0.00000000000E+00  0.00000000000E+00  0.99999998245E-14  0.12500000000E+03  0.12500000000E+03 0.  0.
        -11    1    3    3    0    0 -0.18639865631E+02 -0.39014463498E+02 -0.13812858842E+02  0.45391276941E+02  0.51100000000E-03 0. -1.
         23    2    1    0    0    0 -0.25118037953E+02  0.65431812563E+01  0.99760593722E+01  0.97192612274E+02  0.93129764675E+02 0.  0.
         11    1    3    3    0    0 -0.64781723223E+01  0.45557644754E+02  0.23788918214E+02  0.51801335332E+02  0.51100000000E-03 0.  1.
         22    1    1    0    0    0  0.25118037953E+02 -0.65431812563E+01 -0.99760593722E+01  0.27807387726E+02  0.00000000000E+00 0. -1.
</event>
<event>
 5    1  0.1681104E-003  0.9118800E+02  0.7818608E-02  0.1130116E+00
         25   -1    0    0    0    0  0.00000000000E+00  0.00000000000E+00  0.99999998245E-14  0.12500000000E+03  0.12500000000E+03 0.  0.
        -11    1    3    3    0    0  0.19403247823E+01 -0.40952807031E+01  0.46634063513E+02  0.46853730527E+02  0.51100000000E-03 0. -1.
         23    2    1    0    0    0 -0.47608719580E+01  0.27047151197E+02  0.91330904802E+01  0.96058202693E+02  0.91594490408E+02 0.  0.
         11    1    3    3    0    0 -0.67011967403E+01  0.31142431900E+02 -0.37500973033E+02  0.49204472165E+02  0.51100000000E-03 0.  1.
         22    1    1    0    0    0  0.47608719580E+01 -0.27047151197E+02 -0.91330904802E+01  0.28941797307E+02  0.00000000000E+00 0.  1.
</event>
<event>
 5    1  0.1681104E-003  0.9118800E+02  0.7818608E-02  0.1130116E+00
         25   -1    0    0    0    0  0.00000000000E+00  0.00000000000E+00  0.99999998245E-14  0.12500000000E+03  0.12500000000E+03 0.  0.
        -11    1    3    3    0    0 -0.24867459403E+02  0.21500958687E+02 -0.27832831827E+02  0.43073754066E+02  0.51100000000E-03 0.  1.
         23    2    1    0    0    0 -0.11535388466E+02  0.10399480464E+02  0.23259814119E+02  0.97031565402E+02  0.92913353995E+02 0.  0.
         11    1    3    3    0    0  0.13332070936E+02 -0.11101478224E+02  0.51092645946E+02  0.53957811336E+02  0.51100000000E-03 0. -1.
         22    1    1    0    0    0  0.11535388466E+02 -0.10399480464E+02 -0.23259814119E+02  0.27968434598E+02  0.00000000000E+00 0. -1.
</event>
<event>
 5    1  0.1681104E-003  0.9118800E+02  0.7818608E-02  0.1130116E+00
         25   -1    0    0    0    0  0.00000000000E+00  0.00000000000E+00  0.99999998245E-14  0.12500000000E+03  0.12500000000E+03 0.  0.
        -11    1    3    3    0    0 -0.53391075548E+01  0.60760762453E+02 -0.19335579083E+01  0.61025527198E+02  0.51100000000E-03 0.  1.
         23    2    1    0    0    0 -0.11285736897E+02  0.31566612799E+02 -0.54876801345E+01  0.91030402797E+02  0.84454725736E+02 0.  0.
         11    1    3    3    0    0 -0.59466293425E+01 -0.29194149655E+02 -0.35541222262E+01  0.30004875598E+02  0.51100000000E-03 0. -1.
         22    1    1    0    0    0  0.11285736897E+02 -0.31566612799E+02  0.54876801345E+01  0.33969597203E+02  0.00000000000E+00 0.  1.
</event>
<event>
 5    1  0.1681104E-003  0.9118800E+02  0.7818608E-02  0.1130116E+00
         25   -1    0    0    0    0  0.00000000000E+00  0.00000000000E+00  0.99999998245E-14  0.12500000000E+03  0.12500000000E+03 0.  0.
        -11    1    3    3    0    0  0.25075308510E+02  0.16550361433E+02  0.16726842603E+02  0.34387102585E+02  0.51100000000E-03 0.  1.
         23    2    1    0    0    0 -0.30038890306E+02  0.77833054291E+01 -0.35565358287E+01  0.93765984547E+02  0.88410950321E+02 0.  0.
         11    1    3    3    0    0 -0.55114198816E+02 -0.87670560042E+01 -0.20283378432E+02  0.59378881962E+02  0.51100000000E-03 0. -1.
         22    1    1    0    0    0  0.30038890306E+02 -0.77833054291E+01  0.35565358287E+01  0.31234015453E+02  0.00000000000E+00 0. -1.
</event>
<event>
 5    1  0.1681104E-003  0.9118800E+02  0.7818608E-02  0.1130116E+00
         25   -1    0    0    0    0  0.00000000000E+00  0.00000000000E+00  0.99999998245E-14  0.12500000000E+03  0.12500000000E+03 0.  0.
        -11    1    3    3    0    0  0.54235140542E+02  0.16074445844E+02 -0.23408448502E+02  0.61219226885E+02  0.51100000000E-03 0.  1.
         23    2    1    0    0    0  0.45680179941E+02  0.11611362718E+02 -0.11614900623E+02  0.76457147796E+02  0.59070186635E+02 0.  0.
         11    1    3    3    0    0 -0.85549606014E+01 -0.44630831258E+01  0.11793547879E+02  0.15237920912E+02  0.51100000000E-03 0. -1.
         22    1    1    0    0    0 -0.45680179941E+02 -0.11611362718E+02  0.11614900623E+02  0.48542852204E+02  0.00000000000E+00 0.  1.
</event>
<event>
 5    1  0.1681104E-003  0.9118800E+02  0.7818608E-02  0.1130116E+00
         25   -1    0    0    0    0  0.00000000000E+00  0.00000000000E+00  0.99999998245E-14  0.12500000000E+03  0.12500000000E+03 0.  0.
        -11    1    3    3    0    0  0.20791623681E+02 -0.28443830259E+02 -0.22220531331E+02  0.41654472845E+02  0.51100000000E-03 0.  1.
         23    2    1    0    0    0  0.80481869165E+01 -0.12157480757E+02  0.26595601896E+02  0.94670085869E+02  0.89680106306E+02 0.  0.
         11    1    3    3    0    0 -0.12743436765E+02  0.16286349502E+02  0.48816133228E+02  0.53015613023E+02  0.51100000000E-03 0. -1.
         22    1    1    0    0    0 -0.80481869165E+01  0.12157480757E+02 -0.26595601896E+02  0.30329914131E+02  0.00000000000E+00 0. -1.
</event>
<event>
 5    1  0.1681104E-003  0.9118800E+02  0.7818608E-02  0.1130116E+00
         25   -1    0    0    0    0  0.00000000000E+00  0.00000000000E+00  0.99999998245E-14  0.12500000000E+03  0.12500000000E+03 0.  0.
        -11    1    3    3    0    0  0.23761464864E+02 -0.30121341938E+02  0.21849307431E+01  0.38427547088E+02  0.51100000000E-03 0.  1.
         23    2    1    0    0    0  0.37935007278E+01  0.15885878113E+02 -0.24742766771E+02  0.95352803190E+02  0.90626711280E+02 0.  0.
         11    1    3    3    0    0 -0.19967964136E+02  0.46007220051E+02 -0.26927697514E+02  0.56925256102E+02  0.51100000000E-03 0. -1.
         22    1    1    0    0    0 -0.37935007278E+01 -0.15885878113E+02  0.24742766771E+02  0.29647196810E+02  0.00000000000E+00 0.  1.
</event>
<event>
 5    1  0.1681104E-003  0.9118800E+02  0.7818608E-02  0.1130116E+00
         25   -1    0    0    0    0  0.00000000000E+00  0.00000000000E+00  0.99999998245E-14  0.12500000000E+03  0.12500000000E+03 0.  0.
        -11    1    3    3    0    0 -0.41213379628E+02 -0.24694627667E+02 -0.18741077657E+01  0.48082008862E+02  0.51100000000E-03 0. -1.
         23    2    1    0    0    0 -0.19146822310E+02  0.91177597951E+01 -0.23053748975E+02  0.93675733208E+02  0.88283256069E+02 0.  0.
         11    1    3    3    0    0  0.22066557318E+02  0.33812387462E+02 -0.21179641209E+02  0.45593724347E+02  0.51100000000E-03 0.  1.
         22    1    1    0    0    0  0.19146822310E+02 -0.91177597951E+01  0.23053748975E+02  0.31324266792E+02  0.00000000000E+00 0.  1.
</event>
<event>
 5    1  0.1681104E-003  0.9118800E+02  0.7818608E-02  0.1130116E+00
         25   -1    0    0    0    0  0.00000000000E+00  0.00000000000E+00  0.99999998245E-14  0.12500000000E+03  0.12500000000E+03 0.  0.
        -11    1    3    3    0    0  0.33972765652E+01  0.33891715196E+02  0.12717426350E+02  0.36358256012E+02  0.51100000000E-03 0. -1.
         23    2    1    0    0    0  0.16144337727E+02 -0.13964375393E+02 -0.20027894807E+02  0.95729537223E+02  0.91144853425E+02 0.  0.
         11    1    3    3    0    0  0.12747061162E+02 -0.47856090589E+02 -0.32745321157E+02  0.59371281211E+02  0.51100000000E-03 0.  1.
         22    1    1    0    0    0 -0.16144337727E+02  0.13964375393E+02  0.20027894807E+02  0.29270462777E+02  0.00000000000E+00 0.  1.
</event>
<event>
 5    1  0.1681104E-003  0.9118800E+02  0.7818608E-02  0.1130116E+00
         25   -1    0    0    0    0  0.00000000000E+00  0.00000000000E+00  0.99999998245E-14  0.12500000000E+03  0.12500000000E+03 0.  0.
        -11    1    3    3    0    0  0.27696693222E+01  0.73420849704E+01  0.31425322738E+02  0.32390248367E+02  0.51100000000E-03 0. -1.
         23    2    1    0    0    0 -0.15017739917E+02  0.10825917486E+02 -0.26267960974E+02  0.92863746713E+02  0.87125981648E+02 0.  0.
         11    1    3    3    0    0 -0.17787409239E+02  0.34838325155E+01 -0.57693283712E+02  0.60473498345E+02  0.51100000000E-03 0.  1.
         22    1    1    0    0    0  0.15017739917E+02 -0.10825917486E+02  0.26267960974E+02  0.32136253287E+02  0.00000000000E+00 0.  1.
</event>
<event>
 5    1  0.1681104E-003  0.9118800E+02  0.7818608E-02  0.1130116E+00
         25   -1    0    0    0    0  0.00000000000E+00  0.00000000000E+00  0.99999998245E-14  0.12500000000E+03  0.12500000000E+03 0.  0.
        -11    1    3    3    0    0  0.35071145441E+02  0.20090293190E+02 -0.14533329530E+01  0.40444002027E+02  0.51100000000E-03 0. -1.
         23    2    1    0    0    0  0.90748155051E+00 -0.18452845520E+02 -0.22329196446E+02  0.96018556895E+02  0.91540369366E+02 0.  0.
         11    1    3    3    0    0 -0.34163663891E+02 -0.38543138709E+02 -0.20875863493E+02  0.55574554868E+02  0.51100000000E-03 0.  1.
         22    1    1    0    0    0 -0.90748155051E+00  0.18452845520E+02  0.22329196446E+02  0.28981443105E+02  0.00000000000E+00 0.  1.
</event>
<event>
 5    1  0.1681104E-003  0.9118800E+02  0.7818608E-02  0.1130116E+00
         25   -1    0    0    0    0  0.00000000000E+00  0.00000000000E+00  0.99999998245E-14  0.12500000000E+03  0.12500000000E+03 0.  0.
        -11    1    3    3    0    0 -0.20561899681E+02 -0.27086452286E+02 -0.98710742232E+01  0.35410531238E+02  0.51100000000E-03 0.  1.
         23    2    1    0    0    0  0.29975204232E+01  0.14791864811E+02  0.25700971621E+02  0.95195229651E+02  0.90409111337E+02 0.  0.
         11    1    3    3    0    0  0.23559420105E+02  0.41878317097E+02  0.35572045845E+02  0.59784698413E+02  0.51100000000E-03 0. -1.
         22    1    1    0    0    0 -0.29975204232E+01 -0.14791864811E+02 -0.25700971621E+02  0.29804770349E+02  0.00000000000E+00 0. -1.
</event>
<event>
 5    1  0.1681104E-003  0.9118800E+02  0.7818608E-02  0.1130116E+00
         25   -1    0    0    0    0  0.00000000000E+00  0.00000000000E+00  0.99999998245E-14  0.12500000000E+03  0.12500000000E+03 0.  0.
        -11    1    3    3    0    0 -0.29575322829E+02 -0.20487252147E+02  0.95046524011E+01  0.37212439298E+02  0.51100000000E-03 0.  1.
         23    2    1    0    0    0  0.17443680643E+02 -0.54797345963E+01 -0.22477843481E+02  0.96024787608E+02  0.91548877120E+02 0.  0.
         11    1    3    3    0    0  0.47019003473E+02  0.15007517551E+02 -0.31982495882E+02  0.58812348310E+02  0.51100000000E-03 0. -1.
         22    1    1    0    0    0 -0.17443680643E+02  0.54797345963E+01  0.22477843481E+02  0.28975212392E+02  0.00000000000E+00 0. -1.
</event>
<event>
 5    1  0.1681104E-003  0.9118800E+02  0.7818608E-02  0.1130116E+00
         25   -1    0    0    0    0  0.00000000000E+00  0.00000000000E+00  0.99999998245E-14  0.12500000000E+03  0.12500000000E+03 0.  0.
        -11    1    3    3    0    0 -0.31401516077E+00 -0.42390409921E+01  0.34440403488E+02  0.34701721380E+02  0.51100000000E-03 0. -1.
         23    2    1    0    0    0 -0.27085403607E+02 -0.25439493312E+01 -0.17143968585E+02  0.92844029705E+02  0.87097688984E+02 0.  0.
         11    1    3    3    0    0 -0.26771388446E+02  0.16950916609E+01 -0.51584372073E+02  0.58142308326E+02  0.51100000000E-03 0.  1.
         22    1    1    0    0    0  0.27085403607E+02  0.25439493312E+01  0.17143968585E+02  0.32155970295E+02  0.00000000000E+00 0.  1.
</event>
<event>
 5    1  0.1681104E-003  0.9118800E+02  0.7818608E-02  0.1130116E+00
         25   -1    0    0    0    0  0.00000000000E+00  0.00000000000E+00  0.99999998245E-14  0.12500000000E+03  0.12500000000E+03 0.  0.
        -11    1    3    3    0    0 -0.50608249837E+02 -0.24716567694E+02 -0.22276169575E+02  0.60566751616E+02  0.51100000000E-03 0.  1.
         23    2    1    0    0    0 -0.22581591120E+02 -0.14460859072E+01 -0.15375247538E+02  0.97642776843E+02  0.93732034070E+02 0.  0.
         11    1    3    3    0    0  0.28026658717E+02  0.23270481787E+02  0.69009220365E+01  0.37076025227E+02  0.51100000000E-03 0. -1.
         22    1    1    0    0    0  0.22581591120E+02  0.14460859072E+01  0.15375247538E+02  0.27357223157E+02  0.00000000000E+00 0.  1.
</event>
<event>
 5    1  0.1681104E-003  0.9118800E+02  0.7818608E-02  0.1130116E+00
         25   -1    0    0    0    0  0.00000000000E+00  0.00000000000E+00  0.99999998245E-14  0.12500000000E+03  0.12500000000E+03 0.  0.
        -11    1    3    3    0    0 -0.34531855151E+02  0.13213894398E+02 -0.10565001768E+01  0.36988812068E+02  0.51100000000E-03 0.  1.
         23    2    1    0    0    0  0.37268885041E+01 -0.29699533186E+02 -0.51570255821E+01  0.94626543130E+02  0.89619394008E+02 0.  0.
         11    1    3    3    0    0  0.38258743655E+02 -0.42913427584E+02 -0.41005254053E+01  0.57637731062E+02  0.51100000000E-03 0. -1.
         22    1    1    0    0    0 -0.37268885041E+01  0.29699533186E+02  0.51570255821E+01  0.30373456870E+02  0.00000000000E+00 0. -1.
</event>
<event>
 5    1  0.1681104E-003  0.9118800E+02  0.7818608E-02  0.1130116E+00
         25   -1    0    0    0    0  0.00000000000E+00  0.00000000000E+00  0.99999998245E-14  0.12500000000E+03  0.12500000000E+03 0.  0.
        -11    1    3    3    0    0  0.18890235515E+02  0.52141914084E+02  0.13929515958E+02  0.57180867580E+02  0.51100000000E-03 0.  1.
         23    2    1    0    0    0 -0.60030622283E+01  0.26240188298E+02 -0.47411915575E+01  0.97667544285E+02  0.93765057837E+02 0.  0.
         11    1    3    3    0    0 -0.24893297743E+02 -0.25901725786E+02 -0.18670707515E+02  0.40486676705E+02  0.51100000000E-03 0. -1.
         22    1    1    0    0    0  0.60030622283E+01 -0.26240188298E+02  0.47411915575E+01  0.27332455715E+02  0.00000000000E+00 0.  1.
</event>
<event>
 5    1  0.1681104E-003  0.9118800E+02  0.7818608E-02  0.1130116E+00
         25   -1    0    0    0    0  0.00000000000E+00  0.00000000000E+00  0.99999998245E-14  0.12500000000E+03  0.12500000000E+03 0.  0.
        -11    1    3    3    0    0  0.62365661310E+01  0.56573358864E+02 -0.99194199238E+01  0.57773995726E+02  0.51100000000E-03 0. -1.
         23    2    1    0    0    0  0.61997159490E+01  0.20819206958E+02 -0.20572737851E+02  0.95081554203E+02  0.90251806357E+02 0.  0.
         11    1    3    3    0    0 -0.36850182005E-01 -0.35754151905E+02 -0.10653317927E+02  0.37307558477E+02  0.51100000000E-03 0.  1.
         22    1    1    0    0    0 -0.61997159490E+01 -0.20819206958E+02  0.20572737851E+02  0.29918445797E+02  0.00000000000E+00 0. -1.
</event>
<event>
 5    1  0.1681104E-003  0.9118800E+02  0.7818608E-02  0.1130116E+00
         25   -1    0    0    0    0  0.00000000000E+00  0.00000000000E+00  0.99999998245E-14  0.12500000000E+03  0.12500000000E+03 0.  0.
        -11    1    3    3    0    0  0.26115025843E+02 -0.12494611186E+01  0.45088954910E+02  0.52120721244E+02  0.51100000000E-03 0. -1.
         23    2    1    0    0    0  0.11363294135E+02  0.23937116134E+02  0.13045604365E+02  0.95465312332E+02  0.90781760739E+02 0.  0.
         11    1    3    3    0    0 -0.14751731708E+02  0.25186577253E+02 -0.32043350545E+02  0.43344591087E+02  0.51100000000E-03 0.  1.
         22    1    1    0    0    0 -0.11363294135E+02 -0.23937116134E+02 -0.13045604365E+02  0.29534687668E+02  0.00000000000E+00 0. -1.
</event>
<event>
 5    1  0.1681104E-003  0.9118800E+02  0.7818608E-02  0.1130116E+00
         25   -1    0    0    0    0  0.00000000000E+00  0.00000000000E+00  0.99999998245E-14  0.12500000000E+03  0.12500000000E+03 0.  0.
        -11    1    3    3    0    0  0.15601104058E+02  0.26398018556E+02  0.39932709862E+02  0.50347503898E+02  0.51100000000E-03 0.  1.
         23    2    1    0    0    0 -0.18908286693E+02  0.18181305116E+02  0.94532384334E+01  0.97117265589E+02  0.93028578389E+02 0.  0.
         11    1    3    3    0    0 -0.34509390751E+02 -0.82167134405E+01 -0.30479471429E+02  0.46769761691E+02  0.51100000000E-03 0. -1.
         22    1    1    0    0    0  0.18908286693E+02 -0.18181305116E+02 -0.94532384334E+01  0.27882734411E+02  0.00000000000E+00 0.  1.
</event>
<event>
 5    1  0.1681104E-003  0.9118800E+02  0.7818608E-02  0.1130116E+00
         25   -1    0    0    0    0  0.00000000000E+00  0.00000000000E+00  0.99999998245E-14  0.12500000000E+03  0.12500000000E+03 0.  0.
        -11    1    3    3    0    0  0.46253815820E+02 -0.14967432414E+02 -0.72340047006E+01  0.49150486623E+02  0.51100000000E-03 0.  1.
         23    2    1    0    0    0  0.12861674751E+01 -0.27143796315E+02  0.51197338644E+01  0.97347665921E+02  0.93337647711E+02 0.  0.
         11    1    3    3    0    0 -0.44967648345E+02 -0.12176363901E+02  0.12353738565E+02  0.48197179298E+02  0.51100000000E-03 0. -1.
         22    1    1    0    0    0 -0.12861674751E+01  0.27143796315E+02 -0.51197338644E+01  0.27652334079E+02  0.00000000000E+00 0. -1.
</event>
<event>
 5    1  0.1681104E-003  0.9118800E+02  0.7818608E-02  0.1130116E+00
         25   -1    0    0    0    0  0.00000000000E+00  0.00000000000E+00  0.99999998245E-14  0.12500000000E+03  0.12500000000E+03 0.  0.
        -11    1    3    3    0    0  0.35677231201E+02  0.31663993230E+02  0.86449495854E+01  0.48478948493E+02  0.51100000000E-03 0. -1.
         23    2    1    0    0    0 -0.11719939380E+02  0.24940530883E+02  0.78090978630E+01  0.96357914370E+02  0.92002601010E+02 0.  0.
         11    1    3    3    0    0 -0.47397170582E+02 -0.67234623469E+01 -0.83585172240E+00  0.47878965877E+02  0.51100000000E-03 0.  1.
         22    1    1    0    0    0  0.11719939380E+02 -0.24940530883E+02 -0.78090978630E+01  0.28642085630E+02  0.00000000000E+00 0. -1.
</event>
<event>
 5    1  0.1681104E-003  0.9118800E+02  0.7818608E-02  0.1130116E+00
         25   -1    0    0    0    0  0.00000000000E+00  0.00000000000E+00  0.99999998245E-14  0.12500000000E+03  0.12500000000E+03 0.  0.
        -11    1    3    3    0    0  0.17393033658E+02 -0.44533659925E+02  0.81812404232E+01  0.48504609897E+02  0.51100000000E-03 0.  1.
         23    2    1    0    0    0  0.23950559418E+02  0.14363327690E+01  0.16768863539E+02  0.95727365465E+02  0.91141874933E+02 0.  0.
         11    1    3    3    0    0  0.65575257597E+01  0.45969992694E+02  0.85876231154E+01  0.47222755568E+02  0.51100000000E-03 0. -1.
         22    1    1    0    0    0 -0.23950559418E+02 -0.14363327690E+01 -0.16768863539E+02  0.29272634535E+02  0.00000000000E+00 0. -1.
</event>
<event>
 5    1  0.1681104E-003  0.9118800E+02  0.7818608E-02  0.1130116E+00
         25   -1    0    0    0    0  0.00000000000E+00  0.00000000000E+00  0.99999998245E-14  0.12500000000E+03  0.12500000000E+03 0.  0.
        -11    1    3    3    0    0  0.19275219436E+02  0.56612623667E+02  0.15152301520E+02  0.61693723217E+02  0.51100000000E-03 0.  1.
         23    2    1    0    0    0  0.22253239322E+01  0.28209229984E+02  0.81406470794E+01  0.95555427363E+02  0.90905758018E+02 0.  0.
         11    1    3    3    0    0 -0.17049895504E+02 -0.28403393683E+02 -0.70116544406E+01  0.33861704146E+02  0.51100000000E-03 0. -1.
         22    1    1    0    0    0 -0.22253239322E+01 -0.28209229984E+02 -0.81406470794E+01  0.29444572637E+02  0.00000000000E+00 0.  1.
</event>
<event>
 5    1  0.1681104E-003  0.9118800E+02  0.7818608E-02  0.1130116E+00
         25   -1    0    0    0    0  0.00000000000E+00  0.00000000000E+00  0.99999998245E-14  0.12500000000E+03  0.12500000000E+03 0.  0.
        -11    1    3    3    0    0 -0.41367517573E+02  0.57659562799E+01  0.37870055717E+02  0.56379596329E+02  0.51100000000E-03 0. -1.
         23    2    1    0    0    0 -0.16170916849E+02  0.21455549468E+02  0.12766432781E+02  0.95254059761E+02  0.90490413527E+02 0.  0.
         11    1    3    3    0    0  0.25196600724E+02  0.15689593188E+02 -0.25103622935E+02  0.38874463433E+02  0.51100000000E-03 0.  1.
         22    1    1    0    0    0  0.16170916849E+02 -0.21455549468E+02 -0.12766432781E+02  0.29745940239E+02  0.00000000000E+00 0. -1.
</event>
<event>
 5    1  0.1681104E-003  0.9118800E+02  0.7818608E-02  0.1130116E+00
         25   -1    0    0    0    0  0.00000000000E+00  0.00000000000E+00  0.99999998245E-14  0.12500000000E+03  0.12500000000E+03 0.  0.
        -11    1    3    3    0    0 -0.24096100012E+02  0.34670608744E+02 -0.24486520002E+02  0.48808429687E+02  0.51100000000E-03 0.  1.
         23    2    1    0    0    0 -0.28852065962E+02 -0.67318434253E+01 -0.44814186223E+01  0.95035979257E+02  0.90188662338E+02 0.  0.
         11    1    3    3    0    0 -0.47559659503E+01 -0.41402452169E+02  0.20005101380E+02  0.46227549570E+02  0.51100000000E-03 0. -1.
         22    1    1    0    0    0  0.28852065962E+02  0.67318434253E+01  0.44814186223E+01  0.29964020743E+02  0.00000000000E+00 0.  1.
</event>
<event>
 5    1  0.1681104E-003  0.9118800E+02  0.7818608E-02  0.1130116E+00
         25   -1    0    0    0    0  0.00000000000E+00  0.00000000000E+00  0.99999998245E-14  0.12500000000E+03  0.12500000000E+03 0.  0.
        -11    1    3    3    0    0 -0.35372722648E+01  0.26413446426E+02  0.23067514927E+02  0.35246172734E+02  0.51100000000E-03 0. -1.
         23    2    1    0    0    0 -0.32251508874E+02 -0.15111900369E+02  0.14916236287E+02  0.86386227038E+02  0.77275848488E+02 0.  0.
         11    1    3    3    0    0 -0.28714236609E+02 -0.41525346795E+02 -0.81512786406E+01  0.51140054304E+02  0.51100000000E-03 0.  1.
         22    1    1    0    0    0  0.32251508874E+02  0.15111900369E+02 -0.14916236287E+02  0.38613772962E+02  0.00000000000E+00 0.  1.
</event>
<event>
 5    1  0.1681104E-003  0.9118800E+02  0.7818608E-02  0.1130116E+00
         25   -1    0    0    0    0  0.00000000000E+00  0.00000000000E+00  0.99999998245E-14  0.12500000000E+03  0.12500000000E+03 0.  0.
        -11    1    3    3    0    0 -0.30065789126E+01  0.95966289422E+01  0.59652889360E+02  0.60494644499E+02  0.51100000000E-03 0.  1.
         23    2    1    0    0    0  0.97297677690E+01  0.37957059655E+01  0.28495528588E+02  0.94650849862E+02  0.89653290322E+02 0.  0.
         11    1    3    3    0    0  0.12736346682E+02 -0.58009229766E+01 -0.31157360773E+02  0.34156205362E+02  0.51100000000E-03 0. -1.
         22    1    1    0    0    0 -0.97297677690E+01 -0.37957059655E+01 -0.28495528588E+02  0.30349150138E+02  0.00000000000E+00 0.  1.
</event>
<event>
 5    1  0.1681104E-003  0.9118800E+02  0.7818608E-02  0.1130116E+00
         25   -1    0    0    0    0  0.00000000000E+00  0.00000000000E+00  0.99999998245E-14  0.12500000000E+03  0.12500000000E+03 0.  0.
        -11    1    3    3    0    0  0.20210927380E+02  0.38200723511E+02  0.79401231792E+01  0.43941124459E+02  0.51100000000E-03 0.  1.
         23    2    1    0    0    0  0.23006154812E+02 -0.60492244743E+01 -0.17872712510E+02  0.95245838469E+02  0.90479056236E+02 0.  0.
         11    1    3    3    0    0  0.27952274313E+01 -0.44249947985E+02 -0.25812835689E+02  0.51304714010E+02  0.51100000000E-03 0. -1.
         22    1    1    0    0    0 -0.23006154812E+02  0.60492244743E+01  0.17872712510E+02  0.29754161531E+02  0.00000000000E+00 0. -1.
</event>
<event>
 5    1  0.1681104E-003  0.9118800E+02  0.7818608E-02  0.1130116E+00
         25   -1    0    0    0    0  0.00000000000E+00  0.00000000000E+00  0.99999998245E-14  0.12500000000E+03  0.12500000000E+03 0.  0.
        -11    1    3    3    0    0  0.19378528851E+02 -0.38928350223E+02 -0.27855476800E+02  0.51641760423E+02  0.51100000000E-03 0. -1.
         23    2    1    0    0    0 -0.44362954280E+01 -0.28266585321E+02  0.73462884139E+01  0.95459375154E+02  0.90773585301E+02 0.  0.
         11    1    3    3    0    0 -0.23814824279E+02  0.10661764902E+02  0.35201765214E+02  0.43817614731E+02  0.51100000000E-03 0.  1.
         22    1    1    0    0    0  0.44362954280E+01  0.28266585321E+02 -0.73462884139E+01  0.29540624846E+02  0.00000000000E+00 0. -1.
</event>
<event>
 5    1  0.1681104E-003  0.9118800E+02  0.7818608E-02  0.1130116E+00
         25   -1    0    0    0    0  0.00000000000E+00  0.00000000000E+00  0.99999998245E-14  0.12500000000E+03  0.12500000000E+03 0.  0.
        -11    1    3    3    0    0  0.68721022908E+00 -0.26502152880E+02  0.24772327375E+02  0.36283668075E+02  0.51100000000E-03 0.  1.
         23    2    1    0    0    0  0.68121893142E+01  0.13339450626E+02 -0.22224399134E+02  0.98199425694E+02  0.94471458248E+02 0.  0.
         11    1    3    3    0    0  0.61249790851E+01  0.39841603505E+02 -0.46996726509E+02  0.61915757619E+02  0.51100000000E-03 0. -1.
         22    1    1    0    0    0 -0.68121893142E+01 -0.13339450626E+02  0.22224399134E+02  0.26800574306E+02  0.00000000000E+00 0. -1.
</event>
<event>
 5    1  0.1681104E-003  0.9118800E+02  0.7818608E-02  0.1130116E+00
         25   -1    0    0    0    0  0.00000000000E+00  0.00000000000E+00  0.99999998245E-14  0.12500000000E+03  0.12500000000E+03 0.  0.
        -11    1    3    3    0    0 -0.87087448489E+01 -0.24945590871E+02  0.50986788577E+02  0.57426277525E+02  0.51100000000E-03 0.  1.
         23    2    1    0    0    0 -0.16046141541E+02 -0.26106696411E+02  0.22190326657E+02  0.87165507100E+02  0.78526280792E+02 0.  0.
         11    1    3    3    0    0 -0.73373966919E+01 -0.11611055405E+01 -0.28796461920E+02  0.29739229575E+02  0.51100000000E-03 0. -1.
         22    1    1    0    0    0  0.16046141541E+02  0.26106696411E+02 -0.22190326657E+02  0.37834492900E+02  0.00000000000E+00 0.  1.
</event>
<event>
 5    1  0.1681104E-003  0.9118800E+02  0.7818608E-02  0.1130116E+00
         25   -1    0    0    0    0  0.00000000000E+00  0.00000000000E+00  0.99999998245E-14  0.12500000000E+03  0.12500000000E+03 0.  0.
        -11    1    3    3    0    0  0.14546934530E+01  0.36994853412E+02 -0.13167165587E+02  0.39295159522E+02  0.51100000000E-03 0.  1.
         23    2    1    0    0    0  0.13722860862E+02 -0.16312229077E+01  0.25936273091E+02  0.95611770039E+02  0.90983199052E+02 0.  0.
         11    1    3    3    0    0  0.12268167409E+02 -0.38626076320E+02  0.39103438677E+02  0.56316610517E+02  0.51100000000E-03 0. -1.
         22    1    1    0    0    0 -0.13722860862E+02  0.16312229077E+01 -0.25936273091E+02  0.29388229961E+02  0.00000000000E+00 0. -1.
</event>
<event>
 5    1  0.1681104E-003  0.9118800E+02  0.7818608E-02  0.1130116E+00
         25   -1    0    0    0    0  0.00000000000E+00  0.00000000000E+00  0.99999998245E-14  0.12500000000E+03  0.12500000000E+03 0.  0.
        -11    1    3    3    0    0 -0.21124721294E+01 -0.61457138833E+02 -0.90675502535E+01  0.62158369669E+02  0.51100000000E-03 0.  1.
         23    2    1    0    0    0 -0.45658906109E+01 -0.31808263652E+02 -0.16289317775E+01  0.92824443869E+02  0.87069575439E+02 0.  0.
         11    1    3    3    0    0 -0.24534184815E+01  0.29648875181E+02  0.74386184760E+01  0.30666074200E+02  0.51100000000E-03 0. -1.
         22    1    1    0    0    0  0.45658906109E+01  0.31808263652E+02  0.16289317775E+01  0.32175556131E+02  0.00000000000E+00 0.  1.
</event>
<event>
 5    1  0.1681104E-003  0.9118800E+02  0.7818608E-02  0.1130116E+00
         25   -1    0    0    0    0  0.00000000000E+00  0.00000000000E+00  0.99999998245E-14  0.12500000000E+03  0.12500000000E+03 0.  0.
        -11    1    3    3    0    0  0.41886759091E+02 -0.12270294113E+02  0.31863775231E+02  0.54040363405E+02  0.51100000000E-03 0.  1.
         23    2    1    0    0    0  0.41186543950E+01 -0.22574664500E+02  0.18874693044E+02  0.95287497096E+02  0.90536590801E+02 0.  0.
         11    1    3    3    0    0 -0.37768104696E+02 -0.10304370388E+02 -0.12989082187E+02  0.41247133691E+02  0.51100000000E-03 0. -1.
         22    1    1    0    0    0 -0.41186543950E+01  0.22574664500E+02 -0.18874693044E+02  0.29712502904E+02  0.00000000000E+00 0.  1.
</event>
<event>
 5    1  0.1681104E-003  0.9118800E+02  0.7818608E-02  0.1130116E+00
         25   -1    0    0    0    0  0.00000000000E+00  0.00000000000E+00  0.99999998245E-14  0.12500000000E+03  0.12500000000E+03 0.  0.
        -11    1    3    3    0    0 -0.36895614731E+01 -0.47453737004E+02 -0.10456768685E+02  0.48732063686E+02  0.51100000000E-03 0. -1.
         23    2    1    0    0    0 -0.16182292203E+02 -0.97128251255E+01  0.19006513874E+02  0.98214684573E+02  0.94491645892E+02 0.  0.
         11    1    3    3    0    0 -0.12492730730E+02  0.37740911878E+02  0.29463282559E+02  0.49482620887E+02  0.51100000000E-03 0.  1.
         22    1    1    0    0    0  0.16182292203E+02  0.97128251255E+01 -0.19006513874E+02  0.26785315427E+02  0.00000000000E+00 0.  1.
</event>
<event>
 5    1  0.1681104E-003  0.9118800E+02  0.7818608E-02  0.1130116E+00
         25   -1    0    0    0    0  0.00000000000E+00  0.00000000000E+00  0.99999998245E-14  0.12500000000E+03  0.12500000000E+03 0.  0.
        -11    1    3    3    0    0  0.17518313929E+02 -0.13882113970E+02  0.42985841773E+01  0.22761419933E+02  0.51100000000E-03 0. -1.
         23    2    1    0    0    0  0.23174777344E+02  0.78722334667E+01 -0.43221589169E+02  0.75329605045E+02  0.56633923236E+02 0.  0.
         11    1    3    3    0    0  0.56564634159E+01  0.21754347437E+02 -0.47520173346E+02  0.52568185112E+02  0.51100000000E-03 0.  1.
         22    1    1    0    0    0 -0.23174777344E+02 -0.78722334667E+01  0.43221589169E+02  0.49670394955E+02  0.00000000000E+00 0.  1.
</event>
<event>
 5    1  0.1681104E-003  0.9118800E+02  0.7818608E-02  0.1130116E+00
         25   -1    0    0    0    0  0.00000000000E+00  0.00000000000E+00  0.99999998245E-14  0.12500000000E+03  0.12500000000E+03 0.  0.
        -11    1    3    3    0    0 -0.51347878298E+02 -0.24318984076E+01 -0.14538569796E+02  0.53421800303E+02  0.51100000000E-03 0.  1.
         23    2    1    0    0    0 -0.12505149619E+02 -0.17632066213E+02 -0.20076254122E+02  0.95498737222E+02  0.90827772765E+02 0.  0.
         11    1    3    3    0    0  0.38842728679E+02 -0.15200167805E+02 -0.55376843257E+01  0.42076936919E+02  0.51100000000E-03 0. -1.
         22    1    1    0    0    0  0.12505149619E+02  0.17632066213E+02  0.20076254122E+02  0.29501262778E+02  0.00000000000E+00 0.  1.
</event>
<event>
 5    1  0.1681104E-003  0.9118800E+02  0.7818608E-02  0.1130116E+00
         25   -1    0    0    0    0  0.00000000000E+00  0.00000000000E+00  0.99999998245E-14  0.12500000000E+03  0.12500000000E+03 0.  0.
        -11    1    3    3    0    0  0.66748982768E+00  0.37727672474E+02 -0.31387062958E+02  0.49081264596E+02  0.51100000000E-03 0.  1.
         23    2    1    0    0    0  0.26723397028E+02  0.93777792532E+01 -0.38525470723E+01  0.96418103432E+02  0.92084341004E+02 0.  0.
         11    1    3    3    0    0  0.26055907201E+02 -0.28349893220E+02  0.27534515886E+02  0.47336838836E+02  0.51100000000E-03 0. -1.
         22    1    1    0    0    0 -0.26723397028E+02 -0.93777792532E+01  0.38525470723E+01  0.28581896568E+02  0.00000000000E+00 0.  1.
</event>
<event>
 5    1  0.1681104E-003  0.9118800E+02  0.7818608E-02  0.1130116E+00
         25   -1    0    0    0    0  0.00000000000E+00  0.00000000000E+00  0.99999998245E-14  0.12500000000E+03  0.12500000000E+03 0.  0.
        -11    1    3    3    0    0  0.96853761613E+01 -0.92030474180E+01 -0.24719508566E+02  0.28099051535E+02  0.51100000000E-03 0.  1.
         23    2    1    0    0    0  0.32372609292E+02 -0.28745297047E+02  0.16175035599E+02  0.78784096770E+02  0.63804578148E+02 0.  0.
         11    1    3    3    0    0  0.22687233130E+02 -0.19542249629E+02  0.40894544166E+02  0.50685045235E+02  0.51100000000E-03 0. -1.
         22    1    1    0    0    0 -0.32372609292E+02  0.28745297047E+02 -0.16175035599E+02  0.46215903230E+02  0.00000000000E+00 0. -1.
</event>
<event>
 5    1  0.1681104E-003  0.9118800E+02  0.7818608E-02  0.1130116E+00
         25   -1    0    0    0    0  0.00000000000E+00  0.00000000000E+00  0.99999998245E-14  0.12500000000E+03  0.12500000000E+03 0.  0.
        -11    1    3    3    0    0  0.17003645973E+02 -0.28525854755E+02  0.10449694689E+02  0.34814429267E+02  0.51100000000E-03 0. -1.
         23    2    1    0    0    0  0.30387241907E+01  0.28410872831E+02 -0.62101902089E+01  0.95759993123E+02  0.91186612399E+02 0.  0.
         11    1    3    3    0    0 -0.13964921782E+02  0.56936727586E+02 -0.16659884898E+02  0.60945563855E+02  0.51100000000E-03 0.  1.
         22    1    1    0    0    0 -0.30387241907E+01 -0.28410872831E+02  0.62101902089E+01  0.29240006877E+02  0.00000000000E+00 0.  1.
</event>
<event>
 5    1  0.1681104E-003  0.9118800E+02  0.7818608E-02  0.1130116E+00
         25   -1    0    0    0    0  0.00000000000E+00  0.00000000000E+00  0.99999998245E-14  0.12500000000E+03  0.12500000000E+03 0.  0.
        -11    1    3    3    0    0 -0.28427172688E+02 -0.17167031411E+02 -0.79257836497E+01  0.34141311651E+02  0.51100000000E-03 0.  1.
         23    2    1    0    0    0  0.16855953295E+02  0.23847618238E+02  0.34323314109E+00  0.95794694556E+02  0.91234169251E+02 0.  0.
         11    1    3    3    0    0  0.45283125983E+02  0.41014649649E+02  0.82690167908E+01  0.61653382905E+02  0.51100000000E-03 0. -1.
         22    1    1    0    0    0 -0.16855953295E+02 -0.23847618238E+02 -0.34323314109E+00  0.29205305444E+02  0.00000000000E+00 0. -1.
</event>
<event>
 5    1  0.1681104E-003  0.9118800E+02  0.7818608E-02  0.1130116E+00
         25   -1    0    0    0    0  0.00000000000E+00  0.00000000000E+00  0.99999998245E-14  0.12500000000E+03  0.12500000000E+03 0.  0.
        -11    1    3    3    0    0  0.60613895810E+00 -0.49230622234E+02  0.23629870183E+02  0.54611283954E+02  0.51100000000E-03 0.  1.
         23    2    1    0    0    0 -0.16715168359E+02 -0.25290158837E+02 -0.31908124069E+01  0.94517705613E+02  0.89467460025E+02 0.  0.
         11    1    3    3    0    0 -0.17321307317E+02  0.23940463396E+02 -0.26820682590E+02  0.39906421659E+02  0.51100000000E-03 0. -1.
         22    1    1    0    0    0  0.16715168359E+02  0.25290158837E+02  0.31908124069E+01  0.30482294387E+02  0.00000000000E+00 0.  1.
</event>
<event>
 5    1  0.1681104E-003  0.9118800E+02  0.7818608E-02  0.1130116E+00
         25   -1    0    0    0    0  0.00000000000E+00  0.00000000000E+00  0.99999998245E-14  0.12500000000E+03  0.12500000000E+03 0.  0.
        -11    1    3    3    0    0  0.28472252278E+02  0.32539058617E+02  0.60342275526E+01  0.43656286923E+02  0.51100000000E-03 0.  1.
         23    2    1    0    0    0  0.81182872170E+01 -0.35435907799E+00 -0.28409982921E+02  0.95450731189E+02  0.90761681326E+02 0.  0.
         11    1    3    3    0    0 -0.20353965061E+02 -0.32893417695E+02 -0.34444210474E+02  0.51794444266E+02  0.51100000000E-03 0. -1.
         22    1    1    0    0    0 -0.81182872170E+01  0.35435907799E+00  0.28409982921E+02  0.29549268811E+02  0.00000000000E+00 0. -1.
</event>
<event>
 5    1  0.1681104E-003  0.9118800E+02  0.7818608E-02  0.1130116E+00
         25   -1    0    0    0    0  0.00000000000E+00  0.00000000000E+00  0.99999998245E-14  0.12500000000E+03  0.12500000000E+03 0.  0.
        -11    1    3    3    0    0 -0.42200868726E+02 -0.15721293814E+02 -0.63732440983E+01  0.45482860959E+02  0.51100000000E-03 0.  1.
         23    2    1    0    0    0 -0.13303285598E+02  0.24821167302E+02 -0.92641521320E+01  0.95353882739E+02  0.90628200273E+02 0.  0.
         11    1    3    3    0    0  0.28897583128E+02  0.40542461115E+02 -0.28909080337E+01  0.49871021781E+02  0.51100000000E-03 0. -1.
         22    1    1    0    0    0  0.13303285598E+02 -0.24821167302E+02  0.92641521320E+01  0.29646117261E+02  0.00000000000E+00 0. -1.
</event>
<event>
 5    1  0.1681104E-003  0.9118800E+02  0.7818608E-02  0.1130116E+00
         25   -1    0    0    0    0  0.00000000000E+00  0.00000000000E+00  0.99999998245E-14  0.12500000000E+03  0.12500000000E+03 0.  0.
        -11    1    3    3    0    0 -0.12971004199E+02  0.12898651559E+02 -0.43212300003E+02  0.46924674040E+02  0.51100000000E-03 0. -1.
         23    2    1    0    0    0  0.17002568780E+02  0.17377277763E+02  0.11619563924E+01  0.10066058197E+03  0.97673668363E+02 0.  0.
         11    1    3    3    0    0  0.29973572979E+02  0.44786262035E+01  0.44374256395E+02  0.53735907926E+02  0.51100000000E-03 0.  1.
         22    1    1    0    0    0 -0.17002568780E+02 -0.17377277763E+02 -0.11619563924E+01  0.24339418034E+02  0.00000000000E+00 0. -1.
</event>
<event>
 5    1  0.1681104E-003  0.9118800E+02  0.7818608E-02  0.1130116E+00
         25   -1    0    0    0    0  0.00000000000E+00  0.00000000000E+00  0.99999998245E-14  0.12500000000E+03  0.12500000000E+03 0.  0.
        -11    1    3    3    0    0  0.23354651085E+02 -0.28580992333E+01 -0.54107745854E+02  0.59002174707E+02  0.51100000000E-03 0.  1.
         23    2    1    0    0    0  0.12259045721E+02  0.13279559191E+02 -0.23214781813E+02  0.95579650089E+02  0.90939059387E+02 0.  0.
         11    1    3    3    0    0 -0.11095605364E+02  0.16137658424E+02  0.30892964041E+02  0.36577475382E+02  0.51100000000E-03 0. -1.
         22    1    1    0    0    0 -0.12259045721E+02 -0.13279559191E+02  0.23214781813E+02  0.29420349911E+02  0.00000000000E+00 0.  1.
</event>
<event>
 5    1  0.1681104E-003  0.9118800E+02  0.7818608E-02  0.1130116E+00
         25   -1    0    0    0    0  0.00000000000E+00  0.00000000000E+00  0.99999998245E-14  0.12500000000E+03  0.12500000000E+03 0.  0.
        -11    1    3    3    0    0  0.52108899362E+02  0.26556610276E+02 -0.66552556964E+01  0.58863259939E+02  0.51100000000E-03 0.  1.
         23    2    1    0    0    0  0.21165368995E+02  0.12365260954E+02 -0.17825085657E+02  0.94691483014E+02  0.89709925614E+02 0.  0.
         11    1    3    3    0    0 -0.30943530366E+02 -0.14191349322E+02 -0.11169829961E+02  0.35828223075E+02  0.51100000000E-03 0. -1.
         22    1    1    0    0    0 -0.21165368995E+02 -0.12365260954E+02  0.17825085657E+02  0.30308516986E+02  0.00000000000E+00 0.  1.
</event>
<event>
 5    1  0.1681104E-003  0.9118800E+02  0.7818608E-02  0.1130116E+00
         25   -1    0    0    0    0  0.00000000000E+00  0.00000000000E+00  0.99999998245E-14  0.12500000000E+03  0.12500000000E+03 0.  0.
        -11    1    3    3    0    0  0.30011308469E+00 -0.38180053196E+02  0.37871617714E+02  0.53777931891E+02  0.51100000000E-03 0.  1.
         23    2    1    0    0    0  0.35509811904E+01 -0.26549357273E+01  0.35167812009E+02  0.89553799179E+02  0.82240195737E+02 0.  0.
         11    1    3    3    0    0  0.32508681057E+01  0.35525117469E+02 -0.27038057055E+01  0.35775867288E+02  0.51100000000E-03 0. -1.
         22    1    1    0    0    0 -0.35509811904E+01  0.26549357273E+01 -0.35167812009E+02  0.35446200821E+02  0.00000000000E+00 0.  1.
</event>
<event>
 5    1  0.1681104E-003  0.9118800E+02  0.7818608E-02  0.1130116E+00
         25   -1    0    0    0    0  0.00000000000E+00  0.00000000000E+00  0.99999998245E-14  0.12500000000E+03  0.12500000000E+03 0.  0.
        -11    1    3    3    0    0 -0.11172584486E+02 -0.38833808873E+02  0.55091685230E+01  0.40782867650E+02  0.51100000000E-03 0. -1.
         23    2    1    0    0    0 -0.23727910053E+01 -0.12136912301E+00 -0.30515996433E+02  0.94391653003E+02  0.89291171180E+02 0.  0.
         11    1    3    3    0    0  0.87997934811E+01  0.38712439750E+02 -0.36025164956E+02  0.53608785353E+02  0.51100000000E-03 0.  1.
         22    1    1    0    0    0  0.23727910053E+01  0.12136912301E+00  0.30515996433E+02  0.30608346997E+02  0.00000000000E+00 0.  1.
</event>
<event>
 5    1  0.1681104E-003  0.9118800E+02  0.7818608E-02  0.1130116E+00
         25   -1    0    0    0    0  0.00000000000E+00  0.00000000000E+00  0.99999998245E-14  0.12500000000E+03  0.12500000000E+03 0.  0.
        -11    1    3    3    0    0  0.33810500065E+02  0.24668289371E+02  0.32843930340E+02  0.53201486592E+02  0.51100000000E-03 0.  1.
         23    2    1    0    0    0  0.12634986660E+02 -0.87804527436E+01  0.27955078050E+02  0.93090352132E+02  0.87450489038E+02 0.  0.
         11    1    3    3    0    0 -0.21175513406E+02 -0.33448742115E+02 -0.48888522900E+01  0.39888865540E+02  0.51100000000E-03 0. -1.
         22    1    1    0    0    0 -0.12634986660E+02  0.87804527436E+01 -0.27955078050E+02  0.31909647868E+02  0.00000000000E+00 0.  1.
</event>
<event>
 5    1  0.1681104E-003  0.9118800E+02  0.7818608E-02  0.1130116E+00
         25   -1    0    0    0    0  0.00000000000E+00  0.00000000000E+00  0.99999998245E-14  0.12500000000E+03  0.12500000000E+03 0.  0.
        -11    1    3    3    0    0  0.23254226304E+02 -0.33650951581E+02 -0.37105698521E+02  0.55226609947E+02  0.51100000000E-03 0.  1.
         23    2    1    0    0    0  0.14558423664E+02  0.19466741381E+01 -0.28605551768E+02  0.92843898996E+02  0.87097501394E+02 0.  0.
         11    1    3    3    0    0 -0.86958026396E+01  0.35597625719E+02  0.85001467524E+01  0.37617289049E+02  0.51100000000E-03 0. -1.
         22    1    1    0    0    0 -0.14558423664E+02 -0.19466741381E+01  0.28605551768E+02  0.32156101004E+02  0.00000000000E+00 0.  1.
</event>
<event>
 5    1  0.1681104E-003  0.9118800E+02  0.7818608E-02  0.1130116E+00
         25   -1    0    0    0    0  0.00000000000E+00  0.00000000000E+00  0.99999998245E-14  0.12500000000E+03  0.12500000000E+03 0.  0.
        -11    1    3    3    0    0 -0.42042196659E+02  0.74436107262E+01  0.11101891132E+02  0.44115820604E+02  0.51100000000E-03 0. -1.
         23    2    1    0    0    0  0.42559996866E+01  0.19965708554E+02  0.23715389666E+02  0.93708423524E+02  0.88329530062E+02 0.  0.
         11    1    3    3    0    0  0.46298196346E+02  0.12522097827E+02  0.12613498534E+02  0.49592602920E+02  0.51100000000E-03 0.  1.
         22    1    1    0    0    0 -0.42559996866E+01 -0.19965708554E+02 -0.23715389666E+02  0.31291576476E+02  0.00000000000E+00 0. -1.
</event>
<event>
 5    1  0.1681104E-003  0.9118800E+02  0.7818608E-02  0.1130116E+00
         25   -1    0    0    0    0  0.00000000000E+00  0.00000000000E+00  0.99999998245E-14  0.12500000000E+03  0.12500000000E+03 0.  0.
        -11    1    3    3    0    0  0.34530822811E+02 -0.19188061653E+02 -0.11240588871E+02  0.41072013251E+02  0.51100000000E-03 0. -1.
         23    2    1    0    0    0 -0.11384137631E+01  0.22499098580E+02 -0.17747600386E+02  0.96321040077E+02  0.91952487836E+02 0.  0.
         11    1    3    3    0    0 -0.35669236575E+02  0.41687160233E+02 -0.65070115151E+01  0.55249026826E+02  0.51100000000E-03 0.  1.
         22    1    1    0    0    0  0.11384137631E+01 -0.22499098580E+02  0.17747600386E+02  0.28678959923E+02  0.00000000000E+00 0. -1.
</event>
<event>
 5    1  0.1681104E-003  0.9118800E+02  0.7818608E-02  0.1130116E+00
         25   -1    0    0    0    0  0.00000000000E+00  0.00000000000E+00  0.99999998245E-14  0.12500000000E+03  0.12500000000E+03 0.  0.
        -11    1    3    3    0    0  0.38580758280E+02  0.18758103122E+02 -0.13892012468E+02  0.45092453392E+02  0.51100000000E-03 0.  1.
         23    2    1    0    0    0  0.18237330352E+01 -0.94672192156E+01 -0.29476770675E+02  0.93986547253E+02  0.88722245312E+02 0.  0.
         11    1    3    3    0    0 -0.36757025245E+02 -0.28225322338E+02 -0.15584758207E+02  0.48894093862E+02  0.51100000000E-03 0. -1.
         22    1    1    0    0    0 -0.18237330352E+01  0.94672192156E+01  0.29476770675E+02  0.31013452747E+02  0.00000000000E+00 0. -1.
</event>
<event>
 5    1  0.1681104E-003  0.9118800E+02  0.7818608E-02  0.1130116E+00
         25   -1    0    0    0    0  0.00000000000E+00  0.00000000000E+00  0.99999998245E-14  0.12500000000E+03  0.12500000000E+03 0.  0.
        -11    1    3    3    0    0  0.12053553276E+02  0.38409198391E+02 -0.13066780221E+02  0.42323698010E+02  0.51100000000E-03 0. -1.
         23    2    1    0    0    0  0.31123873037E+00 -0.10644110021E+02 -0.28095473573E+02  0.94954208564E+02  0.90075258207E+02 0.  0.
         11    1    3    3    0    0 -0.11742314545E+02 -0.49053308412E+02 -0.15028693353E+02  0.52630510555E+02  0.51100000000E-03 0.  1.
         22    1    1    0    0    0 -0.31123873037E+00  0.10644110021E+02  0.28095473573E+02  0.30045791436E+02  0.00000000000E+00 0.  1.
</event>
<event>
 5    1  0.1681104E-003  0.9118800E+02  0.7818608E-02  0.1130116E+00
         25   -1    0    0    0    0  0.00000000000E+00  0.00000000000E+00  0.99999998245E-14  0.12500000000E+03  0.12500000000E+03 0.  0.
        -11    1    3    3    0    0 -0.45678153946E+02 -0.58809569138E+00  0.35891882937E+02  0.58095325677E+02  0.51100000000E-03 0. -1.
         23    2    1    0    0    0 -0.13693432565E+02  0.14264085185E+02  0.20326637373E+02  0.96642524646E+02  0.92388479593E+02 0.  0.
         11    1    3    3    0    0  0.31984721382E+02  0.14852180876E+02 -0.15565245563E+02  0.38547198969E+02  0.51100000000E-03 0.  1.
         22    1    1    0    0    0  0.13693432565E+02 -0.14264085185E+02 -0.20326637373E+02  0.28357475354E+02  0.00000000000E+00 0. -1.
</event>
<event>
 5    1  0.1681104E-003  0.9118800E+02  0.7818608E-02  0.1130116E+00
         25   -1    0    0    0    0  0.00000000000E+00  0.00000000000E+00  0.99999998245E-14  0.12500000000E+03  0.12500000000E+03 0.  0.
        -11    1    3    3    0    0  0.73619745625E+01 -0.47078117334E+02 -0.30094125346E+02  0.56357822720E+02  0.51100000000E-03 0.  1.
         23    2    1    0    0    0  0.19086834293E+02 -0.21628074151E+02 -0.19255581489E+01  0.96089991196E+02  0.91637862257E+02 0.  0.
         11    1    3    3    0    0  0.11724859731E+02  0.25450043182E+02  0.28168567197E+02  0.39732168477E+02  0.51100000000E-03 0. -1.
         22    1    1    0    0    0 -0.19086834293E+02  0.21628074151E+02  0.19255581489E+01  0.28910008804E+02  0.00000000000E+00 0.  1.
</event>
<event>
 5    1  0.1681104E-003  0.9118800E+02  0.7818608E-02  0.1130116E+00
         25   -1    0    0    0    0  0.00000000000E+00  0.00000000000E+00  0.99999998245E-14  0.12500000000E+03  0.12500000000E+03 0.  0.
        -11    1    3    3    0    0  0.14877553017E+02  0.17013083957E+02  0.51918510962E+02  0.56624362162E+02  0.51100000000E-03 0.  1.
         23    2    1    0    0    0  0.24313066295E+02  0.66997301540E+01  0.16084916470E+02  0.95087860079E+02  0.90260539660E+02 0.  0.
         11    1    3    3    0    0  0.94355132777E+01 -0.10313353803E+02 -0.35833594492E+02  0.38463497917E+02  0.51100000000E-03 0. -1.
         22    1    1    0    0    0 -0.24313066295E+02 -0.66997301540E+01 -0.16084916470E+02  0.29912139921E+02  0.00000000000E+00 0.  1.
</event>
<event>
 5    1  0.1681104E-003  0.9118800E+02  0.7818608E-02  0.1130116E+00
         25   -1    0    0    0    0  0.00000000000E+00  0.00000000000E+00  0.99999998245E-14  0.12500000000E+03  0.12500000000E+03 0.  0.
        -11    1    3    3    0    0  0.46639888917E+02  0.22121924841E+02  0.15836799850E+01  0.51644620624E+02  0.51100000000E-03 0. -1.
         23    2    1    0    0    0  0.22904100205E+02  0.21061027009E+02  0.25061462975E+02  0.85047007730E+02  0.75078305339E+02 0.  0.
         11    1    3    3    0    0 -0.23735788712E+02 -0.10608978320E+01  0.23477782990E+02  0.33402387106E+02  0.51100000000E-03 0.  1.
         22    1    1    0    0    0 -0.22904100205E+02 -0.21061027009E+02 -0.25061462975E+02  0.39952992270E+02  0.00000000000E+00 0. -1.
</event>
<event>
 5    1  0.1681104E-003  0.9118800E+02  0.7818608E-02  0.1130116E+00
         25   -1    0    0    0    0  0.00000000000E+00  0.00000000000E+00  0.99999998245E-14  0.12500000000E+03  0.12500000000E+03 0.  0.
        -11    1    3    3    0    0 -0.40740888276E+02 -0.15388827001E+02 -0.11386212367E+02  0.45014240040E+02  0.51100000000E-03 0. -1.
         23    2    1    0    0    0  0.41108309727E+01 -0.34337020288E+01 -0.29630970335E+02  0.94888811981E+02  0.89984459743E+02 0.  0.
         11    1    3    3    0    0  0.44851719249E+02  0.11955124973E+02 -0.18244757969E+02  0.49874571941E+02  0.51100000000E-03 0.  1.
         22    1    1    0    0    0 -0.41108309727E+01  0.34337020288E+01  0.29630970335E+02  0.30111188019E+02  0.00000000000E+00 0. -1.
</event>
<event>
 5    1  0.1681104E-003  0.9118800E+02  0.7818608E-02  0.1130116E+00
         25   -1    0    0    0    0  0.00000000000E+00  0.00000000000E+00  0.99999998245E-14  0.12500000000E+03  0.12500000000E+03 0.  0.
        -11    1    3    3    0    0  0.15819716050E+02 -0.37704560330E+02 -0.10181941551E+02  0.42137503718E+02  0.51100000000E-03 0. -1.
         23    2    1    0    0    0 -0.12565575888E+02 -0.10557630759E+02  0.25150673833E+02  0.94968122621E+02  0.90094565071E+02 0.  0.
         11    1    3    3    0    0 -0.28385291938E+02  0.27146929571E+02  0.35332615384E+02  0.52830618903E+02  0.51100000000E-03 0.  1.
         22    1    1    0    0    0  0.12565575888E+02  0.10557630759E+02 -0.25150673833E+02  0.30031877379E+02  0.00000000000E+00 0.  1.
</event>
<event>
 5    1  0.1681104E-003  0.9118800E+02  0.7818608E-02  0.1130116E+00
         25   -1    0    0    0    0  0.00000000000E+00  0.00000000000E+00  0.99999998245E-14  0.12500000000E+03  0.12500000000E+03 0.  0.
        -11    1    3    3    0    0  0.27720766363E+01 -0.26823645566E+02  0.24119626251E+02  0.36179396638E+02  0.51100000000E-03 0. -1.
         23    2    1    0    0    0 -0.14120700226E+02  0.25874451906E+02  0.31631114583E+01  0.95353976483E+02  0.90628329570E+02 0.  0.
         11    1    3    3    0    0 -0.16892776862E+02  0.52698097472E+02 -0.20956514793E+02  0.59174579845E+02  0.51100000000E-03 0.  1.
         22    1    1    0    0    0  0.14120700226E+02 -0.25874451906E+02 -0.31631114583E+01  0.29646023517E+02  0.00000000000E+00 0.  1.
</event>
<event>
 5    1  0.1681104E-003  0.9118800E+02  0.7818608E-02  0.1130116E+00
         25   -1    0    0    0    0  0.00000000000E+00  0.00000000000E+00  0.99999998245E-14  0.12500000000E+03  0.12500000000E+03 0.  0.
        -11    1    3    3    0    0 -0.71968532267E+00 -0.41632537925E+02  0.45247174055E+02  0.61490592136E+02  0.51100000000E-03 0.  1.
         23    2    1    0    0    0 -0.25869456464E+01 -0.14826385515E+02  0.27369121597E+02  0.93765678938E+02  0.88410518234E+02 0.  0.
         11    1    3    3    0    0 -0.18672603237E+01  0.26806152409E+02 -0.17878052458E+02  0.32275086802E+02  0.51100000000E-03 0. -1.
         22    1    1    0    0    0  0.25869456464E+01  0.14826385515E+02 -0.27369121597E+02  0.31234321062E+02  0.00000000000E+00 0.  1.
</event>
<event>
 5    1  0.1681104E-003  0.9118800E+02  0.7818608E-02  0.1130116E+00
         25   -1    0    0    0    0  0.00000000000E+00  0.00000000000E+00  0.99999998245E-14  0.12500000000E+03  0.12500000000E+03 0.  0.
        -11    1    3    3    0    0 -0.41475269695E+02 -0.26235524143E+02 -0.96336763493E+01  0.50013082724E+02  0.51100000000E-03 0.  1.
         23    2    1    0    0    0 -0.72353455699E+01 -0.21520824968E+02  0.19387367173E+02  0.95144244462E+02  0.90338591508E+02 0.  0.
         11    1    3    3    0    0  0.34239924125E+02  0.47146991750E+01  0.29021043522E+02  0.45131161738E+02  0.51100000000E-03 0. -1.
         22    1    1    0    0    0  0.72353455699E+01  0.21520824968E+02 -0.19387367173E+02  0.29855755538E+02  0.00000000000E+00 0.  1.
</event>
<event>
 5    1  0.1681104E-003  0.9118800E+02  0.7818608E-02  0.1130116E+00
         25   -1    0    0    0    0  0.00000000000E+00  0.00000000000E+00  0.99999998245E-14  0.12500000000E+03  0.12500000000E+03 0.  0.
        -11    1    3    3    0    0 -0.48782754145E+02  0.20345921267E+02 -0.56280732855E+01  0.53154386680E+02  0.51100000000E-03 0.  1.
         23    2    1    0    0    0 -0.94627153504E+01  0.17069740886E+02 -0.21749739108E+02  0.95777231702E+02  0.91210240245E+02 0.  0.
         11    1    3    3    0    0  0.39320038794E+02 -0.32761803809E+01 -0.16121665822E+02  0.42622845023E+02  0.51100000000E-03 0. -1.
         22    1    1    0    0    0  0.94627153504E+01 -0.17069740886E+02  0.21749739108E+02  0.29222768298E+02  0.00000000000E+00 0.  1.
</event>
<event>
 5    1  0.1681104E-003  0.9118800E+02  0.7818608E-02  0.1130116E+00
         25   -1    0    0    0    0  0.00000000000E+00  0.00000000000E+00  0.99999998245E-14  0.12500000000E+03  0.12500000000E+03 0.  0.
        -11    1    3    3    0    0  0.19180291502E+02 -0.35015194834E+02  0.17282613143E+02  0.43504438494E+02  0.51100000000E-03 0. -1.
         23    2    1    0    0    0  0.14968800304E+02  0.18054724518E+02  0.15723621664E+02  0.96764024044E+02  0.92552720170E+02 0.  0.
         11    1    3    3    0    0 -0.42114911982E+01  0.53069919353E+02 -0.15589914792E+01  0.53259585549E+02  0.51100000000E-03 0.  1.
         22    1    1    0    0    0 -0.14968800304E+02 -0.18054724518E+02 -0.15723621664E+02  0.28235975956E+02  0.00000000000E+00 0.  1.
</event>
<event>
 5    1  0.1681104E-003  0.9118800E+02  0.7818608E-02  0.1130116E+00
         25   -1    0    0    0    0  0.00000000000E+00  0.00000000000E+00  0.99999998245E-14  0.12500000000E+03  0.12500000000E+03 0.  0.
        -11    1    3    3    0    0  0.25288403328E+02  0.10884266062E+02  0.20963267691E+02  0.34603889711E+02  0.51100000000E-03 0.  1.
         23    2    1    0    0    0  0.57932928968E+01 -0.12771758990E+02 -0.28752017790E+02  0.93010023487E+02  0.87335593385E+02 0.  0.
         11    1    3    3    0    0 -0.19495110431E+02 -0.23656025052E+02 -0.49715285481E+02  0.58406133776E+02  0.51100000000E-03 0. -1.
         22    1    1    0    0    0 -0.57932928968E+01  0.12771758990E+02  0.28752017790E+02  0.31989976513E+02  0.00000000000E+00 0. -1.
</event>
<event>
 5    1  0.1681104E-003  0.9118800E+02  0.7818608E-02  0.1130116E+00
         25   -1    0    0    0    0  0.00000000000E+00  0.00000000000E+00  0.99999998245E-14  0.12500000000E+03  0.12500000000E+03 0.  0.
        -11    1    3    3    0    0  0.29672648527E+01 -0.61421971406E+02  0.80978743880E+01  0.62024501626E+02  0.51100000000E-03 0. -1.
         23    2    1    0    0    0  0.62259210547E+01 -0.27272901695E+02  0.59763134269E+01  0.96394238657E+02  0.92051940035E+02 0.  0.
         11    1    3    3    0    0  0.32586562019E+01  0.34149069711E+02 -0.21215609611E+01  0.34369737031E+02  0.51100000000E-03 0.  1.
         22    1    1    0    0    0 -0.62259210547E+01  0.27272901695E+02 -0.59763134269E+01  0.28605761343E+02  0.00000000000E+00 0. -1.
</event>
<event>
 5    1  0.1681104E-003  0.9118800E+02  0.7818608E-02  0.1130116E+00
         25   -1    0    0    0    0  0.00000000000E+00  0.00000000000E+00  0.99999998245E-14  0.12500000000E+03  0.12500000000E+03 0.  0.
        -11    1    3    3    0    0 -0.12236725053E+02 -0.30259784481E+02  0.37643602780E+02  0.49824018579E+02  0.51100000000E-03 0. -1.
         23    2    1    0    0    0  0.89527623480E+00 -0.26817139921E+02 -0.76421280944E+01  0.97100848850E+02  0.93006517043E+02 0.  0.
         11    1    3    3    0    0  0.13132001288E+02  0.34426445597E+01 -0.45285730874E+02  0.47276830271E+02  0.51100000000E-03 0.  1.
         22    1    1    0    0    0 -0.89527623480E+00  0.26817139921E+02  0.76421280944E+01  0.27899151150E+02  0.00000000000E+00 0. -1.
</event>
<event>
 5    1  0.1681104E-003  0.9118800E+02  0.7818608E-02  0.1130116E+00
         25   -1    0    0    0    0  0.00000000000E+00  0.00000000000E+00  0.99999998245E-14  0.12500000000E+03  0.12500000000E+03 0.  0.
        -11    1    3    3    0    0 -0.83012085938E+01  0.42863276130E+02 -0.36827095737E+02  0.57117470930E+02  0.51100000000E-03 0. -1.
         23    2    1    0    0    0 -0.21234458936E+02  0.14107242345E+02 -0.16608894390E+02  0.94573499942E+02  0.89545379476E+02 0.  0.
         11    1    3    3    0    0 -0.12933250342E+02 -0.28756033784E+02  0.20218201347E+02  0.37456029013E+02  0.51100000000E-03 0.  1.
         22    1    1    0    0    0  0.21234458936E+02 -0.14107242345E+02  0.16608894390E+02  0.30426500058E+02  0.00000000000E+00 0. -1.
</event>
<event>
 5    1  0.1681104E-003  0.9118800E+02  0.7818608E-02  0.1130116E+00
         25   -1    0    0    0    0  0.00000000000E+00  0.00000000000E+00  0.99999998245E-14  0.12500000000E+03  0.12500000000E+03 0.  0.
        -11    1    3    3    0    0  0.32818452901E+02  0.94870794871E+01 -0.26832478220E+02  0.43440043919E+02  0.51100000000E-03 0. -1.
         23    2    1    0    0    0  0.17318458679E+02 -0.11050538906E+02  0.19651879849E+02  0.96570441391E+02  0.92290900677E+02 0.  0.
         11    1    3    3    0    0 -0.15499994222E+02 -0.20537618393E+02  0.46484358069E+02  0.53130397471E+02  0.51100000000E-03 0.  1.
         22    1    1    0    0    0 -0.17318458679E+02  0.11050538906E+02 -0.19651879849E+02  0.28429558609E+02  0.00000000000E+00 0.  1.
</event>
<event>
 5    1  0.1681104E-003  0.9118800E+02  0.7818608E-02  0.1130116E+00
         25   -1    0    0    0    0  0.00000000000E+00  0.00000000000E+00  0.99999998245E-14  0.12500000000E+03  0.12500000000E+03 0.  0.
        -11    1    3    3    0    0  0.23825632945E+02 -0.16278379197E+02  0.14764497965E+02  0.32413528270E+02  0.51100000000E-03 0.  1.
         23    2    1    0    0    0 -0.22144842229E+02  0.35807393560E+01 -0.21253639541E+02  0.94098010979E+02  0.88879146850E+02 0.  0.
         11    1    3    3    0    0 -0.45970475175E+02  0.19859118553E+02 -0.36018137505E+02  0.61684482709E+02  0.51100000000E-03 0. -1.
         22    1    1    0    0    0  0.22144842229E+02 -0.35807393560E+01  0.21253639541E+02  0.30901989021E+02  0.00000000000E+00 0. -1.
</event>
<event>
 5    1  0.1681104E-003  0.9118800E+02  0.7818608E-02  0.1130116E+00
         25   -1    0    0    0    0  0.00000000000E+00  0.00000000000E+00  0.99999998245E-14  0.12500000000E+03  0.12500000000E+03 0.  0.
        -11    1    3    3    0    0 -0.10346480298E+02  0.34383452015E+01 -0.32248819300E+02  0.34042006680E+02  0.51100000000E-03 0. -1.
         23    2    1    0    0    0 -0.12856898524E+01 -0.95564890460E+01  0.27501645369E+02  0.95856905119E+02  0.91319364210E+02 0.  0.
         11    1    3    3    0    0  0.90607904455E+01 -0.12994834248E+02  0.59750464669E+02  0.61814898439E+02  0.51100000000E-03 0.  1.
         22    1    1    0    0    0  0.12856898524E+01  0.95564890460E+01 -0.27501645369E+02  0.29143094881E+02  0.00000000000E+00 0.  1.
</event>
<event>
 5    1  0.1681104E-003  0.9118800E+02  0.7818608E-02  0.1130116E+00
         25   -1    0    0    0    0  0.00000000000E+00  0.00000000000E+00  0.99999998245E-14  0.12500000000E+03  0.12500000000E+03 0.  0.
        -11    1    3    3    0    0  0.14165126731E+02  0.37045995533E+02  0.19917716585E+02  0.44382113904E+02  0.51100000000E-03 0. -1.
         23    2    1    0    0    0 -0.15023753989E+02 -0.37552905943E+01  0.25816773843E+02  0.94894830958E+02  0.89992820488E+02 0.  0.
         11    1    3    3    0    0 -0.29188880720E+02 -0.40801286127E+02  0.58990572586E+01  0.50512717054E+02  0.51100000000E-03 0.  1.
         22    1    1    0    0    0  0.15023753989E+02  0.37552905943E+01 -0.25816773843E+02  0.30105169042E+02  0.00000000000E+00 0. -1.
</event>
<event>
 5    1  0.1681104E-003  0.9118800E+02  0.7818608E-02  0.1130116E+00
         25   -1    0    0    0    0  0.00000000000E+00  0.00000000000E+00  0.99999998245E-14  0.12500000000E+03  0.12500000000E+03 0.  0.
        -11    1    3    3    0    0 -0.11401116404E+02  0.23852535783E+02 -0.25589276646E+02  0.36793205868E+02  0.51100000000E-03 0. -1.
         23    2    1    0    0    0 -0.92992434590E+01  0.28086801504E+02  0.24182058118E+02  0.86788532056E+02  0.77923892446E+02 0.  0.
         11    1    3    3    0    0  0.21018729448E+01  0.42342657213E+01  0.49771334764E+02  0.49995326187E+02  0.51100000000E-03 0.  1.
         22    1    1    0    0    0  0.92992434590E+01 -0.28086801504E+02 -0.24182058118E+02  0.38211467944E+02  0.00000000000E+00 0.  1.
</event>
<event>
 5    1  0.1681104E-003  0.9118800E+02  0.7818608E-02  0.1130116E+00
         25   -1    0    0    0    0  0.00000000000E+00  0.00000000000E+00  0.99999998245E-14  0.12500000000E+03  0.12500000000E+03 0.  0.
        -11    1    3    3    0    0  0.12003554058E+02 -0.14355117155E+02 -0.34233507722E+02  0.39013943017E+02  0.51100000000E-03 0. -1.
         23    2    1    0    0    0  0.21627738524E+02  0.60705098146E+01  0.18191227797E+02  0.96094448079E+02  0.91643941534E+02 0.  0.
         11    1    3    3    0    0  0.96241844658E+01  0.20425626969E+02  0.52424735519E+02  0.57080505062E+02  0.51100000000E-03 0.  1.
         22    1    1    0    0    0 -0.21627738524E+02 -0.60705098146E+01 -0.18191227797E+02  0.28905551921E+02  0.00000000000E+00 0.  1.
</event>
<event>
 5    1  0.1681104E-003  0.9118800E+02  0.7818608E-02  0.1130116E+00
         25   -1    0    0    0    0  0.00000000000E+00  0.00000000000E+00  0.99999998245E-14  0.12500000000E+03  0.12500000000E+03 0.  0.
        -11    1    3    3    0    0 -0.29646407050E+02  0.37869439401E+02  0.22678258113E+02  0.53172429725E+02  0.51100000000E-03 0.  1.
         23    2    1    0    0    0  0.66026974586E+01  0.22073303814E+02 -0.49817274466E+01  0.10142789862E+03  0.98650771187E+02 0.  0.
         11    1    3    3    0    0  0.36249104509E+02 -0.15796135587E+02 -0.27659985560E+02  0.48255468898E+02  0.51100000000E-03 0. -1.
         22    1    1    0    0    0 -0.66026974586E+01 -0.22073303814E+02  0.49817274466E+01  0.23572101377E+02  0.00000000000E+00 0. -1.
</event>
<event>
 5    1  0.1681104E-003  0.9118800E+02  0.7818608E-02  0.1130116E+00
         25   -1    0    0    0    0  0.00000000000E+00  0.00000000000E+00  0.99999998245E-14  0.12500000000E+03  0.12500000000E+03 0.  0.
        -11    1    3    3    0    0  0.49198701867E+02  0.91437474432E+01 -0.18116920745E+02  0.53219763249E+02  0.51100000000E-03 0. -1.
         23    2    1    0    0    0  0.19369637116E+02  0.19697078963E+02  0.10071685489E+02  0.95595976291E+02  0.90961497750E+02 0.  0.
         11    1    3    3    0    0 -0.29829064752E+02  0.10553331520E+02  0.28188606234E+02  0.42376213042E+02  0.51100000000E-03 0.  1.
         22    1    1    0    0    0 -0.19369637116E+02 -0.19697078963E+02 -0.10071685489E+02  0.29404023709E+02  0.00000000000E+00 0. -1.
</event>
<event>
 5    1  0.1681104E-003  0.9118800E+02  0.7818608E-02  0.1130116E+00
         25   -1    0    0    0    0  0.00000000000E+00  0.00000000000E+00  0.99999998245E-14  0.12500000000E+03  0.12500000000E+03 0.  0.
        -11    1    3    3    0    0  0.22568061170E+02 -0.43763634702E+02  0.18835997950E+01  0.49275968339E+02  0.51100000000E-03 0.  1.
         23    2    1    0    0    0  0.17013613948E+02 -0.58432595815E+01  0.25126121937E+02  0.94098078608E+02  0.88879241964E+02 0.  0.
         11    1    3    3    0    0 -0.55544472214E+01  0.37920375120E+02  0.23242522142E+02  0.44822110269E+02  0.51100000000E-03 0. -1.
         22    1    1    0    0    0 -0.17013613948E+02  0.58432595815E+01 -0.25126121937E+02  0.30901921392E+02  0.00000000000E+00 0.  1.
</event>
<event>
 5    1  0.1681104E-003  0.9118800E+02  0.7818608E-02  0.1130116E+00
         25   -1    0    0    0    0  0.00000000000E+00  0.00000000000E+00  0.99999998245E-14  0.12500000000E+03  0.12500000000E+03 0.  0.
        -11    1    3    3    0    0 -0.46286019402E+02 -0.11885310430E+02  0.10006423334E+02  0.48824017699E+02  0.51100000000E-03 0.  1.
         23    2    1    0    0    0  0.89591587831E-01 -0.18595210150E+02  0.20995247583E+02  0.96953782996E+02  0.92808651262E+02 0.  0.
         11    1    3    3    0    0  0.46375610990E+02 -0.67098997198E+01  0.10988824249E+02  0.48129765297E+02  0.51100000000E-03 0. -1.
         22    1    1    0    0    0 -0.89591587831E-01  0.18595210150E+02 -0.20995247583E+02  0.28046217004E+02  0.00000000000E+00 0. -1.
</event>
<event>
 5    1  0.1681104E-003  0.9118800E+02  0.7818608E-02  0.1130116E+00
         25   -1    0    0    0    0  0.00000000000E+00  0.00000000000E+00  0.99999998245E-14  0.12500000000E+03  0.12500000000E+03 0.  0.
        -11    1    3    3    0    0 -0.14207142208E+02  0.28326938615E+02 -0.92622385647E+01  0.33015865951E+02  0.51100000000E-03 0. -1.
         23    2    1    0    0    0  0.20233444236E+02 -0.21394885763E+02  0.49290143248E+01  0.95143198687E+02  0.90337144474E+02 0.  0.
         11    1    3    3    0    0  0.34440586444E+02 -0.49721824377E+02  0.14191252889E+02  0.62127332736E+02  0.51100000000E-03 0.  1.
         22    1    1    0    0    0 -0.20233444236E+02  0.21394885763E+02 -0.49290143248E+01  0.29856801313E+02  0.00000000000E+00 0.  1.
</event>
<event>
 5    1  0.1681104E-003  0.9118800E+02  0.7818608E-02  0.1130116E+00
         25   -1    0    0    0    0  0.00000000000E+00  0.00000000000E+00  0.99999998245E-14  0.12500000000E+03  0.12500000000E+03 0.  0.
        -11    1    3    3    0    0 -0.41124475490E+01  0.57469588533E+02 -0.11300692639E+02  0.58714320956E+02  0.51100000000E-03 0.  1.
         23    2    1    0    0    0  0.12727552569E+01  0.19679375617E+02 -0.18955866136E+02  0.97646342263E+02  0.93736788753E+02 0.  0.
         11    1    3    3    0    0  0.53852028059E+01 -0.37790212916E+02 -0.76551734976E+01  0.38932021306E+02  0.51100000000E-03 0. -1.
         22    1    1    0    0    0 -0.12727552569E+01 -0.19679375617E+02  0.18955866136E+02  0.27353657737E+02  0.00000000000E+00 0.  1.
</event>
<event>
 5    1  0.1681104E-003  0.9118800E+02  0.7818608E-02  0.1130116E+00
         25   -1    0    0    0    0  0.00000000000E+00  0.00000000000E+00  0.99999998245E-14  0.12500000000E+03  0.12500000000E+03 0.  0.
        -11    1    3    3    0    0 -0.10080604095E+02  0.11195030984E+02 -0.32601212775E+02  0.35913595926E+02  0.51100000000E-03 0. -1.
         23    2    1    0    0    0 -0.13147238677E+01 -0.28404878470E+02  0.10116644810E+02  0.94818679254E+02  0.89886983560E+02 0.  0.
         11    1    3    3    0    0  0.87658802270E+01 -0.39599909455E+02  0.42717857585E+02  0.58905083328E+02  0.51100000000E-03 0.  1.
         22    1    1    0    0    0  0.13147238677E+01  0.28404878470E+02 -0.10116644810E+02  0.30181320746E+02  0.00000000000E+00 0.  1.
</event>
<event>
 5    1  0.1681104E-003  0.9118800E+02  0.7818608E-02  0.1130116E+00
         25   -1    0    0    0    0  0.00000000000E+00  0.00000000000E+00  0.99999998245E-14  0.12500000000E+03  0.12500000000E+03 0.  0.
        -11    1    3    3    0    0  0.29053596031E+01  0.90168093523E+01  0.57731391214E+02  0.58503482778E+02  0.51100000000E-03 0. -1.
         23    2    1    0    0    0 -0.53012823479E+01  0.17807968012E+02  0.22004326614E+02  0.96200386999E+02  0.91788325781E+02 0.  0.
         11    1    3    3    0    0 -0.82066419510E+01  0.87911586600E+01 -0.35727064600E+02  0.37696904221E+02  0.51100000000E-03 0.  1.
         22    1    1    0    0    0  0.53012823479E+01 -0.17807968012E+02 -0.22004326614E+02  0.28799613001E+02  0.00000000000E+00 0.  1.
</event>
<event>
 5    1  0.1681104E-003  0.9118800E+02  0.7818608E-02  0.1130116E+00
         25   -1    0    0    0    0  0.00000000000E+00  0.00000000000E+00  0.99999998245E-14  0.12500000000E+03  0.12500000000E+03 0.  0.
        -11    1    3    3    0    0  0.12206188768E+02  0.45432847089E+02 -0.12690677740E+02  0.48725639458E+02  0.51100000000E-03 0.  1.
         23    2    1    0    0    0  0.12960546513E+02  0.27159960374E+02  0.21850847878E+02  0.87809964152E+02  0.79545528082E+02 0.  0.
         11    1    3    3    0    0  0.75435774519E+00 -0.18272886715E+02  0.34541525618E+02  0.39084324694E+02  0.51100000000E-03 0. -1.
         22    1    1    0    0    0 -0.12960546513E+02 -0.27159960374E+02 -0.21850847878E+02  0.37190035848E+02  0.00000000000E+00 0.  1.
</event>
<event>
 5    1  0.1681104E-003  0.9118800E+02  0.7818608E-02  0.1130116E+00
         25   -1    0    0    0    0  0.00000000000E+00  0.00000000000E+00  0.99999998245E-14  0.12500000000E+03  0.12500000000E+03 0.  0.
        -11    1    3    3    0    0 -0.11249419316E+02 -0.22999176454E+02 -0.50078186942E+02  0.56243545053E+02  0.51100000000E-03 0.  1.
         23    2    1    0    0    0 -0.56050531736E+01  0.90912446863E+01 -0.26399990518E+02  0.96521466850E+02  0.92224545065E+02 0.  0.
         11    1    3    3    0    0  0.56443661424E+01  0.32090421140E+02  0.23678196424E+02  0.40277921797E+02  0.51100000000E-03 0. -1.
         22    1    1    0    0    0  0.56050531736E+01 -0.90912446863E+01  0.26399990518E+02  0.28478533150E+02  0.00000000000E+00 0.  1.
</event>
<event>
 5    1  0.1681104E-003  0.9118800E+02  0.7818608E-02  0.1130116E+00
         25   -1    0    0    0    0  0.00000000000E+00  0.00000000000E+00  0.99999998245E-14  0.12500000000E+03  0.12500000000E+03 0.  0.
        -11    1    3    3    0    0  0.16719152960E+02 -0.35190324542E+02  0.89500869771E+01  0.39974905557E+02  0.51100000000E-03 0. -1.
         23    2    1    0    0    0 -0.15200011018E+02  0.11925633316E+02  0.19156399666E+02  0.97792855477E+02  0.93931964044E+02 0.  0.
         11    1    3    3    0    0 -0.31919163978E+02  0.47115957859E+02  0.10206312689E+02  0.57817949920E+02  0.51100000000E-03 0.  1.
         22    1    1    0    0    0  0.15200011018E+02 -0.11925633316E+02 -0.19156399666E+02  0.27207144523E+02  0.00000000000E+00 0.  1.
</event>
<event>
 5    1  0.1681104E-003  0.9118800E+02  0.7818608E-02  0.1130116E+00
         25   -1    0    0    0    0  0.00000000000E+00  0.00000000000E+00  0.99999998245E-14  0.12500000000E+03  0.12500000000E+03 0.  0.
        -11    1    3    3    0    0 -0.73856868207E+01 -0.39629182316E+02 -0.29675620074E+02  0.50056596847E+02  0.51100000000E-03 0.  1.
         23    2    1    0    0    0 -0.27409592025E+02 -0.40917354061E+01 -0.85217168155E+01  0.96006074928E+02  0.91523323431E+02 0.  0.
         11    1    3    3    0    0 -0.20023905204E+02  0.35537446910E+02  0.21153903259E+02  0.45949478081E+02  0.51100000000E-03 0. -1.
         22    1    1    0    0    0  0.27409592025E+02  0.40917354061E+01  0.85217168155E+01  0.28993925072E+02  0.00000000000E+00 0. -1.
</event>
<event>
 5    1  0.1681104E-003  0.9118800E+02  0.7818608E-02  0.1130116E+00
         25   -1    0    0    0    0  0.00000000000E+00  0.00000000000E+00  0.99999998245E-14  0.12500000000E+03  0.12500000000E+03 0.  0.
        -11    1    3    3    0    0 -0.45253206869E+02  0.10586617857E+02 -0.27458956105E+02  0.53980769541E+02  0.51100000000E-03 0.  1.
         23    2    1    0    0    0 -0.77303441993E+01  0.45661644950E+01 -0.31544652193E+02  0.92202543367E+02  0.86172129146E+02 0.  0.
         11    1    3    3    0    0  0.37522862670E+02 -0.60204533622E+01 -0.40856960882E+01  0.38221773826E+02  0.51100000000E-03 0. -1.
         22    1    1    0    0    0  0.77303441993E+01 -0.45661644950E+01  0.31544652193E+02  0.32797456633E+02  0.00000000000E+00 0.  1.
</event>
<event>
 5    1  0.1681104E-003  0.9118800E+02  0.7818608E-02  0.1130116E+00
         25   -1    0    0    0    0  0.00000000000E+00  0.00000000000E+00  0.99999998245E-14  0.12500000000E+03  0.12500000000E+03 0.  0.
        -11    1    3    3    0    0 -0.46715990331E+02 -0.16929069824E+02  0.17595583727E+01  0.49719947744E+02  0.51100000000E-03 0. -1.
         23    2    1    0    0    0 -0.21617571832E+02  0.20107544757E+02  0.66826585509E+01  0.94729706090E+02  0.89763169076E+02 0.  0.
         11    1    3    3    0    0  0.25098418499E+02  0.37036614581E+02  0.49231001783E+01  0.45009758346E+02  0.51100000000E-03 0.  1.
         22    1    1    0    0    0  0.21617571832E+02 -0.20107544757E+02 -0.66826585509E+01  0.30270293910E+02  0.00000000000E+00 0.  1.
</event>
<event>
 5    1  0.1681104E-003  0.9118800E+02  0.7818608E-02  0.1130116E+00
         25   -1    0    0    0    0  0.00000000000E+00  0.00000000000E+00  0.99999998245E-14  0.12500000000E+03  0.12500000000E+03 0.  0.
        -11    1    3    3    0    0  0.33638556126E+01 -0.13286328821E+02 -0.49597155048E+02  0.51455999137E+02  0.51100000000E-03 0.  1.
         23    2    1    0    0    0  0.83848076261E+01  0.11361120548E+02 -0.46019679132E+02  0.76862790625E+02  0.59922430326E+02 0.  0.
         11    1    3    3    0    0  0.50209520135E+01  0.24647449369E+02  0.35774759155E+01  0.25406791488E+02  0.51100000000E-03 0. -1.
         22    1    1    0    0    0 -0.83848076261E+01 -0.11361120548E+02  0.46019679132E+02  0.48137209375E+02  0.00000000000E+00 0.  1.
</event>
<event>
 5    1  0.1681104E-003  0.9118800E+02  0.7818608E-02  0.1130116E+00
         25   -1    0    0    0    0  0.00000000000E+00  0.00000000000E+00  0.99999998245E-14  0.12500000000E+03  0.12500000000E+03 0.  0.
        -11    1    3    3    0    0 -0.14115147824E+02  0.30021599216E+02 -0.13713703231E+02  0.35897067765E+02  0.51100000000E-03 0. -1.
         23    2    1    0    0    0 -0.16439337628E+02 -0.25096030857E+02  0.58576335868E+01  0.94432460719E+02  0.89348280229E+02 0.  0.
         11    1    3    3    0    0 -0.23241898046E+01 -0.55117630074E+02  0.19571336817E+02  0.58535392954E+02  0.51100000000E-03 0.  1.
         22    1    1    0    0    0  0.16439337628E+02  0.25096030857E+02 -0.58576335868E+01  0.30567539281E+02  0.00000000000E+00 0.  1.
</event>
<event>
 5    1  0.1681104E-003  0.9118800E+02  0.7818608E-02  0.1130116E+00
         25   -1    0    0    0    0  0.00000000000E+00  0.00000000000E+00  0.99999998245E-14  0.12500000000E+03  0.12500000000E+03 0.  0.
        -11    1    3    3    0    0 -0.21271537734E+02  0.32036111321E+02 -0.11494460770E+02  0.40136185355E+02  0.51100000000E-03 0.  1.
         23    2    1    0    0    0  0.20910264025E+02 -0.26999314925E+00 -0.22378605581E+02  0.94371352860E+02  0.89262748193E+02 0.  0.
         11    1    3    3    0    0  0.42181801760E+02 -0.32306104471E+02 -0.10884144811E+02  0.54235167505E+02  0.51100000000E-03 0. -1.
         22    1    1    0    0    0 -0.20910264025E+02  0.26999314925E+00  0.22378605581E+02  0.30628647140E+02  0.00000000000E+00 0.  1.
</event>
<event>
 5    1  0.1681104E-003  0.9118800E+02  0.7818608E-02  0.1130116E+00
         25   -1    0    0    0    0  0.00000000000E+00  0.00000000000E+00  0.99999998245E-14  0.12500000000E+03  0.12500000000E+03 0.  0.
        -11    1    3    3    0    0 -0.15058363684E+02 -0.18826307139E+02  0.26724206631E+02  0.35991212506E+02  0.51100000000E-03 0. -1.
         23    2    1    0    0    0  0.31430755166E+02 -0.40832103802E+01 -0.30928044907E+01  0.93154585622E+02  0.87542254971E+02 0.  0.
         11    1    3    3    0    0  0.46489118850E+02  0.14743096759E+02 -0.29817011122E+02  0.57163373116E+02  0.51100000000E-03 0.  1.
         22    1    1    0    0    0 -0.31430755166E+02  0.40832103802E+01  0.30928044907E+01  0.31845414378E+02  0.00000000000E+00 0.  1.
</event>
<event>
 5    1  0.1681104E-003  0.9118800E+02  0.7818608E-02  0.1130116E+00
         25   -1    0    0    0    0  0.00000000000E+00  0.00000000000E+00  0.99999998245E-14  0.12500000000E+03  0.12500000000E+03 0.  0.
        -11    1    3    3    0    0 -0.46800108830E+02 -0.36722616626E+02 -0.18295154244E+02  0.62237556406E+02  0.51100000000E-03 0. -1.
         23    2    1    0    0    0 -0.24575658263E+02 -0.15230346080E+02 -0.11449446606E+02  0.93903115134E+02  0.88604620554E+02 0.  0.
         11    1    3    3    0    0  0.22224450568E+02  0.21492270545E+02  0.68457076376E+01  0.31665558728E+02  0.51100000000E-03 0.  1.
         22    1    1    0    0    0  0.24575658263E+02  0.15230346080E+02  0.11449446606E+02  0.31096884866E+02  0.00000000000E+00 0. -1.
</event>
<event>
 5    1  0.1681104E-003  0.9118800E+02  0.7818608E-02  0.1130116E+00
         25   -1    0    0    0    0  0.00000000000E+00  0.00000000000E+00  0.99999998245E-14  0.12500000000E+03  0.12500000000E+03 0.  0.
        -11    1    3    3    0    0 -0.42372701953E+02 -0.15259908636E+02 -0.16735425785E+02  0.48045657024E+02  0.51100000000E-03 0.  1.
         23    2    1    0    0    0 -0.21441537987E+02  0.17954302349E+02  0.97269408454E+01  0.95390712567E+02  0.90678984014E+02 0.  0.
         11    1    3    3    0    0  0.20931163967E+02  0.33214210986E+02  0.26462366630E+02  0.47345055543E+02  0.51100000000E-03 0. -1.
         22    1    1    0    0    0  0.21441537987E+02 -0.17954302349E+02 -0.97269408454E+01  0.29609287433E+02  0.00000000000E+00 0. -1.
</event>
<event>
 5    1  0.1681104E-003  0.9118800E+02  0.7818608E-02  0.1130116E+00
         25   -1    0    0    0    0  0.00000000000E+00  0.00000000000E+00  0.99999998245E-14  0.12500000000E+03  0.12500000000E+03 0.  0.
        -11    1    3    3    0    0 -0.33957314648E+02 -0.18247169394E+02 -0.28142292212E+02  0.47728890834E+02  0.51100000000E-03 0. -1.
         23    2    1    0    0    0  0.88885576534E+01  0.54183768164E+01 -0.26304503764E+02  0.96710564114E+02  0.92480489988E+02 0.  0.
         11    1    3    3    0    0  0.42845872301E+02  0.23665546210E+02  0.18377884481E+01  0.48981673280E+02  0.51100000000E-03 0.  1.
         22    1    1    0    0    0 -0.88885576534E+01 -0.54183768164E+01  0.26304503764E+02  0.28289435886E+02  0.00000000000E+00 0.  1.
</event>
<event>
 5    1  0.1681104E-003  0.9118800E+02  0.7818608E-02  0.1130116E+00
         25   -1    0    0    0    0  0.00000000000E+00  0.00000000000E+00  0.99999998245E-14  0.12500000000E+03  0.12500000000E+03 0.  0.
        -11    1    3    3    0    0  0.29306370764E+02  0.10247917426E+02 -0.37987405011E+02  0.49060433331E+02  0.51100000000E-03 0.  1.
         23    2    1    0    0    0 -0.34170947880E+01 -0.19139148786E+02 -0.21453704532E+02  0.96047539117E+02  0.91579936554E+02 0.  0.
         11    1    3    3    0    0 -0.32723465552E+02 -0.29387066213E+02  0.16533700479E+02  0.46987105786E+02  0.51100000000E-03 0. -1.
         22    1    1    0    0    0  0.34170947880E+01  0.19139148786E+02  0.21453704532E+02  0.28952460883E+02  0.00000000000E+00 0. -1.
</event>
<event>
 5    1  0.1681104E-003  0.9118800E+02  0.7818608E-02  0.1130116E+00
         25   -1    0    0    0    0  0.00000000000E+00  0.00000000000E+00  0.99999998245E-14  0.12500000000E+03  0.12500000000E+03 0.  0.
        -11    1    3    3    0    0  0.12946707611E+02 -0.47983989280E+02 -0.31690006650E+02  0.58943506741E+02  0.51100000000E-03 0.  1.
         23    2    1    0    0    0 -0.69418266377E+01 -0.30983454476E+02 -0.16109333174E+02  0.89395589828E+02  0.81999374736E+02 0.  0.
         11    1    3    3    0    0 -0.19888534248E+02  0.17000534804E+02  0.15580673476E+02  0.30452083088E+02  0.51100000000E-03 0. -1.
         22    1    1    0    0    0  0.69418266377E+01  0.30983454476E+02  0.16109333174E+02  0.35604410172E+02  0.00000000000E+00 0.  1.
</event>
<event>
 5    1  0.1681104E-003  0.9118800E+02  0.7818608E-02  0.1130116E+00
         25   -1    0    0    0    0  0.00000000000E+00  0.00000000000E+00  0.99999998245E-14  0.12500000000E+03  0.12500000000E+03 0.  0.
        -11    1    3    3    0    0  0.62951936233E+01  0.33204423802E+02 -0.16926863144E+02  0.37797908923E+02  0.51100000000E-03 0. -1.
         23    2    1    0    0    0  0.88389744941E+01 -0.46386408870E+01  0.27224184974E+02  0.96003436292E+02  0.91519719585E+02 0.  0.
         11    1    3    3    0    0  0.25437808707E+01 -0.37843064689E+02  0.44151048118E+02  0.58205527369E+02  0.51100000000E-03 0.  1.
         22    1    1    0    0    0 -0.88389744941E+01  0.46386408870E+01 -0.27224184974E+02  0.28996563708E+02  0.00000000000E+00 0.  1.
</event>
<event>
 5    1  0.1681104E-003  0.9118800E+02  0.7818608E-02  0.1130116E+00
         25   -1    0    0    0    0  0.00000000000E+00  0.00000000000E+00  0.99999998245E-14  0.12500000000E+03  0.12500000000E+03 0.  0.
        -11    1    3    3    0    0 -0.34218110944E+02 -0.10784847534E+01  0.73824714633E+01  0.35022037792E+02  0.51100000000E-03 0. -1.
         23    2    1    0    0    0  0.16325241899E+02  0.64230990020E+01 -0.24213778825E+02  0.95098882816E+02  0.90275803535E+02 0.  0.
         11    1    3    3    0    0  0.50543352843E+02  0.75015837554E+01 -0.31596250289E+02  0.60076845024E+02  0.51100000000E-03 0.  1.
         22    1    1    0    0    0 -0.16325241899E+02 -0.64230990020E+01  0.24213778825E+02  0.29901117184E+02  0.00000000000E+00 0.  1.
</event>
<event>
 5    1  0.1681104E-003  0.9118800E+02  0.7818608E-02  0.1130116E+00
         25   -1    0    0    0    0  0.00000000000E+00  0.00000000000E+00  0.99999998245E-14  0.12500000000E+03  0.12500000000E+03 0.  0.
        -11    1    3    3    0    0  0.50251750728E+02  0.19406076913E+02  0.10671972435E+02  0.54915619529E+02  0.51100000000E-03 0.  1.
         23    2    1    0    0    0  0.14024957544E+02  0.12561479807E+02 -0.15896227389E+02  0.10035897213E+03  0.97286910906E+02 0.  0.
         11    1    3    3    0    0 -0.36226793183E+02 -0.68445971053E+01 -0.26568199824E+02  0.45443352606E+02  0.51100000000E-03 0. -1.
         22    1    1    0    0    0 -0.14024957544E+02 -0.12561479807E+02  0.15896227389E+02  0.24641027866E+02  0.00000000000E+00 0.  1.
</event>
<event>
 5    1  0.1681104E-003  0.9118800E+02  0.7818608E-02  0.1130116E+00
         25   -1    0    0    0    0  0.00000000000E+00  0.00000000000E+00  0.99999998245E-14  0.12500000000E+03  0.12500000000E+03 0.  0.
        -11    1    3    3    0    0  0.42503794060E+02  0.30677752549E+02  0.91096277731E+01  0.53204157068E+02  0.51100000000E-03 0.  1.
         23    2    1    0    0    0  0.20526658057E+02 -0.36928238055E+01  0.20700274835E+02  0.95614935479E+02  0.90987547883E+02 0.  0.
         11    1    3    3    0    0 -0.21977136002E+02 -0.34370576355E+02  0.11590647062E+02  0.42410778410E+02  0.51100000000E-03 0. -1.
         22    1    1    0    0    0 -0.20526658057E+02  0.36928238055E+01 -0.20700274835E+02  0.29385064521E+02  0.00000000000E+00 0.  1.
</event>
<event>
 5    1  0.1681104E-003  0.9118800E+02  0.7818608E-02  0.1130116E+00
         25   -1    0    0    0    0  0.00000000000E+00  0.00000000000E+00  0.99999998245E-14  0.12500000000E+03  0.12500000000E+03 0.  0.
        -11    1    3    3    0    0 -0.24767258725E+02  0.43410917686E+02 -0.16425976257E+02  0.52609291721E+02  0.51100000000E-03 0.  1.
         23    2    1    0    0    0 -0.20775008536E+02  0.20054486885E+01 -0.22111734405E+02  0.94593559851E+02  0.89573377534E+02 0.  0.
         11    1    3    3    0    0  0.39922501887E+01 -0.41405468998E+02 -0.56857581485E+01  0.41984268131E+02  0.51100000000E-03 0. -1.
         22    1    1    0    0    0  0.20775008536E+02 -0.20054486885E+01  0.22111734405E+02  0.30406440149E+02  0.00000000000E+00 0.  1.
</event>
<event>
 5    1  0.1681104E-003  0.9118800E+02  0.7818608E-02  0.1130116E+00
         25   -1    0    0    0    0  0.00000000000E+00  0.00000000000E+00  0.99999998245E-14  0.12500000000E+03  0.12500000000E+03 0.  0.
        -11    1    3    3    0    0  0.35102398668E+02 -0.41019422489E+02  0.35173029188E+01  0.54103076009E+02  0.51100000000E-03 0.  1.
         23    2    1    0    0    0  0.13942142686E+02 -0.17608108960E+02 -0.21144213263E+02  0.94153499415E+02  0.88957151785E+02 0.  0.
         11    1    3    3    0    0 -0.21160255982E+02  0.23411313529E+02 -0.24661516181E+02  0.40050423406E+02  0.51100000000E-03 0. -1.
         22    1    1    0    0    0 -0.13942142686E+02  0.17608108960E+02  0.21144213263E+02  0.30846500585E+02  0.00000000000E+00 0.  1.
</event>
<event>
 5    1  0.1681104E-003  0.9118800E+02  0.7818608E-02  0.1130116E+00
         25   -1    0    0    0    0  0.00000000000E+00  0.00000000000E+00  0.99999998245E-14  0.12500000000E+03  0.12500000000E+03 0.  0.
        -11    1    3    3    0    0 -0.57340456580E+01 -0.70407450689E+01  0.32246501317E+02  0.33500570416E+02  0.51100000000E-03 0. -1.
         23    2    1    0    0    0 -0.38053985116E+01  0.26067582071E+02 -0.17561161100E+02  0.93339389266E+02  0.87805736240E+02 0.  0.
         11    1    3    3    0    0  0.19286471464E+01  0.33108327140E+02 -0.49807662417E+02  0.59838818851E+02  0.51100000000E-03 0.  1.
         22    1    1    0    0    0  0.38053985116E+01 -0.26067582071E+02  0.17561161100E+02  0.31660610734E+02  0.00000000000E+00 0.  1.
</event>
<event>
 5    1  0.1681104E-003  0.9118800E+02  0.7818608E-02  0.1130116E+00
         25   -1    0    0    0    0  0.00000000000E+00  0.00000000000E+00  0.99999998245E-14  0.12500000000E+03  0.12500000000E+03 0.  0.
        -11    1    3    3    0    0 -0.23494118002E+02 -0.10357966532E+02 -0.21097140623E+02  0.33231767845E+02  0.51100000000E-03 0. -1.
         23    2    1    0    0    0  0.19498475237E+02  0.17686208393E+02  0.13776538744E+02  0.95288293155E+02  0.90537689880E+02 0.  0.
         11    1    3    3    0    0  0.42992593239E+02  0.28044174925E+02  0.34873679367E+02  0.62056525310E+02  0.51100000000E-03 0.  1.
         22    1    1    0    0    0 -0.19498475237E+02 -0.17686208393E+02 -0.13776538744E+02  0.29711706845E+02  0.00000000000E+00 0.  1.
</event>
<event>
 5    1  0.1681104E-003  0.9118800E+02  0.7818608E-02  0.1130116E+00
         25   -1    0    0    0    0  0.00000000000E+00  0.00000000000E+00  0.99999998245E-14  0.12500000000E+03  0.12500000000E+03 0.  0.
        -11    1    3    3    0    0 -0.24196231398E+02  0.64739088802E+01  0.32371491766E+02  0.40930216094E+02  0.51100000000E-03 0.  1.
         23    2    1    0    0    0  0.22804450579E+02 -0.13453504826E+02  0.12627018433E+02  0.95666037553E+02  0.91057725582E+02 0.  0.
         11    1    3    3    0    0  0.47000681978E+02 -0.19927413706E+02 -0.19744473333E+02  0.54735821459E+02  0.51100000000E-03 0. -1.
         22    1    1    0    0    0 -0.22804450579E+02  0.13453504826E+02 -0.12627018433E+02  0.29333962447E+02  0.00000000000E+00 0. -1.
</event>
<event>
 5    1  0.1681104E-003  0.9118800E+02  0.7818608E-02  0.1130116E+00
         25   -1    0    0    0    0  0.00000000000E+00  0.00000000000E+00  0.99999998245E-14  0.12500000000E+03  0.12500000000E+03 0.  0.
        -11    1    3    3    0    0  0.10233353909E+02  0.67586410545E+01  0.34435807407E+02  0.36554419612E+02  0.51100000000E-03 0.  1.
         23    2    1    0    0    0 -0.25433056952E+02 -0.83945960096E+01 -0.10802093893E+02  0.96121030826E+02  0.91680192553E+02 0.  0.
         11    1    3    3    0    0 -0.35666410861E+02 -0.15153237064E+02 -0.45237901300E+02  0.59566611214E+02  0.51100000000E-03 0. -1.
         22    1    1    0    0    0  0.25433056952E+02  0.83945960096E+01  0.10802093893E+02  0.28878969174E+02  0.00000000000E+00 0. -1.
</event>
<event>
 5    1  0.1681104E-003  0.9118800E+02  0.7818608E-02  0.1130116E+00
         25   -1    0    0    0    0  0.00000000000E+00  0.00000000000E+00  0.99999998245E-14  0.12500000000E+03  0.12500000000E+03 0.  0.
        -11    1    3    3    0    0  0.39806795182E+02 -0.67147002820E+01 -0.12366817358E+02  0.42220922709E+02  0.51100000000E-03 0. -1.
         23    2    1    0    0    0 -0.63596198275E+01  0.20940560940E+02 -0.18444830280E+02  0.96378965412E+02  0.92031197716E+02 0.  0.
         11    1    3    3    0    0 -0.46166415010E+02  0.27655261222E+02 -0.60780129216E+01  0.54158042703E+02  0.51100000000E-03 0.  1.
         22    1    1    0    0    0  0.63596198275E+01 -0.20940560940E+02  0.18444830280E+02  0.28621034588E+02  0.00000000000E+00 0.  1.
</event>
<event>
 5    1  0.1681104E-003  0.9118800E+02  0.7818608E-02  0.1130116E+00
         25   -1    0    0    0    0  0.00000000000E+00  0.00000000000E+00  0.99999998245E-14  0.12500000000E+03  0.12500000000E+03 0.  0.
        -11    1    3    3    0    0 -0.25899938859E+02 -0.23787070716E+02  0.44521876225E+02  0.56734725072E+02  0.51100000000E-03 0. -1.
         23    2    1    0    0    0 -0.68585287972E+01 -0.26275440456E+02  0.10338497876E+02  0.95942768082E+02  0.91436819830E+02 0.  0.
         11    1    3    3    0    0  0.19041410062E+02 -0.24883697400E+01 -0.34183378349E+02  0.39208043011E+02  0.51100000000E-03 0.  1.
         22    1    1    0    0    0  0.68585287972E+01  0.26275440456E+02 -0.10338497876E+02  0.29057231918E+02  0.00000000000E+00 0.  1.
</event>
<event>
 5    1  0.1681104E-003  0.9118800E+02  0.7818608E-02  0.1130116E+00
         25   -1    0    0    0    0  0.00000000000E+00  0.00000000000E+00  0.99999998245E-14  0.12500000000E+03  0.12500000000E+03 0.  0.
        -11    1    3    3    0    0 -0.28804976951E+02 -0.27276060255E+02 -0.19986552301E+02  0.44420405596E+02  0.51100000000E-03 0. -1.
         23    2    1    0    0    0  0.88512300524E+01  0.78670165139E+01 -0.26148274565E+02  0.96295183592E+02  0.91917331870E+02 0.  0.
         11    1    3    3    0    0  0.37656207003E+02  0.35143076769E+02 -0.61617222643E+01  0.51874777996E+02  0.51100000000E-03 0.  1.
         22    1    1    0    0    0 -0.88512300524E+01 -0.78670165139E+01  0.26148274565E+02  0.28704816408E+02  0.00000000000E+00 0.  1.
</event>
<event>
 5    1  0.1681104E-003  0.9118800E+02  0.7818608E-02  0.1130116E+00
         25   -1    0    0    0    0  0.00000000000E+00  0.00000000000E+00  0.99999998245E-14  0.12500000000E+03  0.12500000000E+03 0.  0.
        -11    1    3    3    0    0 -0.16217765582E+02 -0.15667408291E+02  0.43791155560E+02  0.49255953027E+02  0.51100000000E-03 0. -1.
         23    2    1    0    0    0 -0.26649127637E+02  0.10419635838E+02  0.70095553288E+01  0.95540219269E+02  0.90884843716E+02 0.  0.
         11    1    3    3    0    0 -0.10431362056E+02  0.26087044130E+02 -0.36781600231E+02  0.46284266242E+02  0.51100000000E-03 0.  1.
         22    1    1    0    0    0  0.26649127637E+02 -0.10419635838E+02 -0.70095553288E+01  0.29459780731E+02  0.00000000000E+00 0. -1.
</event>
<event>
 5    1  0.1681104E-003  0.9118800E+02  0.7818608E-02  0.1130116E+00
         25   -1    0    0    0    0  0.00000000000E+00  0.00000000000E+00  0.99999998245E-14  0.12500000000E+03  0.12500000000E+03 0.  0.
        -11    1    3    3    0    0  0.50043368170E+01  0.40097609924E+02 -0.28816780078E+02  0.49631326024E+02  0.51100000000E-03 0.  1.
         23    2    1    0    0    0  0.14283971580E+02  0.24853907227E+02  0.11803396874E+02  0.93998891531E+02  0.88739635354E+02 0.  0.
         11    1    3    3    0    0  0.92796347626E+01 -0.15243702697E+02  0.40620176951E+02  0.44367565507E+02  0.51100000000E-03 0. -1.
         22    1    1    0    0    0 -0.14283971580E+02 -0.24853907227E+02 -0.11803396874E+02  0.31001108469E+02  0.00000000000E+00 0. -1.
</event>
<event>
 5    1  0.1681104E-003  0.9118800E+02  0.7818608E-02  0.1130116E+00
         25   -1    0    0    0    0  0.00000000000E+00  0.00000000000E+00  0.99999998245E-14  0.12500000000E+03  0.12500000000E+03 0.  0.
        -11    1    3    3    0    0 -0.45588555172E+01 -0.31484880482E+02  0.14098197434E+02  0.34797126802E+02  0.51100000000E-03 0. -1.
         23    2    1    0    0    0  0.24887634523E+02  0.11741843072E+02 -0.13951251488E+02  0.94147080382E+02  0.88948131490E+02 0.  0.
         11    1    3    3    0    0  0.29446490040E+02  0.43226723553E+02 -0.28049448922E+02  0.59349953580E+02  0.51100000000E-03 0.  1.
         22    1    1    0    0    0 -0.24887634523E+02 -0.11741843072E+02  0.13951251488E+02  0.30852919618E+02  0.00000000000E+00 0.  1.
</event>
<event>
 5    1  0.1681104E-003  0.9118800E+02  0.7818608E-02  0.1130116E+00
         25   -1    0    0    0    0  0.00000000000E+00  0.00000000000E+00  0.99999998245E-14  0.12500000000E+03  0.12500000000E+03 0.  0.
        -11    1    3    3    0    0  0.43561949382E+01 -0.15288206909E+02  0.56856881191E+02  0.59037366505E+02  0.51100000000E-03 0.  1.
         23    2    1    0    0    0 -0.49929227969E+01 -0.19517100649E+02  0.22952592329E+02  0.94460386538E+02  0.89387340460E+02 0.  0.
         11    1    3    3    0    0 -0.93491177351E+01 -0.42288937404E+01 -0.33904288863E+02  0.35423020033E+02  0.51100000000E-03 0. -1.
         22    1    1    0    0    0  0.49929227969E+01  0.19517100649E+02 -0.22952592329E+02  0.30539613462E+02  0.00000000000E+00 0.  1.
</event>
<event>
 4    1  0.1681104E-003  0.9118800E+02  0.7818608E-02  0.1130116E+00
         25   -1    0    0    0    0  0.00000000000E+00  0.00000000000E+00  0.99999998245E-14  0.12500000000E+03  0.12500000000E+03 0.  0.
        -11    1    1    0    0    0  0.42683549748E+02  0.15332001046E+02 -0.29224816617E+01  0.45447734536E+02  0.51100000000E-03 0. -1.
         11    1    1    0    0    0  0.67878910601E+01 -0.54109760185E+01  0.23506913176E+02  0.25058513400E+02  0.51100000000E-03 0.  1.
         22    1    1    0    0    0 -0.49471440808E+02 -0.99210250270E+01 -0.20584431514E+02  0.54493752064E+02  0.00000000000E+00 0. -1.
</event>
<event>
 5    1  0.1681104E-003  0.9118800E+02  0.7818608E-02  0.1130116E+00
         25   -1    0    0    0    0  0.00000000000E+00  0.00000000000E+00  0.99999998245E-14  0.12500000000E+03  0.12500000000E+03 0.  0.
        -11    1    3    3    0    0 -0.13096017263E+02 -0.42170093095E+01  0.31484074188E+02  0.34358925527E+02  0.51100000000E-03 0. -1.
         23    2    1    0    0    0  0.19435064648E+02  0.15248998100E+02 -0.16336494402E+02  0.95383539539E+02  0.90669095532E+02 0.  0.
         11    1    3    3    0    0  0.32531081911E+02  0.19466007409E+02 -0.47820568590E+02  0.61024614011E+02  0.51100000000E-03 0.  1.
         22    1    1    0    0    0 -0.19435064648E+02 -0.15248998100E+02  0.16336494402E+02  0.29616460461E+02  0.00000000000E+00 0.  1.
</event>
<event>
 5    1  0.1681104E-003  0.9118800E+02  0.7818608E-02  0.1130116E+00
         25   -1    0    0    0    0  0.00000000000E+00  0.00000000000E+00  0.99999998245E-14  0.12500000000E+03  0.12500000000E+03 0.  0.
        -11    1    3    3    0    0 -0.36645339484E+02 -0.13607803850E+02  0.15349109943E+02  0.41995814171E+02  0.51100000000E-03 0.  1.
         23    2    1    0    0    0 -0.60436064372E+01 -0.10619807701E+02 -0.27599816060E+02  0.94816306705E+02  0.89883684150E+02 0.  0.
         11    1    3    3    0    0  0.30601733047E+02  0.29879961492E+01 -0.42948926003E+02  0.52820492534E+02  0.51100000000E-03 0. -1.
         22    1    1    0    0    0  0.60436064372E+01  0.10619807701E+02  0.27599816060E+02  0.30183693295E+02  0.00000000000E+00 0.  1.
</event>
<event>
 5    1  0.1681104E-003  0.9118800E+02  0.7818608E-02  0.1130116E+00
         25   -1    0    0    0    0  0.00000000000E+00  0.00000000000E+00  0.99999998245E-14  0.12500000000E+03  0.12500000000E+03 0.  0.
        -11    1    3    3    0    0  0.27700620317E+02  0.21500792289E+02  0.53943023815E+01  0.35478260012E+02  0.51100000000E-03 0.  1.
         23    2    1    0    0    0 -0.16932083787E+02 -0.46165645317E+01 -0.24235028524E+02  0.95077688308E+02  0.90246451880E+02 0.  0.
         11    1    3    3    0    0 -0.44632704104E+02 -0.26117356821E+02 -0.29629330906E+02  0.59599428296E+02  0.51100000000E-03 0. -1.
         22    1    1    0    0    0  0.16932083787E+02  0.46165645317E+01  0.24235028524E+02  0.29922311692E+02  0.00000000000E+00 0. -1.
</event>
<event>
 5    1  0.1681104E-003  0.9118800E+02  0.7818608E-02  0.1130116E+00
         25   -1    0    0    0    0  0.00000000000E+00  0.00000000000E+00  0.99999998245E-14  0.12500000000E+03  0.12500000000E+03 0.  0.
        -11    1    3    3    0    0 -0.22216972993E+02 -0.19557687253E+02 -0.13079590504E+02  0.32360048017E+02  0.51100000000E-03 0. -1.
         23    2    1    0    0    0  0.15092949129E+01  0.26055930015E+02  0.18779869782E+02  0.92846104915E+02  0.87100667212E+02 0.  0.
         11    1    3    3    0    0  0.23726267906E+02  0.45613617269E+02  0.31859460286E+02  0.60486056898E+02  0.51100000000E-03 0.  1.
         22    1    1    0    0    0 -0.15092949129E+01 -0.26055930015E+02 -0.18779869782E+02  0.32153895085E+02  0.00000000000E+00 0.  1.
</event>
<event>
 5    1  0.1681104E-003  0.9118800E+02  0.7818608E-02  0.1130116E+00
         25   -1    0    0    0    0  0.00000000000E+00  0.00000000000E+00  0.99999998245E-14  0.12500000000E+03  0.12500000000E+03 0.  0.
        -11    1    3    3    0    0  0.75238076442E+01  0.24078837729E+02  0.48647276368E+02  0.54799229978E+02  0.51100000000E-03 0.  1.
         23    2    1    0    0    0 -0.63994071321E+01 -0.78005241875E+01  0.27965556771E+02  0.95269999079E+02  0.90512428814E+02 0.  0.
         11    1    3    3    0    0 -0.13923214776E+02 -0.31879361916E+02 -0.20681719597E+02  0.40470769102E+02  0.51100000000E-03 0. -1.
         22    1    1    0    0    0  0.63994071321E+01  0.78005241875E+01 -0.27965556771E+02  0.29730000921E+02  0.00000000000E+00 0. -1.
</event>
<event>
 5    1  0.1681104E-003  0.9118800E+02  0.7818608E-02  0.1130116E+00
         25   -1    0    0    0    0  0.00000000000E+00  0.00000000000E+00  0.99999998245E-14  0.12500000000E+03  0.12500000000E+03 0.  0.
        -11    1    3    3    0    0 -0.49626714613E+02  0.10064893533E+02 -0.14397578891E+02  0.52644118031E+02  0.51100000000E-03 0.  1.
         23    2    1    0    0    0 -0.27018368016E+02  0.23829113806E+02  0.88845757590E+01  0.87895356605E+02  0.79679603107E+02 0.  0.
         11    1    3    3    0    0  0.22608346597E+02  0.13764220274E+02  0.23282154650E+02  0.35251238574E+02  0.51100000000E-03 0. -1.
         22    1    1    0    0    0  0.27018368016E+02 -0.23829113806E+02 -0.88845757590E+01  0.37104643395E+02  0.00000000000E+00 0.  1.
</event>
<event>
 5    1  0.1681104E-003  0.9118800E+02  0.7818608E-02  0.1130116E+00
         25   -1    0    0    0    0  0.00000000000E+00  0.00000000000E+00  0.99999998245E-14  0.12500000000E+03  0.12500000000E+03 0.  0.
        -11    1    3    3    0    0  0.68096509730E+01  0.37092037692E+02 -0.33898815268E+02  0.50708187538E+02  0.51100000000E-03 0.  1.
         23    2    1    0    0    0  0.21902162592E+02 -0.23778528438E+01 -0.20145514820E+02  0.95147015598E+02  0.90342425800E+02 0.  0.
         11    1    3    3    0    0  0.15092511619E+02 -0.39469890536E+02  0.13753300448E+02  0.44438828060E+02  0.51100000000E-03 0. -1.
         22    1    1    0    0    0 -0.21902162592E+02  0.23778528438E+01  0.20145514820E+02  0.29852984402E+02  0.00000000000E+00 0. -1.
</event>
<event>
 4    1  0.1681104E-003  0.9118800E+02  0.7818608E-02  0.1130116E+00
         25   -1    0    0    0    0  0.00000000000E+00  0.00000000000E+00  0.99999998245E-14  0.12500000000E+03  0.12500000000E+03 0.  0.
        -11    1    1    0    0    0  0.37021545517E+02  0.82657618720E+01 -0.44036880425E+02  0.58121979402E+02  0.51100000000E-03 0.  1.
         11    1    1    0    0    0 -0.54435869412E+01 -0.11377010230E+02  0.15011926169E-01  0.12612264910E+02  0.51100000000E-03 0. -1.
         22    1    1    0    0    0 -0.31577958576E+02  0.31112483575E+01  0.44021868499E+02  0.54265755687E+02  0.00000000000E+00 0.  1.
</event>
<event>
 5    1  0.1681104E-003  0.9118800E+02  0.7818608E-02  0.1130116E+00
         25   -1    0    0    0    0  0.00000000000E+00  0.00000000000E+00  0.99999998245E-14  0.12500000000E+03  0.12500000000E+03 0.  0.
        -11    1    3    3    0    0 -0.16283405593E+02  0.18098535078E+02 -0.25452741710E+02  0.35221418633E+02  0.51100000000E-03 0.  1.
         23    2    1    0    0    0  0.13312152935E+02 -0.24701112871E+02  0.63830284244E+01  0.96223248191E+02  0.91819453536E+02 0.  0.
         11    1    3    3    0    0  0.29595558527E+02 -0.42799647949E+02  0.31835770135E+02  0.61001829558E+02  0.51100000000E-03 0. -1.
         22    1    1    0    0    0 -0.13312152935E+02  0.24701112871E+02 -0.63830284244E+01  0.28776751809E+02  0.00000000000E+00 0. -1.
</event>
<event>
 5    1  0.1681104E-003  0.9118800E+02  0.7818608E-02  0.1130116E+00
         25   -1    0    0    0    0  0.00000000000E+00  0.00000000000E+00  0.99999998245E-14  0.12500000000E+03  0.12500000000E+03 0.  0.
        -11    1    3    3    0    0  0.14136608023E+02  0.36849206616E+02 -0.62873294082E+01  0.39965462914E+02  0.51100000000E-03 0. -1.
         23    2    1    0    0    0 -0.22666908327E+02  0.16336423239E+02  0.20898365798E+02  0.90108609222E+02  0.83079192976E+02 0.  0.
         11    1    3    3    0    0 -0.36803516350E+02 -0.20512783376E+02  0.27185695206E+02  0.50143146308E+02  0.51100000000E-03 0.  1.
         22    1    1    0    0    0  0.22666908327E+02 -0.16336423239E+02 -0.20898365798E+02  0.34891390778E+02  0.00000000000E+00 0.  1.
</event>
<event>
 5    1  0.1681104E-003  0.9118800E+02  0.7818608E-02  0.1130116E+00
         25   -1    0    0    0    0  0.00000000000E+00  0.00000000000E+00  0.99999998245E-14  0.12500000000E+03  0.12500000000E+03 0.  0.
        -11    1    3    3    0    0  0.14716481207E+02 -0.55134419281E+02 -0.36094853006E-01  0.57064702853E+02  0.51100000000E-03 0.  1.
         23    2    1    0    0    0  0.30958291381E+01 -0.41745416893E+02 -0.15272364263E+02  0.80440948172E+02  0.66971912344E+02 0.  0.
         11    1    3    3    0    0 -0.11620652069E+02  0.13389002388E+02 -0.15236269410E+02  0.23376245319E+02  0.51100000000E-03 0. -1.
         22    1    1    0    0    0 -0.30958291381E+01  0.41745416893E+02  0.15272364263E+02  0.44559051828E+02  0.00000000000E+00 0.  1.
</event>
<event>
 5    1  0.1681104E-003  0.9118800E+02  0.7818608E-02  0.1130116E+00
         25   -1    0    0    0    0  0.00000000000E+00  0.00000000000E+00  0.99999998245E-14  0.12500000000E+03  0.12500000000E+03 0.  0.
        -11    1    3    3    0    0 -0.21002955799E+02 -0.53350177146E+02  0.22660978260E+02  0.61651321882E+02  0.51100000000E-03 0. -1.
         23    2    1    0    0    0 -0.31217243484E+01 -0.27322605573E+02  0.89235851536E+01  0.96088059384E+02  0.91635227102E+02 0.  0.
         11    1    3    3    0    0  0.17881231451E+02  0.26027571573E+02 -0.13737393107E+02  0.34436737503E+02  0.51100000000E-03 0.  1.
         22    1    1    0    0    0  0.31217243484E+01  0.27322605573E+02 -0.89235851536E+01  0.28911940616E+02  0.00000000000E+00 0. -1.
</event>
<event>
 5    1  0.1681104E-003  0.9118800E+02  0.7818608E-02  0.1130116E+00
         25   -1    0    0    0    0  0.00000000000E+00  0.00000000000E+00  0.99999998245E-14  0.12500000000E+03  0.12500000000E+03 0.  0.
        -11    1    3    3    0    0 -0.14979816848E+02  0.56590257530E+02  0.15567174940E+02  0.60573831776E+02  0.51100000000E-03 0.  1.
         23    2    1    0    0    0 -0.14845959394E+02  0.20635099987E+02  0.12534860125E+02  0.96656877728E+02  0.92407897022E+02 0.  0.
         11    1    3    3    0    0  0.13385745479E+00 -0.35955157543E+02 -0.30323148152E+01  0.36083045952E+02  0.51100000000E-03 0. -1.
         22    1    1    0    0    0  0.14845959394E+02 -0.20635099987E+02 -0.12534860125E+02  0.28343122272E+02  0.00000000000E+00 0.  1.
</event>
<event>
 5    1  0.1681104E-003  0.9118800E+02  0.7818608E-02  0.1130116E+00
         25   -1    0    0    0    0  0.00000000000E+00  0.00000000000E+00  0.99999998245E-14  0.12500000000E+03  0.12500000000E+03 0.  0.
        -11    1    3    3    0    0 -0.12094476356E+02  0.26823605594E+02  0.33419955019E+02  0.44527245245E+02  0.51100000000E-03 0.  1.
         23    2    1    0    0    0 -0.14228022314E+02 -0.20908761483E+02  0.13905055574E+02  0.96138893017E+02  0.91704543259E+02 0.  0.
         11    1    3    3    0    0 -0.21335459588E+01 -0.47732367077E+02 -0.19514899445E+02  0.51611647772E+02  0.51100000000E-03 0. -1.
         22    1    1    0    0    0  0.14228022314E+02  0.20908761483E+02 -0.13905055574E+02  0.28861106983E+02  0.00000000000E+00 0. -1.
</event>
<event>
 5    1  0.1681104E-003  0.9118800E+02  0.7818608E-02  0.1130116E+00
         25   -1    0    0    0    0  0.00000000000E+00  0.00000000000E+00  0.99999998245E-14  0.12500000000E+03  0.12500000000E+03 0.  0.
        -11    1    3    3    0    0  0.88273874164E+01  0.39040907535E+02  0.75375691843E+01  0.40729966599E+02  0.51100000000E-03 0. -1.
         23    2    1    0    0    0  0.20254577684E+02 -0.99389731401E+01 -0.17056640720E+02  0.96716434155E+02  0.92488423810E+02 0.  0.
         11    1    3    3    0    0  0.11427190268E+02 -0.48979880675E+02 -0.24594209904E+02  0.55986467556E+02  0.51100000000E-03 0.  1.
         22    1    1    0    0    0 -0.20254577684E+02  0.99389731401E+01  0.17056640720E+02  0.28283565845E+02  0.00000000000E+00 0.  1.
</event>
<event>
 5    1  0.1681104E-003  0.9118800E+02  0.7818608E-02  0.1130116E+00
         25   -1    0    0    0    0  0.00000000000E+00  0.00000000000E+00  0.99999998245E-14  0.12500000000E+03  0.12500000000E+03 0.  0.
        -11    1    3    3    0    0 -0.31472603069E+02  0.17568224250E+02  0.43379261821E+02  0.56399712797E+02  0.51100000000E-03 0.  1.
         23    2    1    0    0    0 -0.27949682663E+02 -0.37002511975E+01  0.12261795132E+02  0.94255435606E+02  0.89100274419E+02 0.  0.
         11    1    3    3    0    0  0.35229204059E+01 -0.21268475447E+02 -0.31117466688E+02  0.37855722809E+02  0.51100000000E-03 0. -1.
         22    1    1    0    0    0  0.27949682663E+02  0.37002511975E+01 -0.12261795132E+02  0.30744564394E+02  0.00000000000E+00 0.  1.
</event>
<event>
 5    1  0.1681104E-003  0.9118800E+02  0.7818608E-02  0.1130116E+00
         25   -1    0    0    0    0  0.00000000000E+00  0.00000000000E+00  0.99999998245E-14  0.12500000000E+03  0.12500000000E+03 0.  0.
        -11    1    3    3    0    0  0.35026880743E+00  0.14917120431E+02  0.34482234390E+02  0.37572166014E+02  0.51100000000E-03 0. -1.
         23    2    1    0    0    0  0.14901123728E+02  0.55656599567E+01 -0.22682231929E+02  0.97296142788E+02  0.93268621181E+02 0.  0.
         11    1    3    3    0    0  0.14550854920E+02 -0.93514604743E+01 -0.57164466319E+02  0.59723976774E+02  0.51100000000E-03 0.  1.
         22    1    1    0    0    0 -0.14901123728E+02 -0.55656599567E+01  0.22682231929E+02  0.27703857212E+02  0.00000000000E+00 0. -1.
</event>
<event>
 5    1  0.1681104E-003  0.9118800E+02  0.7818608E-02  0.1130116E+00
         25   -1    0    0    0    0  0.00000000000E+00  0.00000000000E+00  0.99999998245E-14  0.12500000000E+03  0.12500000000E+03 0.  0.
        -11    1    3    3    0    0 -0.21750030393E+02 -0.51936776958E+02  0.64534792687E+01  0.56675744528E+02  0.51100000000E-03 0. -1.
         23    2    1    0    0    0  0.67939500158E+01 -0.27041818462E+02 -0.58726803984E+01  0.96506034365E+02  0.92203625694E+02 0.  0.
         11    1    3    3    0    0  0.28543980409E+02  0.24894958496E+02 -0.12326159667E+02  0.39830289837E+02  0.51100000000E-03 0.  1.
         22    1    1    0    0    0 -0.67939500158E+01  0.27041818462E+02  0.58726803984E+01  0.28493965635E+02  0.00000000000E+00 0. -1.
</event>
<event>
 5    1  0.1681104E-003  0.9118800E+02  0.7818608E-02  0.1130116E+00
         25   -1    0    0    0    0  0.00000000000E+00  0.00000000000E+00  0.99999998245E-14  0.12500000000E+03  0.12500000000E+03 0.  0.
        -11    1    3    3    0    0 -0.45760944630E+02 -0.33311630929E+01 -0.41225647508E+02  0.61682369554E+02  0.51100000000E-03 0.  1.
         23    2    1    0    0    0 -0.23523762315E+02  0.48251166250E+01 -0.16891881532E+02  0.95640422251E+02  0.91022555241E+02 0.  0.
         11    1    3    3    0    0  0.22237182315E+02  0.81562797179E+01  0.24333765976E+02  0.33958052697E+02  0.51100000000E-03 0. -1.
         22    1    1    0    0    0  0.23523762315E+02 -0.48251166250E+01  0.16891881532E+02  0.29359577749E+02  0.00000000000E+00 0.  1.
</event>
<event>
 5    1  0.1681104E-003  0.9118800E+02  0.7818608E-02  0.1130116E+00
         25   -1    0    0    0    0  0.00000000000E+00  0.00000000000E+00  0.99999998245E-14  0.12500000000E+03  0.12500000000E+03 0.  0.
        -11    1    3    3    0    0 -0.22051436734E+02 -0.16543155552E+02 -0.25193340092E+02  0.37344962752E+02  0.51100000000E-03 0.  1.
         23    2    1    0    0    0 -0.73341689586E+01  0.18587734319E+02  0.20189786446E+02  0.96593638421E+02  0.92322313691E+02 0.  0.
         11    1    3    3    0    0  0.14717267776E+02  0.35130889871E+02  0.45383126538E+02  0.59248675669E+02  0.51100000000E-03 0. -1.
         22    1    1    0    0    0  0.73341689586E+01 -0.18587734319E+02 -0.20189786446E+02  0.28406361579E+02  0.00000000000E+00 0. -1.
</event>
<event>
 5    1  0.1681104E-003  0.9118800E+02  0.7818608E-02  0.1130116E+00
         25   -1    0    0    0    0  0.00000000000E+00  0.00000000000E+00  0.99999998245E-14  0.12500000000E+03  0.12500000000E+03 0.  0.
        -11    1    3    3    0    0  0.32566016658E+02  0.23070309973E+02 -0.10686010136E+02  0.41315559492E+02  0.51100000000E-03 0.  1.
         23    2    1    0    0    0  0.11845293734E+02 -0.23599671223E+02  0.10478922616E+02  0.96591140737E+02  0.92318931884E+02 0.  0.
         11    1    3    3    0    0 -0.20720722924E+02 -0.46669981196E+02  0.21164932752E+02  0.55275581245E+02  0.51100000000E-03 0. -1.
         22    1    1    0    0    0 -0.11845293734E+02  0.23599671223E+02 -0.10478922616E+02  0.28408859263E+02  0.00000000000E+00 0. -1.
</event>
<event>
 5    1  0.1681104E-003  0.9118800E+02  0.7818608E-02  0.1130116E+00
         25   -1    0    0    0    0  0.00000000000E+00  0.00000000000E+00  0.99999998245E-14  0.12500000000E+03  0.12500000000E+03 0.  0.
        -11    1    3    3    0    0 -0.24948647256E+02 -0.30744350228E+02  0.13031805336E+02  0.41683066363E+02  0.51100000000E-03 0. -1.
         23    2    1    0    0    0  0.31075753368E+00  0.22950030967E+02  0.35409894911E+01  0.10177632462E+03  0.99091276886E+02 0.  0.
         11    1    3    3    0    0  0.25259404789E+02  0.53694381195E+02 -0.94908158453E+01  0.60093258256E+02  0.51100000000E-03 0.  1.
         22    1    1    0    0    0 -0.31075753368E+00 -0.22950030967E+02 -0.35409894911E+01  0.23223675381E+02  0.00000000000E+00 0.  1.
</event>
<event>
 5    1  0.1681104E-003  0.9118800E+02  0.7818608E-02  0.1130116E+00
         25   -1    0    0    0    0  0.00000000000E+00  0.00000000000E+00  0.99999998245E-14  0.12500000000E+03  0.12500000000E+03 0.  0.
        -11    1    3    3    0    0  0.17726065967E+02  0.47647149410E+02  0.32705879796E+02  0.60449473406E+02  0.51100000000E-03 0. -1.
         23    2    1    0    0    0  0.18040289805E+02  0.16402364086E+02  0.15258203058E+02  0.96237135671E+02  0.91838357552E+02 0.  0.
         11    1    3    3    0    0  0.31422383786E+00 -0.31244785325E+02 -0.17447676738E+02  0.35787662265E+02  0.51100000000E-03 0.  1.
         22    1    1    0    0    0 -0.18040289805E+02 -0.16402364086E+02 -0.15258203058E+02  0.28762864329E+02  0.00000000000E+00 0. -1.
</event>
<event>
 5    1  0.1681104E-003  0.9118800E+02  0.7818608E-02  0.1130116E+00
         25   -1    0    0    0    0  0.00000000000E+00  0.00000000000E+00  0.99999998245E-14  0.12500000000E+03  0.12500000000E+03 0.  0.
        -11    1    3    3    0    0 -0.27325906338E+02  0.28089754137E+02  0.11723063019E+02  0.40904396481E+02  0.51100000000E-03 0. -1.
         23    2    1    0    0    0 -0.65680279669E+01 -0.75836454463E+00 -0.29173961998E+02  0.95086221121E+02  0.90258269872E+02 0.  0.
         11    1    3    3    0    0  0.20757878371E+02 -0.28848118682E+02 -0.40897025016E+02  0.54181824641E+02  0.51100000000E-03 0.  1.
         22    1    1    0    0    0  0.65680279669E+01  0.75836454463E+00  0.29173961998E+02  0.29913778879E+02  0.00000000000E+00 0.  1.
</event>
<event>
 5    1  0.1681104E-003  0.9118800E+02  0.7818608E-02  0.1130116E+00
         25   -1    0    0    0    0  0.00000000000E+00  0.00000000000E+00  0.99999998245E-14  0.12500000000E+03  0.12500000000E+03 0.  0.
        -11    1    3    3    0    0  0.24710394347E+02 -0.20041875942E+02  0.31967960858E+02  0.45102448955E+02  0.51100000000E-03 0.  1.
         23    2    1    0    0    0  0.28629914461E+02  0.94257072126E+01 -0.69426787999E+01  0.94069161870E+02  0.88838564079E+02 0.  0.
         11    1    3    3    0    0  0.39195201133E+01  0.29467583154E+02 -0.38910639658E+02  0.48966712915E+02  0.51100000000E-03 0. -1.
         22    1    1    0    0    0 -0.28629914461E+02 -0.94257072126E+01  0.69426787999E+01  0.30930838130E+02  0.00000000000E+00 0. -1.
</event>
<event>
 5    1  0.1681104E-003  0.9118800E+02  0.7818608E-02  0.1130116E+00
         25   -1    0    0    0    0  0.00000000000E+00  0.00000000000E+00  0.99999998245E-14  0.12500000000E+03  0.12500000000E+03 0.  0.
        -11    1    3    3    0    0 -0.72184663722E+01  0.34344444544E+02  0.46995722473E+02  0.58653602266E+02  0.51100000000E-03 0.  1.
         23    2    1    0    0    0  0.55752993351E+01  0.47473497269E+01  0.27959462078E+02  0.96097529313E+02  0.91648144161E+02 0.  0.
         11    1    3    3    0    0  0.12793765707E+02 -0.29597094817E+02 -0.19036260395E+02  0.37443927046E+02  0.51100000000E-03 0. -1.
         22    1    1    0    0    0 -0.55752993351E+01 -0.47473497269E+01 -0.27959462078E+02  0.28902470687E+02  0.00000000000E+00 0.  1.
</event>
<event>
 5    1  0.1681104E-003  0.9118800E+02  0.7818608E-02  0.1130116E+00
         25   -1    0    0    0    0  0.00000000000E+00  0.00000000000E+00  0.99999998245E-14  0.12500000000E+03  0.12500000000E+03 0.  0.
        -11    1    3    3    0    0  0.32641235870E+02 -0.44878613017E+02 -0.16945701788E+02  0.58023245297E+02  0.51100000000E-03 0. -1.
         23    2    1    0    0    0  0.15892046147E+02 -0.22795991018E+02  0.87991001608E+01  0.95851440844E+02  0.91311884281E+02 0.  0.
         11    1    3    3    0    0 -0.16749189723E+02  0.22082621999E+02  0.25744801948E+02  0.37828195547E+02  0.51100000000E-03 0.  1.
         22    1    1    0    0    0 -0.15892046147E+02  0.22795991018E+02 -0.87991001608E+01  0.29148559156E+02  0.00000000000E+00 0. -1.
</event>
<event>
 5    1  0.1681104E-003  0.9118800E+02  0.7818608E-02  0.1130116E+00
         25   -1    0    0    0    0  0.00000000000E+00  0.00000000000E+00  0.99999998245E-14  0.12500000000E+03  0.12500000000E+03 0.  0.
        -11    1    3    3    0    0  0.13603047866E+02 -0.50529405502E+02  0.17163027732E+02  0.55071165348E+02  0.51100000000E-03 0.  1.
         23    2    1    0    0    0  0.40280609225E+01 -0.11826456644E+02  0.26218992723E+02  0.95956482119E+02  0.91455565876E+02 0.  0.
         11    1    3    3    0    0 -0.95749869438E+01  0.38702948858E+02  0.90559649903E+01  0.40885316771E+02  0.51100000000E-03 0. -1.
         22    1    1    0    0    0 -0.40280609225E+01  0.11826456644E+02 -0.26218992723E+02  0.29043517881E+02  0.00000000000E+00 0.  1.
</event>
<event>
 5    1  0.1681104E-003  0.9118800E+02  0.7818608E-02  0.1130116E+00
         25   -1    0    0    0    0  0.00000000000E+00  0.00000000000E+00  0.99999998245E-14  0.12500000000E+03  0.12500000000E+03 0.  0.
        -11    1    3    3    0    0  0.12713077627E+02  0.48166321200E+02  0.15223643137E+02  0.52090077283E+02  0.51100000000E-03 0. -1.
         23    2    1    0    0    0  0.10544136626E+01  0.74085149721E+01  0.27721337167E+02  0.96286407111E+02  0.91905395804E+02 0.  0.
         11    1    3    3    0    0 -0.11658663965E+02 -0.40757806228E+02  0.12497694030E+02  0.44196329828E+02  0.51100000000E-03 0.  1.
         22    1    1    0    0    0 -0.10544136626E+01 -0.74085149721E+01 -0.27721337167E+02  0.28713592889E+02  0.00000000000E+00 0. -1.
</event>
<event>
 5    1  0.1681104E-003  0.9118800E+02  0.7818608E-02  0.1130116E+00
         25   -1    0    0    0    0  0.00000000000E+00  0.00000000000E+00  0.99999998245E-14  0.12500000000E+03  0.12500000000E+03 0.  0.
        -11    1    3    3    0    0  0.49347754299E+02  0.81368758329E+01 -0.22834209334E+02  0.54980093842E+02  0.51100000000E-03 0. -1.
         23    2    1    0    0    0  0.24570021248E+02 -0.15850979037E+02 -0.11089584090E+01  0.95739629714E+02  0.91158693652E+02 0.  0.
         11    1    3    3    0    0 -0.24777733051E+02 -0.23987854870E+02  0.21725250925E+02  0.40759535872E+02  0.51100000000E-03 0.  1.
         22    1    1    0    0    0 -0.24570021248E+02  0.15850979037E+02  0.11089584090E+01  0.29260370286E+02  0.00000000000E+00 0. -1.
</event>
<event>
 5    1  0.1681104E-003  0.9118800E+02  0.7818608E-02  0.1130116E+00
         25   -1    0    0    0    0  0.00000000000E+00  0.00000000000E+00  0.99999998245E-14  0.12500000000E+03  0.12500000000E+03 0.  0.
        -11    1    3    3    0    0  0.11286100581E+02  0.31358614829E+02 -0.42399208634E+01  0.33596364677E+02  0.51100000000E-03 0. -1.
         23    2    1    0    0    0 -0.23913265465E+01 -0.28615507890E+02 -0.78961341390E+01  0.95218887381E+02  0.90441814695E+02 0.  0.
         11    1    3    3    0    0 -0.13677427128E+02 -0.59974122719E+02 -0.36562132757E+01  0.61622522705E+02  0.51100000000E-03 0.  1.
         22    1    1    0    0    0  0.23913265465E+01  0.28615507890E+02  0.78961341390E+01  0.29781112619E+02  0.00000000000E+00 0.  1.
</event>
<event>
 5    1  0.1681104E-003  0.9118800E+02  0.7818608E-02  0.1130116E+00
         25   -1    0    0    0    0  0.00000000000E+00  0.00000000000E+00  0.99999998245E-14  0.12500000000E+03  0.12500000000E+03 0.  0.
        -11    1    3    3    0    0 -0.29880580768E+02 -0.31541666127E+02 -0.38661982605E+02  0.58159046659E+02  0.51100000000E-03 0. -1.
         23    2    1    0    0    0  0.11933976264E+01 -0.20905966376E+02 -0.20527314427E+02  0.95676728259E+02  0.91072400127E+02 0.  0.
         11    1    3    3    0    0  0.31073978394E+02  0.10635699751E+02  0.18134668179E+02  0.37517681600E+02  0.51100000000E-03 0.  1.
         22    1    1    0    0    0 -0.11933976264E+01  0.20905966376E+02  0.20527314427E+02  0.29323271741E+02  0.00000000000E+00 0. -1.
</event>
<event>
 5    1  0.1681104E-003  0.9118800E+02  0.7818608E-02  0.1130116E+00
         25   -1    0    0    0    0  0.00000000000E+00  0.00000000000E+00  0.99999998245E-14  0.12500000000E+03  0.12500000000E+03 0.  0.
        -11    1    3    3    0    0 -0.38893933977E+01  0.20286886312E+02 -0.42769285969E+02  0.47496283642E+02  0.51100000000E-03 0. -1.
         23    2    1    0    0    0  0.26129250708E+02  0.94463027259E+01 -0.53024062880E+01  0.96714210455E+02  0.92485418385E+02 0.  0.
         11    1    3    3    0    0  0.30018644105E+02 -0.10840583587E+02  0.37466879681E+02  0.49217926813E+02  0.51100000000E-03 0.  1.
         22    1    1    0    0    0 -0.26129250708E+02 -0.94463027259E+01  0.53024062880E+01  0.28285789545E+02  0.00000000000E+00 0.  1.
</event>
<event>
 5    1  0.1681104E-003  0.9118800E+02  0.7818608E-02  0.1130116E+00
         25   -1    0    0    0    0  0.00000000000E+00  0.00000000000E+00  0.99999998245E-14  0.12500000000E+03  0.12500000000E+03 0.  0.
        -11    1    3    3    0    0  0.34961751410E+02  0.74724771940E+01 -0.21080287917E+02  0.41503500045E+02  0.51100000000E-03 0.  1.
         23    2    1    0    0    0 -0.14096537406E+02  0.24976600377E+02 -0.84630898545E+01  0.95097377655E+02  0.90273719397E+02 0.  0.
         11    1    3    3    0    0 -0.49058288817E+02  0.17504123183E+02  0.12617198062E+02  0.53593877610E+02  0.51100000000E-03 0. -1.
         22    1    1    0    0    0  0.14096537406E+02 -0.24976600377E+02  0.84630898545E+01  0.29902622345E+02  0.00000000000E+00 0. -1.
</event>
<event>
 5    1  0.1681104E-003  0.9118800E+02  0.7818608E-02  0.1130116E+00
         25   -1    0    0    0    0  0.00000000000E+00  0.00000000000E+00  0.99999998245E-14  0.12500000000E+03  0.12500000000E+03 0.  0.
        -11    1    3    3    0    0  0.74119945055E+01  0.11216353930E+02  0.55701816553E+02  0.57301279441E+02  0.51100000000E-03 0. -1.
         23    2    1    0    0    0  0.84385651943E+01  0.21867433947E+02  0.21301173383E+02  0.93327708680E+02  0.87789106215E+02 0.  0.
         11    1    3    3    0    0  0.10265706889E+01  0.10651080017E+02 -0.34400643170E+02  0.36026429239E+02  0.51100000000E-03 0.  1.
         22    1    1    0    0    0 -0.84385651943E+01 -0.21867433947E+02 -0.21301173383E+02  0.31672291320E+02  0.00000000000E+00 0. -1.
</event>
<event>
 5    1  0.1681104E-003  0.9118800E+02  0.7818608E-02  0.1130116E+00
         25   -1    0    0    0    0  0.00000000000E+00  0.00000000000E+00  0.99999998245E-14  0.12500000000E+03  0.12500000000E+03 0.  0.
        -11    1    3    3    0    0  0.54447674688E+02  0.27276211581E+02 -0.25270930257E+01  0.60950202597E+02  0.51100000000E-03 0. -1.
         23    2    1    0    0    0  0.20680744864E+02  0.18958025859E+02  0.49240023356E+01  0.96515868425E+02  0.92216956717E+02 0.  0.
         11    1    3    3    0    0 -0.33766929824E+02 -0.83181857229E+01  0.74510953614E+01  0.35565665828E+02  0.51100000000E-03 0.  1.
         22    1    1    0    0    0 -0.20680744864E+02 -0.18958025859E+02 -0.49240023356E+01  0.28484131575E+02  0.00000000000E+00 0. -1.
</event>
<event>
 5    1  0.1681104E-003  0.9118800E+02  0.7818608E-02  0.1130116E+00
         25   -1    0    0    0    0  0.00000000000E+00  0.00000000000E+00  0.99999998245E-14  0.12500000000E+03  0.12500000000E+03 0.  0.
        -11    1    3    3    0    0 -0.51427141504E+02 -0.90386282952E+01 -0.10672718635E+02  0.53294977325E+02  0.51100000000E-03 0. -1.
         23    2    1    0    0    0 -0.17292623717E+02 -0.20438099311E+02  0.11821093233E+02  0.95734166957E+02  0.91151202621E+02 0.  0.
         11    1    3    3    0    0  0.34134517787E+02 -0.11399471016E+02  0.22493811868E+02  0.42439189632E+02  0.51100000000E-03 0.  1.
         22    1    1    0    0    0  0.17292623717E+02  0.20438099311E+02 -0.11821093233E+02  0.29265833043E+02  0.00000000000E+00 0. -1.
</event>
<event>
 5    1  0.1681104E-003  0.9118800E+02  0.7818608E-02  0.1130116E+00
         25   -1    0    0    0    0  0.00000000000E+00  0.00000000000E+00  0.99999998245E-14  0.12500000000E+03  0.12500000000E+03 0.  0.
        -11    1    3    3    0    0 -0.12202015403E+02 -0.62627803387E+01  0.44805717514E+02  0.46857912029E+02  0.51100000000E-03 0.  1.
         23    2    1    0    0    0  0.68255950154E+01  0.25051077554E+02  0.10695354904E+02  0.96919119486E+02  0.92761952715E+02 0.  0.
         11    1    3    3    0    0  0.19027610419E+02  0.31313857893E+02 -0.34110362611E+02  0.50061207457E+02  0.51100000000E-03 0. -1.
         22    1    1    0    0    0 -0.68255950154E+01 -0.25051077554E+02 -0.10695354904E+02  0.28080880514E+02  0.00000000000E+00 0. -1.
</event>
<event>
 5    1  0.1681104E-003  0.9118800E+02  0.7818608E-02  0.1130116E+00
         25   -1    0    0    0    0  0.00000000000E+00  0.00000000000E+00  0.99999998245E-14  0.12500000000E+03  0.12500000000E+03 0.  0.
        -11    1    3    3    0    0  0.53436751798E+02  0.11383441164E+02  0.85207825811E+01  0.55296228728E+02  0.51100000000E-03 0.  1.
         23    2    1    0    0    0  0.23435163201E+02 -0.11195320068E+02  0.17218261389E+02  0.93838957159E+02  0.88514062667E+02 0.  0.
         11    1    3    3    0    0 -0.30001588597E+02 -0.22578761231E+02  0.86974788077E+01  0.38542728432E+02  0.51100000000E-03 0. -1.
         22    1    1    0    0    0 -0.23435163201E+02  0.11195320068E+02 -0.17218261389E+02  0.31161042841E+02  0.00000000000E+00 0.  1.
</event>
<event>
 5    1  0.1681104E-003  0.9118800E+02  0.7818608E-02  0.1130116E+00
         25   -1    0    0    0    0  0.00000000000E+00  0.00000000000E+00  0.99999998245E-14  0.12500000000E+03  0.12500000000E+03 0.  0.
        -11    1    3    3    0    0  0.48140317299E-01 -0.52755135723E+02  0.18990523364E+02  0.56069123772E+02  0.51100000000E-03 0. -1.
         23    2    1    0    0    0 -0.13461702324E+02 -0.16690271707E+02  0.21463750799E+02  0.94660665837E+02  0.89666975299E+02 0.  0.
         11    1    3    3    0    0 -0.13509842641E+02  0.36064864017E+02  0.24732274352E+01  0.38591542065E+02  0.51100000000E-03 0.  1.
         22    1    1    0    0    0  0.13461702324E+02  0.16690271707E+02 -0.21463750799E+02  0.30339334163E+02  0.00000000000E+00 0.  1.
</event>
<event>
 5    1  0.1681104E-003  0.9118800E+02  0.7818608E-02  0.1130116E+00
         25   -1    0    0    0    0  0.00000000000E+00  0.00000000000E+00  0.99999998245E-14  0.12500000000E+03  0.12500000000E+03 0.  0.
        -11    1    3    3    0    0  0.35584128622E+02  0.14225228366E+02 -0.23670964769E+02  0.45043333638E+02  0.51100000000E-03 0. -1.
         23    2    1    0    0    0 -0.10521450223E+02  0.46216700558E+01 -0.30291839823E+02  0.92601600213E+02  0.86749063702E+02 0.  0.
         11    1    3    3    0    0 -0.46105578845E+02 -0.96035583100E+01 -0.66208750539E+01  0.47558266575E+02  0.51100000000E-03 0.  1.
         22    1    1    0    0    0  0.10521450223E+02 -0.46216700558E+01  0.30291839823E+02  0.32398399787E+02  0.00000000000E+00 0. -1.
</event>
<event>
 5    1  0.1681104E-003  0.9118800E+02  0.7818608E-02  0.1130116E+00
         25   -1    0    0    0    0  0.00000000000E+00  0.00000000000E+00  0.99999998245E-14  0.12500000000E+03  0.12500000000E+03 0.  0.
        -11    1    3    3    0    0 -0.31795945007E+02  0.29295336714E+02 -0.23693051450E+02  0.49300705465E+02  0.51100000000E-03 0.  1.
         23    2    1    0    0    0 -0.27509850990E+02 -0.71183673993E+01  0.53623220613E+01  0.96082573527E+02  0.91627743515E+02 0.  0.
         11    1    3    3    0    0  0.42860940169E+01 -0.36413704113E+02  0.29055373511E+02  0.46781868062E+02  0.51100000000E-03 0. -1.
         22    1    1    0    0    0  0.27509850990E+02  0.71183673993E+01 -0.53623220613E+01  0.28917426473E+02  0.00000000000E+00 0. -1.
</event>
<event>
 5    1  0.1681104E-003  0.9118800E+02  0.7818608E-02  0.1130116E+00
         25   -1    0    0    0    0  0.00000000000E+00  0.00000000000E+00  0.99999998245E-14  0.12500000000E+03  0.12500000000E+03 0.  0.
        -11    1    3    3    0    0 -0.32139813092E+02 -0.11640242129E+02  0.57861777496E+00  0.34187682303E+02  0.51100000000E-03 0.  1.
         23    2    1    0    0    0  0.22855773951E+02  0.11763220290E+02  0.14404160442E+02  0.95534094405E+02  0.90876419390E+02 0.  0.
         11    1    3    3    0    0  0.54995587043E+02  0.23403462420E+02  0.13825542668E+02  0.61346412102E+02  0.51100000000E-03 0. -1.
         22    1    1    0    0    0 -0.22855773951E+02 -0.11763220290E+02 -0.14404160442E+02  0.29465905595E+02  0.00000000000E+00 0. -1.
</event>
<event>
 4    1  0.1681104E-003  0.9118800E+02  0.7818608E-02  0.1130116E+00
         25   -1    0    0    0    0  0.00000000000E+00  0.00000000000E+00  0.99999998245E-14  0.12500000000E+03  0.12500000000E+03 0.  0.
        -11    1    1    0    0    0 -0.17434478148E+02  0.27146163755E+01 -0.16512220196E+02  0.24165752345E+02  0.51100000000E-03 0.  1.
         11    1    1    0    0    0  0.24972620380E+02  0.42488571237E+02 -0.62263476883E+01  0.49675727073E+02  0.51100000000E-03 0. -1.
         22    1    1    0    0    0 -0.75381422323E+01 -0.45203187613E+02  0.22738567884E+02  0.51158520582E+02  0.00000000000E+00 0. -1.
</event>
<event>
 5    1  0.1681104E-003  0.9118800E+02  0.7818608E-02  0.1130116E+00
         25   -1    0    0    0    0  0.00000000000E+00  0.00000000000E+00  0.99999998245E-14  0.12500000000E+03  0.12500000000E+03 0.  0.
        -11    1    3    3    0    0  0.13942614289E+02  0.25044274970E+02  0.18546310691E+02  0.34140560079E+02  0.51100000000E-03 0. -1.
         23    2    1    0    0    0  0.39340681088E+01 -0.31088264486E+02  0.16018537721E+01  0.93622890252E+02  0.88208404152E+02 0.  0.
         11    1    3    3    0    0 -0.10008546180E+02 -0.56132539456E+02 -0.16944456919E+02  0.59482330174E+02  0.51100000000E-03 0.  1.
         22    1    1    0    0    0 -0.39340681088E+01  0.31088264486E+02 -0.16018537721E+01  0.31377109748E+02  0.00000000000E+00 0.  1.
</event>
<event>
 5    1  0.1681104E-003  0.9118800E+02  0.7818608E-02  0.1130116E+00
         25   -1    0    0    0    0  0.00000000000E+00  0.00000000000E+00  0.99999998245E-14  0.12500000000E+03  0.12500000000E+03 0.  0.
        -11    1    3    3    0    0 -0.27200218774E+02  0.24205196161E+02 -0.48174043316E+02  0.60386106616E+02  0.51100000000E-03 0.  1.
         23    2    1    0    0    0 -0.25409744686E+02  0.97040201366E+01 -0.23535249170E+02  0.89031526508E+02  0.81442505039E+02 0.  0.
         11    1    3    3    0    0  0.17904740881E+01 -0.14501176024E+02  0.24638794146E+02  0.28645419892E+02  0.51100000000E-03 0. -1.
         22    1    1    0    0    0  0.25409744686E+02 -0.97040201366E+01  0.23535249170E+02  0.35968473492E+02  0.00000000000E+00 0.  1.
</event>
<event>
 5    1  0.1681104E-003  0.9118800E+02  0.7818608E-02  0.1130116E+00
         25   -1    0    0    0    0  0.00000000000E+00  0.00000000000E+00  0.99999998245E-14  0.12500000000E+03  0.12500000000E+03 0.  0.
        -11    1    3    3    0    0 -0.16259903515E+02  0.10206595954E+02  0.41138895374E+02  0.45397882948E+02  0.51100000000E-03 0. -1.
         23    2    1    0    0    0  0.63995276009E+01  0.29510455593E+02  0.17726043638E+01  0.94751643531E+02  0.89793712936E+02 0.  0.
         11    1    3    3    0    0  0.22659431116E+02  0.19303859640E+02 -0.39366291011E+02  0.49353760583E+02  0.51100000000E-03 0.  1.
         22    1    1    0    0    0 -0.63995276009E+01 -0.29510455593E+02 -0.17726043638E+01  0.30248356469E+02  0.00000000000E+00 0.  1.
</event>
<event>
 5    1  0.1681104E-003  0.9118800E+02  0.7818608E-02  0.1130116E+00
         25   -1    0    0    0    0  0.00000000000E+00  0.00000000000E+00  0.99999998245E-14  0.12500000000E+03  0.12500000000E+03 0.  0.
        -11    1    3    3    0    0  0.25201370800E+01  0.36392178441E+01  0.37815981749E+02  0.38074183817E+02  0.51100000000E-03 0.  1.
         23    2    1    0    0    0  0.10655268565E+02  0.68593658290E+01 -0.22583489896E+02  0.99104060866E+02  0.95660938823E+02 0.  0.
         11    1    3    3    0    0  0.81351314849E+01  0.32201479849E+01 -0.60399471645E+02  0.61029877049E+02  0.51100000000E-03 0. -1.
         22    1    1    0    0    0 -0.10655268565E+02 -0.68593658290E+01  0.22583489896E+02  0.25895939134E+02  0.00000000000E+00 0. -1.
</event>
<event>
 5    1  0.1681104E-003  0.9118800E+02  0.7818608E-02  0.1130116E+00
         25   -1    0    0    0    0  0.00000000000E+00  0.00000000000E+00  0.99999998245E-14  0.12500000000E+03  0.12500000000E+03 0.  0.
        -11    1    3    3    0    0 -0.30498465550E+02  0.41395974675E+00  0.29551754711E+01  0.30644099365E+02  0.51100000000E-03 0. -1.
         23    2    1    0    0    0  0.28358047642E+02 -0.16830154469E+02  0.69203125874E+00  0.92016490896E+02  0.85901820260E+02 0.  0.
         11    1    3    3    0    0  0.58856513192E+02 -0.17244114216E+02 -0.22631442123E+01  0.61372391531E+02  0.51100000000E-03 0.  1.
         22    1    1    0    0    0 -0.28358047642E+02  0.16830154469E+02 -0.69203125874E+00  0.32983509104E+02  0.00000000000E+00 0.  1.
</event>
<event>
 5    1  0.1681104E-003  0.9118800E+02  0.7818608E-02  0.1130116E+00
         25   -1    0    0    0    0  0.00000000000E+00  0.00000000000E+00  0.99999998245E-14  0.12500000000E+03  0.12500000000E+03 0.  0.
        -11    1    3    3    0    0  0.42589294760E+02  0.17174894483E+02  0.15747902428E+01  0.45948938978E+02  0.51100000000E-03 0. -1.
         23    2    1    0    0    0 -0.23161881605E+01  0.13064758433E+02  0.24950484224E+02  0.96740854516E+02  0.92521422540E+02 0.  0.
         11    1    3    3    0    0 -0.44905482920E+02 -0.41101360499E+01  0.23375693981E+02  0.50791915538E+02  0.51100000000E-03 0.  1.
         22    1    1    0    0    0  0.23161881605E+01 -0.13064758433E+02 -0.24950484224E+02  0.28259145484E+02  0.00000000000E+00 0.  1.
</event>
<event>
 5    1  0.1681104E-003  0.9118800E+02  0.7818608E-02  0.1130116E+00
         25   -1    0    0    0    0  0.00000000000E+00  0.00000000000E+00  0.99999998245E-14  0.12500000000E+03  0.12500000000E+03 0.  0.
        -11    1    3    3    0    0  0.15919526369E+02 -0.50050822138E+02 -0.33399530017E+02  0.62241824540E+02  0.51100000000E-03 0.  1.
         23    2    1    0    0    0  0.38055373895E+01 -0.24172144733E+02 -0.17221430865E+02  0.95077560647E+02  0.90246275057E+02 0.  0.
         11    1    3    3    0    0 -0.12113988979E+02  0.25878677405E+02  0.16178099152E+02  0.32835736106E+02  0.51100000000E-03 0. -1.
         22    1    1    0    0    0 -0.38055373895E+01  0.24172144733E+02  0.17221430865E+02  0.29922439353E+02  0.00000000000E+00 0.  1.
</event>
<event>
 5    1  0.1681104E-003  0.9118800E+02  0.7818608E-02  0.1130116E+00
         25   -1    0    0    0    0  0.00000000000E+00  0.00000000000E+00  0.99999998245E-14  0.12500000000E+03  0.12500000000E+03 0.  0.
        -11    1    3    3    0    0  0.33575675749E+02 -0.67905696253E+01  0.10634664102E+02  0.35868285694E+02  0.51100000000E-03 0. -1.
         23    2    1    0    0    0 -0.14403259031E+02 -0.35372016494E-01 -0.25091966079E+02  0.96067978232E+02  0.91607830222E+02 0.  0.
         11    1    3    3    0    0 -0.47978934779E+02  0.67551976088E+01 -0.35726630181E+02  0.60199692538E+02  0.51100000000E-03 0.  1.
         22    1    1    0    0    0  0.14403259031E+02  0.35372016494E-01  0.25091966079E+02  0.28932021768E+02  0.00000000000E+00 0.  1.
</event>
<event>
 5    1  0.1681104E-003  0.9118800E+02  0.7818608E-02  0.1130116E+00
         25   -1    0    0    0    0  0.00000000000E+00  0.00000000000E+00  0.99999998245E-14  0.12500000000E+03  0.12500000000E+03 0.  0.
        -11    1    3    3    0    0  0.39501187382E+02 -0.45726390756E+02 -0.63094009979E+01  0.60754054658E+02  0.51100000000E-03 0.  1.
         23    2    1    0    0    0  0.20895504807E+02 -0.20906677546E+02  0.71838734990E+01  0.94580938121E+02  0.89555762127E+02 0.  0.
         11    1    3    3    0    0 -0.18605682575E+02  0.24819713210E+02  0.13493274497E+02  0.33826883463E+02  0.51100000000E-03 0. -1.
         22    1    1    0    0    0 -0.20895504807E+02  0.20906677546E+02 -0.71838734990E+01  0.30419061879E+02  0.00000000000E+00 0.  1.
</event>
<event>
 5    1  0.1681104E-003  0.9118800E+02  0.7818608E-02  0.1130116E+00
         25   -1    0    0    0    0  0.00000000000E+00  0.00000000000E+00  0.99999998245E-14  0.12500000000E+03  0.12500000000E+03 0.  0.
        -11    1    3    3    0    0  0.56091893684E+02 -0.15803744163E+01 -0.17713625094E+02  0.58843611672E+02  0.51100000000E-03 0. -1.
         23    2    1    0    0    0  0.20350610104E+02  0.65724252232E+01 -0.20193916639E+02  0.95586765323E+02  0.90948839085E+02 0.  0.
         11    1    3    3    0    0 -0.35741283579E+02  0.81527996395E+01 -0.24802915444E+01  0.36743153652E+02  0.51100000000E-03 0.  1.
         22    1    1    0    0    0 -0.20350610104E+02 -0.65724252232E+01  0.20193916639E+02  0.29413234677E+02  0.00000000000E+00 0. -1.
</event>
<event>
 5    1  0.1681104E-003  0.9118800E+02  0.7818608E-02  0.1130116E+00
         25   -1    0    0    0    0  0.00000000000E+00  0.00000000000E+00  0.99999998245E-14  0.12500000000E+03  0.12500000000E+03 0.  0.
        -11    1    3    3    0    0 -0.39362664037E+02 -0.21545340733E+02  0.34978318895E+02  0.56895551851E+02  0.51100000000E-03 0.  1.
         23    2    1    0    0    0 -0.14793227813E+02 -0.24760397919E+02  0.51038188268E+01  0.95708945720E+02  0.91116608969E+02 0.  0.
         11    1    3    3    0    0  0.24569436224E+02 -0.32150571856E+01 -0.29874500068E+02  0.38813393869E+02  0.51100000000E-03 0. -1.
         22    1    1    0    0    0  0.14793227813E+02  0.24760397919E+02 -0.51038188268E+01  0.29291054280E+02  0.00000000000E+00 0.  1.
</event>
<event>
 5    1  0.1681104E-003  0.9118800E+02  0.7818608E-02  0.1130116E+00
         25   -1    0    0    0    0  0.00000000000E+00  0.00000000000E+00  0.99999998245E-14  0.12500000000E+03  0.12500000000E+03 0.  0.
        -11    1    3    3    0    0  0.53900677421E+01  0.10043066393E+02 -0.36528514657E+02  0.38265498771E+02  0.51100000000E-03 0.  1.
         23    2    1    0    0    0  0.21077010585E+02 -0.18999421686E+02  0.96495496298E+01  0.95027809428E+02  0.90177338378E+02 0.  0.
         11    1    3    3    0    0  0.15686942843E+02 -0.29042488079E+02  0.46178064287E+02  0.56762310657E+02  0.51100000000E-03 0. -1.
         22    1    1    0    0    0 -0.21077010585E+02  0.18999421686E+02 -0.96495496298E+01  0.29972190572E+02  0.00000000000E+00 0. -1.
</event>
<event>
 5    1  0.1681104E-003  0.9118800E+02  0.7818608E-02  0.1130116E+00
         25   -1    0    0    0    0  0.00000000000E+00  0.00000000000E+00  0.99999998245E-14  0.12500000000E+03  0.12500000000E+03 0.  0.
        -11    1    3    3    0    0  0.10981456262E+02  0.38777843892E+02 -0.20189854490E+02  0.45077087119E+02  0.51100000000E-03 0.  1.
         23    2    1    0    0    0 -0.25062736632E+02  0.21503876096E+02  0.39030140234E+01  0.91746564491E+02  0.85508134834E+02 0.  0.
         11    1    3    3    0    0 -0.36044192894E+02 -0.17273967795E+02  0.24092868513E+02  0.46669477373E+02  0.51100000000E-03 0. -1.
         22    1    1    0    0    0  0.25062736632E+02 -0.21503876096E+02 -0.39030140234E+01  0.33253435509E+02  0.00000000000E+00 0. -1.
</event>
<event>
 5    1  0.1681104E-003  0.9118800E+02  0.7818608E-02  0.1130116E+00
         25   -1    0    0    0    0  0.00000000000E+00  0.00000000000E+00  0.99999998245E-14  0.12500000000E+03  0.12500000000E+03 0.  0.
        -11    1    3    3    0    0 -0.46826004545E+02  0.29191928062E+01  0.38303509273E+02  0.60566948174E+02  0.51100000000E-03 0.  1.
         23    2    1    0    0    0 -0.12951648908E+02  0.14715697831E+01  0.24645352933E+02  0.97119825176E+02  0.93032017574E+02 0.  0.
         11    1    3    3    0    0  0.33874355637E+02 -0.14476230230E+01 -0.13658156340E+02  0.36552877002E+02  0.51100000000E-03 0. -1.
         22    1    1    0    0    0  0.12951648908E+02 -0.14715697831E+01 -0.24645352933E+02  0.27880174824E+02  0.00000000000E+00 0.  1.
</event>
<event>
 5    1  0.1681104E-003  0.9118800E+02  0.7818608E-02  0.1130116E+00
         25   -1    0    0    0    0  0.00000000000E+00  0.00000000000E+00  0.99999998245E-14  0.12500000000E+03  0.12500000000E+03 0.  0.
        -11    1    3    3    0    0 -0.16427398235E+02 -0.45273295083E+02  0.10857567797E+01  0.48173743144E+02  0.51100000000E-03 0.  1.
         23    2    1    0    0    0 -0.18483921929E+01 -0.72017618529E+01  0.27342217329E+02  0.96664884402E+02  0.92418727001E+02 0.  0.
         11    1    3    3    0    0  0.14579006042E+02  0.38071533230E+02  0.26256460549E+02  0.48491141258E+02  0.51100000000E-03 0. -1.
         22    1    1    0    0    0  0.18483921929E+01  0.72017618529E+01 -0.27342217329E+02  0.28335115598E+02  0.00000000000E+00 0. -1.
</event>
<event>
 5    1  0.1681104E-003  0.9118800E+02  0.7818608E-02  0.1130116E+00
         25   -1    0    0    0    0  0.00000000000E+00  0.00000000000E+00  0.99999998245E-14  0.12500000000E+03  0.12500000000E+03 0.  0.
        -11    1    3    3    0    0  0.33387498249E+02 -0.60275040484E+01 -0.93240180750E+01  0.35185126939E+02  0.51100000000E-03 0.  1.
         23    2    1    0    0    0 -0.22194630981E+02 -0.16357962203E+02  0.11075801363E+02  0.95287074401E+02  0.90536007203E+02 0.  0.
         11    1    3    3    0    0 -0.55582129230E+02 -0.10330458154E+02  0.20399819438E+02  0.60101947462E+02  0.51100000000E-03 0. -1.
         22    1    1    0    0    0  0.22194630981E+02  0.16357962203E+02 -0.11075801363E+02  0.29712925599E+02  0.00000000000E+00 0. -1.
</event>
<event>
 5    1  0.1681104E-003  0.9118800E+02  0.7818608E-02  0.1130116E+00
         25   -1    0    0    0    0  0.00000000000E+00  0.00000000000E+00  0.99999998245E-14  0.12500000000E+03  0.12500000000E+03 0.  0.
        -11    1    3    3    0    0 -0.66217679600E+01  0.37310127926E+02  0.37491945575E+02  0.53306091959E+02  0.51100000000E-03 0. -1.
         23    2    1    0    0    0 -0.32585173592E+01  0.28946518397E+02 -0.38481111329E+01  0.95617576308E+02  0.90991175820E+02 0.  0.
         11    1    3    3    0    0  0.33632506007E+01 -0.83636095282E+01 -0.41340056708E+02  0.42311484349E+02  0.51100000000E-03 0.  1.
         22    1    1    0    0    0  0.32585173592E+01 -0.28946518397E+02  0.38481111329E+01  0.29382423692E+02  0.00000000000E+00 0. -1.
</event>
<event>
 5    1  0.1681104E-003  0.9118800E+02  0.7818608E-02  0.1130116E+00
         25   -1    0    0    0    0  0.00000000000E+00  0.00000000000E+00  0.99999998245E-14  0.12500000000E+03  0.12500000000E+03 0.  0.
        -11    1    3    3    0    0 -0.16537604705E+02  0.56443787901E+02  0.11632631747E+00  0.58816724612E+02  0.51100000000E-03 0. -1.
         23    2    1    0    0    0 -0.70413354651E+01  0.24175963365E+02  0.15099686765E+02  0.95639173204E+02  0.91020839927E+02 0.  0.
         11    1    3    3    0    0  0.94962692396E+01 -0.32267824536E+02  0.14983360448E+02  0.36822448592E+02  0.51100000000E-03 0.  1.
         22    1    1    0    0    0  0.70413354651E+01 -0.24175963365E+02 -0.15099686765E+02  0.29360826796E+02  0.00000000000E+00 0. -1.
</event>
<event>
 5    1  0.1681104E-003  0.9118800E+02  0.7818608E-02  0.1130116E+00
         25   -1    0    0    0    0  0.00000000000E+00  0.00000000000E+00  0.99999998245E-14  0.12500000000E+03  0.12500000000E+03 0.  0.
        -11    1    3    3    0    0 -0.39750362990E+02 -0.64377061928E+01 -0.47227140655E+02  0.62063984996E+02  0.51100000000E-03 0.  1.
         23    2    1    0    0    0 -0.13892140665E+02 -0.36173180448E+01 -0.24492581302E+02  0.96610510732E+02  0.92345155167E+02 0.  0.
         11    1    3    3    0    0  0.25858222325E+02  0.28203881480E+01  0.22734559353E+02  0.34546525735E+02  0.51100000000E-03 0. -1.
         22    1    1    0    0    0  0.13892140665E+02  0.36173180448E+01  0.24492581302E+02  0.28389489268E+02  0.00000000000E+00 0.  1.
</event>
<event>
 5    1  0.1681104E-003  0.9118800E+02  0.7818608E-02  0.1130116E+00
         25   -1    0    0    0    0  0.00000000000E+00  0.00000000000E+00  0.99999998245E-14  0.12500000000E+03  0.12500000000E+03 0.  0.
        -11    1    3    3    0    0  0.23136194247E+02 -0.26360632188E+01  0.98854936830E+01  0.25297337787E+02  0.51100000000E-03 0.  1.
         23    2    1    0    0    0 -0.23335931306E+02  0.23857253955E+01 -0.30120617698E+02  0.86822663974E+02  0.77978625234E+02 0.  0.
         11    1    3    3    0    0 -0.46472125552E+02  0.50217886143E+01 -0.40006111381E+02  0.61525326186E+02  0.51100000000E-03 0. -1.
         22    1    1    0    0    0  0.23335931306E+02 -0.23857253955E+01  0.30120617698E+02  0.38177336026E+02  0.00000000000E+00 0. -1.
</event>
<event>
 5    1  0.1681104E-003  0.9118800E+02  0.7818608E-02  0.1130116E+00
         25   -1    0    0    0    0  0.00000000000E+00  0.00000000000E+00  0.99999998245E-14  0.12500000000E+03  0.12500000000E+03 0.  0.
        -11    1    3    3    0    0 -0.29625084452E+02 -0.11753602104E+02 -0.10840149615E+02  0.33664545669E+02  0.51100000000E-03 0. -1.
         23    2    1    0    0    0  0.20133787236E+02  0.16142891186E+02  0.13721258538E+02  0.95772696666E+02  0.91204024947E+02 0.  0.
         11    1    3    3    0    0  0.49758871687E+02  0.27896493290E+02  0.24561408153E+02  0.62108150997E+02  0.51100000000E-03 0.  1.
         22    1    1    0    0    0 -0.20133787236E+02 -0.16142891186E+02 -0.13721258538E+02  0.29227303334E+02  0.00000000000E+00 0.  1.
</event>
<event>
 5    1  0.1681104E-003  0.9118800E+02  0.7818608E-02  0.1130116E+00
         25   -1    0    0    0    0  0.00000000000E+00  0.00000000000E+00  0.99999998245E-14  0.12500000000E+03  0.12500000000E+03 0.  0.
        -11    1    3    3    0    0 -0.23255699207E+02  0.27418575654E+02 -0.12114335618E+02  0.37938937310E+02  0.51100000000E-03 0.  1.
         23    2    1    0    0    0 -0.18392777890E+02 -0.22216879549E+02  0.12511888454E+02  0.93560671634E+02  0.88120190130E+02 0.  0.
         11    1    3    3    0    0  0.48629213169E+01 -0.49635455203E+02  0.24626224072E+02  0.55621734324E+02  0.51100000000E-03 0. -1.
         22    1    1    0    0    0  0.18392777890E+02  0.22216879549E+02 -0.12511888454E+02  0.31439328366E+02  0.00000000000E+00 0. -1.
</event>
<event>
 5    1  0.1681104E-003  0.9118800E+02  0.7818608E-02  0.1130116E+00
         25   -1    0    0    0    0  0.00000000000E+00  0.00000000000E+00  0.99999998245E-14  0.12500000000E+03  0.12500000000E+03 0.  0.
        -11    1    3    3    0    0  0.16176541584E+02  0.52508969792E+02 -0.20333420413E+02  0.58586008502E+02  0.51100000000E-03 0. -1.
         23    2    1    0    0    0 -0.64271466096E+01  0.27037050327E+02 -0.16045672281E+02  0.92909909584E+02  0.87192186554E+02 0.  0.
         11    1    3    3    0    0 -0.22603688194E+02 -0.25471919465E+02  0.42877481314E+01  0.34323901082E+02  0.51100000000E-03 0.  1.
         22    1    1    0    0    0  0.64271466096E+01 -0.27037050327E+02  0.16045672281E+02  0.32090090416E+02  0.00000000000E+00 0. -1.
</event>
<event>
 5    1  0.1681104E-003  0.9118800E+02  0.7818608E-02  0.1130116E+00
         25   -1    0    0    0    0  0.00000000000E+00  0.00000000000E+00  0.99999998245E-14  0.12500000000E+03  0.12500000000E+03 0.  0.
        -11    1    3    3    0    0 -0.26730409894E+02 -0.99068197033E+01  0.24363050172E+02  0.37499574713E+02  0.51100000000E-03 0.  1.
         23    2    1    0    0    0  0.48344620864E+01  0.28989128058E+02 -0.44317469501E+01  0.95278257954E+02  0.90523833814E+02 0.  0.
         11    1    3    3    0    0  0.31564871981E+02  0.38895947762E+02 -0.28794797122E+02  0.57778683240E+02  0.51100000000E-03 0. -1.
         22    1    1    0    0    0 -0.48344620864E+01 -0.28989128058E+02  0.44317469501E+01  0.29721742046E+02  0.00000000000E+00 0. -1.
</event>
<event>
 5    1  0.1681104E-003  0.9118800E+02  0.7818608E-02  0.1130116E+00
         25   -1    0    0    0    0  0.00000000000E+00  0.00000000000E+00  0.99999998245E-14  0.12500000000E+03  0.12500000000E+03 0.  0.
        -11    1    3    3    0    0 -0.19194715171E+02  0.15191550361E+02 -0.35904327324E+02  0.43455045895E+02  0.51100000000E-03 0.  1.
         23    2    1    0    0    0 -0.12181861829E+02  0.22120024872E+02  0.15216151740E+02  0.95517385941E+02  0.90853434086E+02 0.  0.
         11    1    3    3    0    0  0.70128533421E+01  0.69284745113E+01  0.51120479064E+02  0.52062340046E+02  0.51100000000E-03 0. -1.
         22    1    1    0    0    0  0.12181861829E+02 -0.22120024872E+02 -0.15216151740E+02  0.29482614059E+02  0.00000000000E+00 0. -1.
</event>
<event>
 5    1  0.1681104E-003  0.9118800E+02  0.7818608E-02  0.1130116E+00
         25   -1    0    0    0    0  0.00000000000E+00  0.00000000000E+00  0.99999998245E-14  0.12500000000E+03  0.12500000000E+03 0.  0.
        -11    1    3    3    0    0  0.31619858329E+02 -0.49761476813E+02 -0.11035626678E+01  0.58968108891E+02  0.51100000000E-03 0.  1.
         23    2    1    0    0    0  0.62843441141E+01 -0.27467160779E+02  0.10901493863E+02  0.94787743039E+02  0.89843952272E+02 0.  0.
         11    1    3    3    0    0 -0.25335514215E+02  0.22294316034E+02  0.12005056531E+02  0.35819634148E+02  0.51100000000E-03 0. -1.
         22    1    1    0    0    0 -0.62843441141E+01  0.27467160779E+02 -0.10901493863E+02  0.30212256961E+02  0.00000000000E+00 0.  1.
</event>
<event>
 5    1  0.1681104E-003  0.9118800E+02  0.7818608E-02  0.1130116E+00
         25   -1    0    0    0    0  0.00000000000E+00  0.00000000000E+00  0.99999998245E-14  0.12500000000E+03  0.12500000000E+03 0.  0.
        -11    1    3    3    0    0  0.30526968636E+02 -0.19981283385E+02 -0.14956351771E+02  0.39431458994E+02  0.51100000000E-03 0.  1.
         23    2    1    0    0    0 -0.21726943007E+02 -0.17768240990E+00 -0.19907875771E+02  0.95531115712E+02  0.90872322123E+02 0.  0.
         11    1    3    3    0    0 -0.52253911644E+02  0.19803600975E+02 -0.49515239996E+01  0.56099656718E+02  0.51100000000E-03 0. -1.
         22    1    1    0    0    0  0.21726943007E+02  0.17768240990E+00  0.19907875771E+02  0.29468884288E+02  0.00000000000E+00 0.  1.
</event>
<event>
 5    1  0.1681104E-003  0.9118800E+02  0.7818608E-02  0.1130116E+00
         25   -1    0    0    0    0  0.00000000000E+00  0.00000000000E+00  0.99999998245E-14  0.12500000000E+03  0.12500000000E+03 0.  0.
        -11    1    3    3    0    0  0.62294078879E+01  0.30899631205E+02 -0.45208044704E+02  0.55112249432E+02  0.51100000000E-03 0.  1.
         23    2    1    0    0    0 -0.13841182832E+02 -0.21770785166E+00 -0.22601167127E+02  0.98496443741E+02  0.94863643906E+02 0.  0.
         11    1    3    3    0    0 -0.20070590720E+02 -0.31117339057E+02  0.22606877577E+02  0.43384194309E+02  0.51100000000E-03 0. -1.
         22    1    1    0    0    0  0.13841182832E+02  0.21770785166E+00  0.22601167127E+02  0.26503556259E+02  0.00000000000E+00 0.  1.
</event>
<event>
 5    1  0.1681104E-003  0.9118800E+02  0.7818608E-02  0.1130116E+00
         25   -1    0    0    0    0  0.00000000000E+00  0.00000000000E+00  0.99999998245E-14  0.12500000000E+03  0.12500000000E+03 0.  0.
        -11    1    3    3    0    0  0.30375062082E+02  0.17065841084E+01 -0.17436923516E+02  0.35065697309E+02  0.51100000000E-03 0. -1.
         23    2    1    0    0    0 -0.26582428982E+02 -0.11694170759E+02 -0.59927279538E+00  0.95952826502E+02  0.91450569301E+02 0.  0.
         11    1    3    3    0    0 -0.56957491064E+02 -0.13400754867E+02  0.16837650721E+02  0.60887129193E+02  0.51100000000E-03 0.  1.
         22    1    1    0    0    0  0.26582428982E+02  0.11694170759E+02  0.59927279538E+00  0.29047173498E+02  0.00000000000E+00 0.  1.
</event>
<event>
 5    1  0.1681104E-003  0.9118800E+02  0.7818608E-02  0.1130116E+00
         25   -1    0    0    0    0  0.00000000000E+00  0.00000000000E+00  0.99999998245E-14  0.12500000000E+03  0.12500000000E+03 0.  0.
        -11    1    3    3    0    0 -0.24454273526E+02  0.71226145310E+01  0.26663885235E+02  0.36874190263E+02  0.51100000000E-03 0. -1.
         23    2    1    0    0    0  0.16741468858E+02 -0.25884569795E+02  0.58180423539E+01  0.93629036517E+02  0.88217113585E+02 0.  0.
         11    1    3    3    0    0  0.41195742383E+02 -0.33007184326E+02 -0.20845842882E+02  0.56754846254E+02  0.51100000000E-03 0.  1.
         22    1    1    0    0    0 -0.16741468858E+02  0.25884569795E+02 -0.58180423539E+01  0.31370963483E+02  0.00000000000E+00 0.  1.
</event>
<event>
 5    1  0.1681104E-003  0.9118800E+02  0.7818608E-02  0.1130116E+00
         25   -1    0    0    0    0  0.00000000000E+00  0.00000000000E+00  0.99999998245E-14  0.12500000000E+03  0.12500000000E+03 0.  0.
        -11    1    3    3    0    0  0.39822941546E+02  0.40855075256E+01  0.20434593461E+02  0.44945863606E+02  0.51100000000E-03 0.  1.
         23    2    1    0    0    0 -0.77904628459E+01 -0.14493474252E+02  0.23686468930E+02  0.96159040973E+02  0.91732002285E+02 0.  0.
         11    1    3    3    0    0 -0.47613404392E+02 -0.18578981778E+02  0.32518754686E+01  0.51213177367E+02  0.51100000000E-03 0. -1.
         22    1    1    0    0    0  0.77904628459E+01  0.14493474252E+02 -0.23686468930E+02  0.28840959027E+02  0.00000000000E+00 0. -1.
</event>
<event>
 5    1  0.1681104E-003  0.9118800E+02  0.7818608E-02  0.1130116E+00
         25   -1    0    0    0    0  0.00000000000E+00  0.00000000000E+00  0.99999998245E-14  0.12500000000E+03  0.12500000000E+03 0.  0.
        -11    1    3    3    0    0 -0.46615019533E+01 -0.33160820069E+02 -0.25531623995E+01  0.33584047204E+02  0.51100000000E-03 0.  1.
         23    2    1    0    0    0  0.61508912979E+00  0.27249558483E+02  0.10807835161E+02  0.95678914191E+02  0.91075400344E+02 0.  0.
         11    1    3    3    0    0  0.52765910831E+01  0.60410378551E+02  0.13360997560E+02  0.62094866988E+02  0.51100000000E-03 0. -1.
         22    1    1    0    0    0 -0.61508912979E+00 -0.27249558483E+02 -0.10807835161E+02  0.29321085809E+02  0.00000000000E+00 0. -1.
</event>
<event>
 5    1  0.1681104E-003  0.9118800E+02  0.7818608E-02  0.1130116E+00
         25   -1    0    0    0    0  0.00000000000E+00  0.00000000000E+00  0.99999998245E-14  0.12500000000E+03  0.12500000000E+03 0.  0.
        -11    1    3    3    0    0 -0.88067630727E+01  0.54491915239E+00  0.16830648078E+02  0.19003334647E+02  0.51100000000E-03 0.  1.
         23    2    1    0    0    0  0.40367017477E+02 -0.17154361255E+02 -0.13094102578E+02  0.79226386068E+02  0.64665265151E+02 0.  0.
         11    1    3    3    0    0  0.49173780550E+02 -0.17699280407E+02 -0.29924750656E+02  0.60223051422E+02  0.51100000000E-03 0. -1.
         22    1    1    0    0    0 -0.40367017477E+02  0.17154361255E+02  0.13094102578E+02  0.45773613932E+02  0.00000000000E+00 0. -1.
</event>
<event>
 5    1  0.1681104E-003  0.9118800E+02  0.7818608E-02  0.1130116E+00
         25   -1    0    0    0    0  0.00000000000E+00  0.00000000000E+00  0.99999998245E-14  0.12500000000E+03  0.12500000000E+03 0.  0.
        -11    1    3    3    0    0 -0.26947185365E+02 -0.29471119192E+02  0.45411760884E+01  0.40191043107E+02  0.51100000000E-03 0.  1.
         23    2    1    0    0    0 -0.10937523734E+02  0.17711858317E+02 -0.20350995372E+02  0.95888106157E+02  0.91362062911E+02 0.  0.
         11    1    3    3    0    0  0.16009661631E+02  0.47182977509E+02 -0.24892171460E+02  0.55697063050E+02  0.51100000000E-03 0. -1.
         22    1    1    0    0    0  0.10937523734E+02 -0.17711858317E+02  0.20350995372E+02  0.29111893843E+02  0.00000000000E+00 0. -1.
</event>
<event>
 5    1  0.1681104E-003  0.9118800E+02  0.7818608E-02  0.1130116E+00
         25   -1    0    0    0    0  0.00000000000E+00  0.00000000000E+00  0.99999998245E-14  0.12500000000E+03  0.12500000000E+03 0.  0.
        -11    1    3    3    0    0 -0.38989184882E+02 -0.11052277355E+02  0.14442474244E+02  0.43022022675E+02  0.51100000000E-03 0.  1.
         23    2    1    0    0    0  0.86781290307E+01  0.74890254081E+01  0.26982809741E+02  0.95683324770E+02  0.91081453614E+02 0.  0.
         11    1    3    3    0    0  0.47667313912E+02  0.18541302763E+02  0.12540335497E+02  0.52661302095E+02  0.51100000000E-03 0. -1.
         22    1    1    0    0    0 -0.86781290307E+01 -0.74890254081E+01 -0.26982809741E+02  0.29316675230E+02  0.00000000000E+00 0.  1.
</event>
<event>
 5    1  0.1681104E-003  0.9118800E+02  0.7818608E-02  0.1130116E+00
         25   -1    0    0    0    0  0.00000000000E+00  0.00000000000E+00  0.99999998245E-14  0.12500000000E+03  0.12500000000E+03 0.  0.
        -11    1    3    3    0    0 -0.17271357167E+02 -0.23239281853E+02 -0.27216887715E+02  0.39738180338E+02  0.51100000000E-03 0.  1.
         23    2    1    0    0    0  0.15730892646E+02 -0.17534575858E+02  0.17534035975E+02  0.95633952402E+02  0.91013669855E+02 0.  0.
         11    1    3    3    0    0  0.33002249812E+02  0.57047059945E+01  0.44750923691E+02  0.55895772064E+02  0.51100000000E-03 0. -1.
         22    1    1    0    0    0 -0.15730892646E+02  0.17534575858E+02 -0.17534035975E+02  0.29366047598E+02  0.00000000000E+00 0.  1.
</event>
<event>
 5    1  0.1681104E-003  0.9118800E+02  0.7818608E-02  0.1130116E+00
         25   -1    0    0    0    0  0.00000000000E+00  0.00000000000E+00  0.99999998245E-14  0.12500000000E+03  0.12500000000E+03 0.  0.
        -11    1    3    3    0    0 -0.29786019364E+02  0.41724828793E+02  0.32030749915E+02  0.60449460111E+02  0.51100000000E-03 0.  1.
         23    2    1    0    0    0 -0.19117810735E+02  0.10492202096E+02  0.19477309926E+02  0.95760598603E+02  0.91187442396E+02 0.  0.
         11    1    3    3    0    0  0.10668208629E+02 -0.31232626697E+02 -0.12553439989E+02  0.35311138491E+02  0.51100000000E-03 0. -1.
         22    1    1    0    0    0  0.19117810735E+02 -0.10492202096E+02 -0.19477309926E+02  0.29239401397E+02  0.00000000000E+00 0.  1.
</event>
<event>
 5    1  0.1681104E-003  0.9118800E+02  0.7818608E-02  0.1130116E+00
         25   -1    0    0    0    0  0.00000000000E+00  0.00000000000E+00  0.99999998245E-14  0.12500000000E+03  0.12500000000E+03 0.  0.
        -11    1    3    3    0    0 -0.91802162031E+01  0.36812504185E+02 -0.89395312654E+00  0.37950441188E+02  0.51100000000E-03 0.  1.
         23    2    1    0    0    0  0.22764189272E+02 -0.51028620784E+01  0.19634490164E+02  0.94508022062E+02  0.89453929570E+02 0.  0.
         11    1    3    3    0    0  0.31944405475E+02 -0.41915366263E+02  0.20528443290E+02  0.56557580874E+02  0.51100000000E-03 0. -1.
         22    1    1    0    0    0 -0.22764189272E+02  0.51028620784E+01 -0.19634490164E+02  0.30491977938E+02  0.00000000000E+00 0. -1.
</event>
<event>
 5    1  0.1681104E-003  0.9118800E+02  0.7818608E-02  0.1130116E+00
         25   -1    0    0    0    0  0.00000000000E+00  0.00000000000E+00  0.99999998245E-14  0.12500000000E+03  0.12500000000E+03 0.  0.
        -11    1    3    3    0    0 -0.16066215135E+01  0.58943851281E+02  0.28823015673E+01  0.59036145700E+02  0.51100000000E-03 0. -1.
         23    2    1    0    0    0 -0.15202136470E+02  0.25182310776E+02  0.29974505939E+01  0.95432476611E+02  0.90736537033E+02 0.  0.
         11    1    3    3    0    0 -0.13595514957E+02 -0.33761540505E+02  0.11514902655E+00  0.36396330911E+02  0.51100000000E-03 0.  1.
         22    1    1    0    0    0  0.15202136470E+02 -0.25182310776E+02 -0.29974505939E+01  0.29567523389E+02  0.00000000000E+00 0. -1.
</event>
<event>
 5    1  0.1681104E-003  0.9118800E+02  0.7818608E-02  0.1130116E+00
         25   -1    0    0    0    0  0.00000000000E+00  0.00000000000E+00  0.99999998245E-14  0.12500000000E+03  0.12500000000E+03 0.  0.
        -11    1    3    3    0    0 -0.38005288658E+02  0.33642733085E+02  0.59410682538E+01  0.51103148119E+02  0.51100000000E-03 0.  1.
         23    2    1    0    0    0 -0.29634228184E+02 -0.83867257847E+01  0.20802025521E+01  0.94131700855E+02  0.88926515808E+02 0.  0.
         11    1    3    3    0    0  0.83710604738E+01 -0.42029458870E+02 -0.38608657017E+01  0.43028552736E+02  0.51100000000E-03 0. -1.
         22    1    1    0    0    0  0.29634228184E+02  0.83867257847E+01 -0.20802025521E+01  0.30868299145E+02  0.00000000000E+00 0.  1.
</event>
<event>
 5    1  0.1681104E-003  0.9118800E+02  0.7818608E-02  0.1130116E+00
         25   -1    0    0    0    0  0.00000000000E+00  0.00000000000E+00  0.99999998245E-14  0.12500000000E+03  0.12500000000E+03 0.  0.
        -11    1    3    3    0    0 -0.40216250704E+02 -0.34963510133E+02  0.24508268805E+02  0.58655341629E+02  0.51100000000E-03 0.  1.
         23    2    1    0    0    0 -0.24468543986E+02 -0.16540422689E+02 -0.29953012710E+01  0.95313857488E+02  0.90572978156E+02 0.  0.
         11    1    3    3    0    0  0.15747706718E+02  0.18423087444E+02 -0.27503570076E+02  0.36658515860E+02  0.51100000000E-03 0. -1.
         22    1    1    0    0    0  0.24468543986E+02  0.16540422689E+02  0.29953012710E+01  0.29686142512E+02  0.00000000000E+00 0.  1.
</event>
<event>
 5    1  0.1681104E-003  0.9118800E+02  0.7818608E-02  0.1130116E+00
         25   -1    0    0    0    0  0.00000000000E+00  0.00000000000E+00  0.99999998245E-14  0.12500000000E+03  0.12500000000E+03 0.  0.
        -11    1    3    3    0    0 -0.17096372938E+02  0.20509379238E+02  0.44054030256E+02  0.51513864022E+02  0.51100000000E-03 0.  1.
         23    2    1    0    0    0 -0.23229099243E+02  0.49079466292E+01 -0.26266032400E+01  0.10111322466E+03  0.98251240012E+02 0.  0.
         11    1    3    3    0    0 -0.61327263053E+01 -0.15601432609E+02 -0.46680633496E+02  0.49599360634E+02  0.51100000000E-03 0. -1.
         22    1    1    0    0    0  0.23229099243E+02 -0.49079466292E+01  0.26266032400E+01  0.23886775344E+02  0.00000000000E+00 0. -1.
</event>
<event>
 5    1  0.1681104E-003  0.9118800E+02  0.7818608E-02  0.1130116E+00
         25   -1    0    0    0    0  0.00000000000E+00  0.00000000000E+00  0.99999998245E-14  0.12500000000E+03  0.12500000000E+03 0.  0.
        -11    1    3    3    0    0  0.37427453028E+02  0.15971362962E+01  0.51413667824E+00  0.37465042657E+02  0.51100000000E-03 0.  1.
         23    2    1    0    0    0 -0.69913889912E+01  0.19149710278E+02  0.26285550274E+02  0.91735588432E+02  0.85492087985E+02 0.  0.
         11    1    3    3    0    0 -0.44418842019E+02  0.17552573982E+02  0.25771413596E+02  0.54270545775E+02  0.51100000000E-03 0. -1.
         22    1    1    0    0    0  0.69913889912E+01 -0.19149710278E+02 -0.26285550274E+02  0.33264411568E+02  0.00000000000E+00 0. -1.
</event>
<event>
 5    1  0.1681104E-003  0.9118800E+02  0.7818608E-02  0.1130116E+00
         25   -1    0    0    0    0  0.00000000000E+00  0.00000000000E+00  0.99999998245E-14  0.12500000000E+03  0.12500000000E+03 0.  0.
        -11    1    3    3    0    0 -0.14369411488E+02  0.72816153828E+01  0.35813807515E+02  0.39269972219E+02  0.51100000000E-03 0.  1.
         23    2    1    0    0    0  0.23277767341E+01 -0.19121748901E+02 -0.16124200273E+02  0.99879298179E+02  0.96668632682E+02 0.  0.
         11    1    3    3    0    0  0.16697188222E+02 -0.26403364283E+02 -0.51938007788E+02  0.60609325960E+02  0.51100000000E-03 0. -1.
         22    1    1    0    0    0 -0.23277767341E+01  0.19121748901E+02  0.16124200273E+02  0.25120701821E+02  0.00000000000E+00 0. -1.
</event>
<event>
 5    1  0.1681104E-003  0.9118800E+02  0.7818608E-02  0.1130116E+00
         25   -1    0    0    0    0  0.00000000000E+00  0.00000000000E+00  0.99999998245E-14  0.12500000000E+03  0.12500000000E+03 0.  0.
        -11    1    3    3    0    0 -0.33834236992E+02 -0.23236879599E+02 -0.39528195367E+01  0.41235093656E+02  0.51100000000E-03 0.  1.
         23    2    1    0    0    0 -0.35938789037E+01  0.80831261922E+01  0.28256610571E+02  0.95391066625E+02  0.90679472078E+02 0.  0.
         11    1    3    3    0    0  0.30240358088E+02  0.31320005791E+02  0.32209430108E+02  0.54155972969E+02  0.51100000000E-03 0. -1.
         22    1    1    0    0    0  0.35938789037E+01 -0.80831261922E+01 -0.28256610571E+02  0.29608933375E+02  0.00000000000E+00 0. -1.
</event>
<event>
 5    1  0.1681104E-003  0.9118800E+02  0.7818608E-02  0.1130116E+00
         25   -1    0    0    0    0  0.00000000000E+00  0.00000000000E+00  0.99999998245E-14  0.12500000000E+03  0.12500000000E+03 0.  0.
        -11    1    3    3    0    0 -0.41024545370E+02 -0.27601569425E+02 -0.24374095587E+02  0.55126731206E+02  0.51100000000E-03 0.  1.
         23    2    1    0    0    0 -0.22271530627E+02 -0.17614140625E+02  0.94528974171E+01  0.95072816771E+02  0.90239704082E+02 0.  0.
         11    1    3    3    0    0  0.18753014743E+02  0.99874288004E+01  0.33826993004E+02  0.39946085565E+02  0.51100000000E-03 0. -1.
         22    1    1    0    0    0  0.22271530627E+02  0.17614140625E+02 -0.94528974171E+01  0.29927183229E+02  0.00000000000E+00 0.  1.
</event>
<event>
 5    1  0.1681104E-003  0.9118800E+02  0.7818608E-02  0.1130116E+00
         25   -1    0    0    0    0  0.00000000000E+00  0.00000000000E+00  0.99999998245E-14  0.12500000000E+03  0.12500000000E+03 0.  0.
        -11    1    3    3    0    0 -0.12283535888E+02 -0.14341555323E+02 -0.32331827895E+02  0.37442122780E+02  0.51100000000E-03 0. -1.
         23    2    1    0    0    0  0.15846321888E+02  0.23389935291E+02  0.34150774953E+01  0.96542000341E+02  0.92252371705E+02 0.  0.
         11    1    3    3    0    0  0.28129857776E+02  0.37731490613E+02  0.35746905391E+02  0.59099877561E+02  0.51100000000E-03 0.  1.
         22    1    1    0    0    0 -0.15846321888E+02 -0.23389935291E+02 -0.34150774953E+01  0.28457999659E+02  0.00000000000E+00 0.  1.
</event>
<event>
 5    1  0.1681104E-003  0.9118800E+02  0.7818608E-02  0.1130116E+00
         25   -1    0    0    0    0  0.00000000000E+00  0.00000000000E+00  0.99999998245E-14  0.12500000000E+03  0.12500000000E+03 0.  0.
        -11    1    3    3    0    0  0.33123434094E+02 -0.26571137309E+02 -0.84867194132E+01  0.43303713822E+02  0.51100000000E-03 0. -1.
         23    2    1    0    0    0  0.64957084660E+01  0.17632489477E+02 -0.21421922657E+02  0.96504426941E+02  0.92201446492E+02 0.  0.
         11    1    3    3    0    0 -0.26627725628E+02  0.44203626786E+02 -0.12935203244E+02  0.53200713119E+02  0.51100000000E-03 0.  1.
         22    1    1    0    0    0 -0.64957084660E+01 -0.17632489477E+02  0.21421922657E+02  0.28495573059E+02  0.00000000000E+00 0. -1.
</event>
<event>
 5    1  0.1681104E-003  0.9118800E+02  0.7818608E-02  0.1130116E+00
         25   -1    0    0    0    0  0.00000000000E+00  0.00000000000E+00  0.99999998245E-14  0.12500000000E+03  0.12500000000E+03 0.  0.
        -11    1    3    3    0    0 -0.56592830123E+01  0.98999662043E+01  0.38926637094E+02  0.40562542952E+02  0.51100000000E-03 0.  1.
         23    2    1    0    0    0  0.20730578533E+02 -0.20299707409E+02  0.68564968637E+00  0.95977506607E+02  0.91484297297E+02 0.  0.
         11    1    3    3    0    0  0.26389861546E+02 -0.30199673614E+02 -0.38240987407E+02  0.55414963655E+02  0.51100000000E-03 0. -1.
         22    1    1    0    0    0 -0.20730578533E+02  0.20299707409E+02 -0.68564968637E+00  0.29022493393E+02  0.00000000000E+00 0. -1.
</event>
<event>
 5    1  0.1681104E-003  0.9118800E+02  0.7818608E-02  0.1130116E+00
         25   -1    0    0    0    0  0.00000000000E+00  0.00000000000E+00  0.99999998245E-14  0.12500000000E+03  0.12500000000E+03 0.  0.
        -11    1    3    3    0    0  0.19556703414E+02 -0.21454307867E+02 -0.40734652934E+01  0.29314588420E+02  0.51100000000E-03 0.  1.
         23    2    1    0    0    0 -0.28716571934E+02  0.15050330280E+02  0.92482107532E+01  0.91285265130E+02  0.84831104452E+02 0.  0.
         11    1    3    3    0    0 -0.48273275348E+02  0.36504638146E+02  0.13321676047E+02  0.61970676711E+02  0.51100000000E-03 0. -1.
         22    1    1    0    0    0  0.28716571934E+02 -0.15050330280E+02 -0.92482107532E+01  0.33714734870E+02  0.00000000000E+00 0. -1.
</event>
<event>
 5    1  0.1681104E-003  0.9118800E+02  0.7818608E-02  0.1130116E+00
         25   -1    0    0    0    0  0.00000000000E+00  0.00000000000E+00  0.99999998245E-14  0.12500000000E+03  0.12500000000E+03 0.  0.
        -11    1    3    3    0    0 -0.24285330040E+02 -0.15956634854E+02  0.19373669940E+02  0.34924640847E+02  0.51100000000E-03 0.  1.
         23    2    1    0    0    0  0.27201747568E+02 -0.12434964730E+02 -0.89327784415E+01  0.93785292741E+02  0.88438245036E+02 0.  0.
         11    1    3    3    0    0  0.51487077609E+02  0.35216701241E+01 -0.28306448382E+02  0.58860651894E+02  0.51100000000E-03 0. -1.
         22    1    1    0    0    0 -0.27201747568E+02  0.12434964730E+02  0.89327784415E+01  0.31214707259E+02  0.00000000000E+00 0. -1.
</event>
<event>
 5    1  0.1681104E-003  0.9118800E+02  0.7818608E-02  0.1130116E+00
         25   -1    0    0    0    0  0.00000000000E+00  0.00000000000E+00  0.99999998245E-14  0.12500000000E+03  0.12500000000E+03 0.  0.
        -11    1    3    3    0    0 -0.26605313904E+02 -0.49122447555E+02  0.19472709003E+02  0.59161169511E+02  0.51100000000E-03 0. -1.
         23    2    1    0    0    0 -0.12271434687E+02 -0.11533420469E+02  0.19293018764E+02  0.99390851830E+02  0.96034956955E+02 0.  0.
         11    1    3    3    0    0  0.14333879217E+02  0.37589027086E+02 -0.17969023919E+00  0.40229682319E+02  0.51100000000E-03 0.  1.
         22    1    1    0    0    0  0.12271434687E+02  0.11533420469E+02 -0.19293018764E+02  0.25609148170E+02  0.00000000000E+00 0. -1.
</event>
<event>
 5    1  0.1681104E-003  0.9118800E+02  0.7818608E-02  0.1130116E+00
         25   -1    0    0    0    0  0.00000000000E+00  0.00000000000E+00  0.99999998245E-14  0.12500000000E+03  0.12500000000E+03 0.  0.
        -11    1    3    3    0    0 -0.17769477322E+02  0.27771437952E+02  0.20930499594E+02  0.39052437872E+02  0.51100000000E-03 0.  1.
         23    2    1    0    0    0 -0.21051219616E+02 -0.15025751245E+02 -0.15063279295E+02  0.95069590197E+02  0.90235234522E+02 0.  0.
         11    1    3    3    0    0 -0.32817422945E+01 -0.42797189197E+02 -0.35993778889E+02  0.56017152326E+02  0.51100000000E-03 0. -1.
         22    1    1    0    0    0  0.21051219616E+02  0.15025751245E+02  0.15063279295E+02  0.29930409803E+02  0.00000000000E+00 0. -1.
</event>
<event>
 5    1  0.1681104E-003  0.9118800E+02  0.7818608E-02  0.1130116E+00
         25   -1    0    0    0    0  0.00000000000E+00  0.00000000000E+00  0.99999998245E-14  0.12500000000E+03  0.12500000000E+03 0.  0.
        -11    1    3    3    0    0 -0.20029179122E+02  0.22624135455E+02  0.52035154692E+02  0.60172060339E+02  0.51100000000E-03 0. -1.
         23    2    1    0    0    0 -0.20063669616E+02  0.68350440316E+01  0.20139140167E+02  0.95762119912E+02  0.91189527787E+02 0.  0.
         11    1    3    3    0    0 -0.34490493061E-01 -0.15789091423E+02 -0.31896014525E+02  0.35590059573E+02  0.51100000000E-03 0.  1.
         22    1    1    0    0    0  0.20063669616E+02 -0.68350440316E+01 -0.20139140167E+02  0.29237880088E+02  0.00000000000E+00 0. -1.
</event>
<event>
 5    1  0.1681104E-003  0.9118800E+02  0.7818608E-02  0.1130116E+00
         25   -1    0    0    0    0  0.00000000000E+00  0.00000000000E+00  0.99999998245E-14  0.12500000000E+03  0.12500000000E+03 0.  0.
        -11    1    3    3    0    0  0.33482946479E+02  0.35552024201E+02 -0.31706955373E+02  0.58227013911E+02  0.51100000000E-03 0. -1.
         23    2    1    0    0    0  0.27815806165E+02  0.75751421634E+01 -0.87075237585E+01  0.94884840671E+02  0.89978942914E+02 0.  0.
         11    1    3    3    0    0 -0.56671403147E+01 -0.27976882038E+02  0.22999431615E+02  0.36657826760E+02  0.51100000000E-03 0.  1.
         22    1    1    0    0    0 -0.27815806165E+02 -0.75751421634E+01  0.87075237585E+01  0.30115159329E+02  0.00000000000E+00 0. -1.
</event>
<event>
 5    1  0.1681104E-003  0.9118800E+02  0.7818608E-02  0.1130116E+00
         25   -1    0    0    0    0  0.00000000000E+00  0.00000000000E+00  0.99999998245E-14  0.12500000000E+03  0.12500000000E+03 0.  0.
        -11    1    3    3    0    0 -0.13973584787E+01 -0.46098687935E+02 -0.37559524534E+02  0.59479067944E+02  0.51100000000E-03 0.  1.
         23    2    1    0    0    0 -0.13510047534E+02 -0.16330780249E+02 -0.18655129324E+02  0.96764745122E+02  0.92553694041E+02 0.  0.
         11    1    3    3    0    0 -0.12112689055E+02  0.29767907686E+02  0.18904395210E+02  0.37285677178E+02  0.51100000000E-03 0. -1.
         22    1    1    0    0    0  0.13510047534E+02  0.16330780249E+02  0.18655129324E+02  0.28235254878E+02  0.00000000000E+00 0.  1.
</event>
<event>
 5    1  0.1681104E-003  0.9118800E+02  0.7818608E-02  0.1130116E+00
         25   -1    0    0    0    0  0.00000000000E+00  0.00000000000E+00  0.99999998245E-14  0.12500000000E+03  0.12500000000E+03 0.  0.
        -11    1    3    3    0    0 -0.49060022228E+01 -0.57553778308E+02 -0.50284325658E+01  0.57980957130E+02  0.51100000000E-03 0. -1.
         23    2    1    0    0    0 -0.17927846863E+02 -0.19468027950E+02 -0.39147430449E+01  0.98246738170E+02  0.94534039069E+02 0.  0.
         11    1    3    3    0    0 -0.13021844640E+02  0.38085750358E+02  0.11136895209E+01  0.40265781041E+02  0.51100000000E-03 0.  1.
         22    1    1    0    0    0  0.17927846863E+02  0.19468027950E+02  0.39147430449E+01  0.26753261830E+02  0.00000000000E+00 0. -1.
</event>
<event>
 5    1  0.1681104E-003  0.9118800E+02  0.7818608E-02  0.1130116E+00
         25   -1    0    0    0    0  0.00000000000E+00  0.00000000000E+00  0.99999998245E-14  0.12500000000E+03  0.12500000000E+03 0.  0.
        -11    1    3    3    0    0  0.33402882132E+02  0.88424325392E+01  0.13688322384E+02  0.37165996797E+02  0.51100000000E-03 0. -1.
         23    2    1    0    0    0 -0.12353784606E+02 -0.25856304006E+02  0.97676592175E+01  0.94725066184E+02  0.89756707527E+02 0.  0.
         11    1    3    3    0    0 -0.45756666738E+02 -0.34698736546E+02 -0.39206631665E+01  0.57559069387E+02  0.51100000000E-03 0.  1.
         22    1    1    0    0    0  0.12353784606E+02  0.25856304006E+02 -0.97676592175E+01  0.30274933816E+02  0.00000000000E+00 0.  1.
</event>
<event>
 5    1  0.1681104E-003  0.9118800E+02  0.7818608E-02  0.1130116E+00
         25   -1    0    0    0    0  0.00000000000E+00  0.00000000000E+00  0.99999998245E-14  0.12500000000E+03  0.12500000000E+03 0.  0.
        -11    1    3    3    0    0  0.54179030441E+02  0.27103372570E+02 -0.14826289136E+02  0.62368092756E+02  0.51100000000E-03 0.  1.
         23    2    1    0    0    0  0.18970071296E+02  0.11857658640E+02 -0.73055012988E+01  0.10146623654E+03  0.98699337054E+02 0.  0.
         11    1    3    3    0    0 -0.35208959145E+02 -0.15245713930E+02  0.75207878368E+01  0.39098143783E+02  0.51100000000E-03 0. -1.
         22    1    1    0    0    0 -0.18970071296E+02 -0.11857658640E+02  0.73055012988E+01  0.23533763461E+02  0.00000000000E+00 0.  1.
</event>
<event>
 5    1  0.1681104E-003  0.9118800E+02  0.7818608E-02  0.1130116E+00
         25   -1    0    0    0    0  0.00000000000E+00  0.00000000000E+00  0.99999998245E-14  0.12500000000E+03  0.12500000000E+03 0.  0.
        -11    1    3    3    0    0 -0.35310941864E+01  0.33648625182E+02 -0.89902477426E+01  0.35007472881E+02  0.51100000000E-03 0.  1.
         23    2    1    0    0    0 -0.58304196554E+01 -0.18135622832E+02  0.22391000252E+02  0.95601845276E+02  0.90969562597E+02 0.  0.
         11    1    3    3    0    0 -0.22993254690E+01 -0.51784248014E+02  0.31381247995E+02  0.60594372395E+02  0.51100000000E-03 0. -1.
         22    1    1    0    0    0  0.58304196554E+01  0.18135622832E+02 -0.22391000252E+02  0.29398154724E+02  0.00000000000E+00 0. -1.
</event>
<event>
 5    1  0.1681104E-003  0.9118800E+02  0.7818608E-02  0.1130116E+00
         25   -1    0    0    0    0  0.00000000000E+00  0.00000000000E+00  0.99999998245E-14  0.12500000000E+03  0.12500000000E+03 0.  0.
        -11    1    3    3    0    0 -0.32505444641E+02 -0.80140796386E+01 -0.17724520070E+00  0.33479259548E+02  0.51100000000E-03 0.  1.
         23    2    1    0    0    0  0.23743381861E+02  0.13226916086E+02  0.12749882816E+02  0.94979023947E+02  0.90109688640E+02 0.  0.
         11    1    3    3    0    0  0.56248826502E+02  0.21240995725E+02  0.12927128017E+02  0.61499764399E+02  0.51100000000E-03 0. -1.
         22    1    1    0    0    0 -0.23743381861E+02 -0.13226916086E+02 -0.12749882816E+02  0.30020976053E+02  0.00000000000E+00 0. -1.
</event>
<event>
 5    1  0.1681104E-003  0.9118800E+02  0.7818608E-02  0.1130116E+00
         25   -1    0    0    0    0  0.00000000000E+00  0.00000000000E+00  0.99999998245E-14  0.12500000000E+03  0.12500000000E+03 0.  0.
        -11    1    3    3    0    0 -0.63318574791E+01 -0.35543957767E+02  0.36407197808E+02  0.51273281594E+02  0.51100000000E-03 0. -1.
         23    2    1    0    0    0 -0.52725480853E+01  0.84394410127E+01  0.26946031254E+02  0.96275227968E+02  0.91890189858E+02 0.  0.
         11    1    3    3    0    0  0.10593093939E+01  0.43983398780E+02 -0.94611665538E+01  0.45001946374E+02  0.51100000000E-03 0.  1.
         22    1    1    0    0    0  0.52725480853E+01 -0.84394410127E+01 -0.26946031254E+02  0.28724772032E+02  0.00000000000E+00 0. -1.
</event>
<event>
 5    1  0.1681104E-003  0.9118800E+02  0.7818608E-02  0.1130116E+00
         25   -1    0    0    0    0  0.00000000000E+00  0.00000000000E+00  0.99999998245E-14  0.12500000000E+03  0.12500000000E+03 0.  0.
        -11    1    3    3    0    0 -0.14679529230E+02 -0.17877914550E+02  0.35348596974E+02  0.42244901649E+02  0.51100000000E-03 0. -1.
         23    2    1    0    0    0 -0.13719493662E+01  0.26654367793E+02  0.21457255619E+02  0.90754542108E+02  0.84045437276E+02 0.  0.
         11    1    3    3    0    0  0.13307579863E+02  0.44532282344E+02 -0.13891341355E+02  0.48509640459E+02  0.51100000000E-03 0.  1.
         22    1    1    0    0    0  0.13719493662E+01 -0.26654367793E+02 -0.21457255619E+02  0.34245457892E+02  0.00000000000E+00 0. -1.
</event>
<event>
 5    1  0.1681104E-003  0.9118800E+02  0.7818608E-02  0.1130116E+00
         25   -1    0    0    0    0  0.00000000000E+00  0.00000000000E+00  0.99999998245E-14  0.12500000000E+03  0.12500000000E+03 0.  0.
        -11    1    3    3    0    0  0.14468680291E+02  0.32146455338E+01  0.36959634119E+02  0.39820738438E+02  0.51100000000E-03 0. -1.
         23    2    1    0    0    0  0.20631038920E+02 -0.11208029998E+02 -0.16999503387E+02  0.96013057789E+02  0.91532859931E+02 0.  0.
         11    1    3    3    0    0  0.61623586285E+01 -0.14422675531E+02 -0.53959137506E+02  0.56192319351E+02  0.51100000000E-03 0.  1.
         22    1    1    0    0    0 -0.20631038920E+02  0.11208029998E+02  0.16999503387E+02  0.28986942211E+02  0.00000000000E+00 0.  1.
</event>
<event>
 5    1  0.1681104E-003  0.9118800E+02  0.7818608E-02  0.1130116E+00
         25   -1    0    0    0    0  0.00000000000E+00  0.00000000000E+00  0.99999998245E-14  0.12500000000E+03  0.12500000000E+03 0.  0.
        -11    1    3    3    0    0  0.18943652178E+02 -0.54815627519E+02  0.35087848114E+01  0.58102724113E+02  0.51100000000E-03 0. -1.
         23    2    1    0    0    0 -0.65946273919E+01 -0.28339897575E+02  0.70585207217E+01  0.95059031082E+02  0.90220606130E+02 0.  0.
         11    1    3    3    0    0 -0.25538279570E+02  0.26475729945E+02  0.35497359103E+01  0.36956306969E+02  0.51100000000E-03 0.  1.
         22    1    1    0    0    0  0.65946273919E+01  0.28339897575E+02 -0.70585207217E+01  0.29940968918E+02  0.00000000000E+00 0. -1.
</event>
<event>
 5    1  0.1681104E-003  0.9118800E+02  0.7818608E-02  0.1130116E+00
         25   -1    0    0    0    0  0.00000000000E+00  0.00000000000E+00  0.99999998245E-14  0.12500000000E+03  0.12500000000E+03 0.  0.
        -11    1    3    3    0    0  0.35796525618E+02  0.98013426689E+01  0.14681149847E+01  0.37143141040E+02  0.51100000000E-03 0. -1.
         23    2    1    0    0    0 -0.13342929894E+02  0.27167541891E+02 -0.14202865593E+02  0.91566027732E+02  0.85243808766E+02 0.  0.
         11    1    3    3    0    0 -0.49139455512E+02  0.17366199222E+02 -0.15670980578E+02  0.54422886692E+02  0.51100000000E-03 0.  1.
         22    1    1    0    0    0  0.13342929894E+02 -0.27167541891E+02  0.14202865593E+02  0.33433972268E+02  0.00000000000E+00 0.  1.
</event>
<event>
 5    1  0.1681104E-003  0.9118800E+02  0.7818608E-02  0.1130116E+00
         25   -1    0    0    0    0  0.00000000000E+00  0.00000000000E+00  0.99999998245E-14  0.12500000000E+03  0.12500000000E+03 0.  0.
        -11    1    3    3    0    0  0.12588349990E+01 -0.12309634193E+02 -0.31873937990E+02  0.34191514778E+02  0.51100000000E-03 0.  1.
         23    2    1    0    0    0  0.82686637844E+01  0.15991346202E+02  0.22677369629E+02  0.96045604005E+02  0.91577295228E+02 0.  0.
         11    1    3    3    0    0  0.70098287854E+01  0.28300980396E+02  0.54551307619E+02  0.61854089227E+02  0.51100000000E-03 0. -1.
         22    1    1    0    0    0 -0.82686637844E+01 -0.15991346202E+02 -0.22677369629E+02  0.28954395995E+02  0.00000000000E+00 0. -1.
</event>
<event>
 5    1  0.1681104E-003  0.9118800E+02  0.7818608E-02  0.1130116E+00
         25   -1    0    0    0    0  0.00000000000E+00  0.00000000000E+00  0.99999998245E-14  0.12500000000E+03  0.12500000000E+03 0.  0.
        -11    1    3    3    0    0  0.35723631920E+02 -0.20631745677E+02  0.37485766059E+02  0.55740734338E+02  0.51100000000E-03 0.  1.
         23    2    1    0    0    0  0.31108447717E+02 -0.82418099907E-01  0.64791220863E+01  0.93223887350E+02  0.87641153790E+02 0.  0.
         11    1    3    3    0    0 -0.46151842030E+01  0.20549327577E+02 -0.31006643972E+02  0.37483153013E+02  0.51100000000E-03 0. -1.
         22    1    1    0    0    0 -0.31108447717E+02  0.82418099907E-01 -0.64791220863E+01  0.31776112650E+02  0.00000000000E+00 0.  1.
</event>
<event>
 5    1  0.1681104E-003  0.9118800E+02  0.7818608E-02  0.1130116E+00
         25   -1    0    0    0    0  0.00000000000E+00  0.00000000000E+00  0.99999998245E-14  0.12500000000E+03  0.12500000000E+03 0.  0.
        -11    1    3    3    0    0  0.34653327905E+02  0.75219000037E+01 -0.25414069937E+02  0.43626907587E+02  0.51100000000E-03 0. -1.
         23    2    1    0    0    0 -0.76031790408E+01  0.28021748109E+02 -0.25780490905E+01  0.95850848456E+02  0.91311073338E+02 0.  0.
         11    1    3    3    0    0 -0.42256506946E+02  0.20499848105E+02  0.22836020846E+02  0.52223940870E+02  0.51100000000E-03 0.  1.
         22    1    1    0    0    0  0.76031790408E+01 -0.28021748109E+02  0.25780490905E+01  0.29149151544E+02  0.00000000000E+00 0.  1.
</event>
<event>
 5    1  0.1681104E-003  0.9118800E+02  0.7818608E-02  0.1130116E+00
         25   -1    0    0    0    0  0.00000000000E+00  0.00000000000E+00  0.99999998245E-14  0.12500000000E+03  0.12500000000E+03 0.  0.
        -11    1    3    3    0    0 -0.23452898964E+02 -0.30596627694E+02 -0.45965226151E+02  0.59991617010E+02  0.51100000000E-03 0. -1.
         23    2    1    0    0    0 -0.16524446408E+02 -0.20878126685E+02 -0.12376385087E+02  0.95637976725E+02  0.91019196774E+02 0.  0.
         11    1    3    3    0    0  0.69284525563E+01  0.97185010087E+01  0.33588841064E+02  0.35646359716E+02  0.51100000000E-03 0.  1.
         22    1    1    0    0    0  0.16524446408E+02  0.20878126685E+02  0.12376385087E+02  0.29362023275E+02  0.00000000000E+00 0. -1.
</event>
<event>
 5    1  0.1681104E-003  0.9118800E+02  0.7818608E-02  0.1130116E+00
         25   -1    0    0    0    0  0.00000000000E+00  0.00000000000E+00  0.99999998245E-14  0.12500000000E+03  0.12500000000E+03 0.  0.
        -11    1    3    3    0    0 -0.56353662953E+02 -0.14516796834E+02  0.18838481224E+01  0.58223892025E+02  0.51100000000E-03 0.  1.
         23    2    1    0    0    0 -0.19336835362E+02 -0.17547036848E+02 -0.97246048697E+01  0.97136410070E+02  0.93054298758E+02 0.  0.
         11    1    3    3    0    0  0.37016827591E+02 -0.30302400135E+01 -0.11608452992E+02  0.38912518045E+02  0.51100000000E-03 0. -1.
         22    1    1    0    0    0  0.19336835362E+02  0.17547036848E+02  0.97246048697E+01  0.27863589930E+02  0.00000000000E+00 0.  1.
</event>
<event>
 5    1  0.1681104E-003  0.9118800E+02  0.7818608E-02  0.1130116E+00
         25   -1    0    0    0    0  0.00000000000E+00  0.00000000000E+00  0.99999998245E-14  0.12500000000E+03  0.12500000000E+03 0.  0.
        -11    1    3    3    0    0 -0.26940171224E+02 -0.47184783767E+02 -0.97731704852E+00  0.54342725305E+02  0.51100000000E-03 0.  1.
         23    2    1    0    0    0 -0.22979054654E+02 -0.90050873617E+01 -0.16026999365E+02  0.95572236581E+02  0.90928868603E+02 0.  0.
         11    1    3    3    0    0  0.39611165697E+01  0.38179696405E+02 -0.15049682316E+02  0.41229511277E+02  0.51100000000E-03 0. -1.
         22    1    1    0    0    0  0.22979054654E+02  0.90050873617E+01  0.16026999365E+02  0.29427763419E+02  0.00000000000E+00 0.  1.
</event>
<event>
 5    1  0.1681104E-003  0.9118800E+02  0.7818608E-02  0.1130116E+00
         25   -1    0    0    0    0  0.00000000000E+00  0.00000000000E+00  0.99999998245E-14  0.12500000000E+03  0.12500000000E+03 0.  0.
        -11    1    3    3    0    0  0.16782742143E+02 -0.43554424793E+02  0.55545521855E+01  0.47005333773E+02  0.51100000000E-03 0. -1.
         23    2    1    0    0    0  0.98647633083E+01 -0.83328600844E+01 -0.26750077137E+02  0.95296183088E+02  0.90548582385E+02 0.  0.
         11    1    3    3    0    0 -0.69179788344E+01  0.35221564708E+02 -0.32304629323E+02  0.48290849315E+02  0.51100000000E-03 0.  1.
         22    1    1    0    0    0 -0.98647633083E+01  0.83328600844E+01  0.26750077137E+02  0.29703816912E+02  0.00000000000E+00 0. -1.
</event>
<event>
 4    1  0.1681104E-003  0.9118800E+02  0.7818608E-02  0.1130116E+00
         25   -1    0    0    0    0  0.00000000000E+00  0.00000000000E+00  0.99999998245E-14  0.12500000000E+03  0.12500000000E+03 0.  0.
        -11    1    1    0    0    0  0.11724780576E+02  0.11738190098E+02  0.55075437103E+02  0.57520077874E+02  0.51100000000E-03 0. -1.
         11    1    1    0    0    0  0.44282955521E+01 -0.10653943609E+02 -0.16494712427E+01  0.11654916197E+02  0.51100000000E-03 0.  1.
         22    1    1    0    0    0 -0.16153076128E+02 -0.10842464895E+01 -0.53425965860E+02  0.55825005929E+02  0.00000000000E+00 0. -1.
</event>
<event>
 5    1  0.1681104E-003  0.9118800E+02  0.7818608E-02  0.1130116E+00
         25   -1    0    0    0    0  0.00000000000E+00  0.00000000000E+00  0.99999998245E-14  0.12500000000E+03  0.12500000000E+03 0.  0.
        -11    1    3    3    0    0 -0.17546789852E+01 -0.29651156811E+02  0.31000982230E+02  0.42934029604E+02  0.51100000000E-03 0.  1.
         23    2    1    0    0    0 -0.26879814124E+02  0.97922184906E+01  0.67816676092E+01  0.95599269297E+02  0.90966022911E+02 0.  0.
         11    1    3    3    0    0 -0.25125135139E+02  0.39443375302E+02 -0.24219314621E+02  0.52665239693E+02  0.51100000000E-03 0. -1.
         22    1    1    0    0    0  0.26879814124E+02 -0.97922184906E+01 -0.67816676092E+01  0.29400730703E+02  0.00000000000E+00 0. -1.
</event>
<event>
 5    1  0.1681104E-003  0.9118800E+02  0.7818608E-02  0.1130116E+00
         25   -1    0    0    0    0  0.00000000000E+00  0.00000000000E+00  0.99999998245E-14  0.12500000000E+03  0.12500000000E+03 0.  0.
        -11    1    3    3    0    0 -0.20976745421E+02  0.13068917182E+02  0.36079789969E+01  0.24976748337E+02  0.51100000000E-03 0.  1.
         23    2    1    0    0    0  0.30131546595E+02 -0.14061508192E+02 -0.18535080165E+02  0.86931833383E+02  0.78153428240E+02 0.  0.
         11    1    3    3    0    0  0.51108292016E+02 -0.27130425374E+02 -0.22143059162E+02  0.61955085046E+02  0.51100000000E-03 0. -1.
         22    1    1    0    0    0 -0.30131546595E+02  0.14061508192E+02  0.18535080165E+02  0.38068166617E+02  0.00000000000E+00 0. -1.
</event>
<event>
 5    1  0.1681104E-003  0.9118800E+02  0.7818608E-02  0.1130116E+00
         25   -1    0    0    0    0  0.00000000000E+00  0.00000000000E+00  0.99999998245E-14  0.12500000000E+03  0.12500000000E+03 0.  0.
        -11    1    3    3    0    0  0.11631606310E+02 -0.34145046021E+02 -0.50783511700E+02  0.62290797827E+02  0.51100000000E-03 0.  1.
         23    2    1    0    0    0  0.27397144597E+01 -0.14725318015E+02 -0.25873064722E+02  0.95104239363E+02  0.90283220150E+02 0.  0.
         11    1    3    3    0    0 -0.88918918503E+01  0.19419728006E+02  0.24910446978E+02  0.32813441536E+02  0.51100000000E-03 0. -1.
         22    1    1    0    0    0 -0.27397144597E+01  0.14725318015E+02  0.25873064722E+02  0.29895760637E+02  0.00000000000E+00 0.  1.
</event>
<event>
 5    1  0.1681104E-003  0.9118800E+02  0.7818608E-02  0.1130116E+00
         25   -1    0    0    0    0  0.00000000000E+00  0.00000000000E+00  0.99999998245E-14  0.12500000000E+03  0.12500000000E+03 0.  0.
        -11    1    3    3    0    0 -0.20787296486E+02 -0.10679758533E+02  0.27781481901E+02  0.36303989786E+02  0.51100000000E-03 0.  1.
         23    2    1    0    0    0  0.74721314158E+01 -0.21949026873E+02 -0.20948963378E+02  0.93751774527E+02  0.88390857173E+02 0.  0.
         11    1    3    3    0    0  0.28259427902E+02 -0.11269268340E+02 -0.48730445279E+02  0.57447784741E+02  0.51100000000E-03 0. -1.
         22    1    1    0    0    0 -0.74721314158E+01  0.21949026873E+02  0.20948963378E+02  0.31248225473E+02  0.00000000000E+00 0. -1.
</event>
<event>
 5    1  0.1681104E-003  0.9118800E+02  0.7818608E-02  0.1130116E+00
         25   -1    0    0    0    0  0.00000000000E+00  0.00000000000E+00  0.99999998245E-14  0.12500000000E+03  0.12500000000E+03 0.  0.
        -11    1    3    3    0    0 -0.13804957030E+02  0.28800337716E+02  0.46765459814E+02  0.56630773639E+02  0.51100000000E-03 0. -1.
         23    2    1    0    0    0 -0.15612139883E+02  0.22886117995E+02  0.76124941362E+01  0.96269121566E+02  0.91881882825E+02 0.  0.
         11    1    3    3    0    0 -0.18071828538E+01 -0.59142197214E+01 -0.39152965677E+02  0.39638347927E+02  0.51100000000E-03 0.  1.
         22    1    1    0    0    0  0.15612139883E+02 -0.22886117995E+02 -0.76124941362E+01  0.28730878434E+02  0.00000000000E+00 0. -1.
</event>
<event>
 5    1  0.1681104E-003  0.9118800E+02  0.7818608E-02  0.1130116E+00
         25   -1    0    0    0    0  0.00000000000E+00  0.00000000000E+00  0.99999998245E-14  0.12500000000E+03  0.12500000000E+03 0.  0.
        -11    1    3    3    0    0 -0.12649958811E+02  0.26845423133E+02  0.35964566953E+01  0.29893690005E+02  0.51100000000E-03 0.  1.
         23    2    1    0    0    0  0.14731714165E+02 -0.13495775544E+02 -0.29894112217E+02  0.89044231270E+02  0.81462002292E+02 0.  0.
         11    1    3    3    0    0  0.27381672976E+02 -0.40341198677E+02 -0.33490568912E+02  0.59150541265E+02  0.51100000000E-03 0. -1.
         22    1    1    0    0    0 -0.14731714165E+02  0.13495775544E+02  0.29894112217E+02  0.35955768730E+02  0.00000000000E+00 0. -1.
</event>
<event>
 5    1  0.1681104E-003  0.9118800E+02  0.7818608E-02  0.1130116E+00
         25   -1    0    0    0    0  0.00000000000E+00  0.00000000000E+00  0.99999998245E-14  0.12500000000E+03  0.12500000000E+03 0.  0.
        -11    1    3    3    0    0 -0.44893773236E+02 -0.41028038415E+02 -0.13598106616E+02  0.62319012471E+02  0.51100000000E-03 0.  1.
         23    2    1    0    0    0 -0.22958909261E+02 -0.16530204288E+02 -0.56029470282E+01  0.96159885859E+02  0.91733153574E+02 0.  0.
         11    1    3    3    0    0  0.21934863975E+02  0.24497834127E+02  0.79951595881E+01  0.33840873387E+02  0.51100000000E-03 0. -1.
         22    1    1    0    0    0  0.22958909261E+02  0.16530204288E+02  0.56029470282E+01  0.28840114141E+02  0.00000000000E+00 0.  1.
</event>
<event>
 5    1  0.1681104E-003  0.9118800E+02  0.7818608E-02  0.1130116E+00
         25   -1    0    0    0    0  0.00000000000E+00  0.00000000000E+00  0.99999998245E-14  0.12500000000E+03  0.12500000000E+03 0.  0.
        -11    1    3    3    0    0 -0.26670389891E+01 -0.34513601871E+02 -0.91299841703E+01  0.35800257294E+02  0.51100000000E-03 0. -1.
         23    2    1    0    0    0 -0.13925477799E+02  0.24736458758E+02 -0.17674168688E+01  0.96558215839E+02  0.92274340745E+02 0.  0.
         11    1    3    3    0    0 -0.11258438810E+02  0.59250060630E+02  0.73625673015E+01  0.60757958545E+02  0.51100000000E-03 0.  1.
         22    1    1    0    0    0  0.13925477799E+02 -0.24736458758E+02  0.17674168688E+01  0.28441784161E+02  0.00000000000E+00 0.  1.
</event>
<event>
 5    1  0.1681104E-003  0.9118800E+02  0.7818608E-02  0.1130116E+00
         25   -1    0    0    0    0  0.00000000000E+00  0.00000000000E+00  0.99999998245E-14  0.12500000000E+03  0.12500000000E+03 0.  0.
        -11    1    3    3    0    0  0.24112271533E+02 -0.87718180364E+01 -0.51864313584E+02  0.57864094687E+02  0.51100000000E-03 0. -1.
         23    2    1    0    0    0  0.15104223046E+02  0.12388059286E+02 -0.21563942693E+02  0.95903519265E+02  0.91383148426E+02 0.  0.
         11    1    3    3    0    0 -0.90080484875E+01  0.21159877323E+02  0.30300370891E+02  0.38039424578E+02  0.51100000000E-03 0.  1.
         22    1    1    0    0    0 -0.15104223046E+02 -0.12388059286E+02  0.21563942693E+02  0.29096480735E+02  0.00000000000E+00 0. -1.
</event>
<event>
 5    1  0.1681104E-003  0.9118800E+02  0.7818608E-02  0.1130116E+00
         25   -1    0    0    0    0  0.00000000000E+00  0.00000000000E+00  0.99999998245E-14  0.12500000000E+03  0.12500000000E+03 0.  0.
        -11    1    3    3    0    0 -0.65467002998E+01  0.21544604826E+02 -0.44638591980E+02  0.49996331626E+02  0.51100000000E-03 0.  1.
         23    2    1    0    0    0 -0.12323523642E+02  0.19900314898E+02  0.58759103892E+01  0.10086666018E+03  0.97937046335E+02 0.  0.
         11    1    3    3    0    0 -0.57768233420E+01 -0.16442899275E+01  0.50514502369E+02  0.50870328553E+02  0.51100000000E-03 0. -1.
         22    1    1    0    0    0  0.12323523642E+02 -0.19900314898E+02 -0.58759103892E+01  0.24133339820E+02  0.00000000000E+00 0.  1.
</event>
<event>
 5    1  0.1681104E-003  0.9118800E+02  0.7818608E-02  0.1130116E+00
         25   -1    0    0    0    0  0.00000000000E+00  0.00000000000E+00  0.99999998245E-14  0.12500000000E+03  0.12500000000E+03 0.  0.
        -11    1    3    3    0    0 -0.25753361043E+02  0.14054896506E+02 -0.10607464336E+02  0.31197660501E+02  0.51100000000E-03 0. -1.
         23    2    1    0    0    0  0.28736368328E+02 -0.49194531265E+01  0.12404804148E+02  0.93316265218E+02  0.87772810736E+02 0.  0.
         11    1    3    3    0    0  0.54489729372E+02 -0.18974349632E+02  0.23012268485E+02  0.62118604717E+02  0.51100000000E-03 0.  1.
         22    1    1    0    0    0 -0.28736368328E+02  0.49194531265E+01 -0.12404804148E+02  0.31683734782E+02  0.00000000000E+00 0.  1.
</event>
<event>
 5    1  0.1681104E-003  0.9118800E+02  0.7818608E-02  0.1130116E+00
         25   -1    0    0    0    0  0.00000000000E+00  0.00000000000E+00  0.99999998245E-14  0.12500000000E+03  0.12500000000E+03 0.  0.
        -11    1    3    3    0    0 -0.39616500960E+02 -0.38349691046E+00 -0.42846221114E+02  0.58355915572E+02  0.51100000000E-03 0.  1.
         23    2    1    0    0    0 -0.22832834270E+02 -0.12879662989E+02 -0.10758866338E+02  0.96663146887E+02  0.92416376913E+02 0.  0.
         11    1    3    3    0    0  0.16783666690E+02 -0.12496166078E+02  0.32087354776E+02  0.38307231315E+02  0.51100000000E-03 0. -1.
         22    1    1    0    0    0  0.22832834270E+02  0.12879662989E+02  0.10758866338E+02  0.28336853113E+02  0.00000000000E+00 0.  1.
</event>
<event>
 5    1  0.1681104E-003  0.9118800E+02  0.7818608E-02  0.1130116E+00
         25   -1    0    0    0    0  0.00000000000E+00  0.00000000000E+00  0.99999998245E-14  0.12500000000E+03  0.12500000000E+03 0.  0.
        -11    1    3    3    0    0  0.52914166510E+02 -0.28825436928E+02 -0.73351655818E+01  0.60701066597E+02  0.51100000000E-03 0.  1.
         23    2    1    0    0    0  0.19206630652E+02 -0.19457346448E+02 -0.10236645308E+02  0.95806303781E+02  0.91250073672E+02 0.  0.
         11    1    3    3    0    0 -0.33707535858E+02  0.93680904808E+01 -0.29014797262E+01  0.35105237184E+02  0.51100000000E-03 0. -1.
         22    1    1    0    0    0 -0.19206630652E+02  0.19457346448E+02  0.10236645308E+02  0.29193696219E+02  0.00000000000E+00 0.  1.
</event>
<event>
 5    1  0.1681104E-003  0.9118800E+02  0.7818608E-02  0.1130116E+00
         25   -1    0    0    0    0  0.00000000000E+00  0.00000000000E+00  0.99999998245E-14  0.12500000000E+03  0.12500000000E+03 0.  0.
        -11    1    3    3    0    0  0.72845511859E+00 -0.35317194145E+02 -0.13010133044E+02  0.37644367590E+02  0.51100000000E-03 0. -1.
         23    2    1    0    0    0  0.12563327241E+02  0.99815298298E+01  0.23171681007E+02  0.96814987497E+02  0.92621524897E+02 0.  0.
         11    1    3    3    0    0  0.11834872123E+02  0.45298723975E+02  0.36181814051E+02  0.59170619907E+02  0.51100000000E-03 0.  1.
         22    1    1    0    0    0 -0.12563327241E+02 -0.99815298298E+01 -0.23171681007E+02  0.28185012503E+02  0.00000000000E+00 0.  1.
</event>
<event>
 5    1  0.1681104E-003  0.9118800E+02  0.7818608E-02  0.1130116E+00
         25   -1    0    0    0    0  0.00000000000E+00  0.00000000000E+00  0.99999998245E-14  0.12500000000E+03  0.12500000000E+03 0.  0.
        -11    1    3    3    0    0  0.21547042266E+02 -0.46031823203E+02 -0.28023077462E+02  0.58038751266E+02  0.51100000000E-03 0. -1.
         23    2    1    0    0    0 -0.12922106105E+01 -0.15474282388E+02 -0.24020003485E+02  0.96397835902E+02  0.92056824709E+02 0.  0.
         11    1    3    3    0    0 -0.22839252876E+02  0.30557540815E+02  0.40030739771E+01  0.38359084636E+02  0.51100000000E-03 0.  1.
         22    1    1    0    0    0  0.12922106105E+01  0.15474282388E+02  0.24020003485E+02  0.28602164098E+02  0.00000000000E+00 0. -1.
</event>
<event>
 5    1  0.1681104E-003  0.9118800E+02  0.7818608E-02  0.1130116E+00
         25   -1    0    0    0    0  0.00000000000E+00  0.00000000000E+00  0.99999998245E-14  0.12500000000E+03  0.12500000000E+03 0.  0.
        -11    1    3    3    0    0  0.13839824265E+02  0.22877336918E+02 -0.21994578845E+02  0.34621882950E+02  0.51100000000E-03 0.  1.
         23    2    1    0    0    0 -0.20845921239E+02 -0.22413103872E+02 -0.81609794432E+01  0.93321912258E+02  0.87780852494E+02 0.  0.
         11    1    3    3    0    0 -0.34685745504E+02 -0.45290440790E+02  0.13833599402E+02  0.58700029309E+02  0.51100000000E-03 0. -1.
         22    1    1    0    0    0  0.20845921239E+02  0.22413103872E+02  0.81609794432E+01  0.31678087742E+02  0.00000000000E+00 0. -1.
</event>
<event>
 5    1  0.1681104E-003  0.9118800E+02  0.7818608E-02  0.1130116E+00
         25   -1    0    0    0    0  0.00000000000E+00  0.00000000000E+00  0.99999998245E-14  0.12500000000E+03  0.12500000000E+03 0.  0.
        -11    1    3    3    0    0 -0.96904167357E+01  0.51631453939E+02  0.11641722884E+02  0.53807443020E+02  0.51100000000E-03 0. -1.
         23    2    1    0    0    0 -0.22209535155E+02  0.17529102888E+02 -0.86441314264E+01  0.95415309567E+02  0.90712884376E+02 0.  0.
         11    1    3    3    0    0 -0.12519118419E+02 -0.34102351051E+02 -0.20285854311E+02  0.41607866547E+02  0.51100000000E-03 0.  1.
         22    1    1    0    0    0  0.22209535155E+02 -0.17529102888E+02  0.86441314264E+01  0.29584690433E+02  0.00000000000E+00 0. -1.
</event>
<event>
 5    1  0.1681104E-003  0.9118800E+02  0.7818608E-02  0.1130116E+00
         25   -1    0    0    0    0  0.00000000000E+00  0.00000000000E+00  0.99999998245E-14  0.12500000000E+03  0.12500000000E+03 0.  0.
        -11    1    3    3    0    0 -0.20328173283E+02 -0.36844527247E+00  0.42693013636E+02  0.47287036220E+02  0.51100000000E-03 0. -1.
         23    2    1    0    0    0 -0.10648624558E+02 -0.27862666788E+02  0.52903506107E+01  0.94706284231E+02  0.89730546960E+02 0.  0.
         11    1    3    3    0    0  0.96795487249E+01 -0.27494221516E+02 -0.37402663025E+02  0.47419248011E+02  0.51100000000E-03 0.  1.
         22    1    1    0    0    0  0.10648624558E+02  0.27862666788E+02 -0.52903506107E+01  0.30293715769E+02  0.00000000000E+00 0.  1.
</event>
<event>
 5    1  0.1681104E-003  0.9118800E+02  0.7818608E-02  0.1130116E+00
         25   -1    0    0    0    0  0.00000000000E+00  0.00000000000E+00  0.99999998245E-14  0.12500000000E+03  0.12500000000E+03 0.  0.
        -11    1    3    3    0    0  0.97697903154E+01  0.20201472635E+02  0.34417709034E+02  0.41086822642E+02  0.51100000000E-03 0.  1.
         23    2    1    0    0    0 -0.22451363584E+02  0.16057561261E+02 -0.95832350544E+01  0.95781043918E+02  0.91215464585E+02 0.  0.
         11    1    3    3    0    0 -0.32221153899E+02 -0.41439113743E+01 -0.44000944088E+02  0.54694221276E+02  0.51100000000E-03 0. -1.
         22    1    1    0    0    0  0.22451363584E+02 -0.16057561261E+02  0.95832350544E+01  0.29218956082E+02  0.00000000000E+00 0. -1.
</event>
<event>
 5    1  0.1681104E-003  0.9118800E+02  0.7818608E-02  0.1130116E+00
         25   -1    0    0    0    0  0.00000000000E+00  0.00000000000E+00  0.99999998245E-14  0.12500000000E+03  0.12500000000E+03 0.  0.
        -11    1    3    3    0    0  0.29974445169E+02  0.51961575285E+01 -0.17227523430E+02  0.34960763436E+02  0.51100000000E-03 0. -1.
         23    2    1    0    0    0 -0.21097713642E+02  0.24935179443E+02 -0.80578492026E-01  0.92336822144E+02  0.86366692283E+02 0.  0.
         11    1    3    3    0    0 -0.51072158812E+02  0.19739021914E+02  0.17146944938E+02  0.57376058707E+02  0.51100000000E-03 0.  1.
         22    1    1    0    0    0  0.21097713642E+02 -0.24935179443E+02  0.80578492026E-01  0.32663177856E+02  0.00000000000E+00 0.  1.
</event>
<event>
 5    1  0.1681104E-003  0.9118800E+02  0.7818608E-02  0.1130116E+00
         25   -1    0    0    0    0  0.00000000000E+00  0.00000000000E+00  0.99999998245E-14  0.12500000000E+03  0.12500000000E+03 0.  0.
        -11    1    3    3    0    0  0.30771295889E+02 -0.32189149970E+02  0.40296031021E+02  0.60056507914E+02  0.51100000000E-03 0.  1.
         23    2    1    0    0    0  0.87028477512E+01 -0.12115828233E+02  0.29788505949E+02  0.91685019294E+02  0.85418117654E+02 0.  0.
         11    1    3    3    0    0 -0.22068448138E+02  0.20073321737E+02 -0.10507525072E+02  0.31628511381E+02  0.51100000000E-03 0. -1.
         22    1    1    0    0    0 -0.87028477512E+01  0.12115828233E+02 -0.29788505949E+02  0.33314980706E+02  0.00000000000E+00 0.  1.
</event>
<event>
 5    1  0.1681104E-003  0.9118800E+02  0.7818608E-02  0.1130116E+00
         25   -1    0    0    0    0  0.00000000000E+00  0.00000000000E+00  0.99999998245E-14  0.12500000000E+03  0.12500000000E+03 0.  0.
        -11    1    3    3    0    0  0.65356018636E+01  0.36339797129E+01  0.47822283713E+02  0.48403416409E+02  0.51100000000E-03 0.  1.
         23    2    1    0    0    0 -0.13837247042E+02  0.23646407867E+02  0.99159757961E+01  0.95863277695E+02  0.91328086719E+02 0.  0.
         11    1    3    3    0    0 -0.20372848906E+02  0.20012428154E+02 -0.37906307917E+02  0.47459861286E+02  0.51100000000E-03 0. -1.
         22    1    1    0    0    0  0.13837247042E+02 -0.23646407867E+02 -0.99159757961E+01  0.29136722305E+02  0.00000000000E+00 0. -1.
</event>
<event>
 5    1  0.1681104E-003  0.9118800E+02  0.7818608E-02  0.1130116E+00
         25   -1    0    0    0    0  0.00000000000E+00  0.00000000000E+00  0.99999998245E-14  0.12500000000E+03  0.12500000000E+03 0.  0.
        -11    1    3    3    0    0 -0.31400404269E+02  0.15809058057E+02  0.31572760300E+02  0.47251993589E+02  0.51100000000E-03 0.  1.
         23    2    1    0    0    0 -0.35133979438E+01  0.28932892198E+02 -0.53708373669E+01  0.95363837798E+02  0.90641929864E+02 0.  0.
         11    1    3    3    0    0  0.27887006325E+02  0.13123834141E+02 -0.36943597667E+02  0.48111844209E+02  0.51100000000E-03 0. -1.
         22    1    1    0    0    0  0.35133979438E+01 -0.28932892198E+02  0.53708373669E+01  0.29636162202E+02  0.00000000000E+00 0. -1.
</event>
<event>
 5    1  0.1681104E-003  0.9118800E+02  0.7818608E-02  0.1130116E+00
         25   -1    0    0    0    0  0.00000000000E+00  0.00000000000E+00  0.99999998245E-14  0.12500000000E+03  0.12500000000E+03 0.  0.
        -11    1    3    3    0    0  0.50529956804E+02 -0.30148701739E+02 -0.11946416706E+02  0.60041132764E+02  0.51100000000E-03 0.  1.
         23    2    1    0    0    0  0.25517471218E+02 -0.62177205423E+01 -0.14934816120E+02  0.94786590417E+02  0.89842348612E+02 0.  0.
         11    1    3    3    0    0 -0.25012485586E+02  0.23930981197E+02 -0.29883994140E+01  0.34745457653E+02  0.51100000000E-03 0. -1.
         22    1    1    0    0    0 -0.25517471218E+02  0.62177205423E+01  0.14934816120E+02  0.30213409583E+02  0.00000000000E+00 0.  1.
</event>
<event>
 5    1  0.1681104E-003  0.9118800E+02  0.7818608E-02  0.1130116E+00
         25   -1    0    0    0    0  0.00000000000E+00  0.00000000000E+00  0.99999998245E-14  0.12500000000E+03  0.12500000000E+03 0.  0.
        -11    1    3    3    0    0 -0.13226913334E+02  0.26152179834E+02  0.11807386324E+02  0.31595919332E+02  0.51100000000E-03 0. -1.
         23    2    1    0    0    0 -0.32099619228E+02 -0.23202053563E+02  0.81589474536E+01  0.84561289985E+02  0.74265217271E+02 0.  0.
         11    1    3    3    0    0 -0.18872705894E+02 -0.49354233396E+02 -0.36484388705E+01  0.52965370653E+02  0.51100000000E-03 0.  1.
         22    1    1    0    0    0  0.32099619228E+02  0.23202053563E+02 -0.81589474536E+01  0.40438710015E+02  0.00000000000E+00 0.  1.
</event>
<event>
 5    1  0.1681104E-003  0.9118800E+02  0.7818608E-02  0.1130116E+00
         25   -1    0    0    0    0  0.00000000000E+00  0.00000000000E+00  0.99999998245E-14  0.12500000000E+03  0.12500000000E+03 0.  0.
        -11    1    3    3    0    0 -0.50290348237E+02 -0.75929184053E+00 -0.28494290448E+02  0.57806749072E+02  0.51100000000E-03 0. -1.
         23    2    1    0    0    0 -0.16503207509E+02  0.15259584433E+02 -0.16643186712E+02  0.97032046212E+02  0.92914000845E+02 0.  0.
         11    1    3    3    0    0  0.33787140728E+02  0.16018876274E+02  0.11851103737E+02  0.39225297139E+02  0.51100000000E-03 0.  1.
         22    1    1    0    0    0  0.16503207509E+02 -0.15259584433E+02  0.16643186712E+02  0.27967953788E+02  0.00000000000E+00 0. -1.
</event>
<event>
 5    1  0.1681104E-003  0.9118800E+02  0.7818608E-02  0.1130116E+00
         25   -1    0    0    0    0  0.00000000000E+00  0.00000000000E+00  0.99999998245E-14  0.12500000000E+03  0.12500000000E+03 0.  0.
        -11    1    3    3    0    0 -0.32563409321E+01 -0.30974102937E+02 -0.36275300479E+02  0.47811047198E+02  0.51100000000E-03 0. -1.
         23    2    1    0    0    0  0.98192534703E+01 -0.24157150301E+02  0.10525039108E+02  0.96879507515E+02  0.92708558822E+02 0.  0.
         11    1    3    3    0    0  0.13075594402E+02  0.68169526364E+01  0.46800339587E+02  0.49068460318E+02  0.51100000000E-03 0.  1.
         22    1    1    0    0    0 -0.98192534703E+01  0.24157150301E+02 -0.10525039108E+02  0.28120492485E+02  0.00000000000E+00 0.  1.
</event>
<event>
 5    1  0.1681104E-003  0.9118800E+02  0.7818608E-02  0.1130116E+00
         25   -1    0    0    0    0  0.00000000000E+00  0.00000000000E+00  0.99999998245E-14  0.12500000000E+03  0.12500000000E+03 0.  0.
        -11    1    3    3    0    0 -0.38460375622E+02 -0.17301440628E+02  0.41262237424E+02  0.59000954046E+02  0.51100000000E-03 0. -1.
         23    2    1    0    0    0 -0.25972404247E+02  0.19899955394E+01  0.11700518573E+02  0.96444300053E+02  0.92119894774E+02 0.  0.
         11    1    3    3    0    0  0.12487971376E+02  0.19291436167E+02 -0.29561718851E+02  0.37443346007E+02  0.51100000000E-03 0.  1.
         22    1    1    0    0    0  0.25972404247E+02 -0.19899955394E+01 -0.11700518573E+02  0.28555699947E+02  0.00000000000E+00 0. -1.
</event>
<event>
 5    1  0.1681104E-003  0.9118800E+02  0.7818608E-02  0.1130116E+00
         25   -1    0    0    0    0  0.00000000000E+00  0.00000000000E+00  0.99999998245E-14  0.12500000000E+03  0.12500000000E+03 0.  0.
        -11    1    3    3    0    0  0.12978208779E+02  0.50402816015E+02 -0.21998122418E+02  0.56504824180E+02  0.51100000000E-03 0. -1.
         23    2    1    0    0    0  0.22374312119E+01  0.13477519679E+02 -0.26462598747E+02  0.95218818567E+02  0.90441719586E+02 0.  0.
         11    1    3    3    0    0 -0.10740777567E+02 -0.36925296336E+02 -0.44644763284E+01  0.38713994387E+02  0.51100000000E-03 0.  1.
         22    1    1    0    0    0 -0.22374312119E+01 -0.13477519679E+02  0.26462598747E+02  0.29781181433E+02  0.00000000000E+00 0. -1.
</event>
<event>
 5    1  0.1681104E-003  0.9118800E+02  0.7818608E-02  0.1130116E+00
         25   -1    0    0    0    0  0.00000000000E+00  0.00000000000E+00  0.99999998245E-14  0.12500000000E+03  0.12500000000E+03 0.  0.
        -11    1    3    3    0    0 -0.39008261641E+01  0.24502131548E+02 -0.42604539813E+02  0.49302309358E+02  0.51100000000E-03 0.  1.
         23    2    1    0    0    0 -0.14884609729E+02 -0.14134706904E+02 -0.23548368055E+02  0.93761127035E+02  0.88404082252E+02 0.  0.
         11    1    3    3    0    0 -0.10983783565E+02 -0.38636838452E+02  0.19056171757E+02  0.44458817677E+02  0.51100000000E-03 0. -1.
         22    1    1    0    0    0  0.14884609729E+02  0.14134706904E+02  0.23548368055E+02  0.31238872965E+02  0.00000000000E+00 0. -1.
</event>
<event>
 5    1  0.1681104E-003  0.9118800E+02  0.7818608E-02  0.1130116E+00
         25   -1    0    0    0    0  0.00000000000E+00  0.00000000000E+00  0.99999998245E-14  0.12500000000E+03  0.12500000000E+03 0.  0.
        -11    1    3    3    0    0  0.37551721529E+02  0.32333671130E+02 -0.24831036166E+02  0.55427235507E+02  0.51100000000E-03 0.  1.
         23    2    1    0    0    0  0.16506034454E+02 -0.27376709257E+01 -0.23245328583E+02  0.96359306635E+02  0.92004492601E+02 0.  0.
         11    1    3    3    0    0 -0.21045687075E+02 -0.35071342056E+02  0.15857075834E+01  0.40932071129E+02  0.51100000000E-03 0. -1.
         22    1    1    0    0    0 -0.16506034454E+02  0.27376709257E+01  0.23245328583E+02  0.28640693365E+02  0.00000000000E+00 0.  1.
</event>
<event>
 5    1  0.1681104E-003  0.9118800E+02  0.7818608E-02  0.1130116E+00
         25   -1    0    0    0    0  0.00000000000E+00  0.00000000000E+00  0.99999998245E-14  0.12500000000E+03  0.12500000000E+03 0.  0.
        -11    1    3    3    0    0 -0.98934848893E+01 -0.67900174338E+01 -0.39995609285E+02  0.41756845455E+02  0.51100000000E-03 0. -1.
         23    2    1    0    0    0 -0.24404412692E+02  0.17741298150E+02  0.43950778703E+01  0.94509907701E+02  0.89456564461E+02 0.  0.
         11    1    3    3    0    0 -0.14510927803E+02  0.24531315584E+02  0.44390687155E+02  0.52753062246E+02  0.51100000000E-03 0.  1.
         22    1    1    0    0    0  0.24404412692E+02 -0.17741298150E+02 -0.43950778703E+01  0.30490092299E+02  0.00000000000E+00 0.  1.
</event>
<event>
 5    1  0.1681104E-003  0.9118800E+02  0.7818608E-02  0.1130116E+00
         25   -1    0    0    0    0  0.00000000000E+00  0.00000000000E+00  0.99999998245E-14  0.12500000000E+03  0.12500000000E+03 0.  0.
        -11    1    3    3    0    0  0.38440465389E+02 -0.28648080802E+02  0.39344920634E+02  0.62019389653E+02  0.51100000000E-03 0. -1.
         23    2    1    0    0    0  0.12611646093E+02 -0.14932079665E+02  0.19695833057E+02  0.97252090888E+02  0.93209563468E+02 0.  0.
         11    1    3    3    0    0 -0.25828819296E+02  0.13716001138E+02 -0.19649087577E+02  0.35232701235E+02  0.51100000000E-03 0.  1.
         22    1    1    0    0    0 -0.12611646093E+02  0.14932079665E+02 -0.19695833057E+02  0.27747909112E+02  0.00000000000E+00 0. -1.
</event>
<event>
 5    1  0.1681104E-003  0.9118800E+02  0.7818608E-02  0.1130116E+00
         25   -1    0    0    0    0  0.00000000000E+00  0.00000000000E+00  0.99999998245E-14  0.12500000000E+03  0.12500000000E+03 0.  0.
        -11    1    3    3    0    0  0.26411006498E+02  0.18961461679E+02 -0.28832806095E+02  0.43455828157E+02  0.51100000000E-03 0. -1.
         23    2    1    0    0    0  0.21656751899E+02 -0.87060454591E+01  0.16246200613E+02  0.96561484485E+02  0.92278768529E+02 0.  0.
         11    1    3    3    0    0 -0.47542545992E+01 -0.27667507138E+02  0.45079006708E+02  0.53105656328E+02  0.51100000000E-03 0.  1.
         22    1    1    0    0    0 -0.21656751899E+02  0.87060454591E+01 -0.16246200613E+02  0.28438515515E+02  0.00000000000E+00 0.  1.
</event>
<event>
 5    1  0.1681104E-003  0.9118800E+02  0.7818608E-02  0.1130116E+00
         25   -1    0    0    0    0  0.00000000000E+00  0.00000000000E+00  0.99999998245E-14  0.12500000000E+03  0.12500000000E+03 0.  0.
        -11    1    3    3    0    0 -0.28566190477E+02  0.18485117888E+02 -0.10503324612E+02  0.35609642653E+02  0.51100000000E-03 0.  1.
         23    2    1    0    0    0  0.26980357639E+02  0.32530909137E+01 -0.15992452401E+02  0.93467781039E+02  0.87988324565E+02 0.  0.
         11    1    3    3    0    0  0.55546548116E+02 -0.15232026974E+02 -0.54891277888E+01  0.57858138386E+02  0.51100000000E-03 0. -1.
         22    1    1    0    0    0 -0.26980357639E+02 -0.32530909137E+01  0.15992452401E+02  0.31532218961E+02  0.00000000000E+00 0. -1.
</event>
<event>
 5    1  0.1681104E-003  0.9118800E+02  0.7818608E-02  0.1130116E+00
         25   -1    0    0    0    0  0.00000000000E+00  0.00000000000E+00  0.99999998245E-14  0.12500000000E+03  0.12500000000E+03 0.  0.
        -11    1    3    3    0    0 -0.26043502336E+02 -0.39568688365E+02  0.90062334702E+01  0.48218848539E+02  0.51100000000E-03 0.  1.
         23    2    1    0    0    0  0.16860296215E+02 -0.22362785388E+02  0.11978027717E+02  0.94539584593E+02  0.89498023153E+02 0.  0.
         11    1    3    3    0    0  0.42903798551E+02  0.17205902976E+02  0.29717942465E+01  0.46320736054E+02  0.51100000000E-03 0. -1.
         22    1    1    0    0    0 -0.16860296215E+02  0.22362785388E+02 -0.11978027717E+02  0.30460415407E+02  0.00000000000E+00 0.  1.
</event>
<event>
 5    1  0.1681104E-003  0.9118800E+02  0.7818608E-02  0.1130116E+00
         25   -1    0    0    0    0  0.00000000000E+00  0.00000000000E+00  0.99999998245E-14  0.12500000000E+03  0.12500000000E+03 0.  0.
        -11    1    3    3    0    0  0.36335007377E+02 -0.27759123774E+01  0.55865354817E+01  0.36866622161E+02  0.51100000000E-03 0.  1.
         23    2    1    0    0    0 -0.10566252436E+01 -0.37058174967E+02 -0.21573311529E+00  0.87926136841E+02  0.79727875992E+02 0.  0.
         11    1    3    3    0    0 -0.37391632620E+02 -0.34282262589E+02 -0.58022685970E+01  0.51059514680E+02  0.51100000000E-03 0. -1.
         22    1    1    0    0    0  0.10566252436E+01  0.37058174967E+02  0.21573311529E+00  0.37073863159E+02  0.00000000000E+00 0. -1.
</event>
<event>
 5    1  0.1681104E-003  0.9118800E+02  0.7818608E-02  0.1130116E+00
         25   -1    0    0    0    0  0.00000000000E+00  0.00000000000E+00  0.99999998245E-14  0.12500000000E+03  0.12500000000E+03 0.  0.
        -11    1    3    3    0    0 -0.86752272462E+01 -0.33680908090E+02  0.14046405524E+02  0.37509527403E+02  0.51100000000E-03 0.  1.
         23    2    1    0    0    0 -0.70816360706E+01  0.65100401108E+01 -0.27818269262E+02  0.95565559349E+02  0.90919688942E+02 0.  0.
         11    1    3    3    0    0  0.15935911756E+01  0.40190948201E+02 -0.41864674787E+02  0.58056031947E+02  0.51100000000E-03 0. -1.
         22    1    1    0    0    0  0.70816360706E+01 -0.65100401108E+01  0.27818269262E+02  0.29434440651E+02  0.00000000000E+00 0. -1.
</event>
<event>
 5    1  0.1681104E-003  0.9118800E+02  0.7818608E-02  0.1130116E+00
         25   -1    0    0    0    0  0.00000000000E+00  0.00000000000E+00  0.99999998245E-14  0.12500000000E+03  0.12500000000E+03 0.  0.
        -11    1    3    3    0    0  0.27291111808E+02  0.91490977728E+01  0.41810009319E+02  0.50760099027E+02  0.51100000000E-03 0.  1.
         23    2    1    0    0    0  0.14942281595E+02  0.24644670140E+02  0.95841936062E+00  0.96163389359E+02  0.91737927488E+02 0.  0.
         11    1    3    3    0    0 -0.12348830213E+02  0.15495572368E+02 -0.40851589958E+02  0.45403290332E+02  0.51100000000E-03 0. -1.
         22    1    1    0    0    0 -0.14942281595E+02 -0.24644670140E+02 -0.95841936062E+00  0.28836610641E+02  0.00000000000E+00 0.  1.
</event>
<event>
 5    1  0.1681104E-003  0.9118800E+02  0.7818608E-02  0.1130116E+00
         25   -1    0    0    0    0  0.00000000000E+00  0.00000000000E+00  0.99999998245E-14  0.12500000000E+03  0.12500000000E+03 0.  0.
        -11    1    3    3    0    0 -0.40777782787E+02 -0.10498072511E+02 -0.91342573296E+01  0.43086793251E+02  0.51100000000E-03 0.  1.
         23    2    1    0    0    0 -0.10008822958E+02  0.17047769545E+01 -0.37172247038E+02  0.86466135007E+02  0.77404998235E+02 0.  0.
         11    1    3    3    0    0  0.30768959829E+02  0.12202849465E+02 -0.28037989708E+02  0.43379341756E+02  0.51100000000E-03 0. -1.
         22    1    1    0    0    0  0.10008822958E+02 -0.17047769545E+01  0.37172247038E+02  0.38533864993E+02  0.00000000000E+00 0.  1.
</event>
<event>
 5    1  0.1681104E-003  0.9118800E+02  0.7818608E-02  0.1130116E+00
         25   -1    0    0    0    0  0.00000000000E+00  0.00000000000E+00  0.99999998245E-14  0.12500000000E+03  0.12500000000E+03 0.  0.
        -11    1    3    3    0    0 -0.33389424974E+02 -0.15720813567E+02  0.16535488963E+01  0.36942277995E+02  0.51100000000E-03 0. -1.
         23    2    1    0    0    0  0.12968828166E+02  0.15968792020E+02 -0.19216203924E+02  0.96849417132E+02  0.92667978735E+02 0.  0.
         11    1    3    3    0    0  0.46358253140E+02  0.31689605587E+02 -0.20869752820E+02  0.59907139136E+02  0.51100000000E-03 0.  1.
         22    1    1    0    0    0 -0.12968828166E+02 -0.15968792020E+02  0.19216203924E+02  0.28150582868E+02  0.00000000000E+00 0.  1.
</event>
<event>
 5    1  0.1681104E-003  0.9118800E+02  0.7818608E-02  0.1130116E+00
         25   -1    0    0    0    0  0.00000000000E+00  0.00000000000E+00  0.99999998245E-14  0.12500000000E+03  0.12500000000E+03 0.  0.
        -11    1    3    3    0    0 -0.19456298817E+01  0.10834107197E+02  0.40130082846E+02  0.41612340764E+02  0.51100000000E-03 0. -1.
         23    2    1    0    0    0 -0.34641238205E+02  0.14272622464E+02  0.99628876137E+01  0.86231684767E+02  0.77025458076E+02 0.  0.
         11    1    3    3    0    0 -0.32695608323E+02  0.34385152670E+01 -0.30167195232E+02  0.44619344003E+02  0.51100000000E-03 0.  1.
         22    1    1    0    0    0  0.34641238205E+02 -0.14272622464E+02 -0.99628876137E+01  0.38768315233E+02  0.00000000000E+00 0.  1.
</event>
<event>
 5    1  0.1681104E-003  0.9118800E+02  0.7818608E-02  0.1130116E+00
         25   -1    0    0    0    0  0.00000000000E+00  0.00000000000E+00  0.99999998245E-14  0.12500000000E+03  0.12500000000E+03 0.  0.
        -11    1    3    3    0    0  0.73645831514E+00 -0.99084465180E+01  0.35828360604E+02  0.37180520533E+02  0.51100000000E-03 0. -1.
         23    2    1    0    0    0 -0.17876341097E+02  0.14101210708E+01 -0.20612357268E+02  0.97679288359E+02  0.93780712781E+02 0.  0.
         11    1    3    3    0    0 -0.18612799412E+02  0.11318567589E+02 -0.56440717873E+02  0.60498767826E+02  0.51100000000E-03 0.  1.
         22    1    1    0    0    0  0.17876341097E+02 -0.14101210708E+01  0.20612357268E+02  0.27320711641E+02  0.00000000000E+00 0.  1.
</event>
<event>
 5    1  0.1681104E-003  0.9118800E+02  0.7818608E-02  0.1130116E+00
         25   -1    0    0    0    0  0.00000000000E+00  0.00000000000E+00  0.99999998245E-14  0.12500000000E+03  0.12500000000E+03 0.  0.
        -11    1    3    3    0    0 -0.47459732096E+02 -0.40446089297E+01 -0.97638569048E+01  0.48622195898E+02  0.51100000000E-03 0.  1.
         23    2    1    0    0    0 -0.67121948569E+01  0.16625565768E+02 -0.22666576044E+02  0.96099538646E+02  0.91650884674E+02 0.  0.
         11    1    3    3    0    0  0.40747537239E+02  0.20670174698E+02 -0.12902719139E+02  0.47477342749E+02  0.51100000000E-03 0. -1.
         22    1    1    0    0    0  0.67121948569E+01 -0.16625565768E+02  0.22666576044E+02  0.28900461354E+02  0.00000000000E+00 0. -1.
</event>
<event>
 5    1  0.1681104E-003  0.9118800E+02  0.7818608E-02  0.1130116E+00
         25   -1    0    0    0    0  0.00000000000E+00  0.00000000000E+00  0.99999998245E-14  0.12500000000E+03  0.12500000000E+03 0.  0.
        -11    1    3    3    0    0 -0.30342688709E+02  0.41089245043E+01  0.14137160741E+02  0.33725677647E+02  0.51100000000E-03 0. -1.
         23    2    1    0    0    0  0.29102357166E+02  0.59523280850E+01 -0.16191636011E+01  0.95251065683E+02  0.90486277527E+02 0.  0.
         11    1    3    3    0    0  0.59445045875E+02  0.18434035808E+01 -0.15756324342E+02  0.61525388035E+02  0.51100000000E-03 0.  1.
         22    1    1    0    0    0 -0.29102357166E+02 -0.59523280850E+01  0.16191636011E+01  0.29748934317E+02  0.00000000000E+00 0.  1.
</event>
<event>
 5    1  0.1681104E-003  0.9118800E+02  0.7818608E-02  0.1130116E+00
         25   -1    0    0    0    0  0.00000000000E+00  0.00000000000E+00  0.99999998245E-14  0.12500000000E+03  0.12500000000E+03 0.  0.
        -11    1    3    3    0    0 -0.12597240140E+01 -0.36911291982E+02 -0.24971744711E+02  0.44582714302E+02  0.51100000000E-03 0.  1.
         23    2    1    0    0    0 -0.98624136413E+01  0.14389793675E+02 -0.22324954175E+02  0.96667387276E+02  0.92422112176E+02 0.  0.
         11    1    3    3    0    0 -0.86026896273E+01  0.51301085657E+02  0.26467905364E+01  0.52084672974E+02  0.51100000000E-03 0. -1.
         22    1    1    0    0    0  0.98624136413E+01 -0.14389793675E+02  0.22324954175E+02  0.28332612724E+02  0.00000000000E+00 0.  1.
</event>
<event>
 5    1  0.1681104E-003  0.9118800E+02  0.7818608E-02  0.1130116E+00
         25   -1    0    0    0    0  0.00000000000E+00  0.00000000000E+00  0.99999998245E-14  0.12500000000E+03  0.12500000000E+03 0.  0.
        -11    1    3    3    0    0 -0.92567486702E+01  0.42890353867E+02  0.12345930174E+02  0.45581705134E+02  0.51100000000E-03 0. -1.
         23    2    1    0    0    0  0.85281159614E+01  0.17570684856E+02 -0.24481604748E+02  0.93682166435E+02  0.88292364386E+02 0.  0.
         11    1    3    3    0    0  0.17784864632E+02 -0.25319669011E+02 -0.36827534922E+02  0.48100461302E+02  0.51100000000E-03 0.  1.
         22    1    1    0    0    0 -0.85281159614E+01 -0.17570684856E+02  0.24481604748E+02  0.31317833565E+02  0.00000000000E+00 0. -1.
</event>
<event>
 5    1  0.1681104E-003  0.9118800E+02  0.7818608E-02  0.1130116E+00
         25   -1    0    0    0    0  0.00000000000E+00  0.00000000000E+00  0.99999998245E-14  0.12500000000E+03  0.12500000000E+03 0.  0.
        -11    1    3    3    0    0  0.15848528660E+02  0.27750221777E+02  0.11265814333E+02  0.33884646113E+02  0.51100000000E-03 0.  1.
         23    2    1    0    0    0 -0.26495146622E+02 -0.84756769858E+01 -0.12545642728E+02  0.94484052589E+02  0.89420429138E+02 0.  0.
         11    1    3    3    0    0 -0.42343675283E+02 -0.36225898763E+02 -0.23811457062E+02  0.60599406476E+02  0.51100000000E-03 0. -1.
         22    1    1    0    0    0  0.26495146622E+02  0.84756769858E+01  0.12545642728E+02  0.30515947411E+02  0.00000000000E+00 0. -1.
</event>
<event>
 5    1  0.1681104E-003  0.9118800E+02  0.7818608E-02  0.1130116E+00
         25   -1    0    0    0    0  0.00000000000E+00  0.00000000000E+00  0.99999998245E-14  0.12500000000E+03  0.12500000000E+03 0.  0.
        -11    1    3    3    0    0  0.72841895271E+01 -0.31758670615E+02  0.17497295820E+02  0.36984157927E+02  0.51100000000E-03 0.  1.
         23    2    1    0    0    0 -0.26499483852E+02  0.10665438054E+02 -0.55328427163E+01  0.95903839398E+02  0.91383586324E+02 0.  0.
         11    1    3    3    0    0 -0.33783673379E+02  0.42424108669E+02 -0.23030138537E+02  0.58919681470E+02  0.51100000000E-03 0. -1.
         22    1    1    0    0    0  0.26499483852E+02 -0.10665438054E+02  0.55328427163E+01  0.29096160602E+02  0.00000000000E+00 0. -1.
</event>
<event>
 5    1  0.1681104E-003  0.9118800E+02  0.7818608E-02  0.1130116E+00
         25   -1    0    0    0    0  0.00000000000E+00  0.00000000000E+00  0.99999998245E-14  0.12500000000E+03  0.12500000000E+03 0.  0.
        -11    1    3    3    0    0  0.47703009262E+02 -0.30980210213E+02  0.12072896317E+02  0.58147272879E+02  0.51100000000E-03 0.  1.
         23    2    1    0    0    0  0.83912562204E+01 -0.24478077882E+02  0.37469488199E+01  0.98853698097E+02  0.95333228857E+02 0.  0.
         11    1    3    3    0    0 -0.39311753042E+02  0.65021323311E+01 -0.83259474968E+01  0.40706425218E+02  0.51100000000E-03 0. -1.
         22    1    1    0    0    0 -0.83912562204E+01  0.24478077882E+02 -0.37469488199E+01  0.26146301903E+02  0.00000000000E+00 0.  1.
</event>
<event>
 5    1  0.1681104E-003  0.9118800E+02  0.7818608E-02  0.1130116E+00
         25   -1    0    0    0    0  0.00000000000E+00  0.00000000000E+00  0.99999998245E-14  0.12500000000E+03  0.12500000000E+03 0.  0.
        -11    1    3    3    0    0 -0.22609976002E+02  0.38392627234E+02  0.28630671178E+02  0.52961497082E+02  0.51100000000E-03 0. -1.
         23    2    1    0    0    0 -0.16757897754E+02 -0.38314955707E+01  0.23480857805E+02  0.95899172199E+02  0.91377202025E+02 0.  0.
         11    1    3    3    0    0  0.58520782481E+01 -0.42224122805E+02 -0.51498133734E+01  0.42937675118E+02  0.51100000000E-03 0.  1.
         22    1    1    0    0    0  0.16757897754E+02  0.38314955707E+01 -0.23480857805E+02  0.29100827801E+02  0.00000000000E+00 0. -1.
</event>
<event>
 5    1  0.1681104E-003  0.9118800E+02  0.7818608E-02  0.1130116E+00
         25   -1    0    0    0    0  0.00000000000E+00  0.00000000000E+00  0.99999998245E-14  0.12500000000E+03  0.12500000000E+03 0.  0.
        -11    1    3    3    0    0 -0.49715396124E+02  0.22926766284E+02 -0.19908341915E+01  0.54783397531E+02  0.51100000000E-03 0. -1.
         23    2    1    0    0    0 -0.16665333549E+02  0.17818938828E+02 -0.20612313979E+02  0.93060754379E+02  0.87408172357E+02 0.  0.
         11    1    3    3    0    0  0.33050062575E+02 -0.51078274560E+01 -0.18621479787E+02  0.38277356848E+02  0.51100000000E-03 0.  1.
         22    1    1    0    0    0  0.16665333549E+02 -0.17818938828E+02  0.20612313979E+02  0.31939245621E+02  0.00000000000E+00 0. -1.
</event>
<event>
 5    1  0.1681104E-003  0.9118800E+02  0.7818608E-02  0.1130116E+00
         25   -1    0    0    0    0  0.00000000000E+00  0.00000000000E+00  0.99999998245E-14  0.12500000000E+03  0.12500000000E+03 0.  0.
        -11    1    3    3    0    0  0.21911359181E+02 -0.29689721498E+02  0.41354462624E+01  0.37130703466E+02  0.51100000000E-03 0.  1.
         23    2    1    0    0    0  0.16396168128E+02  0.26576921324E+02  0.20384630743E+01  0.93705872627E+02  0.88325920073E+02 0.  0.
         11    1    3    3    0    0 -0.55151910527E+01  0.56266642822E+02 -0.20969831881E+01  0.56575169161E+02  0.51100000000E-03 0. -1.
         22    1    1    0    0    0 -0.16396168128E+02 -0.26576921324E+02 -0.20384630743E+01  0.31294127373E+02  0.00000000000E+00 0. -1.
</event>
<event>
 5    1  0.1681104E-003  0.9118800E+02  0.7818608E-02  0.1130116E+00
         25   -1    0    0    0    0  0.00000000000E+00  0.00000000000E+00  0.99999998245E-14  0.12500000000E+03  0.12500000000E+03 0.  0.
        -11    1    3    3    0    0  0.33304572885E+02  0.20264763999E+02  0.13948004335E+02  0.41405338547E+02  0.51100000000E-03 0.  1.
         23    2    1    0    0    0  0.24273216457E+02 -0.15225577932E+02 -0.18961318135E+02  0.90641029615E+02  0.83876441291E+02 0.  0.
         11    1    3    3    0    0 -0.90313564282E+01 -0.35490341931E+02 -0.32909322469E+02  0.49235691068E+02  0.51100000000E-03 0. -1.
         22    1    1    0    0    0 -0.24273216457E+02  0.15225577932E+02  0.18961318135E+02  0.34358970385E+02  0.00000000000E+00 0. -1.
</event>
<event>
 5    1  0.1681104E-003  0.9118800E+02  0.7818608E-02  0.1130116E+00
         25   -1    0    0    0    0  0.00000000000E+00  0.00000000000E+00  0.99999998245E-14  0.12500000000E+03  0.12500000000E+03 0.  0.
        -11    1    3    3    0    0 -0.13094248118E+02 -0.19096123814E+02  0.52911806892E+02  0.57756216872E+02  0.51100000000E-03 0.  1.
         23    2    1    0    0    0  0.10495597915E+02 -0.52647657878E+01  0.27548488619E+02  0.95053471661E+02  0.90212903263E+02 0.  0.
         11    1    3    3    0    0  0.23589846032E+02  0.13831358026E+02 -0.25363318274E+02  0.37297254789E+02  0.51100000000E-03 0. -1.
         22    1    1    0    0    0 -0.10495597915E+02  0.52647657878E+01 -0.27548488619E+02  0.29946528339E+02  0.00000000000E+00 0. -1.
</event>
<event>
 5    1  0.1681104E-003  0.9118800E+02  0.7818608E-02  0.1130116E+00
         25   -1    0    0    0    0  0.00000000000E+00  0.00000000000E+00  0.99999998245E-14  0.12500000000E+03  0.12500000000E+03 0.  0.
        -11    1    3    3    0    0  0.16728096824E+02 -0.18661094320E+02  0.71517598989E+01  0.26061721633E+02  0.51100000000E-03 0.  1.
         23    2    1    0    0    0 -0.39789369377E+02 -0.59849432219E+01  0.79325220785E+01  0.83988558093E+02  0.73294880607E+02 0.  0.
         11    1    3    3    0    0 -0.56517466200E+02  0.12676151098E+02  0.78076217963E+00  0.57926836460E+02  0.51100000000E-03 0. -1.
         22    1    1    0    0    0  0.39789369377E+02  0.59849432219E+01 -0.79325220785E+01  0.41011441907E+02  0.00000000000E+00 0. -1.
</event>
<event>
 5    1  0.1681104E-003  0.9118800E+02  0.7818608E-02  0.1130116E+00
         25   -1    0    0    0    0  0.00000000000E+00  0.00000000000E+00  0.99999998245E-14  0.12500000000E+03  0.12500000000E+03 0.  0.
        -11    1    3    3    0    0 -0.41731913044E+02  0.38281406509E+02  0.28129681805E+01  0.56700365439E+02  0.51100000000E-03 0. -1.
         23    2    1    0    0    0 -0.27709320815E+02  0.23629302661E+01 -0.66560356271E+01  0.96404673288E+02  0.92066108433E+02 0.  0.
         11    1    3    3    0    0  0.14022592229E+02 -0.35918476243E+02 -0.94690038076E+01  0.39704307850E+02  0.51100000000E-03 0.  1.
         22    1    1    0    0    0  0.27709320815E+02 -0.23629302661E+01  0.66560356271E+01  0.28595326712E+02  0.00000000000E+00 0. -1.
</event>
<event>
 5    1  0.1681104E-003  0.9118800E+02  0.7818608E-02  0.1130116E+00
         25   -1    0    0    0    0  0.00000000000E+00  0.00000000000E+00  0.99999998245E-14  0.12500000000E+03  0.12500000000E+03 0.  0.
        -11    1    3    3    0    0  0.16656324726E+01 -0.62675207850E+01 -0.57679414050E+02  0.58042837230E+02  0.51100000000E-03 0. -1.
         23    2    1    0    0    0  0.16758199620E+02  0.66967804234E+00 -0.22594913234E+02  0.96860777779E+02  0.92683301866E+02 0.  0.
         11    1    3    3    0    0  0.15092567147E+02  0.69371988274E+01  0.35084500816E+02  0.38817940549E+02  0.51100000000E-03 0.  1.
         22    1    1    0    0    0 -0.16758199620E+02 -0.66967804234E+00  0.22594913234E+02  0.28139222221E+02  0.00000000000E+00 0. -1.
</event>
<event>
 5    1  0.1681104E-003  0.9118800E+02  0.7818608E-02  0.1130116E+00
         25   -1    0    0    0    0  0.00000000000E+00  0.00000000000E+00  0.99999998245E-14  0.12500000000E+03  0.12500000000E+03 0.  0.
        -11    1    3    3    0    0  0.20242866268E+02 -0.33352032737E+02  0.29908626081E+02  0.49159512170E+02  0.51100000000E-03 0.  1.
         23    2    1    0    0    0  0.24473188458E+02 -0.40607728855E+01 -0.94930018406E+01  0.98437923393E+02  0.94786501403E+02 0.  0.
         11    1    3    3    0    0  0.42303221904E+01  0.29291259852E+02 -0.39401627922E+02  0.49278411223E+02  0.51100000000E-03 0. -1.
         22    1    1    0    0    0 -0.24473188458E+02  0.40607728855E+01  0.94930018406E+01  0.26562076607E+02  0.00000000000E+00 0. -1.
</event>
<event>
 5    1  0.1681104E-003  0.9118800E+02  0.7818608E-02  0.1130116E+00
         25   -1    0    0    0    0  0.00000000000E+00  0.00000000000E+00  0.99999998245E-14  0.12500000000E+03  0.12500000000E+03 0.  0.
        -11    1    3    3    0    0  0.10898047983E+02 -0.53611208607E+02  0.11201890731E+02  0.55842738958E+02  0.51100000000E-03 0. -1.
         23    2    1    0    0    0 -0.40411154928E+01 -0.28421178811E+02 -0.12665350068E+02  0.93623175563E+02  0.88208808465E+02 0.  0.
         11    1    3    3    0    0 -0.14939163476E+02  0.25190029796E+02 -0.23867240799E+02  0.37780436605E+02  0.51100000000E-03 0.  1.
         22    1    1    0    0    0  0.40411154928E+01  0.28421178811E+02  0.12665350068E+02  0.31376824437E+02  0.00000000000E+00 0. -1.
</event>
<event>
 5    1  0.1681104E-003  0.9118800E+02  0.7818608E-02  0.1130116E+00
         25   -1    0    0    0    0  0.00000000000E+00  0.00000000000E+00  0.99999998245E-14  0.12500000000E+03  0.12500000000E+03 0.  0.
        -11    1    3    3    0    0 -0.20732316253E+02 -0.21979816979E+02  0.22805556343E+02  0.37855444681E+02  0.51100000000E-03 0. -1.
         23    2    1    0    0    0  0.49903812405E+01 -0.88253234169E+01 -0.27402248918E+02  0.95782308714E+02  0.91217197821E+02 0.  0.
         11    1    3    3    0    0  0.25722697493E+02  0.13154493562E+02 -0.50207805261E+02  0.57926864032E+02  0.51100000000E-03 0.  1.
         22    1    1    0    0    0 -0.49903812405E+01  0.88253234169E+01  0.27402248918E+02  0.29217691286E+02  0.00000000000E+00 0.  1.
</event>
<event>
 5    1  0.1681104E-003  0.9118800E+02  0.7818608E-02  0.1130116E+00
         25   -1    0    0    0    0  0.00000000000E+00  0.00000000000E+00  0.99999998245E-14  0.12500000000E+03  0.12500000000E+03 0.  0.
        -11    1    3    3    0    0  0.33109043847E+02  0.12748812888E+02  0.45583025682E+01  0.35770366745E+02  0.51100000000E-03 0.  1.
         23    2    1    0    0    0 -0.19304418783E+02 -0.19308249546E+02  0.51624544829E+01  0.97212952274E+02  0.93157061291E+02 0.  0.
         11    1    3    3    0    0 -0.52413462630E+02 -0.32057062433E+02  0.60415191472E+00  0.61442585529E+02  0.51100000000E-03 0. -1.
         22    1    1    0    0    0  0.19304418783E+02  0.19308249546E+02 -0.51624544829E+01  0.27787047726E+02  0.00000000000E+00 0. -1.
</event>
<event>
 5    1  0.1681104E-003  0.9118800E+02  0.7818608E-02  0.1130116E+00
         25   -1    0    0    0    0  0.00000000000E+00  0.00000000000E+00  0.99999998245E-14  0.12500000000E+03  0.12500000000E+03 0.  0.
        -11    1    3    3    0    0 -0.37142841739E+02  0.64234606850E+01 -0.14076673559E+02  0.40236852243E+02  0.51100000000E-03 0. -1.
         23    2    1    0    0    0  0.30348359044E+01  0.34326555153E+02 -0.28732095091E+01  0.90419977581E+02  0.83546360754E+02 0.  0.
         11    1    3    3    0    0  0.40177677644E+02  0.27903094468E+02  0.11203464050E+02  0.50183125338E+02  0.51100000000E-03 0.  1.
         22    1    1    0    0    0 -0.30348359044E+01 -0.34326555153E+02  0.28732095091E+01  0.34580022419E+02  0.00000000000E+00 0.  1.
</event>
<event>
 5    1  0.1681104E-003  0.9118800E+02  0.7818608E-02  0.1130116E+00
         25   -1    0    0    0    0  0.00000000000E+00  0.00000000000E+00  0.99999998245E-14  0.12500000000E+03  0.12500000000E+03 0.  0.
        -11    1    3    3    0    0  0.41237357856E+02 -0.28740227326E+02  0.34737565453E+02  0.61100072042E+02  0.51100000000E-03 0. -1.
         23    2    1    0    0    0  0.10534897134E+02 -0.16872618212E+02  0.18631971492E+02  0.97745281791E+02  0.93868633993E+02 0.  0.
         11    1    3    3    0    0 -0.30702460722E+02  0.11867609113E+02 -0.16105593961E+02  0.36645209749E+02  0.51100000000E-03 0.  1.
         22    1    1    0    0    0 -0.10534897134E+02  0.16872618212E+02 -0.18631971492E+02  0.27254718209E+02  0.00000000000E+00 0. -1.
</event>
<event>
 5    1  0.1681104E-003  0.9118800E+02  0.7818608E-02  0.1130116E+00
         25   -1    0    0    0    0  0.00000000000E+00  0.00000000000E+00  0.99999998245E-14  0.12500000000E+03  0.12500000000E+03 0.  0.
        -11    1    3    3    0    0 -0.23575461854E+02 -0.15533775470E+02 -0.41966951036E+02  0.50579892858E+02  0.51100000000E-03 0.  1.
         23    2    1    0    0    0  0.10478712610E+01  0.16409015287E+02 -0.26576530684E+02  0.93748347243E+02  0.88386010266E+02 0.  0.
         11    1    3    3    0    0  0.24623333115E+02  0.31942790757E+02  0.15390420353E+02  0.43168454385E+02  0.51100000000E-03 0. -1.
         22    1    1    0    0    0 -0.10478712610E+01 -0.16409015287E+02  0.26576530684E+02  0.31251652757E+02  0.00000000000E+00 0. -1.
</event>
<event>
 5    1  0.1681104E-003  0.9118800E+02  0.7818608E-02  0.1130116E+00
         25   -1    0    0    0    0  0.00000000000E+00  0.00000000000E+00  0.99999998245E-14  0.12500000000E+03  0.12500000000E+03 0.  0.
        -11    1    3    3    0    0 -0.13480558193E+02 -0.40112934918E+02  0.25626772524E+02  0.49472259573E+02  0.51100000000E-03 0.  1.
         23    2    1    0    0    0  0.22498539298E+02 -0.17262979475E+02  0.86356934577E+01  0.95355946087E+02  0.90631046125E+02 0.  0.
         11    1    3    3    0    0  0.35979097491E+02  0.22849955443E+02 -0.16991079066E+02  0.45883686515E+02  0.51100000000E-03 0. -1.
         22    1    1    0    0    0 -0.22498539298E+02  0.17262979475E+02 -0.86356934577E+01  0.29644053913E+02  0.00000000000E+00 0. -1.
</event>
<event>
 5    1  0.1681104E-003  0.9118800E+02  0.7818608E-02  0.1130116E+00
         25   -1    0    0    0    0  0.00000000000E+00  0.00000000000E+00  0.99999998245E-14  0.12500000000E+03  0.12500000000E+03 0.  0.
        -11    1    3    3    0    0 -0.97103839551E+01 -0.10623051577E+02 -0.58445340158E+02  0.60191349610E+02  0.51100000000E-03 0. -1.
         23    2    1    0    0    0 -0.31627916304E+01 -0.16143812998E+02 -0.22593386780E+02  0.97052064920E+02  0.92940928713E+02 0.  0.
         11    1    3    3    0    0  0.65475923247E+01 -0.55207614213E+01  0.35851953378E+02  0.36860715311E+02  0.51100000000E-03 0.  1.
         22    1    1    0    0    0  0.31627916304E+01  0.16143812998E+02  0.22593386780E+02  0.27947935080E+02  0.00000000000E+00 0. -1.
</event>
<event>
 5    1  0.1681104E-003  0.9118800E+02  0.7818608E-02  0.1130116E+00
         25   -1    0    0    0    0  0.00000000000E+00  0.00000000000E+00  0.99999998245E-14  0.12500000000E+03  0.12500000000E+03 0.  0.
        -11    1    3    3    0    0  0.23649373299E+02  0.34012793715E+02  0.24012119527E+01  0.41496130095E+02  0.51100000000E-03 0. -1.
         23    2    1    0    0    0 -0.12789004803E+02  0.52576165749E+01  0.27466537210E+02  0.94249197698E+02  0.89091522742E+02 0.  0.
         11    1    3    3    0    0 -0.36438378102E+02 -0.28755177140E+02  0.25065325257E+02  0.52753067603E+02  0.51100000000E-03 0.  1.
         22    1    1    0    0    0  0.12789004803E+02 -0.52576165749E+01 -0.27466537210E+02  0.30750802302E+02  0.00000000000E+00 0.  1.
</event>
<event>
 5    1  0.1681104E-003  0.9118800E+02  0.7818608E-02  0.1130116E+00
         25   -1    0    0    0    0  0.00000000000E+00  0.00000000000E+00  0.99999998245E-14  0.12500000000E+03  0.12500000000E+03 0.  0.
        -11    1    3    3    0    0  0.12345992404E+02 -0.29247636501E+01 -0.34836761952E+02  0.37075298440E+02  0.51100000000E-03 0.  1.
         23    2    1    0    0    0 -0.17535710878E+02 -0.27606942712E+02  0.41301879605E+01  0.92034823002E+02  0.85928492076E+02 0.  0.
         11    1    3    3    0    0 -0.29881703282E+02 -0.24682179062E+02  0.38966949913E+02  0.54959524562E+02  0.51100000000E-03 0. -1.
         22    1    1    0    0    0  0.17535710878E+02  0.27606942712E+02 -0.41301879605E+01  0.32965176998E+02  0.00000000000E+00 0. -1.
</event>
<event>
 5    1  0.1681104E-003  0.9118800E+02  0.7818608E-02  0.1130116E+00
         25   -1    0    0    0    0  0.00000000000E+00  0.00000000000E+00  0.99999998245E-14  0.12500000000E+03  0.12500000000E+03 0.  0.
        -11    1    3    3    0    0  0.79531723099E+01  0.54509359745E+02  0.18006169746E+02  0.57954684011E+02  0.51100000000E-03 0. -1.
         23    2    1    0    0    0  0.84893025115E+01  0.27084802052E+02 -0.77452194335E+01  0.95578185246E+02  0.90937045870E+02 0.  0.
         11    1    3    3    0    0  0.53613020158E+00 -0.27424557693E+02 -0.25751389179E+02  0.37623501235E+02  0.51100000000E-03 0.  1.
         22    1    1    0    0    0 -0.84893025115E+01 -0.27084802052E+02  0.77452194335E+01  0.29421814754E+02  0.00000000000E+00 0. -1.
</event>
<event>
 5    1  0.1681104E-003  0.9118800E+02  0.7818608E-02  0.1130116E+00
         25   -1    0    0    0    0  0.00000000000E+00  0.00000000000E+00  0.99999998245E-14  0.12500000000E+03  0.12500000000E+03 0.  0.
        -11    1    3    3    0    0 -0.16512381173E+02  0.38812028682E+02  0.13226465752E+02  0.44203752092E+02  0.51100000000E-03 0. -1.
         23    2    1    0    0    0  0.25588854125E+02  0.13693981570E+02 -0.29484638221E+01  0.95827958152E+02  0.91279732351E+02 0.  0.
         11    1    3    3    0    0  0.42101235298E+02 -0.25118047112E+02 -0.16174929574E+02  0.51624206060E+02  0.51100000000E-03 0.  1.
         22    1    1    0    0    0 -0.25588854125E+02 -0.13693981570E+02  0.29484638221E+01  0.29172041848E+02  0.00000000000E+00 0. -1.
</event>
<event>
 5    1  0.1681104E-003  0.9118800E+02  0.7818608E-02  0.1130116E+00
         25   -1    0    0    0    0  0.00000000000E+00  0.00000000000E+00  0.99999998245E-14  0.12500000000E+03  0.12500000000E+03 0.  0.
        -11    1    3    3    0    0  0.92249655929E+01  0.38354752313E+02 -0.93186944931E+01  0.40534245799E+02  0.51100000000E-03 0. -1.
         23    2    1    0    0    0  0.24279138325E+02 -0.14924216956E+02 -0.49795778374E+01  0.96068961218E+02  0.91609171509E+02 0.  0.
         11    1    3    3    0    0  0.15054172732E+02 -0.53278969270E+02  0.43391166557E+01  0.55534715419E+02  0.51100000000E-03 0.  1.
         22    1    1    0    0    0 -0.24279138325E+02  0.14924216956E+02  0.49795778374E+01  0.28931038782E+02  0.00000000000E+00 0.  1.
</event>
<event>
 5    1  0.1681104E-003  0.9118800E+02  0.7818608E-02  0.1130116E+00
         25   -1    0    0    0    0  0.00000000000E+00  0.00000000000E+00  0.99999998245E-14  0.12500000000E+03  0.12500000000E+03 0.  0.
        -11    1    3    3    0    0 -0.83577910045E+01 -0.27382690385E+02 -0.21221471933E+02  0.35637273668E+02  0.51100000000E-03 0. -1.
         23    2    1    0    0    0 -0.12842300316E+02  0.29302027971E+01  0.28249884529E+02  0.93830034621E+02  0.88501461316E+02 0.  0.
         11    1    3    3    0    0 -0.44845093113E+01  0.30312893182E+02  0.49471356463E+02  0.58192760953E+02  0.51100000000E-03 0.  1.
         22    1    1    0    0    0  0.12842300316E+02 -0.29302027971E+01 -0.28249884529E+02  0.31169965379E+02  0.00000000000E+00 0.  1.
</event>
<event>
 5    1  0.1681104E-003  0.9118800E+02  0.7818608E-02  0.1130116E+00
         25   -1    0    0    0    0  0.00000000000E+00  0.00000000000E+00  0.99999998245E-14  0.12500000000E+03  0.12500000000E+03 0.  0.
        -11    1    3    3    0    0  0.15571559465E+02  0.51908370390E+02  0.11767464816E+02  0.55456519988E+02  0.51100000000E-03 0.  1.
         23    2    1    0    0    0 -0.10158443711E+02  0.26824179628E+02 -0.62336130367E+01  0.95647171809E+02  0.91031823843E+02 0.  0.
         11    1    3    3    0    0 -0.25730003176E+02 -0.25084190763E+02 -0.18001077853E+02  0.40190651821E+02  0.51100000000E-03 0. -1.
         22    1    1    0    0    0  0.10158443711E+02 -0.26824179628E+02  0.62336130367E+01  0.29352828191E+02  0.00000000000E+00 0.  1.
</event>
<event>
 5    1  0.1681104E-003  0.9118800E+02  0.7818608E-02  0.1130116E+00
         25   -1    0    0    0    0  0.00000000000E+00  0.00000000000E+00  0.99999998245E-14  0.12500000000E+03  0.12500000000E+03 0.  0.
        -11    1    3    3    0    0  0.40220715601E+02  0.18774939222E+02 -0.36114462402E+02  0.57222886165E+02  0.51100000000E-03 0.  1.
         23    2    1    0    0    0  0.26994789690E+02  0.11366712641E+02 -0.74934680514E+00  0.95700130592E+02  0.91104514971E+02 0.  0.
         11    1    3    3    0    0 -0.13225925911E+02 -0.74082265804E+01  0.35365115597E+02  0.38477244427E+02  0.51100000000E-03 0. -1.
         22    1    1    0    0    0 -0.26994789690E+02 -0.11366712641E+02  0.74934680514E+00  0.29299869408E+02  0.00000000000E+00 0.  1.
</event>
<event>
 5    1  0.1681104E-003  0.9118800E+02  0.7818608E-02  0.1130116E+00
         25   -1    0    0    0    0  0.00000000000E+00  0.00000000000E+00  0.99999998245E-14  0.12500000000E+03  0.12500000000E+03 0.  0.
        -11    1    3    3    0    0  0.96054903139E+01  0.91475373038E+01 -0.44875225810E+02  0.46794537872E+02  0.51100000000E-03 0.  1.
         23    2    1    0    0    0 -0.25042678878E+02 -0.60963171932E+01 -0.13833270117E+02  0.95748329777E+02  0.91170622704E+02 0.  0.
         11    1    3    3    0    0 -0.34648169192E+02 -0.15243854497E+02  0.31041955693E+02  0.48953791904E+02  0.51100000000E-03 0. -1.
         22    1    1    0    0    0  0.25042678878E+02  0.60963171932E+01  0.13833270117E+02  0.29251670223E+02  0.00000000000E+00 0. -1.
</event>
<event>
 5    1  0.1681104E-003  0.9118800E+02  0.7818608E-02  0.1130116E+00
         25   -1    0    0    0    0  0.00000000000E+00  0.00000000000E+00  0.99999998245E-14  0.12500000000E+03  0.12500000000E+03 0.  0.
        -11    1    3    3    0    0 -0.30676051473E+02  0.79994375278E+01  0.11396578131E+02  0.33688174900E+02  0.51100000000E-03 0. -1.
         23    2    1    0    0    0  0.27284183062E+02  0.53039197421E+01 -0.98980516945E+01  0.95495260765E+02  0.90822988231E+02 0.  0.
         11    1    3    3    0    0  0.57960234535E+02 -0.26955177857E+01 -0.21294629826E+02  0.61807085865E+02  0.51100000000E-03 0.  1.
         22    1    1    0    0    0 -0.27284183062E+02 -0.53039197421E+01  0.98980516945E+01  0.29504739235E+02  0.00000000000E+00 0.  1.
</event>
<event>
 5    1  0.1681104E-003  0.9118800E+02  0.7818608E-02  0.1130116E+00
         25   -1    0    0    0    0  0.00000000000E+00  0.00000000000E+00  0.99999998245E-14  0.12500000000E+03  0.12500000000E+03 0.  0.
        -11    1    3    3    0    0 -0.39575263741E+02  0.12757546641E+01 -0.10004098857E+02  0.40840066655E+02  0.51100000000E-03 0. -1.
         23    2    1    0    0    0  0.12498616803E+02  0.19213307878E+02 -0.17142934497E+02  0.96377511904E+02  0.92029223490E+02 0.  0.
         11    1    3    3    0    0  0.52073880545E+02  0.17937553214E+02 -0.71388356397E+01  0.55537445250E+02  0.51100000000E-03 0.  1.
         22    1    1    0    0    0 -0.12498616803E+02 -0.19213307878E+02  0.17142934497E+02  0.28622488096E+02  0.00000000000E+00 0.  1.
</event>
<event>
 5    1  0.1681104E-003  0.9118800E+02  0.7818608E-02  0.1130116E+00
         25   -1    0    0    0    0  0.00000000000E+00  0.00000000000E+00  0.99999998245E-14  0.12500000000E+03  0.12500000000E+03 0.  0.
        -11    1    3    3    0    0  0.14388937098E+02  0.27355750759E+02  0.23558909164E+02  0.38863875407E+02  0.51100000000E-03 0.  1.
         23    2    1    0    0    0  0.74254057980E+01 -0.26643809573E+02  0.13461488859E+02  0.94238970724E+02  0.89077172614E+02 0.  0.
         11    1    3    3    0    0 -0.69635313001E+01 -0.53999560332E+02 -0.10097420305E+02  0.55375095317E+02  0.51100000000E-03 0. -1.
         22    1    1    0    0    0 -0.74254057980E+01  0.26643809573E+02 -0.13461488859E+02  0.30761029276E+02  0.00000000000E+00 0. -1.
</event>
<event>
 5    1  0.1681104E-003  0.9118800E+02  0.7818608E-02  0.1130116E+00
         25   -1    0    0    0    0  0.00000000000E+00  0.00000000000E+00  0.99999998245E-14  0.12500000000E+03  0.12500000000E+03 0.  0.
        -11    1    3    3    0    0 -0.45065697334E+02 -0.21210569334E+02 -0.28363528893E+02  0.57317493832E+02  0.51100000000E-03 0. -1.
         23    2    1    0    0    0 -0.40929700309E+02 -0.23839485544E+02 -0.96517714757E+01  0.76660387559E+02  0.59498713345E+02 0.  0.
         11    1    3    3    0    0  0.41359970259E+01 -0.26289162101E+01  0.18711757417E+02  0.19342893727E+02  0.51100000000E-03 0.  1.
         22    1    1    0    0    0  0.40929700309E+02  0.23839485544E+02  0.96517714757E+01  0.48339612441E+02  0.00000000000E+00 0. -1.
</event>
<event>
 5    1  0.1681104E-003  0.9118800E+02  0.7818608E-02  0.1130116E+00
         25   -1    0    0    0    0  0.00000000000E+00  0.00000000000E+00  0.99999998245E-14  0.12500000000E+03  0.12500000000E+03 0.  0.
        -11    1    3    3    0    0  0.30905079938E+02  0.89305645222E+01  0.93344978389E+01  0.33496444570E+02  0.51100000000E-03 0. -1.
         23    2    1    0    0    0 -0.24330978617E+02 -0.16230460126E+02 -0.35256017147E+01  0.95540634361E+02  0.90885414618E+02 0.  0.
         11    1    3    3    0    0 -0.55236058555E+02 -0.25161024648E+02 -0.12860099554E+02  0.62044189791E+02  0.51100000000E-03 0.  1.
         22    1    1    0    0    0  0.24330978617E+02  0.16230460126E+02  0.35256017147E+01  0.29459365639E+02  0.00000000000E+00 0.  1.
</event>
<event>
 5    1  0.1681104E-003  0.9118800E+02  0.7818608E-02  0.1130116E+00
         25   -1    0    0    0    0  0.00000000000E+00  0.00000000000E+00  0.99999998245E-14  0.12500000000E+03  0.12500000000E+03 0.  0.
        -11    1    3    3    0    0  0.38920130270E+02 -0.16302386984E+02  0.20544390049E+02  0.46932039422E+02  0.51100000000E-03 0.  1.
         23    2    1    0    0    0 -0.63695262073E+01 -0.44789149776E+01  0.29414217802E+02  0.94572582227E+02  0.89544098391E+02 0.  0.
         11    1    3    3    0    0 -0.45289656477E+02  0.11823472006E+02  0.88698277529E+01  0.47640542805E+02  0.51100000000E-03 0. -1.
         22    1    1    0    0    0  0.63695262073E+01  0.44789149776E+01 -0.29414217802E+02  0.30427417773E+02  0.00000000000E+00 0. -1.
</event>
<event>
 5    1  0.1681104E-003  0.9118800E+02  0.7818608E-02  0.1130116E+00
         25   -1    0    0    0    0  0.00000000000E+00  0.00000000000E+00  0.99999998245E-14  0.12500000000E+03  0.12500000000E+03 0.  0.
        -11    1    3    3    0    0 -0.41927184055E+02 -0.21587440134E+01 -0.48249177346E+01  0.42259067310E+02  0.51100000000E-03 0.  1.
         23    2    1    0    0    0  0.22738983210E+01  0.22013141631E+02 -0.20308624203E+02  0.94963534911E+02  0.90088199714E+02 0.  0.
         11    1    3    3    0    0  0.44201082376E+02  0.24171885644E+02 -0.15483706468E+02  0.52704467601E+02  0.51100000000E-03 0. -1.
         22    1    1    0    0    0 -0.22738983210E+01 -0.22013141631E+02  0.20308624203E+02  0.30036465089E+02  0.00000000000E+00 0. -1.
</event>
<event>
 5    1  0.1681104E-003  0.9118800E+02  0.7818608E-02  0.1130116E+00
         25   -1    0    0    0    0  0.00000000000E+00  0.00000000000E+00  0.99999998245E-14  0.12500000000E+03  0.12500000000E+03 0.  0.
        -11    1    3    3    0    0 -0.32962161310E+02  0.16947839746E+02  0.73834589148E+01  0.37792179298E+02  0.51100000000E-03 0. -1.
         23    2    1    0    0    0  0.24829580383E+02  0.14945601425E+02  0.43140390366E+01  0.95700000055E+02  0.91104335868E+02 0.  0.
         11    1    3    3    0    0  0.57791741693E+02 -0.20022383204E+01 -0.30694198783E+01  0.57907820757E+02  0.51100000000E-03 0.  1.
         22    1    1    0    0    0 -0.24829580383E+02 -0.14945601425E+02 -0.43140390366E+01  0.29299999945E+02  0.00000000000E+00 0.  1.
</event>
<event>
 5    1  0.1681104E-003  0.9118800E+02  0.7818608E-02  0.1130116E+00
         25   -1    0    0    0    0  0.00000000000E+00  0.00000000000E+00  0.99999998245E-14  0.12500000000E+03  0.12500000000E+03 0.  0.
        -11    1    3    3    0    0 -0.28149810293E+02 -0.89587173859E+01 -0.15963465015E+02  0.33578306275E+02  0.51100000000E-03 0.  1.
         23    2    1    0    0    0  0.26520197562E+02 -0.67704285583E+01  0.12105246790E+02  0.95071809586E+02  0.90238308919E+02 0.  0.
         11    1    3    3    0    0  0.54670007855E+02  0.21882888276E+01  0.28068711804E+02  0.61493503312E+02  0.51100000000E-03 0. -1.
         22    1    1    0    0    0 -0.26520197562E+02  0.67704285583E+01 -0.12105246790E+02  0.29928190414E+02  0.00000000000E+00 0. -1.
</event>
<event>
 5    1  0.1681104E-003  0.9118800E+02  0.7818608E-02  0.1130116E+00
         25   -1    0    0    0    0  0.00000000000E+00  0.00000000000E+00  0.99999998245E-14  0.12500000000E+03  0.12500000000E+03 0.  0.
        -11    1    3    3    0    0 -0.41801848382E+01  0.40388387913E+02  0.78398684870E+01  0.41354073096E+02  0.51100000000E-03 0. -1.
         23    2    1    0    0    0  0.23678269018E+02 -0.73633619762E+01  0.13220097567E+02  0.96899279315E+02  0.92735213532E+02 0.  0.
         11    1    3    3    0    0  0.27858453857E+02 -0.47751749889E+02  0.53802290805E+01  0.55545206219E+02  0.51100000000E-03 0.  1.
         22    1    1    0    0    0 -0.23678269018E+02  0.73633619762E+01 -0.13220097567E+02  0.28100720685E+02  0.00000000000E+00 0.  1.
</event>
<event>
 5    1  0.1681104E-003  0.9118800E+02  0.7818608E-02  0.1130116E+00
         25   -1    0    0    0    0  0.00000000000E+00  0.00000000000E+00  0.99999998245E-14  0.12500000000E+03  0.12500000000E+03 0.  0.
        -11    1    3    3    0    0 -0.55906437983E+01  0.41030674365E+02 -0.88164323339E+01  0.42337938262E+02  0.51100000000E-03 0.  1.
         23    2    1    0    0    0 -0.16966366845E+02 -0.92693671259E+01 -0.22145203410E+02  0.95602911625E+02  0.90971027840E+02 0.  0.
         11    1    3    3    0    0 -0.11375723047E+02 -0.50300041490E+02 -0.13328771076E+02  0.53264973364E+02  0.51100000000E-03 0. -1.
         22    1    1    0    0    0  0.16966366845E+02  0.92693671259E+01  0.22145203410E+02  0.29397088375E+02  0.00000000000E+00 0. -1.
</event>
<event>
 5    1  0.1681104E-003  0.9118800E+02  0.7818608E-02  0.1130116E+00
         25   -1    0    0    0    0  0.00000000000E+00  0.00000000000E+00  0.99999998245E-14  0.12500000000E+03  0.12500000000E+03 0.  0.
        -11    1    3    3    0    0 -0.37370544741E+02  0.52864947074E+01  0.72663044460E+01  0.38435710233E+02  0.51100000000E-03 0.  1.
         23    2    1    0    0    0  0.15431031160E+02  0.20783314690E+02 -0.11634653793E+02  0.96619935499E+02  0.92357911815E+02 0.  0.
         11    1    3    3    0    0  0.52801575901E+02  0.15496819983E+02 -0.18900958239E+02  0.58184225267E+02  0.51100000000E-03 0. -1.
         22    1    1    0    0    0 -0.15431031160E+02 -0.20783314690E+02  0.11634653793E+02  0.28380064501E+02  0.00000000000E+00 0. -1.
</event>
<event>
 5    1  0.1681104E-003  0.9118800E+02  0.7818608E-02  0.1130116E+00
         25   -1    0    0    0    0  0.00000000000E+00  0.00000000000E+00  0.99999998245E-14  0.12500000000E+03  0.12500000000E+03 0.  0.
        -11    1    3    3    0    0 -0.98353085490E+00 -0.58107131533E+02 -0.84352149484E+01  0.58724432048E+02  0.51100000000E-03 0.  1.
         23    2    1    0    0    0 -0.11806912836E+02 -0.27088614983E+02 -0.14422750219E+02  0.92118212088E+02  0.86049712504E+02 0.  0.
         11    1    3    3    0    0 -0.10823381981E+02  0.31018516550E+02 -0.59875352703E+01  0.33393780040E+02  0.51100000000E-03 0. -1.
         22    1    1    0    0    0  0.11806912836E+02  0.27088614983E+02  0.14422750219E+02  0.32881787912E+02  0.00000000000E+00 0.  1.
</event>
<event>
 5    1  0.1681104E-003  0.9118800E+02  0.7818608E-02  0.1130116E+00
         25   -1    0    0    0    0  0.00000000000E+00  0.00000000000E+00  0.99999998245E-14  0.12500000000E+03  0.12500000000E+03 0.  0.
        -11    1    3    3    0    0 -0.45631187016E+02 -0.29286605596E+02 -0.28937269911E+02  0.61459548370E+02  0.51100000000E-03 0.  1.
         23    2    1    0    0    0 -0.25685773958E+02 -0.70506672050E+01 -0.12155274399E+02  0.95721653264E+02  0.91134040380E+02 0.  0.
         11    1    3    3    0    0  0.19945413057E+02  0.22235938391E+02  0.16781995511E+02  0.34262104894E+02  0.51100000000E-03 0. -1.
         22    1    1    0    0    0  0.25685773958E+02  0.70506672050E+01  0.12155274399E+02  0.29278346736E+02  0.00000000000E+00 0.  1.
</event>
<event>
 5    1  0.1681104E-003  0.9118800E+02  0.7818608E-02  0.1130116E+00
         25   -1    0    0    0    0  0.00000000000E+00  0.00000000000E+00  0.99999998245E-14  0.12500000000E+03  0.12500000000E+03 0.  0.
        -11    1    3    3    0    0 -0.16424270680E+02 -0.29842004554E+02 -0.50225866149E+01  0.34431501271E+02  0.51100000000E-03 0. -1.
         23    2    1    0    0    0  0.58201225108E+01  0.27848876173E+02  0.81904852298E+00  0.96537663999E+02  0.92246495867E+02 0.  0.
         11    1    3    3    0    0  0.22244393191E+02  0.57690880727E+02  0.58416351379E+01  0.62106162728E+02  0.51100000000E-03 0.  1.
         22    1    1    0    0    0 -0.58201225108E+01 -0.27848876173E+02 -0.81904852298E+00  0.28462336001E+02  0.00000000000E+00 0.  1.
</event>
<event>
 5    1  0.1681104E-003  0.9118800E+02  0.7818608E-02  0.1130116E+00
         25   -1    0    0    0    0  0.00000000000E+00  0.00000000000E+00  0.99999998245E-14  0.12500000000E+03  0.12500000000E+03 0.  0.
        -11    1    3    3    0    0 -0.63595459220E+01  0.54757235601E+02 -0.16679597127E+02  0.57593468688E+02  0.51100000000E-03 0. -1.
         23    2    1    0    0    0 -0.11885746268E+02  0.20895692243E+02 -0.22120477419E+02  0.92331721197E+02  0.86359309280E+02 0.  0.
         11    1    3    3    0    0 -0.55262003461E+01 -0.33861543357E+02 -0.54408802915E+01  0.34738252509E+02  0.51100000000E-03 0.  1.
         22    1    1    0    0    0  0.11885746268E+02 -0.20895692243E+02  0.22120477419E+02  0.32668278803E+02  0.00000000000E+00 0. -1.
</event>
<event>
 5    1  0.1681104E-003  0.9118800E+02  0.7818608E-02  0.1130116E+00
         25   -1    0    0    0    0  0.00000000000E+00  0.00000000000E+00  0.99999998245E-14  0.12500000000E+03  0.12500000000E+03 0.  0.
        -11    1    3    3    0    0 -0.21194114936E+02  0.33341338009E+02  0.36151228608E+02  0.53551345998E+02  0.51100000000E-03 0.  1.
         23    2    1    0    0    0  0.93338928471E+01  0.39360131679E+01  0.25942252685E+02  0.97150148480E+02  0.93072751759E+02 0.  0.
         11    1    3    3    0    0  0.30528007783E+02 -0.29405324841E+02 -0.10208975923E+02  0.43598802482E+02  0.51100000000E-03 0. -1.
         22    1    1    0    0    0 -0.93338928471E+01 -0.39360131679E+01 -0.25942252685E+02  0.27849851520E+02  0.00000000000E+00 0.  1.
</event>
<event>
 5    1  0.1681104E-003  0.9118800E+02  0.7818608E-02  0.1130116E+00
         25   -1    0    0    0    0  0.00000000000E+00  0.00000000000E+00  0.99999998245E-14  0.12500000000E+03  0.12500000000E+03 0.  0.
        -11    1    3    3    0    0  0.11979499598E+01 -0.38433166075E+02  0.26555101035E+01  0.38543418022E+02  0.51100000000E-03 0.  1.
         23    2    1    0    0    0 -0.10337951179E+02  0.12668316258E+02 -0.22923880249E+02  0.96842163487E+02  0.92658193765E+02 0.  0.
         11    1    3    3    0    0 -0.11535901138E+02  0.51101482333E+02 -0.25579390353E+02  0.58298745465E+02  0.51100000000E-03 0. -1.
         22    1    1    0    0    0  0.10337951179E+02 -0.12668316258E+02  0.22923880249E+02  0.28157836513E+02  0.00000000000E+00 0. -1.
</event>
<event>
 5    1  0.1681104E-003  0.9118800E+02  0.7818608E-02  0.1130116E+00
         25   -1    0    0    0    0  0.00000000000E+00  0.00000000000E+00  0.99999998245E-14  0.12500000000E+03  0.12500000000E+03 0.  0.
        -11    1    3    3    0    0 -0.10270639934E+02  0.26210379580E+02  0.30501951454E+02  0.41507096805E+02  0.51100000000E-03 0.  1.
         23    2    1    0    0    0 -0.12273553842E+01  0.18274737525E+02 -0.22574280305E+02  0.95929902578E+02  0.91419230168E+02 0.  0.
         11    1    3    3    0    0  0.90432845497E+01 -0.79356420551E+01 -0.53076231759E+02  0.54422805774E+02  0.51100000000E-03 0. -1.
         22    1    1    0    0    0  0.12273553842E+01 -0.18274737525E+02  0.22574280305E+02  0.29070097422E+02  0.00000000000E+00 0. -1.
</event>
<event>
 5    1  0.1681104E-003  0.9118800E+02  0.7818608E-02  0.1130116E+00
         25   -1    0    0    0    0  0.00000000000E+00  0.00000000000E+00  0.99999998245E-14  0.12500000000E+03  0.12500000000E+03 0.  0.
        -11    1    3    3    0    0  0.50407084361E+02  0.34310358684E+02 -0.42492222215E+01  0.61123896772E+02  0.51100000000E-03 0. -1.
         23    2    1    0    0    0  0.26895622954E+02  0.25251071754E+02  0.45859236830E+01  0.87824445468E+02  0.79568281161E+02 0.  0.
         11    1    3    3    0    0 -0.23511461408E+02 -0.90592869306E+01  0.88351459045E+01  0.26700548695E+02  0.51100000000E-03 0.  1.
         22    1    1    0    0    0 -0.26895622954E+02 -0.25251071754E+02 -0.45859236830E+01  0.37175554532E+02  0.00000000000E+00 0. -1.
</event>
<event>
 5    1  0.1681104E-003  0.9118800E+02  0.7818608E-02  0.1130116E+00
         25   -1    0    0    0    0  0.00000000000E+00  0.00000000000E+00  0.99999998245E-14  0.12500000000E+03  0.12500000000E+03 0.  0.
        -11    1    3    3    0    0  0.44601178097E+01 -0.29704750899E+02  0.40881658299E+02  0.50730413584E+02  0.51100000000E-03 0. -1.
         23    2    1    0    0    0 -0.19931359800E+02 -0.56477593296E+01  0.33242564554E+02  0.85830823508E+02  0.76372153806E+02 0.  0.
         11    1    3    3    0    0 -0.24391477610E+02  0.24056991569E+02 -0.76390937452E+01  0.35100409924E+02  0.51100000000E-03 0.  1.
         22    1    1    0    0    0  0.19931359800E+02  0.56477593296E+01 -0.33242564554E+02  0.39169176492E+02  0.00000000000E+00 0.  1.
</event>
<event>
 5    1  0.1681104E-003  0.9118800E+02  0.7818608E-02  0.1130116E+00
         25   -1    0    0    0    0  0.00000000000E+00  0.00000000000E+00  0.99999998245E-14  0.12500000000E+03  0.12500000000E+03 0.  0.
        -11    1    3    3    0    0 -0.23624148637E+02  0.39654257348E+02  0.21950485316E+02  0.51111489222E+02  0.51100000000E-03 0.  1.
         23    2    1    0    0    0  0.13104267925E+02  0.28167535593E+02  0.36637360117E+01  0.93718138470E+02  0.88343277150E+02 0.  0.
         11    1    3    3    0    0  0.36728416562E+02 -0.11486721755E+02 -0.18286749304E+02  0.42606649248E+02  0.51100000000E-03 0. -1.
         22    1    1    0    0    0 -0.13104267925E+02 -0.28167535593E+02 -0.36637360117E+01  0.31281861530E+02  0.00000000000E+00 0.  1.
</event>
<event>
 5    1  0.1681104E-003  0.9118800E+02  0.7818608E-02  0.1130116E+00
         25   -1    0    0    0    0  0.00000000000E+00  0.00000000000E+00  0.99999998245E-14  0.12500000000E+03  0.12500000000E+03 0.  0.
        -11    1    3    3    0    0 -0.20919663415E+02 -0.20279173831E+01 -0.83913230211E+01  0.22630931678E+02  0.51100000000E-03 0. -1.
         23    2    1    0    0    0 -0.60141595322E+01 -0.14038359246E+02  0.44008014071E+02  0.78417267709E+02  0.63081827234E+02 0.  0.
         11    1    3    3    0    0  0.14905503883E+02 -0.12010441863E+02  0.52399337092E+02  0.55786336031E+02  0.51100000000E-03 0.  1.
         22    1    1    0    0    0  0.60141595322E+01  0.14038359246E+02 -0.44008014071E+02  0.46582732291E+02  0.00000000000E+00 0.  1.
</event>
<event>
 5    1  0.1681104E-003  0.9118800E+02  0.7818608E-02  0.1130116E+00
         25   -1    0    0    0    0  0.00000000000E+00  0.00000000000E+00  0.99999998245E-14  0.12500000000E+03  0.12500000000E+03 0.  0.
        -11    1    3    3    0    0 -0.15282780384E+01  0.32079748971E+02  0.24684956746E+02  0.40506703366E+02  0.51100000000E-03 0.  1.
         23    2    1    0    0    0  0.17192857424E+02 -0.18621624346E+02  0.15393037543E+02  0.95346925210E+02  0.90618603513E+02 0.  0.
         11    1    3    3    0    0  0.18721135462E+02 -0.50701373317E+02 -0.92919192032E+01  0.54840221845E+02  0.51100000000E-03 0. -1.
         22    1    1    0    0    0 -0.17192857424E+02  0.18621624346E+02 -0.15393037543E+02  0.29653074790E+02  0.00000000000E+00 0. -1.
</event>
<event>
 5    1  0.1681104E-003  0.9118800E+02  0.7818608E-02  0.1130116E+00
         25   -1    0    0    0    0  0.00000000000E+00  0.00000000000E+00  0.99999998245E-14  0.12500000000E+03  0.12500000000E+03 0.  0.
        -11    1    3    3    0    0 -0.15018419777E+02 -0.29777404199E+02 -0.13835115199E+02  0.36106192630E+02  0.51100000000E-03 0.  1.
         23    2    1    0    0    0  0.13678958988E+02  0.23554815754E+02 -0.48828108272E+01  0.97327177488E+02  0.93310205080E+02 0.  0.
         11    1    3    3    0    0  0.28697378765E+02  0.53332219953E+02  0.89523043715E+01  0.61220984858E+02  0.51100000000E-03 0. -1.
         22    1    1    0    0    0 -0.13678958988E+02 -0.23554815754E+02  0.48828108272E+01  0.27672822512E+02  0.00000000000E+00 0. -1.
</event>
<event>
 5    1  0.1681104E-003  0.9118800E+02  0.7818608E-02  0.1130116E+00
         25   -1    0    0    0    0  0.00000000000E+00  0.00000000000E+00  0.99999998245E-14  0.12500000000E+03  0.12500000000E+03 0.  0.
        -11    1    3    3    0    0 -0.22861018349E+02  0.35603649656E+02  0.65945561644E+01  0.42822122788E+02  0.51100000000E-03 0. -1.
         23    2    1    0    0    0  0.22168033291E+02 -0.38695965267E+00  0.10231464690E+02  0.10058168090E+03  0.97572640766E+02 0.  0.
         11    1    3    3    0    0  0.45029051639E+02 -0.35990609309E+02  0.36369085260E+01  0.57759558117E+02  0.51100000000E-03 0.  1.
         22    1    1    0    0    0 -0.22168033291E+02  0.38695965267E+00 -0.10231464690E+02  0.24418319096E+02  0.00000000000E+00 0.  1.
</event>
<event>
 5    1  0.1681104E-003  0.9118800E+02  0.7818608E-02  0.1130116E+00
         25   -1    0    0    0    0  0.00000000000E+00  0.00000000000E+00  0.99999998245E-14  0.12500000000E+03  0.12500000000E+03 0.  0.
        -11    1    3    3    0    0 -0.42124488440E+00  0.32187978089E+01  0.34129390615E+02  0.34283427638E+02  0.51100000000E-03 0.  1.
         23    2    1    0    0    0  0.15108561582E+02  0.73865030721E+01 -0.24614890731E+02  0.95188560813E+02  0.90399890505E+02 0.  0.
         11    1    3    3    0    0  0.15529806467E+02  0.41677052633E+01 -0.58744281345E+02  0.60905133175E+02  0.51100000000E-03 0. -1.
         22    1    1    0    0    0 -0.15108561582E+02 -0.73865030721E+01  0.24614890731E+02  0.29811439187E+02  0.00000000000E+00 0. -1.
</event>
<event>
 5    1  0.1681104E-003  0.9118800E+02  0.7818608E-02  0.1130116E+00
         25   -1    0    0    0    0  0.00000000000E+00  0.00000000000E+00  0.99999998245E-14  0.12500000000E+03  0.12500000000E+03 0.  0.
        -11    1    3    3    0    0  0.60041183516E+01 -0.93033821332E+01  0.57591991268E+02  0.58646737460E+02  0.51100000000E-03 0. -1.
         23    2    1    0    0    0 -0.12699087257E+02 -0.37233343700E+01  0.26936408269E+02  0.94988333494E+02  0.90122601902E+02 0.  0.
         11    1    3    3    0    0 -0.18703205608E+02  0.55800477632E+01 -0.30655582998E+02  0.36341596034E+02  0.51100000000E-03 0.  1.
         22    1    1    0    0    0  0.12699087257E+02  0.37233343700E+01 -0.26936408269E+02  0.30011666506E+02  0.00000000000E+00 0. -1.
</event>
<event>
 5    1  0.1681104E-003  0.9118800E+02  0.7818608E-02  0.1130116E+00
         25   -1    0    0    0    0  0.00000000000E+00  0.00000000000E+00  0.99999998245E-14  0.12500000000E+03  0.12500000000E+03 0.  0.
        -11    1    3    3    0    0  0.10096993866E+02 -0.42221752237E+02 -0.41049658526E+02  0.59746967391E+02  0.51100000000E-03 0.  1.
         23    2    1    0    0    0 -0.66984592733E+01 -0.14097237671E+02 -0.23160920835E+02  0.97070987835E+02  0.92966375420E+02 0.  0.
         11    1    3    3    0    0 -0.16795453139E+02  0.28124514566E+02  0.17888737691E+02  0.37324020444E+02  0.51100000000E-03 0. -1.
         22    1    1    0    0    0  0.66984592733E+01  0.14097237671E+02  0.23160920835E+02  0.27929012165E+02  0.00000000000E+00 0.  1.
</event>
<event>
 5    1  0.1681104E-003  0.9118800E+02  0.7818608E-02  0.1130116E+00
         25   -1    0    0    0    0  0.00000000000E+00  0.00000000000E+00  0.99999998245E-14  0.12500000000E+03  0.12500000000E+03 0.  0.
        -11    1    3    3    0    0  0.50461786693E+01 -0.13605899295E+02  0.37167998523E+02  0.39900432695E+02  0.51100000000E-03 0. -1.
         23    2    1    0    0    0  0.26679665747E+02  0.98336937970E+01 -0.82435859076E+01  0.95394885464E+02  0.90684736125E+02 0.  0.
         11    1    3    3    0    0  0.21633487077E+02  0.23439593091E+02 -0.45411584431E+02  0.55494452769E+02  0.51100000000E-03 0.  1.
         22    1    1    0    0    0 -0.26679665747E+02 -0.98336937970E+01  0.82435859076E+01  0.29605114536E+02  0.00000000000E+00 0.  1.
</event>
<event>
 5    1  0.1681104E-003  0.9118800E+02  0.7818608E-02  0.1130116E+00
         25   -1    0    0    0    0  0.00000000000E+00  0.00000000000E+00  0.99999998245E-14  0.12500000000E+03  0.12500000000E+03 0.  0.
        -11    1    3    3    0    0 -0.33359645759E+02 -0.19865418026E+02 -0.10473538380E+02  0.40214373115E+02  0.51100000000E-03 0.  1.
         23    2    1    0    0    0 -0.24182281324E+01  0.94239533392E+01  0.26590509084E+02  0.96685447254E+02  0.92446534892E+02 0.  0.
         11    1    3    3    0    0  0.30941417627E+02  0.29289371365E+02  0.37064047465E+02  0.56471074139E+02  0.51100000000E-03 0. -1.
         22    1    1    0    0    0  0.24182281324E+01 -0.94239533392E+01 -0.26590509084E+02  0.28314552746E+02  0.00000000000E+00 0. -1.
</event>
<event>
 5    1  0.1681104E-003  0.9118800E+02  0.7818608E-02  0.1130116E+00
         25   -1    0    0    0    0  0.00000000000E+00  0.00000000000E+00  0.99999998245E-14  0.12500000000E+03  0.12500000000E+03 0.  0.
        -11    1    3    3    0    0 -0.10600868686E+02  0.42243437475E+02 -0.24925399267E+02  0.50181290892E+02  0.51100000000E-03 0.  1.
         23    2    1    0    0    0  0.15992165369E+02  0.23851320714E+02  0.68102587588E+01  0.95487045601E+02  0.90811680968E+02 0.  0.
         11    1    3    3    0    0  0.26593034055E+02 -0.18392116761E+02  0.31735658026E+02  0.45305754710E+02  0.51100000000E-03 0. -1.
         22    1    1    0    0    0 -0.15992165369E+02 -0.23851320714E+02 -0.68102587588E+01  0.29512954399E+02  0.00000000000E+00 0. -1.
</event>
<event>
 5    1  0.1681104E-003  0.9118800E+02  0.7818608E-02  0.1130116E+00
         25   -1    0    0    0    0  0.00000000000E+00  0.00000000000E+00  0.99999998245E-14  0.12500000000E+03  0.12500000000E+03 0.  0.
        -11    1    3    3    0    0 -0.25404297997E+02  0.51583851272E+02 -0.24148451308E+02  0.62365212816E+02  0.51100000000E-03 0.  1.
         23    2    1    0    0    0 -0.12014678648E+02  0.23889827189E+02 -0.14367192681E+02  0.94643903880E+02  0.89643605293E+02 0.  0.
         11    1    3    3    0    0  0.13389619349E+02 -0.27694024083E+02  0.97812586272E+01  0.32278691064E+02  0.51100000000E-03 0. -1.
         22    1    1    0    0    0  0.12014678648E+02 -0.23889827189E+02  0.14367192681E+02  0.30356096120E+02  0.00000000000E+00 0.  1.
</event>
<event>
 5    1  0.1681104E-003  0.9118800E+02  0.7818608E-02  0.1130116E+00
         25   -1    0    0    0    0  0.00000000000E+00  0.00000000000E+00  0.99999998245E-14  0.12500000000E+03  0.12500000000E+03 0.  0.
        -11    1    3    3    0    0  0.27652791367E+02 -0.18107263646E+02  0.19077263843E+02  0.38164012670E+02  0.51100000000E-03 0.  1.
         23    2    1    0    0    0 -0.77106383562E+01  0.25071823320E+02 -0.38239101641E+01  0.98492028418E+02  0.94857825742E+02 0.  0.
         11    1    3    3    0    0 -0.35363429723E+02  0.43179086966E+02 -0.22901174007E+02  0.60328015748E+02  0.51100000000E-03 0. -1.
         22    1    1    0    0    0  0.77106383562E+01 -0.25071823320E+02  0.38239101641E+01  0.26507971582E+02  0.00000000000E+00 0. -1.
</event>
<event>
 5    1  0.1681104E-003  0.9118800E+02  0.7818608E-02  0.1130116E+00
         25   -1    0    0    0    0  0.00000000000E+00  0.00000000000E+00  0.99999998245E-14  0.12500000000E+03  0.12500000000E+03 0.  0.
        -11    1    3    3    0    0 -0.46361299462E+02  0.31415371897E+01  0.19405828217E+02  0.50356980775E+02  0.51100000000E-03 0. -1.
         23    2    1    0    0    0 -0.12754822476E+02 -0.21973388141E+02  0.20543506811E+02  0.92326601724E+02  0.86351898827E+02 0.  0.
         11    1    3    3    0    0  0.33606476986E+02 -0.25114925331E+02  0.11376785942E+01  0.41969620949E+02  0.51100000000E-03 0.  1.
         22    1    1    0    0    0  0.12754822476E+02  0.21973388141E+02 -0.20543506811E+02  0.32673398276E+02  0.00000000000E+00 0. -1.
</event>
<event>
 5    1  0.1681104E-003  0.9118800E+02  0.7818608E-02  0.1130116E+00
         25   -1    0    0    0    0  0.00000000000E+00  0.00000000000E+00  0.99999998245E-14  0.12500000000E+03  0.12500000000E+03 0.  0.
        -11    1    3    3    0    0 -0.21041499398E+02 -0.17253490389E+02  0.19869539745E+02  0.33693118548E+02  0.51100000000E-03 0. -1.
         23    2    1    0    0    0 -0.31560563667E-01  0.32616828762E+02 -0.25822914458E+01  0.92281095011E+02  0.86285999750E+02 0.  0.
         11    1    3    3    0    0  0.21009938834E+02  0.49870319150E+02 -0.22451831191E+02  0.58587976464E+02  0.51100000000E-03 0.  1.
         22    1    1    0    0    0  0.31560563667E-01 -0.32616828762E+02  0.25822914458E+01  0.32718904989E+02  0.00000000000E+00 0.  1.
</event>
<event>
 5    1  0.1681104E-003  0.9118800E+02  0.7818608E-02  0.1130116E+00
         25   -1    0    0    0    0  0.00000000000E+00  0.00000000000E+00  0.99999998245E-14  0.12500000000E+03  0.12500000000E+03 0.  0.
        -11    1    3    3    0    0 -0.71065531785E+01 -0.22982584839E+02  0.53425121570E+02  0.58591346793E+02  0.51100000000E-03 0.  1.
         23    2    1    0    0    0  0.10946457181E+02 -0.16135530791E+02  0.20889736996E+02  0.96424461676E+02  0.92092971605E+02 0.  0.
         11    1    3    3    0    0  0.18053010359E+02  0.68470540479E+01 -0.32535384574E+02  0.37833114884E+02  0.51100000000E-03 0. -1.
         22    1    1    0    0    0 -0.10946457181E+02  0.16135530791E+02 -0.20889736996E+02  0.28575538324E+02  0.00000000000E+00 0.  1.
</event>
<event>
 5    1  0.1681104E-003  0.9118800E+02  0.7818608E-02  0.1130116E+00
         25   -1    0    0    0    0  0.00000000000E+00  0.00000000000E+00  0.99999998245E-14  0.12500000000E+03  0.12500000000E+03 0.  0.
        -11    1    3    3    0    0 -0.27371243033E+02 -0.44190055595E+02 -0.26187119433E+00  0.51980905489E+02  0.51100000000E-03 0. -1.
         23    2    1    0    0    0 -0.20329298461E+02 -0.16665998245E+02  0.24047739701E+02  0.89372347003E+02  0.81963935671E+02 0.  0.
         11    1    3    3    0    0  0.70419445715E+01  0.27524057350E+02  0.24309610895E+02  0.37391441514E+02  0.51100000000E-03 0.  1.
         22    1    1    0    0    0  0.20329298461E+02  0.16665998245E+02 -0.24047739701E+02  0.35627652997E+02  0.00000000000E+00 0. -1.
</event>
<event>
 5    1  0.1681104E-003  0.9118800E+02  0.7818608E-02  0.1130116E+00
         25   -1    0    0    0    0  0.00000000000E+00  0.00000000000E+00  0.99999998245E-14  0.12500000000E+03  0.12500000000E+03 0.  0.
        -11    1    3    3    0    0 -0.79515219716E+01  0.30744748268E+02 -0.17218909915E+02  0.36124190048E+02  0.51100000000E-03 0.  1.
         23    2    1    0    0    0  0.17635582394E+02 -0.21316246572E+02 -0.13402905526E+02  0.94258594521E+02  0.89104705993E+02 0.  0.
         11    1    3    3    0    0  0.25587104366E+02 -0.52060994840E+02  0.38160043891E+01  0.58134404472E+02  0.51100000000E-03 0. -1.
         22    1    1    0    0    0 -0.17635582394E+02  0.21316246572E+02  0.13402905526E+02  0.30741405479E+02  0.00000000000E+00 0. -1.
</event>
<event>
 5    1  0.1681104E-003  0.9118800E+02  0.7818608E-02  0.1130116E+00
         25   -1    0    0    0    0  0.00000000000E+00  0.00000000000E+00  0.99999998245E-14  0.12500000000E+03  0.12500000000E+03 0.  0.
        -11    1    3    3    0    0  0.27442981496E+02  0.24956781074E+02 -0.27415976478E+01  0.37195087215E+02  0.51100000000E-03 0.  1.
         23    2    1    0    0    0  0.72185795356E+01 -0.28877354603E+02  0.34483746553E+01  0.95035007306E+02  0.90187315220E+02 0.  0.
         11    1    3    3    0    0 -0.20224401961E+02 -0.53834135677E+02  0.61899723031E+01  0.57839920091E+02  0.51100000000E-03 0. -1.
         22    1    1    0    0    0 -0.72185795356E+01  0.28877354603E+02 -0.34483746553E+01  0.29964992694E+02  0.00000000000E+00 0. -1.
</event>
<event>
 5    1  0.1681104E-003  0.9118800E+02  0.7818608E-02  0.1130116E+00
         25   -1    0    0    0    0  0.00000000000E+00  0.00000000000E+00  0.99999998245E-14  0.12500000000E+03  0.12500000000E+03 0.  0.
        -11    1    3    3    0    0  0.56495967563E+02  0.85808490369E+00  0.67444366108E+01  0.56903585881E+02  0.51100000000E-03 0. -1.
         23    2    1    0    0    0  0.23768907283E+02 -0.16155499512E+00 -0.15621934706E+02  0.96556513973E+02  0.92272035272E+02 0.  0.
         11    1    3    3    0    0 -0.32727060281E+02 -0.10196398988E+01 -0.22366371317E+02  0.39652928092E+02  0.51100000000E-03 0.  1.
         22    1    1    0    0    0 -0.23768907283E+02  0.16155499512E+00  0.15621934706E+02  0.28443486027E+02  0.00000000000E+00 0. -1.
</event>
<event>
 5    1  0.1681104E-003  0.9118800E+02  0.7818608E-02  0.1130116E+00
         25   -1    0    0    0    0  0.00000000000E+00  0.00000000000E+00  0.99999998245E-14  0.12500000000E+03  0.12500000000E+03 0.  0.
        -11    1    3    3    0    0  0.86030418748E+01 -0.24254421896E+01 -0.46294558708E+02  0.47149562729E+02  0.51100000000E-03 0.  1.
         23    2    1    0    0    0  0.17258099243E+02  0.26378578707E+02 -0.16775703104E+02  0.89291518952E+02  0.81840575133E+02 0.  0.
         11    1    3    3    0    0  0.86550573685E+01  0.28804020897E+02  0.29518855604E+02  0.42141956223E+02  0.51100000000E-03 0. -1.
         22    1    1    0    0    0 -0.17258099243E+02 -0.26378578707E+02  0.16775703104E+02  0.35708481048E+02  0.00000000000E+00 0.  1.
</event>
<event>
 5    1  0.1681104E-003  0.9118800E+02  0.7818608E-02  0.1130116E+00
         25   -1    0    0    0    0  0.00000000000E+00  0.00000000000E+00  0.99999998245E-14  0.12500000000E+03  0.12500000000E+03 0.  0.
        -11    1    3    3    0    0  0.36010676672E+02 -0.77773333718E+01 -0.62329692492E+01  0.37364497249E+02  0.51100000000E-03 0. -1.
         23    2    1    0    0    0 -0.71294452530E+01  0.26431714329E+02  0.11642100356E+02  0.95250999803E+02  0.90486186520E+02 0.  0.
         11    1    3    3    0    0 -0.43140121925E+02  0.34209047701E+02  0.17875069605E+02  0.57886502554E+02  0.51100000000E-03 0.  1.
         22    1    1    0    0    0  0.71294452530E+01 -0.26431714329E+02 -0.11642100356E+02  0.29749000197E+02  0.00000000000E+00 0.  1.
</event>
<event>
 5    1  0.1681104E-003  0.9118800E+02  0.7818608E-02  0.1130116E+00
         25   -1    0    0    0    0  0.00000000000E+00  0.00000000000E+00  0.99999998245E-14  0.12500000000E+03  0.12500000000E+03 0.  0.
        -11    1    3    3    0    0 -0.49902864838E+02 -0.79440952946E+01  0.90017722190E+01  0.51326761757E+02  0.51100000000E-03 0.  1.
         23    2    1    0    0    0 -0.10177145887E+02 -0.26640341335E+02 -0.14002696728E+01  0.96447542312E+02  0.92124294180E+02 0.  0.
         11    1    3    3    0    0  0.39725718951E+02 -0.18696246040E+02 -0.10402041892E+02  0.45120780556E+02  0.51100000000E-03 0. -1.
         22    1    1    0    0    0  0.10177145887E+02  0.26640341335E+02  0.14002696728E+01  0.28552457688E+02  0.00000000000E+00 0. -1.
</event>
<event>
 5    1  0.1681104E-003  0.9118800E+02  0.7818608E-02  0.1130116E+00
         25   -1    0    0    0    0  0.00000000000E+00  0.00000000000E+00  0.99999998245E-14  0.12500000000E+03  0.12500000000E+03 0.  0.
        -11    1    3    3    0    0 -0.13660134008E+02 -0.17420122564E+01  0.56014762166E+02  0.57682644258E+02  0.51100000000E-03 0.  1.
         23    2    1    0    0    0  0.26004084369E+01 -0.15694965135E+02  0.24061389290E+02  0.96154818267E+02  0.91726247971E+02 0.  0.
         11    1    3    3    0    0  0.16260542444E+02 -0.13952952879E+02 -0.31953372876E+02  0.38472174010E+02  0.51100000000E-03 0. -1.
         22    1    1    0    0    0 -0.26004084369E+01  0.15694965135E+02 -0.24061389290E+02  0.28845181733E+02  0.00000000000E+00 0.  1.
</event>
<event>
 5    1  0.1681104E-003  0.9118800E+02  0.7818608E-02  0.1130116E+00
         25   -1    0    0    0    0  0.00000000000E+00  0.00000000000E+00  0.99999998245E-14  0.12500000000E+03  0.12500000000E+03 0.  0.
        -11    1    3    3    0    0  0.40557553017E+02  0.10659917900E+01  0.23483843009E+01  0.40639467938E+02  0.51100000000E-03 0.  1.
         23    2    1    0    0    0 -0.53996291381E+01 -0.28820356631E+02  0.34874376591E+01  0.95471519298E+02  0.90790306886E+02 0.  0.
         11    1    3    3    0    0 -0.45957182155E+02 -0.29886348421E+02  0.11390533582E+01  0.54832051360E+02  0.51100000000E-03 0. -1.
         22    1    1    0    0    0  0.53996291381E+01  0.28820356631E+02 -0.34874376591E+01  0.29528480702E+02  0.00000000000E+00 0. -1.
</event>
<event>
 5    1  0.1681104E-003  0.9118800E+02  0.7818608E-02  0.1130116E+00
         25   -1    0    0    0    0  0.00000000000E+00  0.00000000000E+00  0.99999998245E-14  0.12500000000E+03  0.12500000000E+03 0.  0.
        -11    1    3    3    0    0  0.10873938368E+02  0.24861513785E+02  0.23179445097E+02  0.35687870188E+02  0.51100000000E-03 0. -1.
         23    2    1    0    0    0 -0.29571975479E+01 -0.96284731410E+01 -0.25878239700E+02  0.97230667953E+02  0.93180829510E+02 0.  0.
         11    1    3    3    0    0 -0.13831135916E+02 -0.34489986926E+02 -0.49057684797E+02  0.61542797765E+02  0.51100000000E-03 0.  1.
         22    1    1    0    0    0  0.29571975479E+01  0.96284731410E+01  0.25878239700E+02  0.27769332047E+02  0.00000000000E+00 0.  1.
</event>
<event>
 5    1  0.1681104E-003  0.9118800E+02  0.7818608E-02  0.1130116E+00
         25   -1    0    0    0    0  0.00000000000E+00  0.00000000000E+00  0.99999998245E-14  0.12500000000E+03  0.12500000000E+03 0.  0.
        -11    1    3    3    0    0  0.42628092704E+02 -0.87817840444E+01  0.10862697939E+02  0.44858357364E+02  0.51100000000E-03 0.  1.
         23    2    1    0    0    0 -0.13940139370E+02 -0.17161266012E+02  0.49001004981E+01  0.10235386299E+03  0.99817161582E+02 0.  0.
         11    1    3    3    0    0 -0.56568232075E+02 -0.83794819677E+01 -0.59625974405E+01  0.57495505621E+02  0.51100000000E-03 0. -1.
         22    1    1    0    0    0  0.13940139370E+02  0.17161266012E+02 -0.49001004981E+01  0.22646137015E+02  0.00000000000E+00 0. -1.
</event>
<event>
 5    1  0.1681104E-003  0.9118800E+02  0.7818608E-02  0.1130116E+00
         25   -1    0    0    0    0  0.00000000000E+00  0.00000000000E+00  0.99999998245E-14  0.12500000000E+03  0.12500000000E+03 0.  0.
        -11    1    3    3    0    0 -0.49149621406E+02  0.10265441010E+02  0.35604347722E+02  0.61552694015E+02  0.51100000000E-03 0.  1.
         23    2    1    0    0    0 -0.23709657311E+02 -0.28538917050E+01  0.15540566560E+02  0.96507865004E+02  0.92206107449E+02 0.  0.
         11    1    3    3    0    0  0.25439964096E+02 -0.13119332715E+02 -0.20063781162E+02  0.34955170989E+02  0.51100000000E-03 0. -1.
         22    1    1    0    0    0  0.23709657311E+02  0.28538917050E+01 -0.15540566560E+02  0.28492134996E+02  0.00000000000E+00 0.  1.
</event>
<event>
 5    1  0.1681104E-003  0.9118800E+02  0.7818608E-02  0.1130116E+00
         25   -1    0    0    0    0  0.00000000000E+00  0.00000000000E+00  0.99999998245E-14  0.12500000000E+03  0.12500000000E+03 0.  0.
        -11    1    3    3    0    0 -0.76372180714E+01 -0.51496380282E+02  0.20556191607E+02  0.55971075527E+02  0.51100000000E-03 0.  1.
         23    2    1    0    0    0 -0.15526826365E+02 -0.24053651472E+02 -0.68637845727E+01  0.95559007748E+02  0.90910681094E+02 0.  0.
         11    1    3    3    0    0 -0.78896082939E+01  0.27442728810E+02 -0.27419976180E+02  0.39587932221E+02  0.51100000000E-03 0. -1.
         22    1    1    0    0    0  0.15526826365E+02  0.24053651472E+02  0.68637845727E+01  0.29440992252E+02  0.00000000000E+00 0.  1.
</event>
<event>
 5    1  0.1681104E-003  0.9118800E+02  0.7818608E-02  0.1130116E+00
         25   -1    0    0    0    0  0.00000000000E+00  0.00000000000E+00  0.99999998245E-14  0.12500000000E+03  0.12500000000E+03 0.  0.
        -11    1    3    3    0    0 -0.21177583196E+01 -0.28677047460E+02  0.33258604335E+02  0.43965813013E+02  0.51100000000E-03 0. -1.
         23    2    1    0    0    0  0.25459188237E+02 -0.82788333189E+01 -0.74619664222E+01  0.97208089492E+02  0.93150536085E+02 0.  0.
         11    1    3    3    0    0  0.27576946557E+02  0.20398214141E+02 -0.40720570757E+02  0.53242276478E+02  0.51100000000E-03 0.  1.
         22    1    1    0    0    0 -0.25459188237E+02  0.82788333189E+01  0.74619664222E+01  0.27791910508E+02  0.00000000000E+00 0. -1.
</event>
<event>
 5    1  0.1681104E-003  0.9118800E+02  0.7818608E-02  0.1130116E+00
         25   -1    0    0    0    0  0.00000000000E+00  0.00000000000E+00  0.99999998245E-14  0.12500000000E+03  0.12500000000E+03 0.  0.
        -11    1    3    3    0    0 -0.41370736872E+02  0.19414504585E+02  0.28757608293E+02  0.53995008034E+02  0.51100000000E-03 0. -1.
         23    2    1    0    0    0 -0.15328407115E+02  0.17871050024E+02  0.36816012250E+02  0.81299276303E+02  0.68555226466E+02 0.  0.
         11    1    3    3    0    0  0.26042329757E+02 -0.15434545612E+01  0.80584039561E+01  0.27304268269E+02  0.51100000000E-03 0.  1.
         22    1    1    0    0    0  0.15328407115E+02 -0.17871050024E+02 -0.36816012250E+02  0.43700723697E+02  0.00000000000E+00 0. -1.
</event>
<event>
 5    1  0.1681104E-003  0.9118800E+02  0.7818608E-02  0.1130116E+00
         25   -1    0    0    0    0  0.00000000000E+00  0.00000000000E+00  0.99999998245E-14  0.12500000000E+03  0.12500000000E+03 0.  0.
        -11    1    3    3    0    0  0.49882055456E+01  0.38319295237E+02 -0.12413177859E+02  0.40587406505E+02  0.51100000000E-03 0. -1.
         23    2    1    0    0    0  0.32690057249E+02 -0.37342386508E+01 -0.18208130448E+01  0.92047007095E+02  0.85946214424E+02 0.  0.
         11    1    3    3    0    0  0.27701851703E+02 -0.42053533887E+02  0.10592364815E+02  0.51459600590E+02  0.51100000000E-03 0.  1.
         22    1    1    0    0    0 -0.32690057249E+02  0.37342386508E+01  0.18208130448E+01  0.32952992905E+02  0.00000000000E+00 0.  1.
</event>
<event>
 5    1  0.1681104E-003  0.9118800E+02  0.7818608E-02  0.1130116E+00
         25   -1    0    0    0    0  0.00000000000E+00  0.00000000000E+00  0.99999998245E-14  0.12500000000E+03  0.12500000000E+03 0.  0.
        -11    1    3    3    0    0  0.11975026400E+02  0.45646716742E+02 -0.11442171005E+02  0.48558699366E+02  0.51100000000E-03 0.  1.
         23    2    1    0    0    0 -0.31468057689E+01  0.18594300602E+02  0.23240236559E+02  0.95070766853E+02  0.90236864492E+02 0.  0.
         11    1    3    3    0    0 -0.15121832169E+02 -0.27052416140E+02  0.34682407564E+02  0.46512067487E+02  0.51100000000E-03 0. -1.
         22    1    1    0    0    0  0.31468057689E+01 -0.18594300602E+02 -0.23240236559E+02  0.29929233147E+02  0.00000000000E+00 0.  1.
</event>
<event>
 5    1  0.1681104E-003  0.9118800E+02  0.7818608E-02  0.1130116E+00
         25   -1    0    0    0    0  0.00000000000E+00  0.00000000000E+00  0.99999998245E-14  0.12500000000E+03  0.12500000000E+03 0.  0.
        -11    1    3    3    0    0  0.47008891565E+02  0.37955788000E+02 -0.54887125258E+01  0.60667979151E+02  0.51100000000E-03 0.  1.
         23    2    1    0    0    0  0.30787990577E+02  0.12858340039E+02 -0.81021768719E+01  0.90665141003E+02  0.83912366494E+02 0.  0.
         11    1    3    3    0    0 -0.16220900988E+02 -0.25097447961E+02 -0.26134643461E+01  0.29997161852E+02  0.51100000000E-03 0. -1.
         22    1    1    0    0    0 -0.30787990577E+02 -0.12858340039E+02  0.81021768719E+01  0.34334858997E+02  0.00000000000E+00 0.  1.
</event>
<event>
 5    1  0.1681104E-003  0.9118800E+02  0.7818608E-02  0.1130116E+00
         25   -1    0    0    0    0  0.00000000000E+00  0.00000000000E+00  0.99999998245E-14  0.12500000000E+03  0.12500000000E+03 0.  0.
        -11    1    3    3    0    0 -0.23677140076E+02  0.29434838795E+02  0.39260808161E+02  0.54483279589E+02  0.51100000000E-03 0. -1.
         23    2    1    0    0    0  0.11602143938E+02  0.15893818411E+02  0.20171890734E+02  0.96819716406E+02  0.92627906710E+02 0.  0.
         11    1    3    3    0    0  0.35279284014E+02 -0.13541020383E+02 -0.19088917426E+02  0.42336436817E+02  0.51100000000E-03 0.  1.
         22    1    1    0    0    0 -0.11602143938E+02 -0.15893818411E+02 -0.20171890734E+02  0.28180283594E+02  0.00000000000E+00 0. -1.
</event>
<event>
 5    1  0.1681104E-003  0.9118800E+02  0.7818608E-02  0.1130116E+00
         25   -1    0    0    0    0  0.00000000000E+00  0.00000000000E+00  0.99999998245E-14  0.12500000000E+03  0.12500000000E+03 0.  0.
        -11    1    3    3    0    0  0.48887239939E+02  0.47460994928E+01  0.32541300224E+02  0.58918790804E+02  0.51100000000E-03 0.  1.
         23    2    1    0    0    0  0.20871787051E+02 -0.90109526087E+01  0.25353470504E+02  0.90946700186E+02  0.84330747930E+02 0.  0.
         11    1    3    3    0    0 -0.28015452888E+02 -0.13757052102E+02 -0.71878297195E+01  0.32027909382E+02  0.51100000000E-03 0. -1.
         22    1    1    0    0    0 -0.20871787051E+02  0.90109526087E+01 -0.25353470504E+02  0.34053299814E+02  0.00000000000E+00 0.  1.
</event>
<event>
 5    1  0.1681104E-003  0.9118800E+02  0.7818608E-02  0.1130116E+00
         25   -1    0    0    0    0  0.00000000000E+00  0.00000000000E+00  0.99999998245E-14  0.12500000000E+03  0.12500000000E+03 0.  0.
        -11    1    3    3    0    0 -0.83020018059E+01  0.48900821500E+01 -0.35734407810E+02  0.37010593608E+02  0.51100000000E-03 0. -1.
         23    2    1    0    0    0  0.26756565276E+02  0.10052541986E+02  0.98670351019E+01  0.94762179849E+02  0.89808379132E+02 0.  0.
         11    1    3    3    0    0  0.35058567082E+02  0.51624598358E+01  0.45601442912E+02  0.57751586241E+02  0.51100000000E-03 0.  1.
         22    1    1    0    0    0 -0.26756565276E+02 -0.10052541986E+02 -0.98670351019E+01  0.30237820151E+02  0.00000000000E+00 0.  1.
</event>
<event>
 5    1  0.1681104E-003  0.9118800E+02  0.7818608E-02  0.1130116E+00
         25   -1    0    0    0    0  0.00000000000E+00  0.00000000000E+00  0.99999998245E-14  0.12500000000E+03  0.12500000000E+03 0.  0.
        -11    1    3    3    0    0  0.48902000720E+02  0.13124957374E+02  0.29567936758E+02  0.58633890072E+02  0.51100000000E-03 0.  1.
         23    2    1    0    0    0  0.31118553905E+02  0.15899376850E+02  0.41065319212E+01  0.89814517400E+02  0.82635521115E+02 0.  0.
         11    1    3    3    0    0 -0.17783446815E+02  0.27744194757E+01 -0.25461404837E+02  0.31180627328E+02  0.51100000000E-03 0. -1.
         22    1    1    0    0    0 -0.31118553905E+02 -0.15899376850E+02 -0.41065319212E+01  0.35185482600E+02  0.00000000000E+00 0.  1.
</event>
<event>
 5    1  0.1681104E-003  0.9118800E+02  0.7818608E-02  0.1130116E+00
         25   -1    0    0    0    0  0.00000000000E+00  0.00000000000E+00  0.99999998245E-14  0.12500000000E+03  0.12500000000E+03 0.  0.
        -11    1    3    3    0    0  0.34690286282E+02  0.37399097384E+01  0.11711260860E+02  0.36804300270E+02  0.51100000000E-03 0.  1.
         23    2    1    0    0    0  0.92081699223E+01  0.23695238385E+02 -0.27434893639E+02  0.87597752682E+02  0.79211351273E+02 0.  0.
         11    1    3    3    0    0 -0.25482116360E+02  0.19955328647E+02 -0.39146154499E+02  0.50793452412E+02  0.51100000000E-03 0. -1.
         22    1    1    0    0    0 -0.92081699223E+01 -0.23695238385E+02  0.27434893639E+02  0.37402247318E+02  0.00000000000E+00 0. -1.
</event>
<event>
 5    1  0.1681104E-003  0.9118800E+02  0.7818608E-02  0.1130116E+00
         25   -1    0    0    0    0  0.00000000000E+00  0.00000000000E+00  0.99999998245E-14  0.12500000000E+03  0.12500000000E+03 0.  0.
        -11    1    3    3    0    0  0.36147611592E+02 -0.15554769967E+02  0.15162400220E+02  0.42172254780E+02  0.51100000000E-03 0. -1.
         23    2    1    0    0    0  0.21096719351E+02  0.17337884074E+02 -0.18845769868E+02  0.91821138756E+02  0.85617081760E+02 0.  0.
         11    1    3    3    0    0 -0.15050892241E+02  0.32892654041E+02 -0.34008170088E+02  0.49648883976E+02  0.51100000000E-03 0.  1.
         22    1    1    0    0    0 -0.21096719351E+02 -0.17337884074E+02  0.18845769868E+02  0.33178861244E+02  0.00000000000E+00 0.  1.
</event>
<event>
 5    1  0.1681104E-003  0.9118800E+02  0.7818608E-02  0.1130116E+00
         25   -1    0    0    0    0  0.00000000000E+00  0.00000000000E+00  0.99999998245E-14  0.12500000000E+03  0.12500000000E+03 0.  0.
        -11    1    3    3    0    0  0.42501343777E+02  0.88007810958E+01 -0.33622161028E+00  0.43404274168E+02  0.51100000000E-03 0.  1.
         23    2    1    0    0    0 -0.49775797639E+01  0.27713335631E+02  0.91693188977E+01  0.95387811949E+02  0.90674985455E+02 0.  0.
         11    1    3    3    0    0 -0.47478923541E+02  0.18912554535E+02  0.95055405080E+01  0.51983537782E+02  0.51100000000E-03 0. -1.
         22    1    1    0    0    0  0.49775797639E+01 -0.27713335631E+02 -0.91693188977E+01  0.29612188051E+02  0.00000000000E+00 0. -1.
</event>
<event>
 5    1  0.1681104E-003  0.9118800E+02  0.7818608E-02  0.1130116E+00
         25   -1    0    0    0    0  0.00000000000E+00  0.00000000000E+00  0.99999998245E-14  0.12500000000E+03  0.12500000000E+03 0.  0.
        -11    1    3    3    0    0  0.23420874134E+02 -0.12672055436E+02 -0.24688397824E+02  0.36313018623E+02  0.51100000000E-03 0.  1.
         23    2    1    0    0    0 -0.20400385036E+02 -0.11473259042E+02  0.16419494313E+02  0.96409596432E+02  0.92072792441E+02 0.  0.
         11    1    3    3    0    0 -0.43821259170E+02  0.11987963939E+01  0.41107892137E+02  0.60096577808E+02  0.51100000000E-03 0. -1.
         22    1    1    0    0    0  0.20400385036E+02  0.11473259042E+02 -0.16419494313E+02  0.28590403568E+02  0.00000000000E+00 0. -1.
</event>
<event>
 5    1  0.1681104E-003  0.9118800E+02  0.7818608E-02  0.1130116E+00
         25   -1    0    0    0    0  0.00000000000E+00  0.00000000000E+00  0.99999998245E-14  0.12500000000E+03  0.12500000000E+03 0.  0.
        -11    1    3    3    0    0  0.16561547847E+02 -0.38956901223E+02 -0.91147241059E+01  0.43301307322E+02  0.51100000000E-03 0.  1.
         23    2    1    0    0    0  0.42725944319E+01  0.98710162281E+01 -0.26365327891E+02  0.96525054182E+02  0.92229407162E+02 0.  0.
         11    1    3    3    0    0 -0.12288953415E+02  0.48827917451E+02 -0.17250603785E+02  0.53223746860E+02  0.51100000000E-03 0. -1.
         22    1    1    0    0    0 -0.42725944319E+01 -0.98710162281E+01  0.26365327891E+02  0.28474945818E+02  0.00000000000E+00 0. -1.
</event>
<event>
 5    1  0.1681104E-003  0.9118800E+02  0.7818608E-02  0.1130116E+00
         25   -1    0    0    0    0  0.00000000000E+00  0.00000000000E+00  0.99999998245E-14  0.12500000000E+03  0.12500000000E+03 0.  0.
        -11    1    3    3    0    0 -0.18403077954E+02 -0.23209243150E+02 -0.36082462053E+02  0.46682826755E+02  0.51100000000E-03 0.  1.
         23    2    1    0    0    0 -0.21144781212E+02 -0.35680396537E+02 -0.15551172756E+01  0.83495652525E+02  0.72449383236E+02 0.  0.
         11    1    3    3    0    0 -0.27417032575E+01 -0.12471153387E+02  0.34527344777E+02  0.36812825770E+02  0.51100000000E-03 0. -1.
         22    1    1    0    0    0  0.21144781212E+02  0.35680396537E+02  0.15551172756E+01  0.41504347475E+02  0.00000000000E+00 0.  1.
</event>
<event>
 5    1  0.1681104E-003  0.9118800E+02  0.7818608E-02  0.1130116E+00
         25   -1    0    0    0    0  0.00000000000E+00  0.00000000000E+00  0.99999998245E-14  0.12500000000E+03  0.12500000000E+03 0.  0.
        -11    1    3    3    0    0 -0.47715876631E+02  0.33559910512E+02 -0.97676474908E+01  0.59147945138E+02  0.51100000000E-03 0. -1.
         23    2    1    0    0    0 -0.11782611757E+02  0.24114322386E+02 -0.10155419590E+02  0.96303954436E+02  0.91929258720E+02 0.  0.
         11    1    3    3    0    0  0.35933264873E+02 -0.94455881260E+01 -0.38777209948E+00  0.37156009298E+02  0.51100000000E-03 0.  1.
         22    1    1    0    0    0  0.11782611757E+02 -0.24114322386E+02  0.10155419590E+02  0.28696045564E+02  0.00000000000E+00 0. -1.
</event>
<event>
 5    1  0.1681104E-003  0.9118800E+02  0.7818608E-02  0.1130116E+00
         25   -1    0    0    0    0  0.00000000000E+00  0.00000000000E+00  0.99999998245E-14  0.12500000000E+03  0.12500000000E+03 0.  0.
        -11    1    3    3    0    0 -0.47542339646E+02  0.19580458864E+02  0.34614984221E+02  0.61982784394E+02  0.51100000000E-03 0.  1.
         23    2    1    0    0    0 -0.15727971633E+02  0.71093596431E+01  0.18284138374E+02  0.99855978796E+02  0.96638474217E+02 0.  0.
         11    1    3    3    0    0  0.31814368013E+02 -0.12471099221E+02 -0.16330845847E+02  0.37873194402E+02  0.51100000000E-03 0. -1.
         22    1    1    0    0    0  0.15727971633E+02 -0.71093596431E+01 -0.18284138374E+02  0.25144021204E+02  0.00000000000E+00 0.  1.
</event>
<event>
 5    1  0.1681104E-003  0.9118800E+02  0.7818608E-02  0.1130116E+00
         25   -1    0    0    0    0  0.00000000000E+00  0.00000000000E+00  0.99999998245E-14  0.12500000000E+03  0.12500000000E+03 0.  0.
        -11    1    3    3    0    0 -0.80353489514E+00  0.21217534047E+01  0.52032381418E+02  0.52081822378E+02  0.51100000000E-03 0.  1.
         23    2    1    0    0    0 -0.21101149467E+02  0.12910061566E+02  0.13849904754E+02  0.96649549208E+02  0.92397983214E+02 0.  0.
         11    1    3    3    0    0 -0.20297614571E+02  0.10788308161E+02 -0.38182476665E+02  0.44567726830E+02  0.51100000000E-03 0. -1.
         22    1    1    0    0    0  0.21101149467E+02 -0.12910061566E+02 -0.13849904754E+02  0.28350450792E+02  0.00000000000E+00 0.  1.
</event>
<event>
 5    1  0.1681104E-003  0.9118800E+02  0.7818608E-02  0.1130116E+00
         25   -1    0    0    0    0  0.00000000000E+00  0.00000000000E+00  0.99999998245E-14  0.12500000000E+03  0.12500000000E+03 0.  0.
        -11    1    3    3    0    0 -0.22681624950E+01  0.18476290670E+02 -0.28846305075E+02  0.34331140307E+02  0.51100000000E-03 0.  1.
         23    2    1    0    0    0  0.36100117612E+02  0.74703663398E+01  0.64030453604E+01  0.87583107361E+02  0.79188236754E+02 0.  0.
         11    1    3    3    0    0  0.38368280107E+02 -0.11005924330E+02  0.35249350435E+02  0.53251967054E+02  0.51100000000E-03 0. -1.
         22    1    1    0    0    0 -0.36100117612E+02 -0.74703663398E+01 -0.64030453604E+01  0.37416892639E+02  0.00000000000E+00 0. -1.
</event>
<event>
 5    1  0.1681104E-003  0.9118800E+02  0.7818608E-02  0.1130116E+00
         25   -1    0    0    0    0  0.00000000000E+00  0.00000000000E+00  0.99999998245E-14  0.12500000000E+03  0.12500000000E+03 0.  0.
        -11    1    3    3    0    0 -0.77179170728E+01  0.31379762827E+02  0.17600809713E+02  0.36797340418E+02  0.51100000000E-03 0.  1.
         23    2    1    0    0    0  0.20490360881E+02 -0.19417250992E+02  0.38136605380E+01  0.96514415369E+02  0.92214987080E+02 0.  0.
         11    1    3    3    0    0  0.28208277954E+02 -0.50797013819E+02 -0.13787149175E+02  0.59717074950E+02  0.51100000000E-03 0. -1.
         22    1    1    0    0    0 -0.20490360881E+02  0.19417250992E+02 -0.38136605380E+01  0.28485584631E+02  0.00000000000E+00 0. -1.
</event>
<event>
 5    1  0.1681104E-003  0.9118800E+02  0.7818608E-02  0.1130116E+00
         25   -1    0    0    0    0  0.00000000000E+00  0.00000000000E+00  0.99999998245E-14  0.12500000000E+03  0.12500000000E+03 0.  0.
        -11    1    3    3    0    0 -0.37304717000E+01  0.39035263908E+02  0.47637421311E+02  0.61700827846E+02  0.51100000000E-03 0.  1.
         23    2    1    0    0    0 -0.82583368876E+01  0.18624819489E+02  0.19129134452E+02  0.97053482972E+02  0.92942835888E+02 0.  0.
         11    1    3    3    0    0 -0.45278651876E+01 -0.20410444419E+02 -0.28508286859E+02  0.35352655126E+02  0.51100000000E-03 0. -1.
         22    1    1    0    0    0  0.82583368876E+01 -0.18624819489E+02 -0.19129134452E+02  0.27946517028E+02  0.00000000000E+00 0.  1.
</event>
<event>
 5    1  0.1681104E-003  0.9118800E+02  0.7818608E-02  0.1130116E+00
         25   -1    0    0    0    0  0.00000000000E+00  0.00000000000E+00  0.99999998245E-14  0.12500000000E+03  0.12500000000E+03 0.  0.
        -11    1    3    3    0    0  0.14866086465E+02  0.54001607928E+02 -0.90855077443E+01  0.56742582219E+02  0.51100000000E-03 0.  1.
         23    2    1    0    0    0  0.17987343567E+02  0.18898060081E+02  0.10283624028E+02  0.96956567140E+02  0.92812401031E+02 0.  0.
         11    1    3    3    0    0  0.31212571015E+01 -0.35103547847E+02  0.19369131772E+02  0.40213984921E+02  0.51100000000E-03 0. -1.
         22    1    1    0    0    0 -0.17987343567E+02 -0.18898060081E+02 -0.10283624028E+02  0.28043432860E+02  0.00000000000E+00 0.  1.
</event>
<event>
 5    1  0.1681104E-003  0.9118800E+02  0.7818608E-02  0.1130116E+00
         25   -1    0    0    0    0  0.00000000000E+00  0.00000000000E+00  0.99999998245E-14  0.12500000000E+03  0.12500000000E+03 0.  0.
        -11    1    3    3    0    0 -0.19250968660E+02 -0.43337417267E+02  0.54844204841E+00  0.47423963549E+02  0.51100000000E-03 0.  1.
         23    2    1    0    0    0 -0.19008312892E+02  0.20083123710E+00 -0.21561647770E+02  0.96255244883E+02  0.91863002458E+02 0.  0.
         11    1    3    3    0    0  0.24265576794E+00  0.43538248504E+02 -0.22110089819E+02  0.48831281334E+02  0.51100000000E-03 0. -1.
         22    1    1    0    0    0  0.19008312892E+02 -0.20083123710E+00  0.21561647770E+02  0.28744755117E+02  0.00000000000E+00 0. -1.
</event>
<event>
 5    1  0.1681104E-003  0.9118800E+02  0.7818608E-02  0.1130116E+00
         25   -1    0    0    0    0  0.00000000000E+00  0.00000000000E+00  0.99999998245E-14  0.12500000000E+03  0.12500000000E+03 0.  0.
        -11    1    3    3    0    0 -0.35827897295E+02  0.37917510906E+02 -0.15449472215E+02  0.54406452282E+02  0.51100000000E-03 0.  1.
         23    2    1    0    0    0 -0.12906014017E+02  0.30193024815E+01 -0.24514226197E+02  0.97131941738E+02  0.93048296247E+02 0.  0.
         11    1    3    3    0    0  0.22921883278E+02 -0.34898208425E+02 -0.90647539816E+01  0.42725489456E+02  0.51100000000E-03 0. -1.
         22    1    1    0    0    0  0.12906014017E+02 -0.30193024815E+01  0.24514226197E+02  0.27868058262E+02  0.00000000000E+00 0.  1.
</event>
<event>
 5    1  0.1681104E-003  0.9118800E+02  0.7818608E-02  0.1130116E+00
         25   -1    0    0    0    0  0.00000000000E+00  0.00000000000E+00  0.99999998245E-14  0.12500000000E+03  0.12500000000E+03 0.  0.
        -11    1    3    3    0    0 -0.19469242274E+02  0.31668648110E+02 -0.55798283288E+01  0.37591078095E+02  0.51100000000E-03 0.  1.
         23    2    1    0    0    0 -0.14447183386E+02 -0.25071640124E+02  0.52984840251E+01  0.95582621136E+02  0.90943143139E+02 0.  0.
         11    1    3    3    0    0  0.50220588881E+01 -0.56740288234E+02  0.10878312354E+02  0.57991543041E+02  0.51100000000E-03 0. -1.
         22    1    1    0    0    0  0.14447183386E+02  0.25071640124E+02 -0.52984840251E+01  0.29417378864E+02  0.00000000000E+00 0. -1.
</event>
<event>
 5    1  0.1681104E-003  0.9118800E+02  0.7818608E-02  0.1130116E+00
         25   -1    0    0    0    0  0.00000000000E+00  0.00000000000E+00  0.99999998245E-14  0.12500000000E+03  0.12500000000E+03 0.  0.
        -11    1    3    3    0    0 -0.18304211796E+01  0.18738700751E+02  0.25556167360E+02  0.31742826559E+02  0.51100000000E-03 0.  1.
         23    2    1    0    0    0 -0.34159932171E+01 -0.53223512482E+01 -0.31071873752E+02  0.93291045887E+02  0.87736887748E+02 0.  0.
         11    1    3    3    0    0 -0.15855720375E+01 -0.24061051999E+02 -0.56628041113E+02  0.61548219328E+02  0.51100000000E-03 0. -1.
         22    1    1    0    0    0  0.34159932171E+01  0.53223512482E+01  0.31071873752E+02  0.31708954113E+02  0.00000000000E+00 0. -1.
</event>
<event>
 5    1  0.1681104E-003  0.9118800E+02  0.7818608E-02  0.1130116E+00
         25   -1    0    0    0    0  0.00000000000E+00  0.00000000000E+00  0.99999998245E-14  0.12500000000E+03  0.12500000000E+03 0.  0.
        -11    1    3    3    0    0 -0.38713244883E+02  0.86497608722E+01  0.98366170612E+01  0.40869214918E+02  0.51100000000E-03 0.  1.
         23    2    1    0    0    0 -0.59990100266E+01 -0.19950606335E+02 -0.21972602165E+02  0.94721128483E+02  0.89751223506E+02 0.  0.
         11    1    3    3    0    0  0.32714234856E+02 -0.28600367208E+02 -0.31809219226E+02  0.53851913565E+02  0.51100000000E-03 0. -1.
         22    1    1    0    0    0  0.59990100266E+01  0.19950606335E+02  0.21972602165E+02  0.30278871517E+02  0.00000000000E+00 0. -1.
</event>
<event>
 5    1  0.1681104E-003  0.9118800E+02  0.7818608E-02  0.1130116E+00
         25   -1    0    0    0    0  0.00000000000E+00  0.00000000000E+00  0.99999998245E-14  0.12500000000E+03  0.12500000000E+03 0.  0.
        -11    1    3    3    0    0  0.15008786173E+02 -0.36327716800E+02  0.26673796274E+02  0.47502190247E+02  0.51100000000E-03 0.  1.
         23    2    1    0    0    0  0.20755776619E+02 -0.30324837853E+02 -0.11440971283E+02  0.86512419175E+02  0.77479705690E+02 0.  0.
         11    1    3    3    0    0  0.57469904462E+01  0.60028789469E+01 -0.38114767557E+02  0.39010228928E+02  0.51100000000E-03 0. -1.
         22    1    1    0    0    0 -0.20755776619E+02  0.30324837853E+02  0.11440971283E+02  0.38487580825E+02  0.00000000000E+00 0.  1.
</event>
<event>
 5    1  0.1681104E-003  0.9118800E+02  0.7818608E-02  0.1130116E+00
         25   -1    0    0    0    0  0.00000000000E+00  0.00000000000E+00  0.99999998245E-14  0.12500000000E+03  0.12500000000E+03 0.  0.
        -11    1    3    3    0    0  0.19407706295E+02  0.13407980784E+02 -0.25625327573E+02  0.34829447682E+02  0.51100000000E-03 0.  1.
         23    2    1    0    0    0 -0.96784168205E+01  0.61114013391E+01  0.27153561275E+02  0.95532443800E+02  0.90874148965E+02 0.  0.
         11    1    3    3    0    0 -0.29086123116E+02 -0.72965794452E+01  0.52778888848E+02  0.60702996118E+02  0.51100000000E-03 0. -1.
         22    1    1    0    0    0  0.96784168205E+01 -0.61114013391E+01 -0.27153561275E+02  0.29467556200E+02  0.00000000000E+00 0. -1.
</event>
<event>
 5    1  0.1681104E-003  0.9118800E+02  0.7818608E-02  0.1130116E+00
         25   -1    0    0    0    0  0.00000000000E+00  0.00000000000E+00  0.99999998245E-14  0.12500000000E+03  0.12500000000E+03 0.  0.
        -11    1    3    3    0    0 -0.92728147328E+01 -0.37660778877E+02  0.15550899742E+02  0.41786957794E+02  0.51100000000E-03 0.  1.
         23    2    1    0    0    0  0.82603245585E+01  0.11525140430E+02  0.26320071554E+02  0.95103378279E+02  0.90282027944E+02 0.  0.
         11    1    3    3    0    0  0.17533139291E+02  0.49185919307E+02  0.10769171812E+02  0.53316420484E+02  0.51100000000E-03 0. -1.
         22    1    1    0    0    0 -0.82603245585E+01 -0.11525140430E+02 -0.26320071554E+02  0.29896621721E+02  0.00000000000E+00 0. -1.
</event>
<event>
 5    1  0.1681104E-003  0.9118800E+02  0.7818608E-02  0.1130116E+00
         25   -1    0    0    0    0  0.00000000000E+00  0.00000000000E+00  0.99999998245E-14  0.12500000000E+03  0.12500000000E+03 0.  0.
        -11    1    3    3    0    0 -0.80906942794E+01 -0.29517673450E+02  0.14182059970E+02  0.33732524440E+02  0.51100000000E-03 0.  1.
         23    2    1    0    0    0  0.26693180621E+02  0.90591545476E+01 -0.14745692419E+02  0.93187587050E+02  0.87589364437E+02 0.  0.
         11    1    3    3    0    0  0.34783874901E+02  0.38576827998E+02 -0.28927752388E+02  0.59455062610E+02  0.51100000000E-03 0. -1.
         22    1    1    0    0    0 -0.26693180621E+02 -0.90591545476E+01  0.14745692419E+02  0.31812412950E+02  0.00000000000E+00 0. -1.
</event>
<event>
 5    1  0.1681104E-003  0.9118800E+02  0.7818608E-02  0.1130116E+00
         25   -1    0    0    0    0  0.00000000000E+00  0.00000000000E+00  0.99999998245E-14  0.12500000000E+03  0.12500000000E+03 0.  0.
        -11    1    3    3    0    0 -0.32899943347E+02 -0.13100309496E+02 -0.28439673647E+02  0.45418492033E+02  0.51100000000E-03 0.  1.
         23    2    1    0    0    0  0.17125913444E+02 -0.11607642922E+02 -0.20096494816E+02  0.96157264529E+02  0.91729581556E+02 0.  0.
         11    1    3    3    0    0  0.50025856791E+02  0.14926665738E+01  0.83431788304E+01  0.50738772497E+02  0.51100000000E-03 0. -1.
         22    1    1    0    0    0 -0.17125913444E+02  0.11607642922E+02  0.20096494816E+02  0.28842735471E+02  0.00000000000E+00 0. -1.
</event>
<event>
 5    1  0.1681104E-003  0.9118800E+02  0.7818608E-02  0.1130116E+00
         25   -1    0    0    0    0  0.00000000000E+00  0.00000000000E+00  0.99999998245E-14  0.12500000000E+03  0.12500000000E+03 0.  0.
        -11    1    3    3    0    0 -0.16270380702E+02  0.33385477524E+02 -0.24165678732E+02  0.44309089660E+02  0.51100000000E-03 0.  1.
         23    2    1    0    0    0  0.20415940777E+02  0.17841633561E+02  0.92935550134E+01  0.96338096876E+02  0.91975671886E+02 0.  0.
         11    1    3    3    0    0  0.36686321478E+02 -0.15543843963E+02  0.33459233745E+02  0.52029007215E+02  0.51100000000E-03 0. -1.
         22    1    1    0    0    0 -0.20415940777E+02 -0.17841633561E+02 -0.92935550134E+01  0.28661903124E+02  0.00000000000E+00 0. -1.
</event>
<event>
 5    1  0.1681104E-003  0.9118800E+02  0.7818608E-02  0.1130116E+00
         25   -1    0    0    0    0  0.00000000000E+00  0.00000000000E+00  0.99999998245E-14  0.12500000000E+03  0.12500000000E+03 0.  0.
        -11    1    3    3    0    0 -0.32417455164E+02 -0.20945350825E+02  0.19137842080E+02  0.43079648562E+02  0.51100000000E-03 0.  1.
         23    2    1    0    0    0 -0.43450787430E+01  0.22774737109E+02  0.18979840492E+02  0.95036643967E+02  0.90189583610E+02 0.  0.
         11    1    3    3    0    0  0.28072376421E+02  0.43720087933E+02 -0.15800158747E+00  0.51956995406E+02  0.51100000000E-03 0. -1.
         22    1    1    0    0    0  0.43450787430E+01 -0.22774737109E+02 -0.18979840492E+02  0.29963356033E+02  0.00000000000E+00 0. -1.
</event>
<event>
 5    1  0.1681104E-003  0.9118800E+02  0.7818608E-02  0.1130116E+00
         25   -1    0    0    0    0  0.00000000000E+00  0.00000000000E+00  0.99999998245E-14  0.12500000000E+03  0.12500000000E+03 0.  0.
        -11    1    3    3    0    0 -0.32884169523E+02 -0.85382905884E+01  0.45134436502E+02  0.56492374441E+02  0.51100000000E-03 0.  1.
         23    2    1    0    0    0  0.13402885207E+01 -0.92263640905E+01  0.29382022414E+02  0.94174273589E+02  0.88986338262E+02 0.  0.
         11    1    3    3    0    0  0.34224458043E+02 -0.68807350214E+00 -0.15752414089E+02  0.37681899148E+02  0.51100000000E-03 0. -1.
         22    1    1    0    0    0 -0.13402885207E+01  0.92263640905E+01 -0.29382022414E+02  0.30825726411E+02  0.00000000000E+00 0.  1.
</event>
<event>
 5    1  0.1681104E-003  0.9118800E+02  0.7818608E-02  0.1130116E+00
         25   -1    0    0    0    0  0.00000000000E+00  0.00000000000E+00  0.99999998245E-14  0.12500000000E+03  0.12500000000E+03 0.  0.
        -11    1    3    3    0    0 -0.10706038418E+02  0.46610698574E+02  0.25965797866E+02  0.54418738861E+02  0.51100000000E-03 0.  1.
         23    2    1    0    0    0 -0.10504730724E+02  0.47745020883E+01  0.26325214319E+02  0.96256963509E+02  0.91865341001E+02 0.  0.
         11    1    3    3    0    0  0.20130769434E+00 -0.41836196486E+02  0.35941645390E+00  0.41838224647E+02  0.51100000000E-03 0. -1.
         22    1    1    0    0    0  0.10504730724E+02 -0.47745020883E+01 -0.26325214319E+02  0.28743036491E+02  0.00000000000E+00 0.  1.
</event>
<event>
 5    1  0.1681104E-003  0.9118800E+02  0.7818608E-02  0.1130116E+00
         25   -1    0    0    0    0  0.00000000000E+00  0.00000000000E+00  0.99999998245E-14  0.12500000000E+03  0.12500000000E+03 0.  0.
        -11    1    3    3    0    0  0.23208472962E+01 -0.35109137550E+02 -0.40720906567E+02  0.53816634079E+02  0.51100000000E-03 0.  1.
         23    2    1    0    0    0 -0.21374589071E+02 -0.15463208455E+02 -0.11630627123E+02  0.96168500543E+02  0.91744891606E+02 0.  0.
         11    1    3    3    0    0 -0.23695436367E+02  0.19645929094E+02  0.29090279444E+02  0.42351866464E+02  0.51100000000E-03 0. -1.
         22    1    1    0    0    0  0.21374589071E+02  0.15463208455E+02  0.11630627123E+02  0.28831499457E+02  0.00000000000E+00 0.  1.
</event>
<event>
 5    1  0.1681104E-003  0.9118800E+02  0.7818608E-02  0.1130116E+00
         25   -1    0    0    0    0  0.00000000000E+00  0.00000000000E+00  0.99999998245E-14  0.12500000000E+03  0.12500000000E+03 0.  0.
        -11    1    3    3    0    0  0.30542266965E+02 -0.14946560852E+02 -0.16152629275E+02  0.37644882592E+02  0.51100000000E-03 0. -1.
         23    2    1    0    0    0 -0.97490605193E+00  0.21994967655E+02  0.17625840771E+02  0.96797175552E+02  0.92597483162E+02 0.  0.
         11    1    3    3    0    0 -0.31517173016E+02  0.36941528508E+02  0.33778470046E+02  0.59152292959E+02  0.51100000000E-03 0.  1.
         22    1    1    0    0    0  0.97490605193E+00 -0.21994967655E+02 -0.17625840771E+02  0.28202824448E+02  0.00000000000E+00 0.  1.
</event>
<event>
 5    1  0.1681104E-003  0.9118800E+02  0.7818608E-02  0.1130116E+00
         25   -1    0    0    0    0  0.00000000000E+00  0.00000000000E+00  0.99999998245E-14  0.12500000000E+03  0.12500000000E+03 0.  0.
        -11    1    3    3    0    0 -0.46309690925E+02 -0.20296256861E+02  0.19814053120E+02  0.54305821211E+02  0.51100000000E-03 0. -1.
         23    2    1    0    0    0 -0.10955337396E+02 -0.15310406948E+02  0.28305105636E+02  0.91005780146E+02  0.84418274305E+02 0.  0.
         11    1    3    3    0    0  0.35354353528E+02  0.49858499134E+01  0.84910525166E+01  0.36699958936E+02  0.51100000000E-03 0.  1.
         22    1    1    0    0    0  0.10955337396E+02  0.15310406948E+02 -0.28305105636E+02  0.33994219854E+02  0.00000000000E+00 0. -1.
</event>
<event>
 5    1  0.1681104E-003  0.9118800E+02  0.7818608E-02  0.1130116E+00
         25   -1    0    0    0    0  0.00000000000E+00  0.00000000000E+00  0.99999998245E-14  0.12500000000E+03  0.12500000000E+03 0.  0.
        -11    1    3    3    0    0  0.27434144293E+02  0.49652749849E+01  0.10836639914E+02  0.29911853732E+02  0.51100000000E-03 0.  1.
         23    2    1    0    0    0  0.15254732793E+02 -0.38826009164E+02 -0.13091258607E+02  0.81278759028E+02  0.68517806132E+02 0.  0.
         11    1    3    3    0    0 -0.12179411500E+02 -0.43791284149E+02 -0.23927898521E+02  0.51366905297E+02  0.51100000000E-03 0. -1.
         22    1    1    0    0    0 -0.15254732793E+02  0.38826009164E+02  0.13091258607E+02  0.43721240972E+02  0.00000000000E+00 0.  1.
</event>
<event>
 5    1  0.1681104E-003  0.9118800E+02  0.7818608E-02  0.1130116E+00
         25   -1    0    0    0    0  0.00000000000E+00  0.00000000000E+00  0.99999998245E-14  0.12500000000E+03  0.12500000000E+03 0.  0.
        -11    1    3    3    0    0 -0.95049660294E+01  0.38541717000E+02  0.30980563093E+02  0.50354777512E+02  0.51100000000E-03 0.  1.
         23    2    1    0    0    0 -0.81481221215E+01 -0.68285213509E+01  0.27074521791E+02  0.95913055710E+02  0.91396192084E+02 0.  0.
         11    1    3    3    0    0  0.13568439079E+01 -0.45370238351E+02 -0.39060413023E+01  0.45558278197E+02  0.51100000000E-03 0. -1.
         22    1    1    0    0    0  0.81481221215E+01  0.68285213509E+01 -0.27074521791E+02  0.29086944290E+02  0.00000000000E+00 0.  1.
</event>
<event>
 5    1  0.1681104E-003  0.9118800E+02  0.7818608E-02  0.1130116E+00
         25   -1    0    0    0    0  0.00000000000E+00  0.00000000000E+00  0.99999998245E-14  0.12500000000E+03  0.12500000000E+03 0.  0.
        -11    1    3    3    0    0 -0.36997783042E+02  0.35124503477E+02  0.19184994920E+02  0.54503492776E+02  0.51100000000E-03 0.  1.
         23    2    1    0    0    0 -0.21103522817E+02  0.17227521677E+02 -0.13162958373E+02  0.94744262502E+02  0.89783437368E+02 0.  0.
         11    1    3    3    0    0  0.15894260225E+02 -0.17896981799E+02 -0.32347953293E+02  0.40240769726E+02  0.51100000000E-03 0. -1.
         22    1    1    0    0    0  0.21103522817E+02 -0.17227521677E+02  0.13162958373E+02  0.30255737498E+02  0.00000000000E+00 0.  1.
</event>
<event>
 5    1  0.1681104E-003  0.9118800E+02  0.7818608E-02  0.1130116E+00
         25   -1    0    0    0    0  0.00000000000E+00  0.00000000000E+00  0.99999998245E-14  0.12500000000E+03  0.12500000000E+03 0.  0.
        -11    1    3    3    0    0  0.53133220564E+02 -0.29367787379E+02 -0.23291557993E+00  0.60709639374E+02  0.51100000000E-03 0. -1.
         23    2    1    0    0    0  0.24851428450E+02 -0.10624575995E+02  0.10053344019E+02  0.96163480844E+02  0.91738052143E+02 0.  0.
         11    1    3    3    0    0 -0.28281792114E+02  0.18743211383E+02  0.10286259599E+02  0.35453841470E+02  0.51100000000E-03 0.  1.
         22    1    1    0    0    0 -0.24851428450E+02  0.10624575995E+02 -0.10053344019E+02  0.28836519156E+02  0.00000000000E+00 0. -1.
</event>
<event>
 5    1  0.1681104E-003  0.9118800E+02  0.7818608E-02  0.1130116E+00
         25   -1    0    0    0    0  0.00000000000E+00  0.00000000000E+00  0.99999998245E-14  0.12500000000E+03  0.12500000000E+03 0.  0.
        -11    1    3    3    0    0 -0.62741442684E+01  0.10450854667E+02  0.30319820880E+02  0.32678384110E+02  0.51100000000E-03 0.  1.
         23    2    1    0    0    0 -0.14057207172E+01 -0.72024717935E+01 -0.29169060239E+02  0.94922005953E+02  0.90030558635E+02 0.  0.
         11    1    3    3    0    0  0.48684235512E+01 -0.17653326461E+02 -0.59488881119E+02  0.62243621843E+02  0.51100000000E-03 0. -1.
         22    1    1    0    0    0  0.14057207172E+01  0.72024717935E+01  0.29169060239E+02  0.30077994047E+02  0.00000000000E+00 0. -1.
</event>
<event>
 5    1  0.1681104E-003  0.9118800E+02  0.7818608E-02  0.1130116E+00
         25   -1    0    0    0    0  0.00000000000E+00  0.00000000000E+00  0.99999998245E-14  0.12500000000E+03  0.12500000000E+03 0.  0.
        -11    1    3    3    0    0  0.24573652118E+02 -0.44145620720E+02 -0.23872111514E+02  0.55880031456E+02  0.51100000000E-03 0.  1.
         23    2    1    0    0    0  0.25787911398E+02 -0.58072571603E+01 -0.11382380914E+02  0.96219812279E+02  0.91814775879E+02 0.  0.
         11    1    3    3    0    0  0.12142592806E+01  0.38338363560E+02  0.12489730600E+02  0.40339780822E+02  0.51100000000E-03 0. -1.
         22    1    1    0    0    0 -0.25787911398E+02  0.58072571603E+01  0.11382380914E+02  0.28780187721E+02  0.00000000000E+00 0.  1.
</event>
<event>
 5    1  0.1681104E-003  0.9118800E+02  0.7818608E-02  0.1130116E+00
         25   -1    0    0    0    0  0.00000000000E+00  0.00000000000E+00  0.99999998245E-14  0.12500000000E+03  0.12500000000E+03 0.  0.
        -11    1    3    3    0    0  0.15264112660E+02 -0.12043779462E+02  0.28653301045E+02  0.34627408509E+02  0.51100000000E-03 0. -1.
         23    2    1    0    0    0  0.58672530600E+01 -0.41717880968E+02 -0.73659511982E+01  0.82232448188E+02  0.70236116401E+02 0.  0.
         11    1    3    3    0    0 -0.93968595999E+01 -0.29674101505E+02 -0.36019252243E+02  0.47605039679E+02  0.51100000000E-03 0.  1.
         22    1    1    0    0    0 -0.58672530600E+01  0.41717880968E+02  0.73659511982E+01  0.42767551812E+02  0.00000000000E+00 0.  1.
</event>
<event>
 5    1  0.1681104E-003  0.9118800E+02  0.7818608E-02  0.1130116E+00
         25   -1    0    0    0    0  0.00000000000E+00  0.00000000000E+00  0.99999998245E-14  0.12500000000E+03  0.12500000000E+03 0.  0.
        -11    1    3    3    0    0 -0.92901702399E+01 -0.91686290898E+01 -0.20314277769E+02  0.24146239956E+02  0.51100000000E-03 0.  1.
         23    2    1    0    0    0  0.30348619838E+02 -0.14255347665E+02  0.23959715402E+02  0.83789302053E+02  0.72954270013E+02 0.  0.
         11    1    3    3    0    0  0.39638790078E+02 -0.50867185754E+01  0.44273993171E+02  0.59643062097E+02  0.51100000000E-03 0. -1.
         22    1    1    0    0    0 -0.30348619838E+02  0.14255347665E+02 -0.23959715402E+02  0.41210697947E+02  0.00000000000E+00 0. -1.
</event>
<event>
 5    1  0.1681104E-003  0.9118800E+02  0.7818608E-02  0.1130116E+00
         25   -1    0    0    0    0  0.00000000000E+00  0.00000000000E+00  0.99999998245E-14  0.12500000000E+03  0.12500000000E+03 0.  0.
        -11    1    3    3    0    0  0.22219085181E+02 -0.23592469837E+00 -0.21990660505E+02  0.31262318475E+02  0.51100000000E-03 0.  1.
         23    2    1    0    0    0 -0.18531768658E+02 -0.17465029442E+02  0.20275135251E+02  0.92449503653E+02  0.86529624483E+02 0.  0.
         11    1    3    3    0    0 -0.40750853838E+02 -0.17229104743E+02  0.42265795756E+02  0.61187185178E+02  0.51100000000E-03 0. -1.
         22    1    1    0    0    0  0.18531768658E+02  0.17465029442E+02 -0.20275135251E+02  0.32550496347E+02  0.00000000000E+00 0. -1.
</event>
<event>
 5    1  0.1681104E-003  0.9118800E+02  0.7818608E-02  0.1130116E+00
         25   -1    0    0    0    0  0.00000000000E+00  0.00000000000E+00  0.99999998245E-14  0.12500000000E+03  0.12500000000E+03 0.  0.
        -11    1    3    3    0    0  0.97404386514E+01 -0.59295256792E+02 -0.71379750245E+01  0.60512431044E+02  0.51100000000E-03 0. -1.
         23    2    1    0    0    0  0.70598424864E+01 -0.33881743195E+02 -0.15044449376E+02  0.87262096575E+02  0.78679883984E+02 0.  0.
         11    1    3    3    0    0 -0.26805961650E+01  0.25413513596E+02 -0.79064743517E+01  0.26749665531E+02  0.51100000000E-03 0.  1.
         22    1    1    0    0    0 -0.70598424864E+01  0.33881743195E+02  0.15044449376E+02  0.37737903425E+02  0.00000000000E+00 0. -1.
</event>
<event>
 5    1  0.1681104E-003  0.9118800E+02  0.7818608E-02  0.1130116E+00
         25   -1    0    0    0    0  0.00000000000E+00  0.00000000000E+00  0.99999998245E-14  0.12500000000E+03  0.12500000000E+03 0.  0.
        -11    1    3    3    0    0  0.15460464572E+02 -0.39410291253E+02  0.12674120632E+02  0.44190840177E+02  0.51100000000E-03 0. -1.
         23    2    1    0    0    0 -0.82370883305E+01 -0.88264819002E+01 -0.24399965452E+02  0.97776577714E+02  0.93910299906E+02 0.  0.
         11    1    3    3    0    0 -0.23697552903E+02  0.30583809353E+02 -0.37074086085E+02  0.53585737537E+02  0.51100000000E-03 0.  1.
         22    1    1    0    0    0  0.82370883305E+01  0.88264819002E+01  0.24399965452E+02  0.27223422286E+02  0.00000000000E+00 0.  1.
</event>
<event>
 5    1  0.1681104E-003  0.9118800E+02  0.7818608E-02  0.1130116E+00
         25   -1    0    0    0    0  0.00000000000E+00  0.00000000000E+00  0.99999998245E-14  0.12500000000E+03  0.12500000000E+03 0.  0.
        -11    1    3    3    0    0 -0.22570313665E+02  0.15249484233E+01  0.34660110752E+02  0.41389223286E+02  0.51100000000E-03 0.  1.
         23    2    1    0    0    0  0.22651712149E+02  0.96653073566E+01  0.27821507677E+02  0.87844185933E+02  0.79599286952E+02 0.  0.
         11    1    3    3    0    0  0.45222025814E+02  0.81403589334E+01 -0.68386030748E+01  0.46454962647E+02  0.51100000000E-03 0. -1.
         22    1    1    0    0    0 -0.22651712149E+02 -0.96653073566E+01 -0.27821507677E+02  0.37155814067E+02  0.00000000000E+00 0.  1.
</event>
<event>
 5    1  0.1681104E-003  0.9118800E+02  0.7818608E-02  0.1130116E+00
         25   -1    0    0    0    0  0.00000000000E+00  0.00000000000E+00  0.99999998245E-14  0.12500000000E+03  0.12500000000E+03 0.  0.
        -11    1    3    3    0    0 -0.35404267858E+02  0.24230615286E+02  0.91126642296E+01  0.43859155821E+02  0.51100000000E-03 0.  1.
         23    2    1    0    0    0 -0.12915768172E+01  0.88159039687E+01 -0.27422099258E+02  0.96166688341E+02  0.91742422496E+02 0.  0.
         11    1    3    3    0    0  0.34112691041E+02 -0.15414711317E+02 -0.36534763488E+02  0.52307532521E+02  0.51100000000E-03 0. -1.
         22    1    1    0    0    0  0.12915768172E+01 -0.88159039687E+01  0.27422099258E+02  0.28833311659E+02  0.00000000000E+00 0. -1.
</event>
<event>
 5    1  0.1681104E-003  0.9118800E+02  0.7818608E-02  0.1130116E+00
         25   -1    0    0    0    0  0.00000000000E+00  0.00000000000E+00  0.99999998245E-14  0.12500000000E+03  0.12500000000E+03 0.  0.
        -11    1    3    3    0    0  0.41582704368E+02 -0.35017449411E+02 -0.10346905765E+02  0.55338969316E+02  0.51100000000E-03 0.  1.
         23    2    1    0    0    0  0.23556794831E+02  0.21964068522E+01 -0.15056935311E+02  0.96956139946E+02  0.92811825683E+02 0.  0.
         11    1    3    3    0    0 -0.18025909537E+02  0.37213856264E+02 -0.47100295461E+01  0.41617170630E+02  0.51100000000E-03 0. -1.
         22    1    1    0    0    0 -0.23556794831E+02 -0.21964068522E+01  0.15056935311E+02  0.28043860054E+02  0.00000000000E+00 0.  1.
</event>
<event>
 5    1  0.1681104E-003  0.9118800E+02  0.7818608E-02  0.1130116E+00
         25   -1    0    0    0    0  0.00000000000E+00  0.00000000000E+00  0.99999998245E-14  0.12500000000E+03  0.12500000000E+03 0.  0.
        -11    1    3    3    0    0 -0.50715846375E+02  0.77388974788E+01 -0.34557472605E+01  0.51419157880E+02  0.51100000000E-03 0.  1.
         23    2    1    0    0    0 -0.13055567263E+02  0.21317065515E+02  0.15367361588E+02  0.95656842008E+02  0.91045101472E+02 0.  0.
         11    1    3    3    0    0  0.37660279112E+02  0.13578168037E+02  0.18823108849E+02  0.44237684128E+02  0.51100000000E-03 0. -1.
         22    1    1    0    0    0  0.13055567263E+02 -0.21317065515E+02 -0.15367361588E+02  0.29343157992E+02  0.00000000000E+00 0.  1.
</event>
<event>
 5    1  0.1681104E-003  0.9118800E+02  0.7818608E-02  0.1130116E+00
         25   -1    0    0    0    0  0.00000000000E+00  0.00000000000E+00  0.99999998245E-14  0.12500000000E+03  0.12500000000E+03 0.  0.
        -11    1    3    3    0    0  0.69365049300E+01  0.90994833552E+01  0.32125267634E+02  0.34102031007E+02  0.51100000000E-03 0.  1.
         23    2    1    0    0    0  0.12305354097E+02  0.17627103202E+01 -0.27712829268E+02  0.94626824447E+02  0.89619786386E+02 0.  0.
         11    1    3    3    0    0  0.53688491673E+01 -0.73367730350E+01 -0.59838096902E+02  0.60524793441E+02  0.51100000000E-03 0. -1.
         22    1    1    0    0    0 -0.12305354097E+02 -0.17627103202E+01  0.27712829268E+02  0.30373175553E+02  0.00000000000E+00 0. -1.
</event>
<event>
 5    1  0.1681104E-003  0.9118800E+02  0.7818608E-02  0.1130116E+00
         25   -1    0    0    0    0  0.00000000000E+00  0.00000000000E+00  0.99999998245E-14  0.12500000000E+03  0.12500000000E+03 0.  0.
        -11    1    3    3    0    0 -0.94989663124E+01  0.33093946589E+02 -0.26803272148E+02  0.43633187598E+02  0.51100000000E-03 0.  1.
         23    2    1    0    0    0 -0.16660024039E+02  0.19155734265E+02  0.19802708622E+02  0.92803015282E+02  0.87038806405E+02 0.  0.
         11    1    3    3    0    0 -0.71610577264E+01 -0.13938212325E+02  0.46605980770E+02  0.49169827683E+02  0.51100000000E-03 0. -1.
         22    1    1    0    0    0  0.16660024039E+02 -0.19155734265E+02 -0.19802708622E+02  0.32196984718E+02  0.00000000000E+00 0. -1.
</event>
<event>
 5    1  0.1681104E-003  0.9118800E+02  0.7818608E-02  0.1130116E+00
         25   -1    0    0    0    0  0.00000000000E+00  0.00000000000E+00  0.99999998245E-14  0.12500000000E+03  0.12500000000E+03 0.  0.
        -11    1    3    3    0    0 -0.42460843055E+02  0.26901681548E+01  0.95971039978E+01  0.43614958478E+02  0.51100000000E-03 0. -1.
         23    2    1    0    0    0 -0.70310049948E+01  0.14658675084E+02 -0.25406080104E+02  0.94837428944E+02  0.89913053757E+02 0.  0.
         11    1    3    3    0    0  0.35429838060E+02  0.11968506929E+02 -0.35003184102E+02  0.51222470466E+02  0.51100000000E-03 0.  1.
         22    1    1    0    0    0  0.70310049948E+01 -0.14658675084E+02  0.25406080104E+02  0.30162571056E+02  0.00000000000E+00 0. -1.
</event>
<event>
 5    1  0.1681104E-003  0.9118800E+02  0.7818608E-02  0.1130116E+00
         25   -1    0    0    0    0  0.00000000000E+00  0.00000000000E+00  0.99999998245E-14  0.12500000000E+03  0.12500000000E+03 0.  0.
        -11    1    3    3    0    0  0.23109945954E+02 -0.54257038673E+02  0.13668572841E+02  0.60536978214E+02  0.51100000000E-03 0.  1.
         23    2    1    0    0    0  0.19257026139E+02 -0.21209890027E+02  0.41878842808E+00  0.96349208136E+02  0.91990771461E+02 0.  0.
         11    1    3    3    0    0 -0.38529198148E+01  0.33047148646E+02 -0.13249784413E+02  0.35812229922E+02  0.51100000000E-03 0. -1.
         22    1    1    0    0    0 -0.19257026139E+02  0.21209890027E+02 -0.41878842808E+00  0.28650791864E+02  0.00000000000E+00 0.  1.
</event>
<event>
 5    1  0.1681104E-003  0.9118800E+02  0.7818608E-02  0.1130116E+00
         25   -1    0    0    0    0  0.00000000000E+00  0.00000000000E+00  0.99999998245E-14  0.12500000000E+03  0.12500000000E+03 0.  0.
        -11    1    3    3    0    0 -0.55678307237E+02  0.84558383887E+01  0.25992151701E+02  0.62025535467E+02  0.51100000000E-03 0.  1.
         23    2    1    0    0    0 -0.29694396165E+02 -0.30408367618E+00  0.10613764085E+02  0.93464280276E+02  0.87983351089E+02 0.  0.
         11    1    3    3    0    0  0.25983911073E+02 -0.87599220649E+01 -0.15378387616E+02  0.31438744808E+02  0.51100000000E-03 0. -1.
         22    1    1    0    0    0  0.29694396165E+02  0.30408367618E+00 -0.10613764085E+02  0.31535719724E+02  0.00000000000E+00 0.  1.
</event>
<event>
 5    1  0.1681104E-003  0.9118800E+02  0.7818608E-02  0.1130116E+00
         25   -1    0    0    0    0  0.00000000000E+00  0.00000000000E+00  0.99999998245E-14  0.12500000000E+03  0.12500000000E+03 0.  0.
        -11    1    3    3    0    0  0.67932890061E+01  0.47614683204E+01 -0.37348036186E+02  0.38258282284E+02  0.51100000000E-03 0. -1.
         23    2    1    0    0    0 -0.26691840085E+02 -0.14567627023E+02  0.33665591906E+01  0.94405820734E+02  0.89311002589E+02 0.  0.
         11    1    3    3    0    0 -0.33485129091E+02 -0.19329095343E+02  0.40714595377E+02  0.56147538450E+02  0.51100000000E-03 0.  1.
         22    1    1    0    0    0  0.26691840085E+02  0.14567627023E+02 -0.33665591906E+01  0.30594179266E+02  0.00000000000E+00 0.  1.
</event>
<event>
 5    1  0.1681104E-003  0.9118800E+02  0.7818608E-02  0.1130116E+00
         25   -1    0    0    0    0  0.00000000000E+00  0.00000000000E+00  0.99999998245E-14  0.12500000000E+03  0.12500000000E+03 0.  0.
        -11    1    3    3    0    0 -0.20230787284E+02 -0.30383844326E+02 -0.12337452267E+02  0.38531486850E+02  0.51100000000E-03 0. -1.
         23    2    1    0    0    0  0.29247295833E+02 -0.42462185414E+01 -0.25775066742E+01  0.95333887581E+02  0.90600617521E+02 0.  0.
         11    1    3    3    0    0  0.49478083117E+02  0.26137625784E+02  0.97599455932E+01  0.56802400731E+02  0.51100000000E-03 0.  1.
         22    1    1    0    0    0 -0.29247295833E+02  0.42462185414E+01  0.25775066742E+01  0.29666112419E+02  0.00000000000E+00 0.  1.
</event>
<event>
 5    1  0.1681104E-003  0.9118800E+02  0.7818608E-02  0.1130116E+00
         25   -1    0    0    0    0  0.00000000000E+00  0.00000000000E+00  0.99999998245E-14  0.12500000000E+03  0.12500000000E+03 0.  0.
        -11    1    3    3    0    0 -0.31575120018E+01 -0.30336108305E+02  0.15380513169E+02  0.34158593863E+02  0.51100000000E-03 0.  1.
         23    2    1    0    0    0  0.21884088211E+02  0.22044715094E+02  0.12499475758E+01  0.93912299066E+02  0.88617575946E+02 0.  0.
         11    1    3    3    0    0  0.25041600213E+02  0.52380823399E+02 -0.14130565594E+02  0.59753705202E+02  0.51100000000E-03 0. -1.
         22    1    1    0    0    0 -0.21884088211E+02 -0.22044715094E+02 -0.12499475758E+01  0.31087700934E+02  0.00000000000E+00 0. -1.
</event>
<event>
 5    1  0.1681104E-003  0.9118800E+02  0.7818608E-02  0.1130116E+00
         25   -1    0    0    0    0  0.00000000000E+00  0.00000000000E+00  0.99999998245E-14  0.12500000000E+03  0.12500000000E+03 0.  0.
        -11    1    3    3    0    0 -0.19495914568E+02  0.38386354110E+02 -0.22954181509E+02  0.48790340393E+02  0.51100000000E-03 0. -1.
         23    2    1    0    0    0 -0.32299276115E+02  0.70417497831E+01  0.34987497371E+01  0.91757395901E+02  0.85523967257E+02 0.  0.
         11    1    3    3    0    0 -0.12803361546E+02 -0.31344604326E+02  0.26452931246E+02  0.42967055508E+02  0.51100000000E-03 0.  1.
         22    1    1    0    0    0  0.32299276115E+02 -0.70417497831E+01 -0.34987497371E+01  0.33242604099E+02  0.00000000000E+00 0.  1.
</event>
<event>
 5    1  0.1681104E-003  0.9118800E+02  0.7818608E-02  0.1130116E+00
         25   -1    0    0    0    0  0.00000000000E+00  0.00000000000E+00  0.99999998245E-14  0.12500000000E+03  0.12500000000E+03 0.  0.
        -11    1    3    3    0    0 -0.15153539265E+02 -0.27174236041E+02 -0.42489670522E+02  0.52663468914E+02  0.51100000000E-03 0. -1.
         23    2    1    0    0    0  0.14228637736E+02 -0.25662206738E+01 -0.27718671168E+02  0.93737173006E+02  0.88370205677E+02 0.  0.
         11    1    3    3    0    0  0.29382177001E+02  0.24608015367E+02  0.14770999354E+02  0.41073704092E+02  0.51100000000E-03 0.  1.
         22    1    1    0    0    0 -0.14228637736E+02  0.25662206738E+01  0.27718671168E+02  0.31262826994E+02  0.00000000000E+00 0. -1.
</event>
<event>
 5    1  0.1681104E-003  0.9118800E+02  0.7818608E-02  0.1130116E+00
         25   -1    0    0    0    0  0.00000000000E+00  0.00000000000E+00  0.99999998245E-14  0.12500000000E+03  0.12500000000E+03 0.  0.
        -11    1    3    3    0    0  0.57815955714E+01  0.28378804926E+02 -0.47426078782E+02  0.55569923208E+02  0.51100000000E-03 0.  1.
         23    2    1    0    0    0  0.12214451052E+02 -0.46358342989E+01 -0.27217400205E+02  0.94809427829E+02  0.89874117282E+02 0.  0.
         11    1    3    3    0    0  0.64328554802E+01 -0.33014639225E+02  0.20208678577E+02  0.39239504621E+02  0.51100000000E-03 0. -1.
         22    1    1    0    0    0 -0.12214451052E+02  0.46358342989E+01  0.27217400205E+02  0.30190572171E+02  0.00000000000E+00 0.  1.
</event>
<event>
 5    1  0.1681104E-003  0.9118800E+02  0.7818608E-02  0.1130116E+00
         25   -1    0    0    0    0  0.00000000000E+00  0.00000000000E+00  0.99999998245E-14  0.12500000000E+03  0.12500000000E+03 0.  0.
        -11    1    3    3    0    0  0.96736096092E+01  0.28718657169E+02 -0.13827445392E+02  0.33309731893E+02  0.51100000000E-03 0.  1.
         23    2    1    0    0    0 -0.16538643876E+02 -0.16655675892E+02  0.18703174257E+02  0.94987552449E+02  0.90121518587E+02 0.  0.
         11    1    3    3    0    0 -0.26212253485E+02 -0.45374333061E+02  0.32530619649E+02  0.61677820556E+02  0.51100000000E-03 0. -1.
         22    1    1    0    0    0  0.16538643876E+02  0.16655675892E+02 -0.18703174257E+02  0.30012447551E+02  0.00000000000E+00 0. -1.
</event>
<event>
 5    1  0.1681104E-003  0.9118800E+02  0.7818608E-02  0.1130116E+00
         25   -1    0    0    0    0  0.00000000000E+00  0.00000000000E+00  0.99999998245E-14  0.12500000000E+03  0.12500000000E+03 0.  0.
        -11    1    3    3    0    0  0.91876652524E+01  0.48532572810E+02 -0.29189674083E+02  0.57374740868E+02  0.51100000000E-03 0. -1.
         23    2    1    0    0    0  0.69472039425E+01  0.28479859983E+02  0.31746010763E+01  0.95513661481E+02  0.90848309672E+02 0.  0.
         11    1    3    3    0    0 -0.22404613099E+01 -0.20052712827E+02  0.32364275160E+02  0.38138920612E+02  0.51100000000E-03 0.  1.
         22    1    1    0    0    0 -0.69472039425E+01 -0.28479859983E+02 -0.31746010763E+01  0.29486338519E+02  0.00000000000E+00 0. -1.
</event>
<event>
 5    1  0.1681104E-003  0.9118800E+02  0.7818608E-02  0.1130116E+00
         25   -1    0    0    0    0  0.00000000000E+00  0.00000000000E+00  0.99999998245E-14  0.12500000000E+03  0.12500000000E+03 0.  0.
        -11    1    3    3    0    0 -0.44808304895E+02 -0.39676258274E+02  0.16120330776E+00  0.59849942732E+02  0.51100000000E-03 0. -1.
         23    2    1    0    0    0 -0.17888653514E+02 -0.19925574200E+02 -0.12358732612E+02  0.95508124788E+02  0.90840691306E+02 0.  0.
         11    1    3    3    0    0  0.26919651381E+02  0.19750684074E+02 -0.12519935920E+02  0.35658182056E+02  0.51100000000E-03 0.  1.
         22    1    1    0    0    0  0.17888653514E+02  0.19925574200E+02  0.12358732612E+02  0.29491875212E+02  0.00000000000E+00 0. -1.
</event>
<event>
 5    1  0.1681104E-003  0.9118800E+02  0.7818608E-02  0.1130116E+00
         25   -1    0    0    0    0  0.00000000000E+00  0.00000000000E+00  0.99999998245E-14  0.12500000000E+03  0.12500000000E+03 0.  0.
        -11    1    3    3    0    0 -0.22329846156E+02 -0.17269133044E+02  0.41629853985E+02  0.50298009190E+02  0.51100000000E-03 0.  1.
         23    2    1    0    0    0 -0.25488046944E+02  0.13748348670E+02  0.29236253349E+02  0.83848862251E+02  0.73056249306E+02 0.  0.
         11    1    3    3    0    0 -0.31582007879E+01  0.31017481714E+02 -0.12393600636E+02  0.33550853060E+02  0.51100000000E-03 0. -1.
         22    1    1    0    0    0  0.25488046944E+02 -0.13748348670E+02 -0.29236253349E+02  0.41151137749E+02  0.00000000000E+00 0.  1.
</event>
<event>
 5    1  0.1681104E-003  0.9118800E+02  0.7818608E-02  0.1130116E+00
         25   -1    0    0    0    0  0.00000000000E+00  0.00000000000E+00  0.99999998245E-14  0.12500000000E+03  0.12500000000E+03 0.  0.
        -11    1    3    3    0    0  0.46658057984E+02  0.35763642744E+02 -0.15636981177E+02  0.60831962797E+02  0.51100000000E-03 0.  1.
         23    2    1    0    0    0  0.19400007699E+02  0.18708969042E+02 -0.17206920369E+02  0.93024010102E+02  0.87355609583E+02 0.  0.
         11    1    3    3    0    0 -0.27258050285E+02 -0.17054673701E+02 -0.15699391915E+01  0.32192047305E+02  0.51100000000E-03 0. -1.
         22    1    1    0    0    0 -0.19400007699E+02 -0.18708969042E+02  0.17206920369E+02  0.31975989898E+02  0.00000000000E+00 0.  1.
</event>
<event>
 5    1  0.1681104E-003  0.9118800E+02  0.7818608E-02  0.1130116E+00
         25   -1    0    0    0    0  0.00000000000E+00  0.00000000000E+00  0.99999998245E-14  0.12500000000E+03  0.12500000000E+03 0.  0.
        -11    1    3    3    0    0  0.44857566802E+02 -0.14428445450E+02  0.18814289491E+02  0.50738139765E+02  0.51100000000E-03 0. -1.
         23    2    1    0    0    0  0.12816905073E+02 -0.20639576812E+02 -0.13950411577E+02  0.96984304938E+02  0.92849750859E+02 0.  0.
         11    1    3    3    0    0 -0.32040661729E+02 -0.62111313624E+01 -0.32764701068E+02  0.46246165173E+02  0.51100000000E-03 0.  1.
         22    1    1    0    0    0 -0.12816905073E+02  0.20639576812E+02  0.13950411577E+02  0.28015695062E+02  0.00000000000E+00 0. -1.
</event>
<event>
 5    1  0.1681104E-003  0.9118800E+02  0.7818608E-02  0.1130116E+00
         25   -1    0    0    0    0  0.00000000000E+00  0.00000000000E+00  0.99999998245E-14  0.12500000000E+03  0.12500000000E+03 0.  0.
        -11    1    3    3    0    0  0.25171652251E+02  0.33848641564E+02 -0.43684158192E+02  0.60726009996E+02  0.51100000000E-03 0.  1.
         23    2    1    0    0    0  0.70290462878E+01  0.12433556350E+02 -0.29612349427E+02  0.92123077184E+02  0.86056779489E+02 0.  0.
         11    1    3    3    0    0 -0.18142605963E+02 -0.21415085214E+02  0.14071808765E+02  0.31397067188E+02  0.51100000000E-03 0. -1.
         22    1    1    0    0    0 -0.70290462878E+01 -0.12433556350E+02  0.29612349427E+02  0.32876922816E+02  0.00000000000E+00 0.  1.
</event>
<event>
 5    1  0.1681104E-003  0.9118800E+02  0.7818608E-02  0.1130116E+00
         25   -1    0    0    0    0  0.00000000000E+00  0.00000000000E+00  0.99999998245E-14  0.12500000000E+03  0.12500000000E+03 0.  0.
        -11    1    3    3    0    0 -0.11283537643E+01  0.40473907664E+02 -0.36824354105E+01  0.40656742548E+02  0.51100000000E-03 0.  1.
         23    2    1    0    0    0  0.26668052240E+02 -0.47151215438E+01  0.11100746984E+02  0.95731519256E+02  0.91147571630E+02 0.  0.
         11    1    3    3    0    0  0.27796406005E+02 -0.45189029207E+02  0.14783182394E+02  0.55074776708E+02  0.51100000000E-03 0. -1.
         22    1    1    0    0    0 -0.26668052240E+02  0.47151215438E+01 -0.11100746984E+02  0.29268480744E+02  0.00000000000E+00 0. -1.
</event>
<event>
 5    1  0.1681104E-003  0.9118800E+02  0.7818608E-02  0.1130116E+00
         25   -1    0    0    0    0  0.00000000000E+00  0.00000000000E+00  0.99999998245E-14  0.12500000000E+03  0.12500000000E+03 0.  0.
        -11    1    3    3    0    0 -0.26863246585E+02  0.14729854813E+02  0.12867140046E+02  0.33228992358E+02  0.51100000000E-03 0. -1.
         23    2    1    0    0    0  0.21389569962E+02 -0.20387411348E+02  0.12517392038E+02  0.92908796407E+02  0.87190590672E+02 0.  0.
         11    1    3    3    0    0  0.48252816547E+02 -0.35117266161E+02 -0.34974800878E+00  0.59679804049E+02  0.51100000000E-03 0.  1.
         22    1    1    0    0    0 -0.21389569962E+02  0.20387411348E+02 -0.12517392038E+02  0.32091203593E+02  0.00000000000E+00 0.  1.
</event>
<event>
 5    1  0.1681104E-003  0.9118800E+02  0.7818608E-02  0.1130116E+00
         25   -1    0    0    0    0  0.00000000000E+00  0.00000000000E+00  0.99999998245E-14  0.12500000000E+03  0.12500000000E+03 0.  0.
        -11    1    3    3    0    0  0.50528821233E+02 -0.29329552840E+02  0.58294637873E+01  0.58714283555E+02  0.51100000000E-03 0.  1.
         23    2    1    0    0    0  0.12013935964E+02 -0.21670585531E+02  0.10156967943E+02  0.98221035636E+02  0.94500047138E+02 0.  0.
         11    1    3    3    0    0 -0.38514885269E+02  0.76589673086E+01  0.43275041558E+01  0.39506752082E+02  0.51100000000E-03 0. -1.
         22    1    1    0    0    0 -0.12013935964E+02  0.21670585531E+02 -0.10156967943E+02  0.26778964364E+02  0.00000000000E+00 0.  1.
</event>
<event>
 5    1  0.1681104E-003  0.9118800E+02  0.7818608E-02  0.1130116E+00
         25   -1    0    0    0    0  0.00000000000E+00  0.00000000000E+00  0.99999998245E-14  0.12500000000E+03  0.12500000000E+03 0.  0.
        -11    1    3    3    0    0  0.31073314247E+02  0.30671989510E+02 -0.22839954412E+02  0.49274590984E+02  0.51100000000E-03 0. -1.
         23    2    1    0    0    0  0.15805406721E+02  0.11088181804E+02  0.18989355795E+02  0.97919485034E+02  0.94100325496E+02 0.  0.
         11    1    3    3    0    0 -0.15267907527E+02 -0.19583807705E+02  0.41829310207E+02  0.48644894050E+02  0.51100000000E-03 0.  1.
         22    1    1    0    0    0 -0.15805406721E+02 -0.11088181804E+02 -0.18989355795E+02  0.27080514966E+02  0.00000000000E+00 0. -1.
</event>
<event>
 5    1  0.1681104E-003  0.9118800E+02  0.7818608E-02  0.1130116E+00
         25   -1    0    0    0    0  0.00000000000E+00  0.00000000000E+00  0.99999998245E-14  0.12500000000E+03  0.12500000000E+03 0.  0.
        -11    1    3    3    0    0 -0.56458975931E+01 -0.51632428888E+02  0.12272523536E+02  0.53370391667E+02  0.51100000000E-03 0.  1.
         23    2    1    0    0    0  0.41374631391E+01 -0.93808771141E+01  0.24508916139E+02  0.98432982347E+02  0.94779985159E+02 0.  0.
         11    1    3    3    0    0  0.97833607322E+01  0.42251551774E+02  0.12236392603E+02  0.45062590679E+02  0.51100000000E-03 0. -1.
         22    1    1    0    0    0 -0.41374631391E+01  0.93808771141E+01 -0.24508916139E+02  0.26567017653E+02  0.00000000000E+00 0. -1.
</event>
<event>
 5    1  0.1681104E-003  0.9118800E+02  0.7818608E-02  0.1130116E+00
         25   -1    0    0    0    0  0.00000000000E+00  0.00000000000E+00  0.99999998245E-14  0.12500000000E+03  0.12500000000E+03 0.  0.
        -11    1    3    3    0    0  0.38920555584E+01  0.47965236620E+02  0.34141470963E+02  0.59003830895E+02  0.51100000000E-03 0. -1.
         23    2    1    0    0    0  0.15766925246E+02  0.22685974995E+02  0.11041566323E+02  0.95248267613E+02  0.90482412121E+02 0.  0.
         11    1    3    3    0    0  0.11874869687E+02 -0.25279261625E+02 -0.23099904640E+02  0.36244436719E+02  0.51100000000E-03 0.  1.
         22    1    1    0    0    0 -0.15766925246E+02 -0.22685974995E+02 -0.11041566323E+02  0.29751732387E+02  0.00000000000E+00 0. -1.
</event>
<event>
 5    1  0.1681104E-003  0.9118800E+02  0.7818608E-02  0.1130116E+00
         25   -1    0    0    0    0  0.00000000000E+00  0.00000000000E+00  0.99999998245E-14  0.12500000000E+03  0.12500000000E+03 0.  0.
        -11    1    3    3    0    0  0.20933556019E+02 -0.32469190435E+01 -0.62914959891E+00  0.21193208354E+02  0.51100000000E-03 0. -1.
         23    2    1    0    0    0 -0.32389636611E+02  0.62604204056E+01  0.27341680129E+02  0.82153192701E+02  0.70094922607E+02 0.  0.
         11    1    3    3    0    0 -0.53323192630E+02  0.95073394492E+01  0.27970829728E+02  0.60959984347E+02  0.51100000000E-03 0.  1.
         22    1    1    0    0    0  0.32389636611E+02 -0.62604204056E+01 -0.27341680129E+02  0.42846807299E+02  0.00000000000E+00 0.  1.
</event>
<event>
 5    1  0.1681104E-003  0.9118800E+02  0.7818608E-02  0.1130116E+00
         25   -1    0    0    0    0  0.00000000000E+00  0.00000000000E+00  0.99999998245E-14  0.12500000000E+03  0.12500000000E+03 0.  0.
        -11    1    3    3    0    0 -0.36232094236E+02  0.24416779627E+02  0.10430517432E+02  0.44919255050E+02  0.51100000000E-03 0.  1.
         23    2    1    0    0    0 -0.98055794910E+01  0.91244953669E+01  0.37160731770E+02  0.85499040637E+02  0.75827172962E+02 0.  0.
         11    1    3    3    0    0  0.26426514745E+02 -0.15292284260E+02  0.26730214339E+02  0.40579785587E+02  0.51100000000E-03 0. -1.
         22    1    1    0    0    0  0.98055794910E+01 -0.91244953669E+01 -0.37160731770E+02  0.39500959363E+02  0.00000000000E+00 0. -1.
</event>
<event>
 5    1  0.1681104E-003  0.9118800E+02  0.7818608E-02  0.1130116E+00
         25   -1    0    0    0    0  0.00000000000E+00  0.00000000000E+00  0.99999998245E-14  0.12500000000E+03  0.12500000000E+03 0.  0.
        -11    1    3    3    0    0 -0.35851888960E+02 -0.39401069077E+02 -0.26065507652E+02  0.59306094761E+02  0.51100000000E-03 0.  1.
         23    2    1    0    0    0 -0.22466092035E+02 -0.64811893811E+01 -0.17314372166E+02  0.95905007465E+02  0.91385184063E+02 0.  0.
         11    1    3    3    0    0  0.13385796925E+02  0.32919879696E+02  0.87511354868E+01  0.36598912704E+02  0.51100000000E-03 0. -1.
         22    1    1    0    0    0  0.22466092035E+02  0.64811893811E+01  0.17314372166E+02  0.29094992535E+02  0.00000000000E+00 0.  1.
</event>
<event>
 5    1  0.1681104E-003  0.9118800E+02  0.7818608E-02  0.1130116E+00
         25   -1    0    0    0    0  0.00000000000E+00  0.00000000000E+00  0.99999998245E-14  0.12500000000E+03  0.12500000000E+03 0.  0.
        -11    1    3    3    0    0 -0.24505704250E+02  0.37424115150E+02  0.10370737644E+02  0.45919997116E+02  0.51100000000E-03 0. -1.
         23    2    1    0    0    0 -0.26202732208E+02 -0.11589768336E+02 -0.12502933140E+01  0.96321277249E+02  0.91952810247E+02 0.  0.
         11    1    3    3    0    0 -0.16970279578E+01 -0.49013883486E+02 -0.11621030958E+02  0.50401280133E+02  0.51100000000E-03 0.  1.
         22    1    1    0    0    0  0.26202732208E+02  0.11589768336E+02  0.12502933140E+01  0.28678722751E+02  0.00000000000E+00 0. -1.
</event>
<event>
 5    1  0.1681104E-003  0.9118800E+02  0.7818608E-02  0.1130116E+00
         25   -1    0    0    0    0  0.00000000000E+00  0.00000000000E+00  0.99999998245E-14  0.12500000000E+03  0.12500000000E+03 0.  0.
        -11    1    3    3    0    0  0.12105417265E+02  0.12344586270E+02 -0.27968910343E+02  0.32881451966E+02  0.51100000000E-03 0.  1.
         23    2    1    0    0    0 -0.13784354075E+02 -0.12601204690E+02  0.23073886963E+02  0.95314935801E+02  0.90574466326E+02 0.  0.
         11    1    3    3    0    0 -0.25889771340E+02 -0.24945790960E+02  0.51042797307E+02  0.62433483835E+02  0.51100000000E-03 0. -1.
         22    1    1    0    0    0  0.13784354075E+02  0.12601204690E+02 -0.23073886963E+02  0.29685064199E+02  0.00000000000E+00 0. -1.
</event>
<event>
 5    1  0.1681104E-003  0.9118800E+02  0.7818608E-02  0.1130116E+00
         25   -1    0    0    0    0  0.00000000000E+00  0.00000000000E+00  0.99999998245E-14  0.12500000000E+03  0.12500000000E+03 0.  0.
        -11    1    3    3    0    0 -0.10302992445E+02 -0.23752812477E+02  0.23031939102E+02  0.34652820563E+02  0.51100000000E-03 0. -1.
         23    2    1    0    0    0  0.19267991636E+02  0.70472423054E+01 -0.20758362542E+02  0.95813894723E+02  0.91260471623E+02 0.  0.
         11    1    3    3    0    0  0.29570984080E+02  0.30800054783E+02 -0.43790301644E+02  0.61161074160E+02  0.51100000000E-03 0.  1.
         22    1    1    0    0    0 -0.19267991636E+02 -0.70472423054E+01  0.20758362542E+02  0.29186105277E+02  0.00000000000E+00 0.  1.
</event>
<event>
 5    1  0.1681104E-003  0.9118800E+02  0.7818608E-02  0.1130116E+00
         25   -1    0    0    0    0  0.00000000000E+00  0.00000000000E+00  0.99999998245E-14  0.12500000000E+03  0.12500000000E+03 0.  0.
        -11    1    3    3    0    0  0.41408830441E+02 -0.26088286356E+02 -0.20958295063E+02  0.53240398719E+02  0.51100000000E-03 0.  1.
         23    2    1    0    0    0  0.16633863912E+02 -0.12848696385E+01 -0.31076362005E+02  0.89728530027E+02  0.82505348352E+02 0.  0.
         11    1    3    3    0    0 -0.24774966530E+02  0.24803416718E+02 -0.10118066942E+02  0.36488131308E+02  0.51100000000E-03 0. -1.
         22    1    1    0    0    0 -0.16633863912E+02  0.12848696385E+01  0.31076362005E+02  0.35271469973E+02  0.00000000000E+00 0.  1.
</event>
<event>
 5    1  0.1681104E-003  0.9118800E+02  0.7818608E-02  0.1130116E+00
         25   -1    0    0    0    0  0.00000000000E+00  0.00000000000E+00  0.99999998245E-14  0.12500000000E+03  0.12500000000E+03 0.  0.
        -11    1    3    3    0    0  0.38387204605E+01 -0.98932861655E+01  0.45298089314E+02  0.46524507324E+02  0.51100000000E-03 0. -1.
         23    2    1    0    0    0 -0.18487368137E+02  0.18809314540E+02  0.11293866831E+02  0.96309853223E+02  0.91937279195E+02 0.  0.
         11    1    3    3    0    0 -0.22326088598E+02  0.28702600706E+02 -0.34004222484E+02  0.49785345899E+02  0.51100000000E-03 0.  1.
         22    1    1    0    0    0  0.18487368137E+02 -0.18809314540E+02 -0.11293866831E+02  0.28690146777E+02  0.00000000000E+00 0. -1.
</event>
<event>
 5    1  0.1681104E-003  0.9118800E+02  0.7818608E-02  0.1130116E+00
         25   -1    0    0    0    0  0.00000000000E+00  0.00000000000E+00  0.99999998245E-14  0.12500000000E+03  0.12500000000E+03 0.  0.
        -11    1    3    3    0    0  0.28095149769E+02 -0.16392176732E+02 -0.12164586314E+02  0.34727770717E+02  0.51100000000E-03 0. -1.
         23    2    1    0    0    0 -0.14428688543E+02  0.23580042130E+02  0.75743198811E+01  0.96336857088E+02  0.91973986931E+02 0.  0.
         11    1    3    3    0    0 -0.42523838312E+02  0.39972218861E+02  0.19738906195E+02  0.61609086371E+02  0.51100000000E-03 0.  1.
         22    1    1    0    0    0  0.14428688543E+02 -0.23580042130E+02 -0.75743198811E+01  0.28663142912E+02  0.00000000000E+00 0.  1.
</event>
<event>
 5    1  0.1681104E-003  0.9118800E+02  0.7818608E-02  0.1130116E+00
         25   -1    0    0    0    0  0.00000000000E+00  0.00000000000E+00  0.99999998245E-14  0.12500000000E+03  0.12500000000E+03 0.  0.
        -11    1    3    3    0    0 -0.32179509697E+02 -0.84318217306E+01 -0.15929914305E+02  0.36883311024E+02  0.51100000000E-03 0.  1.
         23    2    1    0    0    0 -0.25331549451E+01 -0.21236481487E+02  0.26969934367E+02  0.90579332085E+02  0.83784443791E+02 0.  0.
         11    1    3    3    0    0  0.29646354752E+02 -0.12804659757E+02  0.42899848672E+02  0.53696021062E+02  0.51100000000E-03 0. -1.
         22    1    1    0    0    0  0.25331549451E+01  0.21236481487E+02 -0.26969934367E+02  0.34420667915E+02  0.00000000000E+00 0. -1.
</event>
<event>
 5    1  0.1681104E-003  0.9118800E+02  0.7818608E-02  0.1130116E+00
         25   -1    0    0    0    0  0.00000000000E+00  0.00000000000E+00  0.99999998245E-14  0.12500000000E+03  0.12500000000E+03 0.  0.
        -11    1    3    3    0    0  0.42705758202E+00 -0.77682393883E+01 -0.56337749014E+02  0.56872400033E+02  0.51100000000E-03 0.  1.
         23    2    1    0    0    0 -0.17159021825E+02  0.33273785656E+01 -0.24292405111E+02  0.95073015117E+02  0.90239978831E+02 0.  0.
         11    1    3    3    0    0 -0.17586079407E+02  0.11095617954E+02  0.32045343903E+02  0.38200615084E+02  0.51100000000E-03 0. -1.
         22    1    1    0    0    0  0.17159021825E+02 -0.33273785656E+01  0.24292405111E+02  0.29926984883E+02  0.00000000000E+00 0.  1.
</event>
<event>
 5    1  0.1681104E-003  0.9118800E+02  0.7818608E-02  0.1130116E+00
         25   -1    0    0    0    0  0.00000000000E+00  0.00000000000E+00  0.99999998245E-14  0.12500000000E+03  0.12500000000E+03 0.  0.
        -11    1    3    3    0    0 -0.24685493744E+02 -0.41811415937E+02  0.32749649621E+02  0.58567120935E+02  0.51100000000E-03 0. -1.
         23    2    1    0    0    0 -0.18334105710E+02 -0.18429579249E+02  0.37878973709E+00  0.99001301856E+02  0.95526569414E+02 0.  0.
         11    1    3    3    0    0  0.63513880335E+01  0.23381836688E+02 -0.32370859884E+02  0.40434180921E+02  0.51100000000E-03 0.  1.
         22    1    1    0    0    0  0.18334105710E+02  0.18429579249E+02 -0.37878973709E+00  0.25998698144E+02  0.00000000000E+00 0. -1.
</event>
<event>
 5    1  0.1681104E-003  0.9118800E+02  0.7818608E-02  0.1130116E+00
         25   -1    0    0    0    0  0.00000000000E+00  0.00000000000E+00  0.99999998245E-14  0.12500000000E+03  0.12500000000E+03 0.  0.
        -11    1    3    3    0    0  0.11297747412E+02  0.26845135383E+02 -0.29194922972E+02  0.41238864168E+02  0.51100000000E-03 0. -1.
         23    2    1    0    0    0 -0.56469871478E+01  0.33299325046E+02  0.14270073873E+02  0.88334368672E+02  0.80365366719E+02 0.  0.
         11    1    3    3    0    0 -0.16944734560E+02  0.64541896631E+01  0.43464996844E+02  0.47095504504E+02  0.51100000000E-03 0.  1.
         22    1    1    0    0    0  0.56469871478E+01 -0.33299325046E+02 -0.14270073873E+02  0.36665631328E+02  0.00000000000E+00 0.  1.
</event>
<event>
 5    1  0.1681104E-003  0.9118800E+02  0.7818608E-02  0.1130116E+00
         25   -1    0    0    0    0  0.00000000000E+00  0.00000000000E+00  0.99999998245E-14  0.12500000000E+03  0.12500000000E+03 0.  0.
        -11    1    3    3    0    0 -0.31338342063E+02  0.17784478485E+02 -0.86677144731E+00  0.36043455040E+02  0.51100000000E-03 0. -1.
         23    2    1    0    0    0  0.11641913911E+02 -0.23370795700E+02 -0.11460015007E+02  0.96485789593E+02  0.92176175872E+02 0.  0.
         11    1    3    3    0    0  0.42980255974E+02 -0.41155274185E+02 -0.10593243559E+02  0.60442334553E+02  0.51100000000E-03 0.  1.
         22    1    1    0    0    0 -0.11641913911E+02  0.23370795700E+02  0.11460015007E+02  0.28514210407E+02  0.00000000000E+00 0.  1.
</event>
<event>
 5    1  0.1681104E-003  0.9118800E+02  0.7818608E-02  0.1130116E+00
         25   -1    0    0    0    0  0.00000000000E+00  0.00000000000E+00  0.99999998245E-14  0.12500000000E+03  0.12500000000E+03 0.  0.
        -11    1    3    3    0    0  0.33293464819E+01 -0.58096224195E+02 -0.10675827653E+02  0.59162734133E+02  0.51100000000E-03 0.  1.
         23    2    1    0    0    0  0.35978964837E+01 -0.28964998868E+02  0.91620495028E+01  0.94408184598E+02  0.89314311000E+02 0.  0.
         11    1    3    3    0    0  0.26855000185E+00  0.29131225327E+02  0.19837877156E+02  0.35245450465E+02  0.51100000000E-03 0. -1.
         22    1    1    0    0    0 -0.35978964837E+01  0.28964998868E+02 -0.91620495028E+01  0.30591815402E+02  0.00000000000E+00 0. -1.
</event>
<event>
 5    1  0.1681104E-003  0.9118800E+02  0.7818608E-02  0.1130116E+00
         25   -1    0    0    0    0  0.00000000000E+00  0.00000000000E+00  0.99999998245E-14  0.12500000000E+03  0.12500000000E+03 0.  0.
        -11    1    3    3    0    0  0.90678082675E+01  0.34307047314E+01  0.51285101627E+02  0.52193452950E+02  0.51100000000E-03 0. -1.
         23    2    1    0    0    0  0.26865625900E+02 -0.17195314003E+00  0.11794641108E+02  0.95658817649E+02  0.91047813880E+02 0.  0.
         11    1    3    3    0    0  0.17797817632E+02 -0.36026578715E+01 -0.39490460518E+02  0.43465364699E+02  0.51100000000E-03 0.  1.
         22    1    1    0    0    0 -0.26865625900E+02  0.17195314003E+00 -0.11794641108E+02  0.29341182351E+02  0.00000000000E+00 0.  1.
</event>
<event>
 5    1  0.1681104E-003  0.9118800E+02  0.7818608E-02  0.1130116E+00
         25   -1    0    0    0    0  0.00000000000E+00  0.00000000000E+00  0.99999998245E-14  0.12500000000E+03  0.12500000000E+03 0.  0.
        -11    1    3    3    0    0  0.30396186194E+02  0.65339536691E+01 -0.11877119530E+02  0.33281926841E+02  0.51100000000E-03 0. -1.
         23    2    1    0    0    0 -0.29330631308E+02 -0.44916868831E+01  0.75589268034E+00  0.95317807397E+02  0.90578429271E+02 0.  0.
         11    1    3    3    0    0 -0.59726817502E+02 -0.11025640552E+02  0.12633012210E+02  0.62035880555E+02  0.51100000000E-03 0.  1.
         22    1    1    0    0    0  0.29330631308E+02  0.44916868831E+01 -0.75589268034E+00  0.29682192603E+02  0.00000000000E+00 0.  1.
</event>
<event>
 5    1  0.1681104E-003  0.9118800E+02  0.7818608E-02  0.1130116E+00
         25   -1    0    0    0    0  0.00000000000E+00  0.00000000000E+00  0.99999998245E-14  0.12500000000E+03  0.12500000000E+03 0.  0.
        -11    1    3    3    0    0  0.22430070366E+02 -0.40037860922E+01  0.57281841436E+02  0.61646960332E+02  0.51100000000E-03 0. -1.
         23    2    1    0    0    0  0.56895020909E+01 -0.68874546216E+01  0.29170565448E+02  0.94492142754E+02  0.89431737591E+02 0.  0.
         11    1    3    3    0    0 -0.16740568275E+02 -0.28836685294E+01 -0.28111275988E+02  0.32845182422E+02  0.51100000000E-03 0.  1.
         22    1    1    0    0    0 -0.56895020909E+01  0.68874546216E+01 -0.29170565448E+02  0.30507857246E+02  0.00000000000E+00 0. -1.
</event>
<event>
 5    1  0.1681104E-003  0.9118800E+02  0.7818608E-02  0.1130116E+00
         25   -1    0    0    0    0  0.00000000000E+00  0.00000000000E+00  0.99999998245E-14  0.12500000000E+03  0.12500000000E+03 0.  0.
        -11    1    3    3    0    0 -0.24236631861E+02 -0.54108303378E+02  0.87396511266E+01  0.59929160853E+02  0.51100000000E-03 0.  1.
         23    2    1    0    0    0 -0.25052857611E+01 -0.28186789124E+02 -0.46764590185E+01  0.96318284451E+02  0.91948741768E+02 0.  0.
         11    1    3    3    0    0  0.21731346100E+02  0.25921514254E+02 -0.13416110145E+02  0.36389123598E+02  0.51100000000E-03 0. -1.
         22    1    1    0    0    0  0.25052857611E+01  0.28186789124E+02  0.46764590185E+01  0.28681715549E+02  0.00000000000E+00 0.  1.
</event>
<event>
 5    1  0.1681104E-003  0.9118800E+02  0.7818608E-02  0.1130116E+00
         25   -1    0    0    0    0  0.00000000000E+00  0.00000000000E+00  0.99999998245E-14  0.12500000000E+03  0.12500000000E+03 0.  0.
        -11    1    3    3    0    0  0.35656771099E+02  0.70715790675E+01 -0.10193385047E+02  0.37753379381E+02  0.51100000000E-03 0.  1.
         23    2    1    0    0    0 -0.15900103042E+02 -0.21145992565E+02  0.40671152782E+01  0.98232338447E+02  0.94514996756E+02 0.  0.
         11    1    3    3    0    0 -0.51556874140E+02 -0.28217571633E+02  0.14260500325E+02  0.60478959067E+02  0.51100000000E-03 0. -1.
         22    1    1    0    0    0  0.15900103042E+02  0.21145992565E+02 -0.40671152782E+01  0.26767661553E+02  0.00000000000E+00 0. -1.
</event>
<event>
 5    1  0.1681104E-003  0.9118800E+02  0.7818608E-02  0.1130116E+00
         25   -1    0    0    0    0  0.00000000000E+00  0.00000000000E+00  0.99999998245E-14  0.12500000000E+03  0.12500000000E+03 0.  0.
        -11    1    3    3    0    0 -0.16372080984E+02  0.10199474066E+02 -0.27868259353E+02  0.33892686329E+02  0.51100000000E-03 0. -1.
         23    2    1    0    0    0  0.34348279226E+01  0.15878878561E+02  0.27549443980E+02  0.93017056251E+02  0.87345658523E+02 0.  0.
         11    1    3    3    0    0  0.19806908906E+02  0.56794044949E+01  0.55417703333E+02  0.59124369923E+02  0.51100000000E-03 0.  1.
         22    1    1    0    0    0 -0.34348279226E+01 -0.15878878561E+02 -0.27549443980E+02  0.31982943749E+02  0.00000000000E+00 0.  1.
</event>
<event>
 5    1  0.1681104E-003  0.9118800E+02  0.7818608E-02  0.1130116E+00
         25   -1    0    0    0    0  0.00000000000E+00  0.00000000000E+00  0.99999998245E-14  0.12500000000E+03  0.12500000000E+03 0.  0.
        -11    1    3    3    0    0 -0.12043219880E+02  0.30224678674E+02 -0.12617206772E+02  0.34896479091E+02  0.51100000000E-03 0. -1.
         23    2    1    0    0    0 -0.10736516974E+02 -0.28486928026E+02 -0.29291525380E+01  0.94416380207E+02  0.89325780443E+02 0.  0.
         11    1    3    3    0    0  0.13067029056E+01 -0.58711606699E+02  0.96880542336E+01  0.59519901115E+02  0.51100000000E-03 0.  1.
         22    1    1    0    0    0  0.10736516974E+02  0.28486928026E+02  0.29291525380E+01  0.30583619793E+02  0.00000000000E+00 0.  1.
</event>
<event>
 5    1  0.1681104E-003  0.9118800E+02  0.7818608E-02  0.1130116E+00
         25   -1    0    0    0    0  0.00000000000E+00  0.00000000000E+00  0.99999998245E-14  0.12500000000E+03  0.12500000000E+03 0.  0.
        -11    1    3    3    0    0 -0.55603259088E+01 -0.35682161348E+02 -0.47348695788E+01  0.36421873275E+02  0.51100000000E-03 0. -1.
         23    2    1    0    0    0  0.11852041697E+02  0.16449710369E+02  0.19843951748E+02  0.96630187090E+02  0.92371785586E+02 0.  0.
         11    1    3    3    0    0  0.17412367606E+02  0.52131871717E+02  0.24578821326E+02  0.60208313815E+02  0.51100000000E-03 0.  1.
         22    1    1    0    0    0 -0.11852041697E+02 -0.16449710369E+02 -0.19843951748E+02  0.28369812910E+02  0.00000000000E+00 0.  1.
</event>
<event>
 5    1  0.1681104E-003  0.9118800E+02  0.7818608E-02  0.1130116E+00
         25   -1    0    0    0    0  0.00000000000E+00  0.00000000000E+00  0.99999998245E-14  0.12500000000E+03  0.12500000000E+03 0.  0.
        -11    1    3    3    0    0  0.34587261774E+02  0.38634981053E+01  0.10622411391E+01  0.34818581981E+02  0.51100000000E-03 0.  1.
         23    2    1    0    0    0 -0.25100002382E+02 -0.12761323012E+02 -0.11678326244E+01  0.96817996565E+02  0.92625585781E+02 0.  0.
         11    1    3    3    0    0 -0.59687264156E+02 -0.16624821117E+02 -0.22300737634E+01  0.61999414584E+02  0.51100000000E-03 0. -1.
         22    1    1    0    0    0  0.25100002382E+02  0.12761323012E+02  0.11678326244E+01  0.28182003435E+02  0.00000000000E+00 0. -1.
</event>
<event>
 5    1  0.1681104E-003  0.9118800E+02  0.7818608E-02  0.1130116E+00
         25   -1    0    0    0    0  0.00000000000E+00  0.00000000000E+00  0.99999998245E-14  0.12500000000E+03  0.12500000000E+03 0.  0.
        -11    1    3    3    0    0  0.17995324137E+02  0.27594655200E+02  0.25246289824E+02  0.41505082057E+02  0.51100000000E-03 0. -1.
         23    2    1    0    0    0 -0.10048485706E+02 -0.19108389267E+02  0.18820814065E+02  0.96358672387E+02  0.92003630888E+02 0.  0.
         11    1    3    3    0    0 -0.28043809843E+02 -0.46703044468E+02 -0.64254757589E+01  0.54853590330E+02  0.51100000000E-03 0.  1.
         22    1    1    0    0    0  0.10048485706E+02  0.19108389267E+02 -0.18820814065E+02  0.28641327613E+02  0.00000000000E+00 0.  1.
</event>
<event>
 5    1  0.1681104E-003  0.9118800E+02  0.7818608E-02  0.1130116E+00
         25   -1    0    0    0    0  0.00000000000E+00  0.00000000000E+00  0.99999998245E-14  0.12500000000E+03  0.12500000000E+03 0.  0.
        -11    1    3    3    0    0 -0.16633691048E+02  0.37669754472E+02  0.29701023320E+02  0.50772441998E+02  0.51100000000E-03 0. -1.
         23    2    1    0    0    0 -0.24264743528E+02  0.23364553452E+01 -0.41223261944E+01  0.10027692626E+03  0.97181436315E+02 0.  0.
         11    1    3    3    0    0 -0.76310524796E+01 -0.35333299127E+02 -0.33823349515E+02  0.49504484259E+02  0.51100000000E-03 0.  1.
         22    1    1    0    0    0  0.24264743528E+02 -0.23364553452E+01  0.41223261944E+01  0.24723073743E+02  0.00000000000E+00 0. -1.
</event>
<event>
 5    1  0.1681104E-003  0.9118800E+02  0.7818608E-02  0.1130116E+00
         25   -1    0    0    0    0  0.00000000000E+00  0.00000000000E+00  0.99999998245E-14  0.12500000000E+03  0.12500000000E+03 0.  0.
        -11    1    3    3    0    0 -0.47313115921E+02 -0.89260964454E+01 -0.27922415260E+01  0.48228650706E+02  0.51100000000E-03 0.  1.
         23    2    1    0    0    0 -0.57371686984E+01 -0.75153151057E+01  0.25009124653E+02  0.98263295235E+02  0.94555929527E+02 0.  0.
         11    1    3    3    0    0  0.41575947223E+02  0.14107813396E+01  0.27801366179E+02  0.50034644529E+02  0.51100000000E-03 0. -1.
         22    1    1    0    0    0  0.57371686984E+01  0.75153151057E+01 -0.25009124653E+02  0.26736704765E+02  0.00000000000E+00 0.  1.
</event>
<event>
 5    1  0.1681104E-003  0.9118800E+02  0.7818608E-02  0.1130116E+00
         25   -1    0    0    0    0  0.00000000000E+00  0.00000000000E+00  0.99999998245E-14  0.12500000000E+03  0.12500000000E+03 0.  0.
        -11    1    3    3    0    0 -0.46868495865E+02  0.55802380897E+01  0.15981144385E+02  0.49831635914E+02  0.51100000000E-03 0. -1.
         23    2    1    0    0    0 -0.17545002503E+02 -0.22451684619E+02 -0.58679907748E+01  0.95908101286E+02  0.91389415806E+02 0.  0.
         11    1    3    3    0    0  0.29323493362E+02 -0.28031922709E+02 -0.21849135160E+02  0.46076465372E+02  0.51100000000E-03 0.  1.
         22    1    1    0    0    0  0.17545002503E+02  0.22451684619E+02  0.58679907748E+01  0.29091898714E+02  0.00000000000E+00 0. -1.
</event>
<event>
 5    1  0.1681104E-003  0.9118800E+02  0.7818608E-02  0.1130116E+00
         25   -1    0    0    0    0  0.00000000000E+00  0.00000000000E+00  0.99999998245E-14  0.12500000000E+03  0.12500000000E+03 0.  0.
        -11    1    3    3    0    0  0.11298517250E+02 -0.30683540165E+02 -0.16652530040E+01  0.32740024389E+02  0.51100000000E-03 0. -1.
         23    2    1    0    0    0 -0.10046725639E+02  0.27857456951E+02  0.30520186986E+01  0.95229386603E+02  0.90456324549E+02 0.  0.
         11    1    3    3    0    0 -0.21345242890E+02  0.58540997117E+02  0.47172717026E+01  0.62489362215E+02  0.51100000000E-03 0.  1.
         22    1    1    0    0    0  0.10046725639E+02 -0.27857456951E+02 -0.30520186986E+01  0.29770613397E+02  0.00000000000E+00 0.  1.
</event>
<event>
 5    1  0.1681104E-003  0.9118800E+02  0.7818608E-02  0.1130116E+00
         25   -1    0    0    0    0  0.00000000000E+00  0.00000000000E+00  0.99999998245E-14  0.12500000000E+03  0.12500000000E+03 0.  0.
        -11    1    3    3    0    0  0.18973654383E+02  0.44977036321E+02 -0.18178989690E+02  0.52090392812E+02  0.51100000000E-03 0. -1.
         23    2    1    0    0    0 -0.13494422047E+02  0.24612695150E+02 -0.20118448641E+02  0.90465435218E+02  0.83614345687E+02 0.  0.
         11    1    3    3    0    0 -0.32468076430E+02 -0.20364341172E+02 -0.19394589517E+01  0.38375042407E+02  0.51100000000E-03 0.  1.
         22    1    1    0    0    0  0.13494422047E+02 -0.24612695150E+02  0.20118448641E+02  0.34534564782E+02  0.00000000000E+00 0. -1.
</event>
<event>
 5    1  0.1681104E-003  0.9118800E+02  0.7818608E-02  0.1130116E+00
         25   -1    0    0    0    0  0.00000000000E+00  0.00000000000E+00  0.99999998245E-14  0.12500000000E+03  0.12500000000E+03 0.  0.
        -11    1    3    3    0    0 -0.33550090292E+02 -0.31122505880E+02  0.42604614599E+01  0.45960531578E+02  0.51100000000E-03 0. -1.
         23    2    1    0    0    0  0.15359132878E+02 -0.24166369454E+02 -0.41303180767E+01  0.96069464181E+02  0.91609857795E+02 0.  0.
         11    1    3    3    0    0  0.48909223170E+02  0.69561364257E+01 -0.83907795366E+01  0.50108932603E+02  0.51100000000E-03 0.  1.
         22    1    1    0    0    0 -0.15359132878E+02  0.24166369454E+02  0.41303180767E+01  0.28930535819E+02  0.00000000000E+00 0.  1.
</event>
<event>
 5    1  0.1681104E-003  0.9118800E+02  0.7818608E-02  0.1130116E+00
         25   -1    0    0    0    0  0.00000000000E+00  0.00000000000E+00  0.99999998245E-14  0.12500000000E+03  0.12500000000E+03 0.  0.
        -11    1    3    3    0    0  0.41015881320E+02  0.41642526835E+02  0.11271239095E+02  0.59526829183E+02  0.51100000000E-03 0.  1.
         23    2    1    0    0    0  0.74165742749E+01  0.24214446660E+02  0.11028622218E+02  0.97377988686E+02  0.93378247850E+02 0.  0.
         11    1    3    3    0    0 -0.33599307045E+02 -0.17428080175E+02 -0.24261687688E+00  0.37851159503E+02  0.51100000000E-03 0. -1.
         22    1    1    0    0    0 -0.74165742749E+01 -0.24214446660E+02 -0.11028622218E+02  0.27622011314E+02  0.00000000000E+00 0. -1.
</event>
<event>
 5    1  0.1681104E-003  0.9118800E+02  0.7818608E-02  0.1130116E+00
         25   -1    0    0    0    0  0.00000000000E+00  0.00000000000E+00  0.99999998245E-14  0.12500000000E+03  0.12500000000E+03 0.  0.
        -11    1    3    3    0    0 -0.35688686824E+02  0.11808444038E+02  0.19070863104E+02  0.42152337274E+02  0.51100000000E-03 0.  1.
         23    2    1    0    0    0  0.29205674308E+01  0.33380012275E+02 -0.25781109964E+01  0.91393429364E+02  0.84990336750E+02 0.  0.
         11    1    3    3    0    0  0.38609254255E+02  0.21571568237E+02 -0.21648974101E+02  0.49241092090E+02  0.51100000000E-03 0. -1.
         22    1    1    0    0    0 -0.29205674308E+01 -0.33380012275E+02  0.25781109964E+01  0.33606570636E+02  0.00000000000E+00 0.  1.
</event>
<event>
 5    1  0.1681104E-003  0.9118800E+02  0.7818608E-02  0.1130116E+00
         25   -1    0    0    0    0  0.00000000000E+00  0.00000000000E+00  0.99999998245E-14  0.12500000000E+03  0.12500000000E+03 0.  0.
        -11    1    3    3    0    0  0.38590670082E+02  0.24881495939E+01 -0.24426730146E+02  0.45739434317E+02  0.51100000000E-03 0.  1.
         23    2    1    0    0    0  0.13158562723E+02  0.11141939704E+02  0.20578637644E+02  0.98152822857E+02  0.94409775522E+02 0.  0.
         11    1    3    3    0    0 -0.25432107359E+02  0.86537901105E+01  0.45005367790E+02  0.52413388539E+02  0.51100000000E-03 0. -1.
         22    1    1    0    0    0 -0.13158562723E+02 -0.11141939704E+02 -0.20578637644E+02  0.26847177143E+02  0.00000000000E+00 0. -1.
</event>
<event>
 5    1  0.1681104E-003  0.9118800E+02  0.7818608E-02  0.1130116E+00
         25   -1    0    0    0    0  0.00000000000E+00  0.00000000000E+00  0.99999998245E-14  0.12500000000E+03  0.12500000000E+03 0.  0.
        -11    1    3    3    0    0 -0.17520373172E+02  0.11390881300E+02 -0.52135215739E+02  0.56167574038E+02  0.51100000000E-03 0.  1.
         23    2    1    0    0    0 -0.22574682834E+02  0.11964296188E+02 -0.11738613466E+02  0.96883177021E+02  0.92713506325E+02 0.  0.
         11    1    3    3    0    0 -0.50543096625E+01  0.57341488865E+00  0.40396602273E+02  0.40715602983E+02  0.51100000000E-03 0. -1.
         22    1    1    0    0    0  0.22574682834E+02 -0.11964296188E+02  0.11738613466E+02  0.28116822979E+02  0.00000000000E+00 0.  1.
</event>
<event>
 5    1  0.1681104E-003  0.9118800E+02  0.7818608E-02  0.1130116E+00
         25   -1    0    0    0    0  0.00000000000E+00  0.00000000000E+00  0.99999998245E-14  0.12500000000E+03  0.12500000000E+03 0.  0.
        -11    1    3    3    0    0 -0.57720001020E+02 -0.81498773284E+01  0.15514989014E+02  0.60321918923E+02  0.51100000000E-03 0. -1.
         23    2    1    0    0    0 -0.28608879589E+02 -0.12572110021E+01 -0.40658734236E+01  0.96076309061E+02  0.91619197035E+02 0.  0.
         11    1    3    3    0    0  0.29111121431E+02  0.68926663263E+01 -0.19580862437E+02  0.35754390138E+02  0.51100000000E-03 0.  1.
         22    1    1    0    0    0  0.28608879589E+02  0.12572110021E+01  0.40658734236E+01  0.28923690939E+02  0.00000000000E+00 0. -1.
</event>
<event>
 5    1  0.1681104E-003  0.9118800E+02  0.7818608E-02  0.1130116E+00
         25   -1    0    0    0    0  0.00000000000E+00  0.00000000000E+00  0.99999998245E-14  0.12500000000E+03  0.12500000000E+03 0.  0.
        -11    1    3    3    0    0  0.38478018515E+02 -0.44350502907E+00 -0.76421736223E+01  0.39232096853E+02  0.51100000000E-03 0.  1.
         23    2    1    0    0    0 -0.14183964806E+02  0.20491844000E+02  0.93287013835E+01  0.98389378104E+02  0.94722460515E+02 0.  0.
         11    1    3    3    0    0 -0.52661983321E+02  0.20935349030E+02  0.16970875006E+02  0.59157281251E+02  0.51100000000E-03 0. -1.
         22    1    1    0    0    0  0.14183964806E+02 -0.20491844000E+02 -0.93287013835E+01  0.26610621896E+02  0.00000000000E+00 0. -1.
</event>
<event>
 5    1  0.1681104E-003  0.9118800E+02  0.7818608E-02  0.1130116E+00
         25   -1    0    0    0    0  0.00000000000E+00  0.00000000000E+00  0.99999998245E-14  0.12500000000E+03  0.12500000000E+03 0.  0.
        -11    1    3    3    0    0 -0.26235607299E+02 -0.93829177094E+01  0.24237173168E+02  0.36929484136E+02  0.51100000000E-03 0. -1.
         23    2    1    0    0    0  0.29170416062E+00  0.33462331904E+02  0.37519123187E+01  0.91326722853E+02  0.84892171095E+02 0.  0.
         11    1    3    3    0    0  0.26527311460E+02  0.42845249614E+02 -0.20485260849E+02  0.54397238717E+02  0.51100000000E-03 0.  1.
         22    1    1    0    0    0 -0.29170416062E+00 -0.33462331904E+02 -0.37519123187E+01  0.33673277147E+02  0.00000000000E+00 0.  1.
</event>
<event>
 5    1  0.1681104E-003  0.9118800E+02  0.7818608E-02  0.1130116E+00
         25   -1    0    0    0    0  0.00000000000E+00  0.00000000000E+00  0.99999998245E-14  0.12500000000E+03  0.12500000000E+03 0.  0.
        -11    1    3    3    0    0  0.26278097712E+02  0.33374806942E+02  0.43298631246E+02  0.60656307387E+02  0.51100000000E-03 0.  1.
         23    2    1    0    0    0  0.97726953617E+01  0.27447890578E+02  0.20709233361E+02  0.89254166422E+02  0.81783504483E+02 0.  0.
         11    1    3    3    0    0 -0.16505402350E+02 -0.59269163638E+01 -0.22589397885E+02  0.28597859035E+02  0.51100000000E-03 0. -1.
         22    1    1    0    0    0 -0.97726953617E+01 -0.27447890578E+02 -0.20709233361E+02  0.35745833578E+02  0.00000000000E+00 0.  1.
</event>
<event>
 5    1  0.1681104E-003  0.9118800E+02  0.7818608E-02  0.1130116E+00
         25   -1    0    0    0    0  0.00000000000E+00  0.00000000000E+00  0.99999998245E-14  0.12500000000E+03  0.12500000000E+03 0.  0.
        -11    1    3    3    0    0 -0.94374633919E+00  0.39836388609E+02  0.46716199805E+02  0.61402213633E+02  0.51100000000E-03 0. -1.
         23    2    1    0    0    0  0.30720062675E+01  0.25540606703E+02  0.18411581255E+02  0.93365428127E+02  0.87842797268E+02 0.  0.
         11    1    3    3    0    0  0.40157526067E+01 -0.14295781906E+02 -0.28304618550E+02  0.31963214495E+02  0.51100000000E-03 0.  1.
         22    1    1    0    0    0 -0.30720062675E+01 -0.25540606703E+02 -0.18411581255E+02  0.31634571873E+02  0.00000000000E+00 0. -1.
</event>
<event>
 5    1  0.1681104E-003  0.9118800E+02  0.7818608E-02  0.1130116E+00
         25   -1    0    0    0    0  0.00000000000E+00  0.00000000000E+00  0.99999998245E-14  0.12500000000E+03  0.12500000000E+03 0.  0.
        -11    1    3    3    0    0  0.14860857762E+02  0.15579854287E+02 -0.47225020930E+02  0.51901633454E+02  0.51100000000E-03 0.  1.
         23    2    1    0    0    0  0.23871061117E+02 -0.11948028732E+02 -0.20100272816E+02  0.91584376158E+02  0.85270710327E+02 0.  0.
         11    1    3    3    0    0  0.90102033555E+01 -0.27527883019E+02  0.27124748114E+02  0.39682742705E+02  0.51100000000E-03 0. -1.
         22    1    1    0    0    0 -0.23871061117E+02  0.11948028732E+02  0.20100272816E+02  0.33415623842E+02  0.00000000000E+00 0.  1.
</event>
<event>
 5    1  0.1681104E-003  0.9118800E+02  0.7818608E-02  0.1130116E+00
         25   -1    0    0    0    0  0.00000000000E+00  0.00000000000E+00  0.99999998245E-14  0.12500000000E+03  0.12500000000E+03 0.  0.
        -11    1    3    3    0    0 -0.10323163936E+02 -0.48274932360E+02  0.16099932394E+02  0.51925375602E+02  0.51100000000E-03 0.  1.
         23    2    1    0    0    0  0.77906795510E+01 -0.96200227034E+01  0.26402489202E+02  0.95839565148E+02  0.91295625783E+02 0.  0.
         11    1    3    3    0    0  0.18113843487E+02  0.38654909657E+02  0.10302556807E+02  0.43914189546E+02  0.51100000000E-03 0. -1.
         22    1    1    0    0    0 -0.77906795510E+01  0.96200227034E+01 -0.26402489202E+02  0.29160434852E+02  0.00000000000E+00 0.  1.
</event>
<event>
 5    1  0.1681104E-003  0.9118800E+02  0.7818608E-02  0.1130116E+00
         25   -1    0    0    0    0  0.00000000000E+00  0.00000000000E+00  0.99999998245E-14  0.12500000000E+03  0.12500000000E+03 0.  0.
        -11    1    3    3    0    0  0.37700613841E+02 -0.48953273266E+01 -0.16614817860E+02  0.41489187584E+02  0.51100000000E-03 0.  1.
         23    2    1    0    0    0 -0.13301975007E+02 -0.23755065425E+02 -0.85588187107E+01  0.96460570255E+02  0.92141969611E+02 0.  0.
         11    1    3    3    0    0 -0.51002588848E+02 -0.18859738098E+02  0.80559991488E+01  0.54971382672E+02  0.51100000000E-03 0. -1.
         22    1    1    0    0    0  0.13301975007E+02  0.23755065425E+02  0.85588187107E+01  0.28539429745E+02  0.00000000000E+00 0. -1.
</event>
<event>
 5    1  0.1681104E-003  0.9118800E+02  0.7818608E-02  0.1130116E+00
         25   -1    0    0    0    0  0.00000000000E+00  0.00000000000E+00  0.99999998245E-14  0.12500000000E+03  0.12500000000E+03 0.  0.
        -11    1    3    3    0    0 -0.40317438225E+02 -0.15443296648E+02  0.14790374194E+02  0.45637116533E+02  0.51100000000E-03 0. -1.
         23    2    1    0    0    0 -0.18798413917E+02  0.22746291438E+02 -0.71218926954E+01  0.94643855720E+02  0.89643538139E+02 0.  0.
         11    1    3    3    0    0  0.21519024308E+02  0.38189588086E+02 -0.21912266889E+02  0.49006739188E+02  0.51100000000E-03 0.  1.
         22    1    1    0    0    0  0.18798413917E+02 -0.22746291438E+02  0.71218926954E+01  0.30356144280E+02  0.00000000000E+00 0.  1.
</event>
<event>
 5    1  0.1681104E-003  0.9118800E+02  0.7818608E-02  0.1130116E+00
         25   -1    0    0    0    0  0.00000000000E+00  0.00000000000E+00  0.99999998245E-14  0.12500000000E+03  0.12500000000E+03 0.  0.
        -11    1    3    3    0    0 -0.22039299428E+02  0.42502357975E+02  0.23252845468E+02  0.53224768438E+02  0.51100000000E-03 0.  1.
         23    2    1    0    0    0 -0.20613049731E+02  0.32027364048E+00  0.21122327940E+02  0.95484696647E+02  0.90808447635E+02 0.  0.
         11    1    3    3    0    0  0.14262496969E+01 -0.42182084335E+02 -0.21305175283E+01  0.42259928209E+02  0.51100000000E-03 0. -1.
         22    1    1    0    0    0  0.20613049731E+02 -0.32027364048E+00 -0.21122327940E+02  0.29515303353E+02  0.00000000000E+00 0. -1.
</event>
<event>
 5    1  0.1681104E-003  0.9118800E+02  0.7818608E-02  0.1130116E+00
         25   -1    0    0    0    0  0.00000000000E+00  0.00000000000E+00  0.99999998245E-14  0.12500000000E+03  0.12500000000E+03 0.  0.
        -11    1    3    3    0    0 -0.98597865151E+01  0.34226432947E+02  0.50270135556E+01  0.35971307566E+02  0.51100000000E-03 0. -1.
         23    2    1    0    0    0  0.20827318579E+02 -0.13520986917E+02 -0.14799526447E+02  0.96092902784E+02  0.91641833765E+02 0.  0.
         11    1    3    3    0    0  0.30687105094E+02 -0.47747419865E+02 -0.19826540003E+02  0.60121595218E+02  0.51100000000E-03 0.  1.
         22    1    1    0    0    0 -0.20827318579E+02  0.13520986917E+02  0.14799526447E+02  0.28907097216E+02  0.00000000000E+00 0.  1.
</event>
<event>
 5    1  0.1681104E-003  0.9118800E+02  0.7818608E-02  0.1130116E+00
         25   -1    0    0    0    0  0.00000000000E+00  0.00000000000E+00  0.99999998245E-14  0.12500000000E+03  0.12500000000E+03 0.  0.
        -11    1    3    3    0    0 -0.27875348794E+02 -0.21886113969E+02  0.30474482728E+02  0.46741107741E+02  0.51100000000E-03 0.  1.
         23    2    1    0    0    0  0.11098961865E+02  0.92866667978E+01  0.23873065115E+02  0.97083116709E+02  0.92982682136E+02 0.  0.
         11    1    3    3    0    0  0.38974310660E+02  0.31172780767E+02 -0.66014176127E+01  0.50342008968E+02  0.51100000000E-03 0. -1.
         22    1    1    0    0    0 -0.11098961865E+02 -0.92866667978E+01 -0.23873065115E+02  0.27916883291E+02  0.00000000000E+00 0.  1.
</event>
<event>
 5    1  0.1681104E-003  0.9118800E+02  0.7818608E-02  0.1130116E+00
         25   -1    0    0    0    0  0.00000000000E+00  0.00000000000E+00  0.99999998245E-14  0.12500000000E+03  0.12500000000E+03 0.  0.
        -11    1    3    3    0    0 -0.25123372659E+01  0.37889830595E+02  0.39109104277E+02  0.54511220301E+02  0.51100000000E-03 0.  1.
         23    2    1    0    0    0  0.16742764011E+02  0.53291873019E+01  0.24024674721E+02  0.95235837330E+02  0.90465238254E+02 0.  0.
         11    1    3    3    0    0  0.19255101277E+02 -0.32560643293E+02 -0.15084429557E+02  0.40724617029E+02  0.51100000000E-03 0. -1.
         22    1    1    0    0    0 -0.16742764011E+02 -0.53291873019E+01 -0.24024674721E+02  0.29764162670E+02  0.00000000000E+00 0.  1.
</event>
<event>
 5    1  0.1681104E-003  0.9118800E+02  0.7818608E-02  0.1130116E+00
         25   -1    0    0    0    0  0.00000000000E+00  0.00000000000E+00  0.99999998245E-14  0.12500000000E+03  0.12500000000E+03 0.  0.
        -11    1    3    3    0    0  0.32957571755E+02 -0.24604118294E+02 -0.35859014892E+01  0.41284656505E+02  0.51100000000E-03 0. -1.
         23    2    1    0    0    0  0.13504602624E+02  0.24732976737E+02 -0.10830227607E+02  0.94810792321E+02  0.89876015044E+02 0.  0.
         11    1    3    3    0    0 -0.19452969131E+02  0.49337095031E+02 -0.72443261174E+01  0.53526135815E+02  0.51100000000E-03 0.  1.
         22    1    1    0    0    0 -0.13504602624E+02 -0.24732976737E+02  0.10830227607E+02  0.30189207679E+02  0.00000000000E+00 0.  1.
</event>
<event>
 5    1  0.1681104E-003  0.9118800E+02  0.7818608E-02  0.1130116E+00
         25   -1    0    0    0    0  0.00000000000E+00  0.00000000000E+00  0.99999998245E-14  0.12500000000E+03  0.12500000000E+03 0.  0.
        -11    1    3    3    0    0 -0.31910124564E+02 -0.95742811304E+01 -0.16462809364E+02  0.37161095265E+02  0.51100000000E-03 0.  1.
         23    2    1    0    0    0  0.44643047393E+01  0.60772949981E+00  0.28649183798E+02  0.95998705473E+02  0.91513257882E+02 0.  0.
         11    1    3    3    0    0  0.36374429303E+02  0.10182010630E+02  0.45111993162E+02  0.58837610208E+02  0.51100000000E-03 0. -1.
         22    1    1    0    0    0 -0.44643047393E+01 -0.60772949981E+00 -0.28649183798E+02  0.29001294527E+02  0.00000000000E+00 0. -1.
</event>
<event>
 5    1  0.1681104E-003  0.9118800E+02  0.7818608E-02  0.1130116E+00
         25   -1    0    0    0    0  0.00000000000E+00  0.00000000000E+00  0.99999998245E-14  0.12500000000E+03  0.12500000000E+03 0.  0.
        -11    1    3    3    0    0 -0.25239646415E+02 -0.21151358409E+02 -0.62173700634E+01  0.33512317206E+02  0.51100000000E-03 0. -1.
         23    2    1    0    0    0  0.29959435637E+02 -0.19522101636E+02 -0.60345867511E+01  0.88735741104E+02  0.80987253788E+02 0.  0.
         11    1    3    3    0    0  0.55199082053E+02  0.16292567736E+01  0.18278331229E+00  0.55223423899E+02  0.51100000000E-03 0.  1.
         22    1    1    0    0    0 -0.29959435637E+02  0.19522101636E+02  0.60345867511E+01  0.36264258896E+02  0.00000000000E+00 0.  1.
</event>
<event>
 5    1  0.1681104E-003  0.9118800E+02  0.7818608E-02  0.1130116E+00
         25   -1    0    0    0    0  0.00000000000E+00  0.00000000000E+00  0.99999998245E-14  0.12500000000E+03  0.12500000000E+03 0.  0.
        -11    1    3    3    0    0  0.79221227937E+01 -0.13813128030E+02 -0.40509594141E+02  0.43526885408E+02  0.51100000000E-03 0.  1.
         23    2    1    0    0    0 -0.24006602257E+02 -0.14663389726E+02  0.21143016672E+01  0.96790033291E+02  0.92587841117E+02 0.  0.
         11    1    3    3    0    0 -0.31928725051E+02 -0.85026169645E+00  0.42623895809E+02  0.53263147884E+02  0.51100000000E-03 0. -1.
         22    1    1    0    0    0  0.24006602257E+02  0.14663389726E+02 -0.21143016672E+01  0.28209966709E+02  0.00000000000E+00 0. -1.
</event>
<event>
 5    1  0.1681104E-003  0.9118800E+02  0.7818608E-02  0.1130116E+00
         25   -1    0    0    0    0  0.00000000000E+00  0.00000000000E+00  0.99999998245E-14  0.12500000000E+03  0.12500000000E+03 0.  0.
        -11    1    3    3    0    0 -0.26374091041E+01 -0.20056142082E+02 -0.33996391054E+02  0.39559567325E+02  0.51100000000E-03 0.  1.
         23    2    1    0    0    0 -0.27274535896E+02  0.13698002207E+02  0.15753061939E+01  0.94438305636E+02  0.89356457007E+02 0.  0.
         11    1    3    3    0    0 -0.24637126792E+02  0.33754144289E+02  0.35571697248E+02  0.54878738311E+02  0.51100000000E-03 0. -1.
         22    1    1    0    0    0  0.27274535896E+02 -0.13698002207E+02 -0.15753061939E+01  0.30561694364E+02  0.00000000000E+00 0. -1.
</event>
<event>
 5    1  0.1681104E-003  0.9118800E+02  0.7818608E-02  0.1130116E+00
         25   -1    0    0    0    0  0.00000000000E+00  0.00000000000E+00  0.99999998245E-14  0.12500000000E+03  0.12500000000E+03 0.  0.
        -11    1    3    3    0    0  0.81757083158E+00 -0.55223785089E+02 -0.10692837991E+02  0.56255414372E+02  0.51100000000E-03 0.  1.
         23    2    1    0    0    0  0.59495818350E+01 -0.25703058497E+02  0.14045515078E+02  0.95111520047E+02  0.90293299927E+02 0.  0.
         11    1    3    3    0    0  0.51320110034E+01  0.29520726592E+02  0.24738353068E+02  0.38856105675E+02  0.51100000000E-03 0. -1.
         22    1    1    0    0    0 -0.59495818350E+01  0.25703058497E+02 -0.14045515078E+02  0.29888479953E+02  0.00000000000E+00 0.  1.
</event>
<event>
 5    1  0.1681104E-003  0.9118800E+02  0.7818608E-02  0.1130116E+00
         25   -1    0    0    0    0  0.00000000000E+00  0.00000000000E+00  0.99999998245E-14  0.12500000000E+03  0.12500000000E+03 0.  0.
        -11    1    3    3    0    0 -0.17149938729E+02  0.39578815722E+02 -0.37329277381E+02  0.57044526489E+02  0.51100000000E-03 0. -1.
         23    2    1    0    0    0  0.67156390710E+01  0.26866861198E+02 -0.98228700578E+01  0.95616044940E+02  0.90989072064E+02 0.  0.
         11    1    3    3    0    0  0.23865577800E+02 -0.12711954524E+02  0.27506407323E+02  0.38571518451E+02  0.51100000000E-03 0.  1.
         22    1    1    0    0    0 -0.67156390710E+01 -0.26866861198E+02  0.98228700578E+01  0.29383955060E+02  0.00000000000E+00 0. -1.
</event>
<event>
 5    1  0.1681104E-003  0.9118800E+02  0.7818608E-02  0.1130116E+00
         25   -1    0    0    0    0  0.00000000000E+00  0.00000000000E+00  0.99999998245E-14  0.12500000000E+03  0.12500000000E+03 0.  0.
        -11    1    3    3    0    0  0.27995112278E+02 -0.24230250613E+02  0.15067733852E+02  0.39973340615E+02  0.51100000000E-03 0.  1.
         23    2    1    0    0    0 -0.19850592621E+02 -0.16785611100E+02 -0.12992658957E+02  0.95937791650E+02  0.91430016474E+02 0.  0.
         11    1    3    3    0    0 -0.47845704899E+02  0.74446395131E+01 -0.28060392808E+02  0.55964451035E+02  0.51100000000E-03 0. -1.
         22    1    1    0    0    0  0.19850592621E+02  0.16785611100E+02  0.12992658957E+02  0.29062208350E+02  0.00000000000E+00 0. -1.
</event>
<event>
 5    1  0.1681104E-003  0.9118800E+02  0.7818608E-02  0.1130116E+00
         25   -1    0    0    0    0  0.00000000000E+00  0.00000000000E+00  0.99999998245E-14  0.12500000000E+03  0.12500000000E+03 0.  0.
        -11    1    3    3    0    0  0.44692620119E+02 -0.16928797392E+02  0.38542237442E+02  0.61396404956E+02  0.51100000000E-03 0.  1.
         23    2    1    0    0    0  0.23146431852E+02 -0.14112062533E+02  0.12988441162E+02  0.94939939783E+02  0.90055454837E+02 0.  0.
         11    1    3    3    0    0 -0.21546188267E+02  0.28167348590E+01 -0.25553796280E+02  0.33543534827E+02  0.51100000000E-03 0. -1.
         22    1    1    0    0    0 -0.23146431852E+02  0.14112062533E+02 -0.12988441162E+02  0.30060060217E+02  0.00000000000E+00 0.  1.
</event>
<event>
 5    1  0.1681104E-003  0.9118800E+02  0.7818608E-02  0.1130116E+00
         25   -1    0    0    0    0  0.00000000000E+00  0.00000000000E+00  0.99999998245E-14  0.12500000000E+03  0.12500000000E+03 0.  0.
        -11    1    3    3    0    0 -0.15291019373E+01  0.26462708142E+01  0.59700359211E+02  0.59778539562E+02  0.51100000000E-03 0. -1.
         23    2    1    0    0    0  0.10939769038E+02 -0.45603326572E+01  0.26134008131E+02  0.96303980040E+02  0.91929293536E+02 0.  0.
         11    1    3    3    0    0  0.12468870975E+02 -0.72066034714E+01 -0.33566351080E+02  0.36525440478E+02  0.51100000000E-03 0.  1.
         22    1    1    0    0    0 -0.10939769038E+02  0.45603326572E+01 -0.26134008131E+02  0.28696019960E+02  0.00000000000E+00 0. -1.
</event>
<event>
 5    1  0.1681104E-003  0.9118800E+02  0.7818608E-02  0.1130116E+00
         25   -1    0    0    0    0  0.00000000000E+00  0.00000000000E+00  0.99999998245E-14  0.12500000000E+03  0.12500000000E+03 0.  0.
        -11    1    3    3    0    0  0.24572776628E+02  0.27892977284E+02  0.43889467863E+01  0.37431302237E+02  0.51100000000E-03 0.  1.
         23    2    1    0    0    0 -0.25119692413E+02  0.20330910537E+01 -0.13721829212E+02  0.96304686740E+02  0.91930254460E+02 0.  0.
         11    1    3    3    0    0 -0.49692469042E+02 -0.25859886230E+02 -0.18110775998E+02  0.58873384503E+02  0.51100000000E-03 0. -1.
         22    1    1    0    0    0  0.25119692413E+02 -0.20330910537E+01  0.13721829212E+02  0.28695313260E+02  0.00000000000E+00 0. -1.
</event>
<event>
 5    1  0.1681104E-003  0.9118800E+02  0.7818608E-02  0.1130116E+00
         25   -1    0    0    0    0  0.00000000000E+00  0.00000000000E+00  0.99999998245E-14  0.12500000000E+03  0.12500000000E+03 0.  0.
        -11    1    3    3    0    0 -0.22949922526E+02 -0.31009770135E+02 -0.66592050524E+01  0.39149071509E+02  0.51100000000E-03 0.  1.
         23    2    1    0    0    0 -0.16377317698E+02  0.22327617427E+02  0.10228978464E+02  0.95481005516E+02  0.90803366562E+02 0.  0.
         11    1    3    3    0    0  0.65726048285E+01  0.53337387563E+02  0.16888183516E+02  0.56331934007E+02  0.51100000000E-03 0. -1.
         22    1    1    0    0    0  0.16377317698E+02 -0.22327617427E+02 -0.10228978464E+02  0.29518994484E+02  0.00000000000E+00 0. -1.
</event>
<event>
 5    1  0.1681104E-003  0.9118800E+02  0.7818608E-02  0.1130116E+00
         25   -1    0    0    0    0  0.00000000000E+00  0.00000000000E+00  0.99999998245E-14  0.12500000000E+03  0.12500000000E+03 0.  0.
        -11    1    3    3    0    0 -0.23014754978E+02  0.89065904659E+01  0.22321501806E+02  0.33275452567E+02  0.51100000000E-03 0.  1.
         23    2    1    0    0    0  0.28797706298E+02 -0.12459399864E+02 -0.55478471477E-01  0.93622498333E+02  0.88207848763E+02 0.  0.
         11    1    3    3    0    0  0.51812461275E+02 -0.21365990330E+02 -0.22376980277E+02  0.60347045767E+02  0.51100000000E-03 0. -1.
         22    1    1    0    0    0 -0.28797706298E+02  0.12459399864E+02  0.55478471477E-01  0.31377501667E+02  0.00000000000E+00 0. -1.
</event>
<event>
 5    1  0.1681104E-003  0.9118800E+02  0.7818608E-02  0.1130116E+00
         25   -1    0    0    0    0  0.00000000000E+00  0.00000000000E+00  0.99999998245E-14  0.12500000000E+03  0.12500000000E+03 0.  0.
        -11    1    3    3    0    0  0.24170292398E+02  0.22494273409E+02 -0.25372031287E+02  0.41640549260E+02  0.51100000000E-03 0. -1.
         23    2    1    0    0    0 -0.24453283529E+02  0.13076173438E+02 -0.40493548786E-01  0.97270033775E+02  0.93233622925E+02 0.  0.
         11    1    3    3    0    0 -0.48623575927E+02 -0.94180999715E+01  0.25331537738E+02  0.55629484515E+02  0.51100000000E-03 0.  1.
         22    1    1    0    0    0  0.24453283529E+02 -0.13076173438E+02  0.40493548786E-01  0.27729966225E+02  0.00000000000E+00 0.  1.
</event>
<event>
 5    1  0.1681104E-003  0.9118800E+02  0.7818608E-02  0.1130116E+00
         25   -1    0    0    0    0  0.00000000000E+00  0.00000000000E+00  0.99999998245E-14  0.12500000000E+03  0.12500000000E+03 0.  0.
        -11    1    3    3    0    0 -0.32858052114E+02 -0.50314786659E+02  0.83076526199E+01  0.60665034720E+02  0.51100000000E-03 0. -1.
         23    2    1    0    0    0 -0.24777040824E+02 -0.18413569297E+02  0.47726438066E+01  0.93763172133E+02  0.88406973896E+02 0.  0.
         11    1    3    3    0    0  0.80810112902E+01  0.31901217362E+02 -0.35350088133E+01  0.33098137413E+02  0.51100000000E-03 0.  1.
         22    1    1    0    0    0  0.24777040824E+02  0.18413569297E+02 -0.47726438066E+01  0.31236827867E+02  0.00000000000E+00 0. -1.
</event>
<event>
 5    1  0.1681104E-003  0.9118800E+02  0.7818608E-02  0.1130116E+00
         25   -1    0    0    0    0  0.00000000000E+00  0.00000000000E+00  0.99999998245E-14  0.12500000000E+03  0.12500000000E+03 0.  0.
        -11    1    3    3    0    0 -0.16169221568E+02 -0.13997568416E+02 -0.90539156363E+01  0.23223889345E+02  0.51100000000E-03 0.  1.
         23    2    1    0    0    0  0.28318035442E+02  0.19650690000E+02 -0.26339361888E+02  0.81620019209E+02  0.69137578799E+02 0.  0.
         11    1    3    3    0    0  0.44487257011E+02  0.33648258416E+02 -0.17285446251E+02  0.58396129864E+02  0.51100000000E-03 0. -1.
         22    1    1    0    0    0 -0.28318035442E+02 -0.19650690000E+02  0.26339361888E+02  0.43379980791E+02  0.00000000000E+00 0. -1.
</event>
<event>
 5    1  0.1681104E-003  0.9118800E+02  0.7818608E-02  0.1130116E+00
         25   -1    0    0    0    0  0.00000000000E+00  0.00000000000E+00  0.99999998245E-14  0.12500000000E+03  0.12500000000E+03 0.  0.
        -11    1    3    3    0    0  0.23090418784E+02  0.75853383420E+01  0.40555143010E+02  0.47280275191E+02  0.51100000000E-03 0.  1.
         23    2    1    0    0    0 -0.75568851044E+01 -0.21888790119E+02  0.19492530637E+02  0.94731461945E+02  0.89765614164E+02 0.  0.
         11    1    3    3    0    0 -0.30647303888E+02 -0.29474128461E+02 -0.21062612373E+02  0.47451186754E+02  0.51100000000E-03 0. -1.
         22    1    1    0    0    0  0.75568851044E+01  0.21888790119E+02 -0.19492530637E+02  0.30268538055E+02  0.00000000000E+00 0. -1.
</event>
<event>
 5    1  0.1681104E-003  0.9118800E+02  0.7818608E-02  0.1130116E+00
         25   -1    0    0    0    0  0.00000000000E+00  0.00000000000E+00  0.99999998245E-14  0.12500000000E+03  0.12500000000E+03 0.  0.
        -11    1    3    3    0    0 -0.27991930748E+02 -0.14898850935E+02  0.25378344349E+02  0.40615074890E+02  0.51100000000E-03 0. -1.
         23    2    1    0    0    0  0.19190338578E+01 -0.16449753019E+02 -0.22483167421E+02  0.97075639979E+02  0.92972630352E+02 0.  0.
         11    1    3    3    0    0  0.29910964606E+02 -0.15509020839E+01 -0.47861511770E+02  0.56460565088E+02  0.51100000000E-03 0.  1.
         22    1    1    0    0    0 -0.19190338578E+01  0.16449753019E+02  0.22483167421E+02  0.27924360021E+02  0.00000000000E+00 0.  1.
</event>
<event>
 5    1  0.1681104E-003  0.9118800E+02  0.7818608E-02  0.1130116E+00
         25   -1    0    0    0    0  0.00000000000E+00  0.00000000000E+00  0.99999998245E-14  0.12500000000E+03  0.12500000000E+03 0.  0.
        -11    1    3    3    0    0  0.38522524022E+02  0.26127203209E+02 -0.29519249317E+02  0.55118070404E+02  0.51100000000E-03 0.  1.
         23    2    1    0    0    0  0.41198031107E+01  0.28152128358E+02 -0.93370800552E+01  0.95055114415E+02  0.90215179453E+02 0.  0.
         11    1    3    3    0    0 -0.34402720911E+02  0.20249251492E+01  0.20182169262E+02  0.39937044011E+02  0.51100000000E-03 0. -1.
         22    1    1    0    0    0 -0.41198031107E+01 -0.28152128358E+02  0.93370800552E+01  0.29944885585E+02  0.00000000000E+00 0.  1.
</event>
<event>
 5    1  0.1681104E-003  0.9118800E+02  0.7818608E-02  0.1130116E+00
         25   -1    0    0    0    0  0.00000000000E+00  0.00000000000E+00  0.99999998245E-14  0.12500000000E+03  0.12500000000E+03 0.  0.
        -11    1    3    3    0    0  0.43693486795E+02  0.20595801268E+02 -0.27507614068E+01  0.48382584746E+02  0.51100000000E-03 0.  1.
         23    2    1    0    0    0  0.27966180660E+02 -0.67720660561E+01 -0.24903486326E+02  0.86945410651E+02  0.78175140951E+02 0.  0.
         11    1    3    3    0    0 -0.15727306135E+02 -0.27367867324E+02 -0.22152724919E+02  0.38562825904E+02  0.51100000000E-03 0. -1.
         22    1    1    0    0    0 -0.27966180660E+02  0.67720660561E+01  0.24903486326E+02  0.38054589349E+02  0.00000000000E+00 0.  1.
</event>
<event>
 5    1  0.1681104E-003  0.9118800E+02  0.7818608E-02  0.1130116E+00
         25   -1    0    0    0    0  0.00000000000E+00  0.00000000000E+00  0.99999998245E-14  0.12500000000E+03  0.12500000000E+03 0.  0.
        -11    1    3    3    0    0  0.79102435956E+01 -0.39455671193E+02  0.33122966154E+02  0.52119601209E+02  0.51100000000E-03 0. -1.
         23    2    1    0    0    0  0.15839915226E+02  0.35643356777E+01  0.22704048134E+02  0.97087973831E+02  0.92989211512E+02 0.  0.
         11    1    3    3    0    0  0.79296716305E+01  0.43020006871E+02 -0.10418918020E+02  0.44968372622E+02  0.51100000000E-03 0.  1.
         22    1    1    0    0    0 -0.15839915226E+02 -0.35643356777E+01 -0.22704048134E+02  0.27912026169E+02  0.00000000000E+00 0. -1.
</event>
<event>
 5    1  0.1681104E-003  0.9118800E+02  0.7818608E-02  0.1130116E+00
         25   -1    0    0    0    0  0.00000000000E+00  0.00000000000E+00  0.99999998245E-14  0.12500000000E+03  0.12500000000E+03 0.  0.
        -11    1    3    3    0    0  0.19384839538E+02  0.66371265657E+01  0.20938186045E+02  0.29295581375E+02  0.51100000000E-03 0.  1.
         23    2    1    0    0    0 -0.24059044573E+02 -0.19110574439E+02 -0.14535091713E+02  0.91009993053E+02  0.84424512218E+02 0.  0.
         11    1    3    3    0    0 -0.43443884111E+02 -0.25747701005E+02 -0.35473277758E+02  0.61714411678E+02  0.51100000000E-03 0. -1.
         22    1    1    0    0    0  0.24059044573E+02  0.19110574439E+02  0.14535091713E+02  0.33990006947E+02  0.00000000000E+00 0. -1.
</event>
<event>
 5    1  0.1681104E-003  0.9118800E+02  0.7818608E-02  0.1130116E+00
         25   -1    0    0    0    0  0.00000000000E+00  0.00000000000E+00  0.99999998245E-14  0.12500000000E+03  0.12500000000E+03 0.  0.
        -11    1    3    3    0    0 -0.19973843500E+02  0.50769958489E+02 -0.25594790363E+02  0.60263060021E+02  0.51100000000E-03 0. -1.
         23    2    1    0    0    0 -0.12259165221E+02  0.27203849673E+02 -0.10652919790E+01  0.95142481417E+02  0.90336151979E+02 0.  0.
         11    1    3    3    0    0  0.77146782789E+01 -0.23566108816E+02  0.24529498384E+02  0.34879421396E+02  0.51100000000E-03 0.  1.
         22    1    1    0    0    0  0.12259165221E+02 -0.27203849673E+02  0.10652919790E+01  0.29857518583E+02  0.00000000000E+00 0. -1.
</event>
<event>
 5    1  0.1681104E-003  0.9118800E+02  0.7818608E-02  0.1130116E+00
         25   -1    0    0    0    0  0.00000000000E+00  0.00000000000E+00  0.99999998245E-14  0.12500000000E+03  0.12500000000E+03 0.  0.
        -11    1    3    3    0    0 -0.19390507281E+02 -0.12609634523E+02  0.29924099732E+02  0.37821242714E+02  0.51100000000E-03 0. -1.
         23    2    1    0    0    0 -0.27333833306E+02  0.28148698382E+02  0.21733780642E+02  0.80146406111E+02  0.66419888044E+02 0.  0.
         11    1    3    3    0    0 -0.79433260250E+01  0.40758332904E+02 -0.81903190904E+01  0.42325163397E+02  0.51100000000E-03 0.  1.
         22    1    1    0    0    0  0.27333833306E+02 -0.28148698382E+02 -0.21733780642E+02  0.44853593889E+02  0.00000000000E+00 0. -1.
</event>
<event>
 5    1  0.1681104E-003  0.9118800E+02  0.7818608E-02  0.1130116E+00
         25   -1    0    0    0    0  0.00000000000E+00  0.00000000000E+00  0.99999998245E-14  0.12500000000E+03  0.12500000000E+03 0.  0.
        -11    1    3    3    0    0  0.11384710462E+01  0.26024119059E+02  0.24486301194E+02  0.35750941743E+02  0.51100000000E-03 0. -1.
         23    2    1    0    0    0 -0.23249726995E+02 -0.17717767875E+02 -0.70450588102E+01  0.94931711764E+02  0.90044033344E+02 0.  0.
         11    1    3    3    0    0 -0.24388198041E+02 -0.43741886934E+02 -0.31531360004E+02  0.59180770020E+02  0.51100000000E-03 0.  1.
         22    1    1    0    0    0  0.23249726995E+02  0.17717767875E+02  0.70450588102E+01  0.30068288236E+02  0.00000000000E+00 0.  1.
</event>
<event>
 5    1  0.1681104E-003  0.9118800E+02  0.7818608E-02  0.1130116E+00
         25   -1    0    0    0    0  0.00000000000E+00  0.00000000000E+00  0.99999998245E-14  0.12500000000E+03  0.12500000000E+03 0.  0.
        -11    1    3    3    0    0  0.18409393264E+02  0.12946923639E+02  0.48529965300E+02  0.53494729875E+02  0.51100000000E-03 0.  1.
         23    2    1    0    0    0  0.12076341962E+01 -0.16683489032E+02  0.24464692860E+02  0.95363563247E+02  0.90641551244E+02 0.  0.
         11    1    3    3    0    0 -0.17201759068E+02 -0.29630412672E+02 -0.24065272440E+02  0.41868833373E+02  0.51100000000E-03 0. -1.
         22    1    1    0    0    0 -0.12076341962E+01  0.16683489032E+02 -0.24464692860E+02  0.29636436753E+02  0.00000000000E+00 0.  1.
</event>
<event>
 5    1  0.1681104E-003  0.9118800E+02  0.7818608E-02  0.1130116E+00
         25   -1    0    0    0    0  0.00000000000E+00  0.00000000000E+00  0.99999998245E-14  0.12500000000E+03  0.12500000000E+03 0.  0.
        -11    1    3    3    0    0  0.45802222772E+02 -0.78540658467E+01  0.82977580460E+01  0.47205749121E+02  0.51100000000E-03 0.  1.
         23    2    1    0    0    0  0.64535768584E+01 -0.22626361980E+02  0.23351461581E+02  0.91850465030E+02  0.85659887098E+02 0.  0.
         11    1    3    3    0    0 -0.39348645914E+02 -0.14772296133E+02  0.15053703535E+02  0.44644715910E+02  0.51100000000E-03 0. -1.
         22    1    1    0    0    0 -0.64535768584E+01  0.22626361980E+02 -0.23351461581E+02  0.33149534970E+02  0.00000000000E+00 0. -1.
</event>
<event>
 5    1  0.1681104E-003  0.9118800E+02  0.7818608E-02  0.1130116E+00
         25   -1    0    0    0    0  0.00000000000E+00  0.00000000000E+00  0.99999998245E-14  0.12500000000E+03  0.12500000000E+03 0.  0.
        -11    1    3    3    0    0  0.28979262838E+01  0.36788608748E+02  0.43072585125E+02  0.56719020618E+02  0.51100000000E-03 0. -1.
         23    2    1    0    0    0  0.10851251851E+02  0.35127061784E+01  0.29224789282E+02  0.93628403292E+02  0.88216216327E+02 0.  0.
         11    1    3    3    0    0  0.79533255675E+01 -0.33275902569E+02 -0.13847795843E+02  0.36909382674E+02  0.51100000000E-03 0.  1.
         22    1    1    0    0    0 -0.10851251851E+02 -0.35127061784E+01 -0.29224789282E+02  0.31371596708E+02  0.00000000000E+00 0. -1.
</event>
<event>
 5    1  0.1681104E-003  0.9118800E+02  0.7818608E-02  0.1130116E+00
         25   -1    0    0    0    0  0.00000000000E+00  0.00000000000E+00  0.99999998245E-14  0.12500000000E+03  0.12500000000E+03 0.  0.
        -11    1    3    3    0    0 -0.30188894341E+02 -0.42218334885E+02  0.26684104308E+02  0.58359220051E+02  0.51100000000E-03 0.  1.
         23    2    1    0    0    0 -0.86603962765E+01 -0.11763701652E+02  0.25426553309E+02  0.95676003795E+02  0.91071405769E+02 0.  0.
         11    1    3    3    0    0  0.21528498065E+02  0.30454633232E+02 -0.12575509983E+01  0.37316783744E+02  0.51100000000E-03 0. -1.
         22    1    1    0    0    0  0.86603962765E+01  0.11763701652E+02 -0.25426553309E+02  0.29323996205E+02  0.00000000000E+00 0.  1.
</event>
<event>
 5    1  0.1681104E-003  0.9118800E+02  0.7818608E-02  0.1130116E+00
         25   -1    0    0    0    0  0.00000000000E+00  0.00000000000E+00  0.99999998245E-14  0.12500000000E+03  0.12500000000E+03 0.  0.
        -11    1    3    3    0    0 -0.23759061065E+02 -0.87822608937E+01 -0.56603916874E+02  0.62013099381E+02  0.51100000000E-03 0. -1.
         23    2    1    0    0    0 -0.64278299067E+01 -0.69408663176E+01 -0.27289542882E+02  0.96117275522E+02  0.91675072296E+02 0.  0.
         11    1    3    3    0    0  0.17331231158E+02  0.18413945760E+01  0.29314373992E+02  0.34104176141E+02  0.51100000000E-03 0.  1.
         22    1    1    0    0    0  0.64278299067E+01  0.69408663176E+01  0.27289542882E+02  0.28882724478E+02  0.00000000000E+00 0. -1.
</event>
<event>
 5    1  0.1681104E-003  0.9118800E+02  0.7818608E-02  0.1130116E+00
         25   -1    0    0    0    0  0.00000000000E+00  0.00000000000E+00  0.99999998245E-14  0.12500000000E+03  0.12500000000E+03 0.  0.
        -11    1    3    3    0    0 -0.21049618818E+02  0.46376962268E+02 -0.15563603304E+02  0.53255373716E+02  0.51100000000E-03 0. -1.
         23    2    1    0    0    0 -0.20764073896E+02  0.16210554217E+02  0.13720186182E+02  0.95298613809E+02  0.90551937871E+02 0.  0.
         11    1    3    3    0    0  0.28554492120E+00 -0.30166408051E+02  0.29283789485E+02  0.42043240093E+02  0.51100000000E-03 0.  1.
         22    1    1    0    0    0  0.20764073896E+02 -0.16210554217E+02 -0.13720186182E+02  0.29701386191E+02  0.00000000000E+00 0.  1.
</event>
<event>
 5    1  0.1681104E-003  0.9118800E+02  0.7818608E-02  0.1130116E+00
         25   -1    0    0    0    0  0.00000000000E+00  0.00000000000E+00  0.99999998245E-14  0.12500000000E+03  0.12500000000E+03 0.  0.
        -11    1    3    3    0    0 -0.24390754361E+01 -0.33250689168E+02  0.12353728447E+02  0.35555196891E+02  0.51100000000E-03 0. -1.
         23    2    1    0    0    0  0.34155069559E+02 -0.21068713850E+01 -0.11098101072E+02  0.89025348771E+02  0.81433022741E+02 0.  0.
         11    1    3    3    0    0  0.36594144996E+02  0.31143817783E+02 -0.23451829518E+02  0.53470151880E+02  0.51100000000E-03 0.  1.
         22    1    1    0    0    0 -0.34155069559E+02  0.21068713850E+01  0.11098101072E+02  0.35974651229E+02  0.00000000000E+00 0.  1.
</event>
<event>
 5    1  0.1681104E-003  0.9118800E+02  0.7818608E-02  0.1130116E+00
         25   -1    0    0    0    0  0.00000000000E+00  0.00000000000E+00  0.99999998245E-14  0.12500000000E+03  0.12500000000E+03 0.  0.
        -11    1    3    3    0    0 -0.33059250352E+02 -0.23847682902E+02  0.11915034528E+02  0.42468742173E+02  0.51100000000E-03 0. -1.
         23    2    1    0    0    0  0.17824377866E+02 -0.11225844586E+02  0.20516042675E+02  0.95595305816E+02  0.90960576372E+02 0.  0.
         11    1    3    3    0    0  0.50883628219E+02  0.12621838315E+02  0.86010081471E+01  0.53126563643E+02  0.51100000000E-03 0.  1.
         22    1    1    0    0    0 -0.17824377866E+02  0.11225844586E+02 -0.20516042675E+02  0.29404694184E+02  0.00000000000E+00 0.  1.
</event>
<event>
 5    1  0.1681104E-003  0.9118800E+02  0.7818608E-02  0.1130116E+00
         25   -1    0    0    0    0  0.00000000000E+00  0.00000000000E+00  0.99999998245E-14  0.12500000000E+03  0.12500000000E+03 0.  0.
        -11    1    3    3    0    0 -0.27275320413E+02  0.13092462675E+02 -0.32699651137E+02  0.44549106245E+02  0.51100000000E-03 0.  1.
         23    2    1    0    0    0 -0.13017603304E+02 -0.27387960392E+02 -0.10205972468E+02  0.93004371483E+02  0.87327503518E+02 0.  0.
         11    1    3    3    0    0  0.14257717110E+02 -0.40480423067E+02  0.22493678669E+02  0.48455265237E+02  0.51100000000E-03 0. -1.
         22    1    1    0    0    0  0.13017603304E+02  0.27387960392E+02  0.10205972468E+02  0.31995628517E+02  0.00000000000E+00 0. -1.
</event>
<event>
 5    1  0.1681104E-003  0.9118800E+02  0.7818608E-02  0.1130116E+00
         25   -1    0    0    0    0  0.00000000000E+00  0.00000000000E+00  0.99999998245E-14  0.12500000000E+03  0.12500000000E+03 0.  0.
        -11    1    3    3    0    0 -0.47005127579E+02 -0.67709903310E+00 -0.46475895108E+01  0.47239184692E+02  0.51100000000E-03 0.  1.
         23    2    1    0    0    0 -0.74753309430E+00  0.10917920509E+02 -0.23936029482E+02  0.98680932742E+02  0.95106430831E+02 0.  0.
         11    1    3    3    0    0  0.46257594484E+02  0.11595019542E+02 -0.19288439972E+02  0.51441748050E+02  0.51100000000E-03 0. -1.
         22    1    1    0    0    0  0.74753309430E+00 -0.10917920509E+02  0.23936029482E+02  0.26319067258E+02  0.00000000000E+00 0.  1.
</event>
<event>
 5    1  0.1681104E-003  0.9118800E+02  0.7818608E-02  0.1130116E+00
         25   -1    0    0    0    0  0.00000000000E+00  0.00000000000E+00  0.99999998245E-14  0.12500000000E+03  0.12500000000E+03 0.  0.
        -11    1    3    3    0    0 -0.35831947172E+02  0.17956344085E+01 -0.22090102682E+01  0.35944853146E+02  0.51100000000E-03 0. -1.
         23    2    1    0    0    0  0.21393956235E+02 -0.17389627698E+02  0.57893905518E+01  0.96828781393E+02  0.92640138969E+02 0.  0.
         11    1    3    3    0    0  0.57225903407E+02 -0.19185262107E+02  0.79984008200E+01  0.60883928247E+02  0.51100000000E-03 0.  1.
         22    1    1    0    0    0 -0.21393956235E+02  0.17389627698E+02 -0.57893905518E+01  0.28171218607E+02  0.00000000000E+00 0.  1.
</event>
<event>
 5    1  0.1681104E-003  0.9118800E+02  0.7818608E-02  0.1130116E+00
         25   -1    0    0    0    0  0.00000000000E+00  0.00000000000E+00  0.99999998245E-14  0.12500000000E+03  0.12500000000E+03 0.  0.
        -11    1    3    3    0    0  0.19588325196E+02  0.46378763952E+02 -0.48622422324E+01  0.50579972612E+02  0.51100000000E-03 0. -1.
         23    2    1    0    0    0 -0.14447110200E+02  0.20055163458E+02  0.12888039960E+02  0.97124739490E+02  0.93038620328E+02 0.  0.
         11    1    3    3    0    0 -0.34035435396E+02 -0.26323600493E+02  0.17750282192E+02  0.46544766878E+02  0.51100000000E-03 0.  1.
         22    1    1    0    0    0  0.14447110200E+02 -0.20055163458E+02 -0.12888039960E+02  0.27875260510E+02  0.00000000000E+00 0. -1.
</event>
<event>
 5    1  0.1681104E-003  0.9118800E+02  0.7818608E-02  0.1130116E+00
         25   -1    0    0    0    0  0.00000000000E+00  0.00000000000E+00  0.99999998245E-14  0.12500000000E+03  0.12500000000E+03 0.  0.
        -11    1    3    3    0    0  0.37028928339E+02  0.19550717686E+02  0.76535071532E+00  0.41880280061E+02  0.51100000000E-03 0.  1.
         23    2    1    0    0    0 -0.57978947231E+01 -0.50544656148E+00  0.27965618399E+02  0.96435216229E+02  0.92107567860E+02 0.  0.
         11    1    3    3    0    0 -0.42826823062E+02 -0.20056164248E+02  0.27200267684E+02  0.54554936168E+02  0.51100000000E-03 0. -1.
         22    1    1    0    0    0  0.57978947231E+01  0.50544656148E+00 -0.27965618399E+02  0.28564783771E+02  0.00000000000E+00 0. -1.
</event>
<event>
 5    1  0.1681104E-003  0.9118800E+02  0.7818608E-02  0.1130116E+00
         25   -1    0    0    0    0  0.00000000000E+00  0.00000000000E+00  0.99999998245E-14  0.12500000000E+03  0.12500000000E+03 0.  0.
        -11    1    3    3    0    0 -0.14223150622E+02  0.28975357381E+02  0.42715429661E+02  0.53539492717E+02  0.51100000000E-03 0.  1.
         23    2    1    0    0    0  0.13453408305E+02  0.26848759437E+01  0.26790781803E+02  0.94901017568E+02  0.90001413278E+02 0.  0.
         11    1    3    3    0    0  0.27676558927E+02 -0.26290481438E+02 -0.15924647859E+02  0.41361524851E+02  0.51100000000E-03 0. -1.
         22    1    1    0    0    0 -0.13453408305E+02 -0.26848759437E+01 -0.26790781803E+02  0.30098982432E+02  0.00000000000E+00 0. -1.
</event>
<event>
 5    1  0.1681104E-003  0.9118800E+02  0.7818608E-02  0.1130116E+00
         25   -1    0    0    0    0  0.00000000000E+00  0.00000000000E+00  0.99999998245E-14  0.12500000000E+03  0.12500000000E+03 0.  0.
        -11    1    3    3    0    0 -0.27548283245E+02  0.10367193535E+02  0.22853660836E+02  0.37264949019E+02  0.51100000000E-03 0.  1.
         23    2    1    0    0    0  0.16660043206E+02  0.13530411209E+02 -0.17578460669E+02  0.97257769617E+02  0.93217178698E+02 0.  0.
         11    1    3    3    0    0  0.44208326451E+02  0.31632176736E+01 -0.40432121505E+02  0.59992820598E+02  0.51100000000E-03 0. -1.
         22    1    1    0    0    0 -0.16660043206E+02 -0.13530411209E+02  0.17578460669E+02  0.27742230383E+02  0.00000000000E+00 0. -1.
</event>
<event>
 5    1  0.1681104E-003  0.9118800E+02  0.7818608E-02  0.1130116E+00
         25   -1    0    0    0    0  0.00000000000E+00  0.00000000000E+00  0.99999998245E-14  0.12500000000E+03  0.12500000000E+03 0.  0.
        -11    1    3    3    0    0  0.52377143241E+02  0.62178130750E+01  0.23239624475E+02  0.57637717508E+02  0.51100000000E-03 0. -1.
         23    2    1    0    0    0  0.83910648281E+01  0.72266849305E+01  0.20474955943E+02  0.10172214003E+03  0.99022901426E+02 0.  0.
         11    1    3    3    0    0 -0.43986078413E+02  0.10088718556E+01 -0.27646685321E+01  0.44084422520E+02  0.51100000000E-03 0.  1.
         22    1    1    0    0    0 -0.83910648281E+01 -0.72266849305E+01 -0.20474955943E+02  0.23277859973E+02  0.00000000000E+00 0. -1.
</event>
<event>
 5    1  0.1681104E-003  0.9118800E+02  0.7818608E-02  0.1130116E+00
         25   -1    0    0    0    0  0.00000000000E+00  0.00000000000E+00  0.99999998245E-14  0.12500000000E+03  0.12500000000E+03 0.  0.
        -11    1    3    3    0    0  0.11453058855E+02  0.49085662767E+02  0.33678945319E+02  0.60620509767E+02  0.51100000000E-03 0. -1.
         23    2    1    0    0    0  0.17236398047E+02  0.30290275341E+02  0.24965977076E+02  0.82129331598E+02  0.70052358273E+02 0.  0.
         11    1    3    3    0    0  0.57833391926E+01 -0.18795387426E+02 -0.87129682431E+01  0.21508821831E+02  0.51100000000E-03 0.  1.
         22    1    1    0    0    0 -0.17236398047E+02 -0.30290275341E+02 -0.24965977076E+02  0.42870668402E+02  0.00000000000E+00 0. -1.
</event>
<event>
 5    1  0.1681104E-003  0.9118800E+02  0.7818608E-02  0.1130116E+00
         25   -1    0    0    0    0  0.00000000000E+00  0.00000000000E+00  0.99999998245E-14  0.12500000000E+03  0.12500000000E+03 0.  0.
        -11    1    3    3    0    0  0.59305760451E+02  0.79697175594E+01 -0.13553223624E+02  0.61354539290E+02  0.51100000000E-03 0.  1.
         23    2    1    0    0    0  0.27123909896E+02 -0.34261668316E+01 -0.10797654624E+02  0.95605537043E+02  0.90974635260E+02 0.  0.
         11    1    3    3    0    0 -0.32181850556E+02 -0.11395884391E+02  0.27555690001E+01  0.34250997752E+02  0.51100000000E-03 0. -1.
         22    1    1    0    0    0 -0.27123909896E+02  0.34261668316E+01  0.10797654624E+02  0.29394462957E+02  0.00000000000E+00 0.  1.
</event>
<event>
 5    1  0.1681104E-003  0.9118800E+02  0.7818608E-02  0.1130116E+00
         25   -1    0    0    0    0  0.00000000000E+00  0.00000000000E+00  0.99999998245E-14  0.12500000000E+03  0.12500000000E+03 0.  0.
        -11    1    3    3    0    0 -0.16768990017E+02  0.16021245258E+02  0.51562978195E+02  0.56538659751E+02  0.51100000000E-03 0.  1.
         23    2    1    0    0    0  0.11759170688E+02  0.78692993572E+01  0.24554096601E+02  0.96660846387E+02  0.92413265264E+02 0.  0.
         11    1    3    3    0    0  0.28528160705E+02 -0.81519459011E+01 -0.27008881595E+02  0.40122186635E+02  0.51100000000E-03 0. -1.
         22    1    1    0    0    0 -0.11759170688E+02 -0.78692993572E+01 -0.24554096601E+02  0.28339153613E+02  0.00000000000E+00 0.  1.
</event>
<event>
 5    1  0.1681104E-003  0.9118800E+02  0.7818608E-02  0.1130116E+00
         25   -1    0    0    0    0  0.00000000000E+00  0.00000000000E+00  0.99999998245E-14  0.12500000000E+03  0.12500000000E+03 0.  0.
        -11    1    3    3    0    0  0.19556067235E+02  0.42045218297E+02 -0.40951206721E+01  0.46551156386E+02  0.51100000000E-03 0.  1.
         23    2    1    0    0    0  0.15186053882E+02  0.33839322061E+01  0.25289242329E+02  0.95308031267E+02  0.90564937016E+02 0.  0.
         11    1    3    3    0    0 -0.43700133528E+01 -0.38661286091E+02  0.29384363001E+02  0.48756874881E+02  0.51100000000E-03 0. -1.
         22    1    1    0    0    0 -0.15186053882E+02 -0.33839322061E+01 -0.25289242329E+02  0.29691968733E+02  0.00000000000E+00 0. -1.
</event>
<event>
 5    1  0.1681104E-003  0.9118800E+02  0.7818608E-02  0.1130116E+00
         25   -1    0    0    0    0  0.00000000000E+00  0.00000000000E+00  0.99999998245E-14  0.12500000000E+03  0.12500000000E+03 0.  0.
        -11    1    3    3    0    0 -0.63162861933E+01  0.31156600064E+02 -0.32443278109E+01  0.31955513797E+02  0.51100000000E-03 0.  1.
         23    2    1    0    0    0  0.18012538054E+02 -0.39056857029E+01 -0.35197774502E+02  0.85268535921E+02  0.75446232380E+02 0.  0.
         11    1    3    3    0    0  0.24328824247E+02 -0.35062285766E+02 -0.31953446691E+02  0.53313022125E+02  0.51100000000E-03 0. -1.
         22    1    1    0    0    0 -0.18012538054E+02  0.39056857029E+01  0.35197774502E+02  0.39731464079E+02  0.00000000000E+00 0. -1.
</event>
<event>
 5    1  0.1681104E-003  0.9118800E+02  0.7818608E-02  0.1130116E+00
         25   -1    0    0    0    0  0.00000000000E+00  0.00000000000E+00  0.99999998245E-14  0.12500000000E+03  0.12500000000E+03 0.  0.
        -11    1    3    3    0    0  0.12528786553E+02 -0.20944456497E+02  0.15962045386E+02  0.29162092580E+02  0.51100000000E-03 0.  1.
         23    2    1    0    0    0 -0.10887537383E+02  0.28307080469E+02 -0.14232493892E+02  0.91497863391E+02  0.85143795122E+02 0.  0.
         11    1    3    3    0    0 -0.23416323935E+02  0.49251536967E+02 -0.30194539278E+02  0.62335770812E+02  0.51100000000E-03 0. -1.
         22    1    1    0    0    0  0.10887537383E+02 -0.28307080469E+02  0.14232493892E+02  0.33502136609E+02  0.00000000000E+00 0. -1.
</event>
<event>
 5    1  0.1681104E-003  0.9118800E+02  0.7818608E-02  0.1130116E+00
         25   -1    0    0    0    0  0.00000000000E+00  0.00000000000E+00  0.99999998245E-14  0.12500000000E+03  0.12500000000E+03 0.  0.
        -11    1    3    3    0    0 -0.27575689594E+01  0.37628330211E+02 -0.12180737833E+02  0.39646762736E+02  0.51100000000E-03 0.  1.
         23    2    1    0    0    0  0.13997634113E+02 -0.17760356649E+02 -0.15459914087E+02  0.97607063454E+02  0.93684394983E+02 0.  0.
         11    1    3    3    0    0  0.16755203073E+02 -0.55388686860E+02 -0.32791762546E+01  0.57960300717E+02  0.51100000000E-03 0. -1.
         22    1    1    0    0    0 -0.13997634113E+02  0.17760356649E+02  0.15459914087E+02  0.27392936546E+02  0.00000000000E+00 0. -1.
</event>
<event>
 5    1  0.1681104E-003  0.9118800E+02  0.7818608E-02  0.1130116E+00
         25   -1    0    0    0    0  0.00000000000E+00  0.00000000000E+00  0.99999998245E-14  0.12500000000E+03  0.12500000000E+03 0.  0.
        -11    1    3    3    0    0 -0.12401264434E+02 -0.21127755200E+02 -0.23404359255E+02  0.33881225358E+02  0.51100000000E-03 0. -1.
         23    2    1    0    0    0  0.94831387386E+01  0.21834489336E+02  0.16140663946E+02  0.96238986848E+02  0.91840877130E+02 0.  0.
         11    1    3    3    0    0  0.21884403172E+02  0.42962244536E+02  0.39545023202E+02  0.62357761490E+02  0.51100000000E-03 0.  1.
         22    1    1    0    0    0 -0.94831387386E+01 -0.21834489336E+02 -0.16140663946E+02  0.28761013152E+02  0.00000000000E+00 0.  1.
</event>
<event>
 5    1  0.1681104E-003  0.9118800E+02  0.7818608E-02  0.1130116E+00
         25   -1    0    0    0    0  0.00000000000E+00  0.00000000000E+00  0.99999998245E-14  0.12500000000E+03  0.12500000000E+03 0.  0.
        -11    1    3    3    0    0  0.99845941905E+01  0.49911827366E+02 -0.35999825875E+00  0.50901986515E+02  0.51100000000E-03 0.  1.
         23    2    1    0    0    0  0.26021992680E+02  0.10060592533E+02  0.10466106171E+02  0.95202365807E+02  0.90418977276E+02 0.  0.
         11    1    3    3    0    0  0.16037398489E+02 -0.39851234833E+02  0.10826104429E+02  0.44300379292E+02  0.51100000000E-03 0. -1.
         22    1    1    0    0    0 -0.26021992680E+02 -0.10060592533E+02 -0.10466106171E+02  0.29797634193E+02  0.00000000000E+00 0. -1.
</event>
<event>
 5    1  0.1681104E-003  0.9118800E+02  0.7818608E-02  0.1130116E+00
         25   -1    0    0    0    0  0.00000000000E+00  0.00000000000E+00  0.99999998245E-14  0.12500000000E+03  0.12500000000E+03 0.  0.
        -11    1    3    3    0    0 -0.91380528515E+01  0.18530120027E+02 -0.36100396621E+02  0.41594566888E+02  0.51100000000E-03 0.  1.
         23    2    1    0    0    0  0.78776282083E+01  0.22647555903E+02  0.15743832800E+02  0.96314862981E+02  0.91944090323E+02 0.  0.
         11    1    3    3    0    0  0.17015681060E+02  0.41174358763E+01  0.51844229420E+02  0.54720296094E+02  0.51100000000E-03 0. -1.
         22    1    1    0    0    0 -0.78776282083E+01 -0.22647555903E+02 -0.15743832800E+02  0.28685137019E+02  0.00000000000E+00 0. -1.
</event>
<event>
 5    1  0.1681104E-003  0.9118800E+02  0.7818608E-02  0.1130116E+00
         25   -1    0    0    0    0  0.00000000000E+00  0.00000000000E+00  0.99999998245E-14  0.12500000000E+03  0.12500000000E+03 0.  0.
        -11    1    3    3    0    0 -0.24290891201E+02  0.44052312816E+02  0.35471666283E+02  0.61553982560E+02  0.51100000000E-03 0. -1.
         23    2    1    0    0    0 -0.18766115167E+01  0.17746758661E+02  0.14730695673E+02  0.10185993715E+03  0.99196694941E+02 0.  0.
         11    1    3    3    0    0  0.22414279685E+02 -0.26305554155E+02 -0.20740970610E+02  0.40305954589E+02  0.51100000000E-03 0.  1.
         22    1    1    0    0    0  0.18766115167E+01 -0.17746758661E+02 -0.14730695673E+02  0.23140062851E+02  0.00000000000E+00 0. -1.
</event>
<event>
 5    1  0.1681104E-003  0.9118800E+02  0.7818608E-02  0.1130116E+00
         25   -1    0    0    0    0  0.00000000000E+00  0.00000000000E+00  0.99999998245E-14  0.12500000000E+03  0.12500000000E+03 0.  0.
        -11    1    3    3    0    0  0.14858550550E+02 -0.25639881261E+02 -0.38871721533E+02  0.48879349123E+02  0.51100000000E-03 0.  1.
         23    2    1    0    0    0 -0.36257193214E+01  0.15146861742E+02 -0.24610645035E+02  0.95875146176E+02  0.91344329567E+02 0.  0.
         11    1    3    3    0    0 -0.18484269871E+02  0.40786743003E+02  0.14261076498E+02  0.46995797053E+02  0.51100000000E-03 0. -1.
         22    1    1    0    0    0  0.36257193214E+01 -0.15146861742E+02  0.24610645035E+02  0.29124853824E+02  0.00000000000E+00 0. -1.
</event>
<event>
 5    1  0.1681104E-003  0.9118800E+02  0.7818608E-02  0.1130116E+00
         25   -1    0    0    0    0  0.00000000000E+00  0.00000000000E+00  0.99999998245E-14  0.12500000000E+03  0.12500000000E+03 0.  0.
        -11    1    3    3    0    0  0.19670096849E+02  0.22309169274E+02  0.20754753705E+02  0.36268051303E+02  0.51100000000E-03 0. -1.
         23    2    1    0    0    0 -0.31251315266E+01 -0.91570713289E+01 -0.26115552612E+02  0.97149677011E+02  0.93072118557E+02 0.  0.
         11    1    3    3    0    0 -0.22795228375E+02 -0.31466240602E+02 -0.46870306317E+02  0.60881625708E+02  0.51100000000E-03 0.  1.
         22    1    1    0    0    0  0.31251315266E+01  0.91570713289E+01  0.26115552612E+02  0.27850322989E+02  0.00000000000E+00 0.  1.
</event>
<event>
 5    1  0.1681104E-003  0.9118800E+02  0.7818608E-02  0.1130116E+00
         25   -1    0    0    0    0  0.00000000000E+00  0.00000000000E+00  0.99999998245E-14  0.12500000000E+03  0.12500000000E+03 0.  0.
        -11    1    3    3    0    0 -0.28638738342E+02  0.54828310533E+02 -0.56357961868E+01  0.62113470106E+02  0.51100000000E-03 0. -1.
         23    2    1    0    0    0 -0.85310627058E+01  0.23760225696E+02 -0.56922730964E+01  0.99120870783E+02  0.95682901794E+02 0.  0.
         11    1    3    3    0    0  0.20107675637E+02 -0.31068084837E+02 -0.56476909572E-01  0.37007400677E+02  0.51100000000E-03 0.  1.
         22    1    1    0    0    0  0.85310627058E+01 -0.23760225696E+02  0.56922730964E+01  0.25879129217E+02  0.00000000000E+00 0. -1.
</event>
<event>
 5    1  0.1681104E-003  0.9118800E+02  0.7818608E-02  0.1130116E+00
         25   -1    0    0    0    0  0.00000000000E+00  0.00000000000E+00  0.99999998245E-14  0.12500000000E+03  0.12500000000E+03 0.  0.
        -11    1    3    3    0    0 -0.41377987893E+02  0.26297819772E+02 -0.37136117436E+02  0.61504507358E+02  0.51100000000E-03 0. -1.
         23    2    1    0    0    0 -0.20150575620E+02  0.21444568969E+02 -0.17917228049E+02  0.90547971075E+02  0.83737642484E+02 0.  0.
         11    1    3    3    0    0  0.21227412273E+02 -0.48532508033E+01  0.19218889387E+02  0.29043463718E+02  0.51100000000E-03 0.  1.
         22    1    1    0    0    0  0.20150575620E+02 -0.21444568969E+02  0.17917228049E+02  0.34452028925E+02  0.00000000000E+00 0. -1.
</event>
<event>
 5    1  0.1681104E-003  0.9118800E+02  0.7818608E-02  0.1130116E+00
         25   -1    0    0    0    0  0.00000000000E+00  0.00000000000E+00  0.99999998245E-14  0.12500000000E+03  0.12500000000E+03 0.  0.
        -11    1    3    3    0    0  0.15135393847E+02  0.29382542791E+02  0.20367599868E+02  0.38823357562E+02  0.51100000000E-03 0. -1.
         23    2    1    0    0    0  0.18201313445E+02 -0.11728687708E+02 -0.19270693527E+02  0.96013631558E+02  0.91533643484E+02 0.  0.
         11    1    3    3    0    0  0.30659195976E+01 -0.41111230499E+02 -0.39638293395E+02  0.57190273995E+02  0.51100000000E-03 0.  1.
         22    1    1    0    0    0 -0.18201313445E+02  0.11728687708E+02  0.19270693527E+02  0.28986368442E+02  0.00000000000E+00 0.  1.
</event>
<event>
 5    1  0.1681104E-003  0.9118800E+02  0.7818608E-02  0.1130116E+00
         25   -1    0    0    0    0  0.00000000000E+00  0.00000000000E+00  0.99999998245E-14  0.12500000000E+03  0.12500000000E+03 0.  0.
        -11    1    3    3    0    0 -0.17476778005E+02  0.16354618796E+02  0.28278312557E+01  0.24102032181E+02  0.51100000000E-03 0. -1.
         23    2    1    0    0    0  0.26779565416E+02 -0.12636326789E+02  0.29370463519E+02  0.83293333795E+02  0.72099469129E+02 0.  0.
         11    1    3    3    0    0  0.44256343421E+02 -0.28990945585E+02  0.26542632264E+02  0.59191301613E+02  0.51100000000E-03 0.  1.
         22    1    1    0    0    0 -0.26779565416E+02  0.12636326789E+02 -0.29370463519E+02  0.41706666205E+02  0.00000000000E+00 0.  1.
</event>
<event>
 5    1  0.1681104E-003  0.9118800E+02  0.7818608E-02  0.1130116E+00
         25   -1    0    0    0    0  0.00000000000E+00  0.00000000000E+00  0.99999998245E-14  0.12500000000E+03  0.12500000000E+03 0.  0.
        -11    1    3    3    0    0 -0.43117094081E+02 -0.21767705124E+02 -0.12292480958E+02  0.49839962648E+02  0.51100000000E-03 0.  1.
         23    2    1    0    0    0 -0.27175233532E+02  0.16665562892E+02 -0.38284042313E+00  0.93119271169E+02  0.87491815573E+02 0.  0.
         11    1    3    3    0    0  0.15941860549E+02  0.38433268016E+02  0.11909640535E+02  0.43279308521E+02  0.51100000000E-03 0. -1.
         22    1    1    0    0    0  0.27175233532E+02 -0.16665562892E+02  0.38284042313E+00  0.31880728831E+02  0.00000000000E+00 0.  1.
</event>
<event>
 5    1  0.1681104E-003  0.9118800E+02  0.7818608E-02  0.1130116E+00
         25   -1    0    0    0    0  0.00000000000E+00  0.00000000000E+00  0.99999998245E-14  0.12500000000E+03  0.12500000000E+03 0.  0.
        -11    1    3    3    0    0 -0.94378130265E+01 -0.58387810033E+02  0.26947108913E+01  0.59207010921E+02  0.51100000000E-03 0. -1.
         23    2    1    0    0    0  0.82715676574E+01 -0.27633051702E+02 -0.55142474909E+01  0.95633159801E+02  0.91012581275E+02 0.  0.
         11    1    3    3    0    0  0.17709380684E+02  0.30754758332E+02 -0.82089583822E+01  0.36426148880E+02  0.51100000000E-03 0.  1.
         22    1    1    0    0    0 -0.82715676574E+01  0.27633051702E+02  0.55142474909E+01  0.29366840199E+02  0.00000000000E+00 0. -1.
</event>
<event>
 5    1  0.1681104E-003  0.9118800E+02  0.7818608E-02  0.1130116E+00
         25   -1    0    0    0    0  0.00000000000E+00  0.00000000000E+00  0.99999998245E-14  0.12500000000E+03  0.12500000000E+03 0.  0.
        -11    1    3    3    0    0  0.12722764624E+01  0.14444430397E+02 -0.38250008150E+02  0.40906275565E+02  0.51100000000E-03 0. -1.
         23    2    1    0    0    0  0.33174948449E+02  0.35232343532E+01 -0.34855990230E+00  0.91636668648E+02  0.85347332484E+02 0.  0.
         11    1    3    3    0    0  0.31902671986E+02 -0.10921196044E+02  0.37901448247E+02  0.50730393083E+02  0.51100000000E-03 0.  1.
         22    1    1    0    0    0 -0.33174948449E+02 -0.35232343532E+01  0.34855990230E+00  0.33363331352E+02  0.00000000000E+00 0.  1.
</event>
<event>
 5    1  0.1681104E-003  0.9118800E+02  0.7818608E-02  0.1130116E+00
         25   -1    0    0    0    0  0.00000000000E+00  0.00000000000E+00  0.99999998245E-14  0.12500000000E+03  0.12500000000E+03 0.  0.
        -11    1    3    3    0    0  0.23143095713E+00 -0.30340354687E+02 -0.13060749899E+02  0.33032921019E+02  0.51100000000E-03 0. -1.
         23    2    1    0    0    0  0.77547014788E+01  0.12294102584E+02  0.28475459903E+02  0.93029198163E+02  0.87363033034E+02 0.  0.
         11    1    3    3    0    0  0.75232705217E+01  0.42634457271E+02  0.41536209803E+02  0.59996277144E+02  0.51100000000E-03 0.  1.
         22    1    1    0    0    0 -0.77547014788E+01 -0.12294102584E+02 -0.28475459903E+02  0.31970801837E+02  0.00000000000E+00 0.  1.
</event>
<event>
 5    1  0.1681104E-003  0.9118800E+02  0.7818608E-02  0.1130116E+00
         25   -1    0    0    0    0  0.00000000000E+00  0.00000000000E+00  0.99999998245E-14  0.12500000000E+03  0.12500000000E+03 0.  0.
        -11    1    3    3    0    0  0.21092141785E+02  0.18263909950E+02 -0.26627080439E+02  0.38567476774E+02  0.51100000000E-03 0. -1.
         23    2    1    0    0    0  0.43280492183E+01 -0.10935744846E+02  0.23365695239E+02  0.98841287505E+02  0.95316954820E+02 0.  0.
         11    1    3    3    0    0 -0.16764092567E+02 -0.29199654796E+02  0.49992775678E+02  0.60273810731E+02  0.51100000000E-03 0.  1.
         22    1    1    0    0    0 -0.43280492183E+01  0.10935744846E+02 -0.23365695239E+02  0.26158712495E+02  0.00000000000E+00 0.  1.
</event>
<event>
 5    1  0.1681104E-003  0.9118800E+02  0.7818608E-02  0.1130116E+00
         25   -1    0    0    0    0  0.00000000000E+00  0.00000000000E+00  0.99999998245E-14  0.12500000000E+03  0.12500000000E+03 0.  0.
        -11    1    3    3    0    0  0.16296937127E+02 -0.43423472025E+02 -0.20083185969E+02  0.50542283698E+02  0.51100000000E-03 0.  1.
         23    2    1    0    0    0  0.25460119534E+02 -0.14066616374E+02  0.10653784755E+02  0.94022742011E+02  0.88773225145E+02 0.  0.
         11    1    3    3    0    0  0.91631824072E+01  0.29356855651E+02  0.30736970724E+02  0.43480458313E+02  0.51100000000E-03 0. -1.
         22    1    1    0    0    0 -0.25460119534E+02  0.14066616374E+02 -0.10653784755E+02  0.30977257989E+02  0.00000000000E+00 0.  1.
</event>
<event>
 5    1  0.1681104E-003  0.9118800E+02  0.7818608E-02  0.1130116E+00
         25   -1    0    0    0    0  0.00000000000E+00  0.00000000000E+00  0.99999998245E-14  0.12500000000E+03  0.12500000000E+03 0.  0.
        -11    1    3    3    0    0 -0.24902071629E+02 -0.11188617536E+02  0.13672402172E+02  0.30532489503E+02  0.51100000000E-03 0. -1.
         23    2    1    0    0    0  0.11540179717E+02  0.96002865021E+01 -0.30223600568E+02  0.91253781247E+02  0.84784699751E+02 0.  0.
         11    1    3    3    0    0  0.36442251346E+02  0.20788904039E+02 -0.43896002740E+02  0.60721291745E+02  0.51100000000E-03 0.  1.
         22    1    1    0    0    0 -0.11540179717E+02 -0.96002865021E+01  0.30223600568E+02  0.33746218753E+02  0.00000000000E+00 0.  1.
</event>
<event>
 5    1  0.1681104E-003  0.9118800E+02  0.7818608E-02  0.1130116E+00
         25   -1    0    0    0    0  0.00000000000E+00  0.00000000000E+00  0.99999998245E-14  0.12500000000E+03  0.12500000000E+03 0.  0.
        -11    1    3    3    0    0  0.11924921627E+02  0.44189922170E+02  0.37834466944E+02  0.59383498267E+02  0.51100000000E-03 0.  1.
         23    2    1    0    0    0  0.14314005983E+02  0.27324509275E+02  0.90108231450E+01  0.92864124282E+02  0.87126523347E+02 0.  0.
         11    1    3    3    0    0  0.23890843556E+01 -0.16865412895E+02 -0.28823643799E+02  0.33480626015E+02  0.51100000000E-03 0. -1.
         22    1    1    0    0    0 -0.14314005983E+02 -0.27324509275E+02 -0.90108231450E+01  0.32135875718E+02  0.00000000000E+00 0.  1.
</event>
<event>
 5    1  0.1681104E-003  0.9118800E+02  0.7818608E-02  0.1130116E+00
         25   -1    0    0    0    0  0.00000000000E+00  0.00000000000E+00  0.99999998245E-14  0.12500000000E+03  0.12500000000E+03 0.  0.
        -11    1    3    3    0    0 -0.10130131789E+02  0.95768879166E+01  0.37427470402E+02  0.39939352689E+02  0.51100000000E-03 0.  1.
         23    2    1    0    0    0  0.24864690496E+02  0.93504999783E+01 -0.79753460692E+01  0.97263907481E+02  0.93225408930E+02 0.  0.
         11    1    3    3    0    0  0.34994822285E+02 -0.22638793826E+00 -0.45402816472E+02  0.57324554792E+02  0.51100000000E-03 0. -1.
         22    1    1    0    0    0 -0.24864690496E+02 -0.93504999783E+01  0.79753460692E+01  0.27736092519E+02  0.00000000000E+00 0. -1.
</event>
<event>
 5    1  0.1681104E-003  0.9118800E+02  0.7818608E-02  0.1130116E+00
         25   -1    0    0    0    0  0.00000000000E+00  0.00000000000E+00  0.99999998245E-14  0.12500000000E+03  0.12500000000E+03 0.  0.
        -11    1    3    3    0    0 -0.11681210809E+02  0.20613516941E+02 -0.25245429054E+02  0.34622239313E+02  0.51100000000E-03 0. -1.
         23    2    1    0    0    0  0.87688526019E+01 -0.20271476662E+02  0.17202030267E+02  0.97004725625E+02  0.92877238365E+02 0.  0.
         11    1    3    3    0    0  0.20450063411E+02 -0.40884993603E+02  0.42447459321E+02  0.62382486312E+02  0.51100000000E-03 0.  1.
         22    1    1    0    0    0 -0.87688526019E+01  0.20271476662E+02 -0.17202030267E+02  0.27995274375E+02  0.00000000000E+00 0.  1.
</event>
<event>
 5    1  0.1681104E-003  0.9118800E+02  0.7818608E-02  0.1130116E+00
         25   -1    0    0    0    0  0.00000000000E+00  0.00000000000E+00  0.99999998245E-14  0.12500000000E+03  0.12500000000E+03 0.  0.
        -11    1    3    3    0    0 -0.21383030953E+02  0.81290978161E+01 -0.22988564934E+02  0.32431317612E+02  0.51100000000E-03 0. -1.
         23    2    1    0    0    0  0.16552636354E+02  0.28027444377E+01  0.25650155168E+02  0.94344240235E+02  0.89224772674E+02 0.  0.
         11    1    3    3    0    0  0.37935667308E+02 -0.53263533784E+01  0.48638720101E+02  0.61912922623E+02  0.51100000000E-03 0.  1.
         22    1    1    0    0    0 -0.16552636354E+02 -0.28027444377E+01 -0.25650155168E+02  0.30655759765E+02  0.00000000000E+00 0.  1.
</event>
<event>
 5    1  0.1681104E-003  0.9118800E+02  0.7818608E-02  0.1130116E+00
         25   -1    0    0    0    0  0.00000000000E+00  0.00000000000E+00  0.99999998245E-14  0.12500000000E+03  0.12500000000E+03 0.  0.
        -11    1    3    3    0    0  0.31683837804E+02  0.19214488336E+02 -0.25428785742E+02  0.44940908809E+02  0.51100000000E-03 0.  1.
         23    2    1    0    0    0  0.22098146559E+02 -0.16167343790E+02  0.99318048464E+01  0.95873520053E+02  0.91342104275E+02 0.  0.
         11    1    3    3    0    0 -0.95856912451E+01 -0.35381832126E+02  0.35360590588E+02  0.50932611245E+02  0.51100000000E-03 0. -1.
         22    1    1    0    0    0 -0.22098146559E+02  0.16167343790E+02 -0.99318048464E+01  0.29126479947E+02  0.00000000000E+00 0. -1.
</event>
<event>
 5    1  0.1681104E-003  0.9118800E+02  0.7818608E-02  0.1130116E+00
         25   -1    0    0    0    0  0.00000000000E+00  0.00000000000E+00  0.99999998245E-14  0.12500000000E+03  0.12500000000E+03 0.  0.
        -11    1    3    3    0    0  0.25199973647E+02 -0.50262935315E+02 -0.17870783956E+02  0.58998019101E+02  0.51100000000E-03 0. -1.
         23    2    1    0    0    0  0.19056147660E+02 -0.13822767692E+02 -0.16998673869E+02  0.95962772454E+02  0.91464163001E+02 0.  0.
         11    1    3    3    0    0 -0.61438259878E+01  0.36440167623E+02  0.87211008725E+00  0.36964753353E+02  0.51100000000E-03 0.  1.
         22    1    1    0    0    0 -0.19056147660E+02  0.13822767692E+02  0.16998673869E+02  0.29037227546E+02  0.00000000000E+00 0. -1.
</event>
<event>
 5    1  0.1681104E-003  0.9118800E+02  0.7818608E-02  0.1130116E+00
         25   -1    0    0    0    0  0.00000000000E+00  0.00000000000E+00  0.99999998245E-14  0.12500000000E+03  0.12500000000E+03 0.  0.
        -11    1    3    3    0    0 -0.26177619494E+02 -0.46045539213E+02 -0.69458373777E+01  0.53420072079E+02  0.51100000000E-03 0.  1.
         23    2    1    0    0    0  0.69739607039E+01 -0.27113086587E+02  0.10111664439E+02  0.95234225192E+02  0.90463010662E+02 0.  0.
         11    1    3    3    0    0  0.33151580198E+02  0.18932452626E+02  0.17057501817E+02  0.41814153113E+02  0.51100000000E-03 0. -1.
         22    1    1    0    0    0 -0.69739607039E+01  0.27113086587E+02 -0.10111664439E+02  0.29765774808E+02  0.00000000000E+00 0.  1.
</event>
<event>
 5    1  0.1681104E-003  0.9118800E+02  0.7818608E-02  0.1130116E+00
         25   -1    0    0    0    0  0.00000000000E+00  0.00000000000E+00  0.99999998245E-14  0.12500000000E+03  0.12500000000E+03 0.  0.
        -11    1    3    3    0    0  0.40305387574E+02  0.19990017855E+02 -0.32784290998E+01  0.45109568596E+02  0.51100000000E-03 0. -1.
         23    2    1    0    0    0 -0.12085611290E+01  0.10016171152E+02 -0.28547524412E+02  0.94722195347E+02  0.89752709356E+02 0.  0.
         11    1    3    3    0    0 -0.41513948703E+02 -0.99738467037E+01 -0.25269095312E+02  0.49612626751E+02  0.51100000000E-03 0.  1.
         22    1    1    0    0    0  0.12085611290E+01 -0.10016171152E+02  0.28547524412E+02  0.30277804653E+02  0.00000000000E+00 0. -1.
</event>
<event>
 5    1  0.1681104E-003  0.9118800E+02  0.7818608E-02  0.1130116E+00
         25   -1    0    0    0    0  0.00000000000E+00  0.00000000000E+00  0.99999998245E-14  0.12500000000E+03  0.12500000000E+03 0.  0.
        -11    1    3    3    0    0  0.42065666150E+02 -0.19017350328E+02 -0.41389714207E+02  0.62002325154E+02  0.51100000000E-03 0.  1.
         23    2    1    0    0    0  0.15998468344E+02 -0.19600861099E+01 -0.11282486592E+02  0.10532546238E+03  0.10347156902E+03 0.  0.
         11    1    3    3    0    0 -0.26067197806E+02  0.17057264218E+02  0.30107227615E+02  0.43323137224E+02  0.51100000000E-03 0. -1.
         22    1    1    0    0    0 -0.15998468344E+02  0.19600861099E+01  0.11282486592E+02  0.19674537622E+02  0.00000000000E+00 0.  1.
</event>
<event>
 5    1  0.1681104E-003  0.9118800E+02  0.7818608E-02  0.1130116E+00
         25   -1    0    0    0    0  0.00000000000E+00  0.00000000000E+00  0.99999998245E-14  0.12500000000E+03  0.12500000000E+03 0.  0.
        -11    1    3    3    0    0 -0.34193805365E+02 -0.16994887060E+02  0.27938786911E+02  0.47314039416E+02  0.51100000000E-03 0.  1.
         23    2    1    0    0    0 -0.20852416572E+01  0.19243655035E+02  0.21357656031E+02  0.96176121652E+02  0.91755274579E+02 0.  0.
         11    1    3    3    0    0  0.32108563708E+02  0.36238542095E+02 -0.65811308797E+01  0.48862082236E+02  0.51100000000E-03 0. -1.
         22    1    1    0    0    0  0.20852416572E+01 -0.19243655035E+02 -0.21357656031E+02  0.28823878348E+02  0.00000000000E+00 0. -1.
</event>
<event>
 5    1  0.1681104E-003  0.9118800E+02  0.7818608E-02  0.1130116E+00
         25   -1    0    0    0    0  0.00000000000E+00  0.00000000000E+00  0.99999998245E-14  0.12500000000E+03  0.12500000000E+03 0.  0.
        -11    1    3    3    0    0  0.15135188690E+02 -0.21832725352E+02  0.22082017849E+02  0.34545004639E+02  0.51100000000E-03 0. -1.
         23    2    1    0    0    0 -0.24451309772E+02  0.12086354363E+02 -0.10220751698E+02  0.95872516816E+02  0.91340731353E+02 0.  0.
         11    1    3    3    0    0 -0.39586498462E+02  0.33919079714E+02 -0.32302769547E+02  0.61327512177E+02  0.51100000000E-03 0.  1.
         22    1    1    0    0    0  0.24451309772E+02 -0.12086354363E+02  0.10220751698E+02  0.29127483184E+02  0.00000000000E+00 0.  1.
</event>
<event>
 5    1  0.1681104E-003  0.9118800E+02  0.7818608E-02  0.1130116E+00
         25   -1    0    0    0    0  0.00000000000E+00  0.00000000000E+00  0.99999998245E-14  0.12500000000E+03  0.12500000000E+03 0.  0.
        -11    1    3    3    0    0  0.27887861888E+02  0.70676728761E+01  0.21619759572E+02  0.35987481779E+02  0.51100000000E-03 0. -1.
         23    2    1    0    0    0 -0.19587249092E+00 -0.16976681018E+02 -0.24559892478E+02  0.95143101585E+02  0.90337010113E+02 0.  0.
         11    1    3    3    0    0 -0.28083734379E+02 -0.24044353894E+02 -0.46179652051E+02  0.59155619806E+02  0.51100000000E-03 0.  1.
         22    1    1    0    0    0  0.19587249092E+00  0.16976681018E+02  0.24559892478E+02  0.29856898415E+02  0.00000000000E+00 0.  1.
</event>
<event>
 5    1  0.1681104E-003  0.9118800E+02  0.7818608E-02  0.1130116E+00
         25   -1    0    0    0    0  0.00000000000E+00  0.00000000000E+00  0.99999998245E-14  0.12500000000E+03  0.12500000000E+03 0.  0.
        -11    1    3    3    0    0  0.20697153914E+02  0.37715117828E+02 -0.20699288984E+02  0.47741626047E+02  0.51100000000E-03 0.  1.
         23    2    1    0    0    0  0.27033304222E+02 -0.80512259960E+01 -0.88038989070E+01  0.95451219768E+02  0.90762354212E+02 0.  0.
         11    1    3    3    0    0  0.63361503086E+01 -0.45766343824E+02  0.11895390077E+02  0.47709593722E+02  0.51100000000E-03 0. -1.
         22    1    1    0    0    0 -0.27033304222E+02  0.80512259960E+01  0.88038989070E+01  0.29548780232E+02  0.00000000000E+00 0.  1.
</event>
<event>
 5    1  0.1681104E-003  0.9118800E+02  0.7818608E-02  0.1130116E+00
         25   -1    0    0    0    0  0.00000000000E+00  0.00000000000E+00  0.99999998245E-14  0.12500000000E+03  0.12500000000E+03 0.  0.
        -11    1    3    3    0    0  0.33851630381E+02  0.80620881276E+00  0.33244423585E+02  0.47452866635E+02  0.51100000000E-03 0.  1.
         23    2    1    0    0    0  0.92281978007E+01  0.28192846227E+02  0.28596780702E+01  0.95197752237E+02  0.90412599008E+02 0.  0.
         11    1    3    3    0    0 -0.24623432580E+02  0.27386637415E+02 -0.30384745515E+02  0.47744885602E+02  0.51100000000E-03 0. -1.
         22    1    1    0    0    0 -0.92281978007E+01 -0.28192846227E+02 -0.28596780702E+01  0.29802247763E+02  0.00000000000E+00 0. -1.
</event>
<event>
 5    1  0.1681104E-003  0.9118800E+02  0.7818608E-02  0.1130116E+00
         25   -1    0    0    0    0  0.00000000000E+00  0.00000000000E+00  0.99999998245E-14  0.12500000000E+03  0.12500000000E+03 0.  0.
        -11    1    3    3    0    0  0.33697573798E+02  0.24675727765E+02  0.43404863150E+02  0.60236203116E+02  0.51100000000E-03 0. -1.
         23    2    1    0    0    0  0.53084692978E+01  0.17906166849E+02  0.19891285899E+02  0.97714950757E+02  0.93828235032E+02 0.  0.
         11    1    3    3    0    0 -0.28389104500E+02 -0.67695609164E+01 -0.23513577251E+02  0.37478747640E+02  0.51100000000E-03 0.  1.
         22    1    1    0    0    0 -0.53084692978E+01 -0.17906166849E+02 -0.19891285899E+02  0.27285049243E+02  0.00000000000E+00 0. -1.
</event>
<event>
 5    1  0.1681104E-003  0.9118800E+02  0.7818608E-02  0.1130116E+00
         25   -1    0    0    0    0  0.00000000000E+00  0.00000000000E+00  0.99999998245E-14  0.12500000000E+03  0.12500000000E+03 0.  0.
        -11    1    3    3    0    0 -0.30850708815E+02 -0.74222040873E+01 -0.51344139203E+00  0.31735137785E+02  0.51100000000E-03 0. -1.
         23    2    1    0    0    0  0.30362398951E+02  0.39788383998E+01  0.37633041170E+01  0.94147627596E+02  0.88948900494E+02 0.  0.
         11    1    3    3    0    0  0.61213107765E+02  0.11401042487E+02  0.42767455091E+01  0.62412489812E+02  0.51100000000E-03 0.  1.
         22    1    1    0    0    0 -0.30362398951E+02 -0.39788383998E+01 -0.37633041170E+01  0.30852372404E+02  0.00000000000E+00 0.  1.
</event>
<event>
 5    1  0.1681104E-003  0.9118800E+02  0.7818608E-02  0.1130116E+00
         25   -1    0    0    0    0  0.00000000000E+00  0.00000000000E+00  0.99999998245E-14  0.12500000000E+03  0.12500000000E+03 0.  0.
        -11    1    3    3    0    0  0.30338767590E+02  0.72613288333E+01 -0.41032800494E+02  0.51544722639E+02  0.51100000000E-03 0.  1.
         23    2    1    0    0    0  0.61174667341E+01  0.27031855088E+02 -0.10168789853E+02  0.95477993364E+02  0.90799219937E+02 0.  0.
         11    1    3    3    0    0 -0.24221300855E+02  0.19770526254E+02  0.30864010641E+02  0.43933270725E+02  0.51100000000E-03 0. -1.
         22    1    1    0    0    0 -0.61174667341E+01 -0.27031855088E+02  0.10168789853E+02  0.29522006636E+02  0.00000000000E+00 0.  1.
</event>
<event>
 5    1  0.1681104E-003  0.9118800E+02  0.7818608E-02  0.1130116E+00
         25   -1    0    0    0    0  0.00000000000E+00  0.00000000000E+00  0.99999998245E-14  0.12500000000E+03  0.12500000000E+03 0.  0.
        -11    1    3    3    0    0 -0.35559132133E+02  0.14727187886E+02 -0.48902075021E+02  0.62231462161E+02  0.51100000000E-03 0. -1.
         23    2    1    0    0    0 -0.17944992509E+02  0.30177795305E+01 -0.22977727322E+02  0.95689495018E+02  0.91089921256E+02 0.  0.
         11    1    3    3    0    0  0.17614139624E+02 -0.11709408355E+02  0.25924347700E+02  0.33458032857E+02  0.51100000000E-03 0.  1.
         22    1    1    0    0    0  0.17944992509E+02 -0.30177795305E+01  0.22977727322E+02  0.29310504982E+02  0.00000000000E+00 0. -1.
</event>
<event>
 5    1  0.1681104E-003  0.9118800E+02  0.7818608E-02  0.1130116E+00
         25   -1    0    0    0    0  0.00000000000E+00  0.00000000000E+00  0.99999998245E-14  0.12500000000E+03  0.12500000000E+03 0.  0.
        -11    1    3    3    0    0 -0.18016788777E+02 -0.26111083360E+02 -0.42595129958E+01  0.32008386453E+02  0.51100000000E-03 0. -1.
         23    2    1    0    0    0 -0.17717060788E+02  0.31024835516E+02 -0.27903091037E+01  0.89163977807E+02  0.81645541530E+02 0.  0.
         11    1    3    3    0    0  0.29972798916E+00  0.57135918876E+02  0.14692038921E+01  0.57155591354E+02  0.51100000000E-03 0.  1.
         22    1    1    0    0    0  0.17717060788E+02 -0.31024835516E+02  0.27903091037E+01  0.35836022193E+02  0.00000000000E+00 0.  1.
</event>
<event>
 5    1  0.1681104E-003  0.9118800E+02  0.7818608E-02  0.1130116E+00
         25   -1    0    0    0    0  0.00000000000E+00  0.00000000000E+00  0.99999998245E-14  0.12500000000E+03  0.12500000000E+03 0.  0.
        -11    1    3    3    0    0  0.12926969740E+02  0.27250270837E+02  0.28249973107E+02  0.41324868883E+02  0.51100000000E-03 0. -1.
         23    2    1    0    0    0 -0.13150074000E+01  0.19472099761E+02 -0.22855944289E+02  0.94945281520E+02  0.90062869042E+02 0.  0.
         11    1    3    3    0    0 -0.14241977140E+02 -0.77781710767E+01 -0.51105917397E+02  0.53620412637E+02  0.51100000000E-03 0.  1.
         22    1    1    0    0    0  0.13150074000E+01 -0.19472099761E+02  0.22855944289E+02  0.30054718480E+02  0.00000000000E+00 0.  1.
</event>
<event>
 5    1  0.1681104E-003  0.9118800E+02  0.7818608E-02  0.1130116E+00
         25   -1    0    0    0    0  0.00000000000E+00  0.00000000000E+00  0.99999998245E-14  0.12500000000E+03  0.12500000000E+03 0.  0.
        -11    1    3    3    0    0  0.29642135931E+02  0.29247663755E+01  0.22262229754E+02  0.37186252228E+02  0.51100000000E-03 0.  1.
         23    2    1    0    0    0 -0.46236953456E+01 -0.25202281894E+02 -0.15183641674E+02  0.95216169725E+02  0.90438058534E+02 0.  0.
         11    1    3    3    0    0 -0.34265831277E+02 -0.28127048270E+02 -0.37445871428E+02  0.58029917497E+02  0.51100000000E-03 0. -1.
         22    1    1    0    0    0  0.46236953456E+01  0.25202281894E+02  0.15183641674E+02  0.29783830275E+02  0.00000000000E+00 0. -1.
</event>
<event>
 5    1  0.1681104E-003  0.9118800E+02  0.7818608E-02  0.1130116E+00
         25   -1    0    0    0    0  0.00000000000E+00  0.00000000000E+00  0.99999998245E-14  0.12500000000E+03  0.12500000000E+03 0.  0.
        -11    1    3    3    0    0 -0.20930080629E+02  0.24155848400E+02 -0.46372305097E+02  0.56320191471E+02  0.51100000000E-03 0.  1.
         23    2    1    0    0    0  0.10199330216E+02  0.12090644728E+02 -0.23046407438E+02  0.97047416531E+02  0.92934676697E+02 0.  0.
         11    1    3    3    0    0  0.31129410845E+02 -0.12065203672E+02  0.23325897660E+02  0.40727225060E+02  0.51100000000E-03 0. -1.
         22    1    1    0    0    0 -0.10199330216E+02 -0.12090644728E+02  0.23046407438E+02  0.27952583469E+02  0.00000000000E+00 0.  1.
</event>
<event>
 5    1  0.1681104E-003  0.9118800E+02  0.7818608E-02  0.1130116E+00
         25   -1    0    0    0    0  0.00000000000E+00  0.00000000000E+00  0.99999998245E-14  0.12500000000E+03  0.12500000000E+03 0.  0.
        -11    1    3    3    0    0  0.16796343616E+02  0.52175994614E+02  0.75526684616E+01  0.55330772396E+02  0.51100000000E-03 0.  1.
         23    2    1    0    0    0 -0.11494328586E+02  0.26139101411E+02 -0.54725833685E+01  0.95925588897E+02  0.91413331765E+02 0.  0.
         11    1    3    3    0    0 -0.28290672202E+02 -0.26036893202E+02 -0.13025251830E+02  0.40594816501E+02  0.51100000000E-03 0. -1.
         22    1    1    0    0    0  0.11494328586E+02 -0.26139101411E+02  0.54725833685E+01  0.29074411103E+02  0.00000000000E+00 0.  1.
</event>
<event>
 5    1  0.1681104E-003  0.9118800E+02  0.7818608E-02  0.1130116E+00
         25   -1    0    0    0    0  0.00000000000E+00  0.00000000000E+00  0.99999998245E-14  0.12500000000E+03  0.12500000000E+03 0.  0.
        -11    1    3    3    0    0  0.24427007869E+02 -0.98251104129E+01  0.35090397497E+02  0.43869664973E+02  0.51100000000E-03 0.  1.
         23    2    1    0    0    0 -0.22217933257E+02 -0.52917806573E+01  0.43427415252E+00  0.10215644304E+03  0.99569627693E+02 0.  0.
         11    1    3    3    0    0 -0.46644941126E+02  0.45333297556E+01 -0.34656123345E+02  0.58286778063E+02  0.51100000000E-03 0. -1.
         22    1    1    0    0    0  0.22217933257E+02  0.52917806573E+01 -0.43427415252E+00  0.22843556964E+02  0.00000000000E+00 0. -1.
</event>
<event>
 5    1  0.1681104E-003  0.9118800E+02  0.7818608E-02  0.1130116E+00
         25   -1    0    0    0    0  0.00000000000E+00  0.00000000000E+00  0.99999998245E-14  0.12500000000E+03  0.12500000000E+03 0.  0.
        -11    1    3    3    0    0  0.14231350705E+02  0.33801675222E+02  0.18983659800E+02  0.41297262989E+02  0.51100000000E-03 0.  1.
         23    2    1    0    0    0  0.10911763454E+02  0.53625309680E+01 -0.26955887060E+02  0.95429014774E+02  0.90731767830E+02 0.  0.
         11    1    3    3    0    0 -0.33195872512E+01 -0.28439144254E+02 -0.45939546860E+02  0.54131751785E+02  0.51100000000E-03 0. -1.
         22    1    1    0    0    0 -0.10911763454E+02 -0.53625309680E+01  0.26955887060E+02  0.29570985226E+02  0.00000000000E+00 0. -1.
</event>
<event>
 5    1  0.1681104E-003  0.9118800E+02  0.7818608E-02  0.1130116E+00
         25   -1    0    0    0    0  0.00000000000E+00  0.00000000000E+00  0.99999998245E-14  0.12500000000E+03  0.12500000000E+03 0.  0.
        -11    1    3    3    0    0  0.39425674033E+02  0.33814753736E+02  0.17951829239E+02  0.54955341110E+02  0.51100000000E-03 0. -1.
         23    2    1    0    0    0  0.22702272685E+01  0.91182870827E+01  0.23287986266E+02  0.99887704296E+02  0.96679501830E+02 0.  0.
         11    1    3    3    0    0 -0.37155446765E+02 -0.24696466654E+02  0.53361570274E+01  0.44932363187E+02  0.51100000000E-03 0.  1.
         22    1    1    0    0    0 -0.22702272685E+01 -0.91182870827E+01 -0.23287986266E+02  0.25112295704E+02  0.00000000000E+00 0. -1.
</event>
<event>
 5    1  0.1681104E-003  0.9118800E+02  0.7818608E-02  0.1130116E+00
         25   -1    0    0    0    0  0.00000000000E+00  0.00000000000E+00  0.99999998245E-14  0.12500000000E+03  0.12500000000E+03 0.  0.
        -11    1    3    3    0    0 -0.27737218957E+02  0.18867913274E+02  0.60267103327E+01  0.34083320034E+02  0.51100000000E-03 0. -1.
         23    2    1    0    0    0  0.15922431986E+02 -0.22483108208E+02 -0.89107472725E+01  0.96044596152E+02  0.91575919531E+02 0.  0.
         11    1    3    3    0    0  0.43659650944E+02 -0.41351021483E+02 -0.14937457605E+02  0.61961276118E+02  0.51100000000E-03 0.  1.
         22    1    1    0    0    0 -0.15922431986E+02  0.22483108208E+02  0.89107472725E+01  0.28955403848E+02  0.00000000000E+00 0.  1.
</event>
<event>
 5    1  0.1681104E-003  0.9118800E+02  0.7818608E-02  0.1130116E+00
         25   -1    0    0    0    0  0.00000000000E+00  0.00000000000E+00  0.99999998245E-14  0.12500000000E+03  0.12500000000E+03 0.  0.
        -11    1    3    3    0    0 -0.14726687376E+02  0.87585168408E+01 -0.29973136776E+02  0.34525003501E+02  0.51100000000E-03 0. -1.
         23    2    1    0    0    0  0.16613421891E+02  0.60779697161E+01  0.22909611415E+02  0.96055263035E+02  0.91590478537E+02 0.  0.
         11    1    3    3    0    0  0.31340109267E+02 -0.26805471247E+01  0.52882748191E+02  0.61530259533E+02  0.51100000000E-03 0.  1.
         22    1    1    0    0    0 -0.16613421891E+02 -0.60779697161E+01 -0.22909611415E+02  0.28944736965E+02  0.00000000000E+00 0.  1.
</event>
<event>
 5    1  0.1681104E-003  0.9118800E+02  0.7818608E-02  0.1130116E+00
         25   -1    0    0    0    0  0.00000000000E+00  0.00000000000E+00  0.99999998245E-14  0.12500000000E+03  0.12500000000E+03 0.  0.
        -11    1    3    3    0    0  0.22231414116E+01 -0.42136198958E+02 -0.10578397547E+02  0.43500622010E+02  0.51100000000E-03 0. -1.
         23    2    1    0    0    0  0.17562622222E+02 -0.46789421639E+01  0.22713654642E+02  0.95909652695E+02  0.91391537758E+02 0.  0.
         11    1    3    3    0    0  0.15339480811E+02  0.37457256794E+02  0.33292052189E+02  0.52409030685E+02  0.51100000000E-03 0.  1.
         22    1    1    0    0    0 -0.17562622222E+02  0.46789421639E+01 -0.22713654642E+02  0.29090347305E+02  0.00000000000E+00 0.  1.
</event>
<event>
 5    1  0.1681104E-003  0.9118800E+02  0.7818608E-02  0.1130116E+00
         25   -1    0    0    0    0  0.00000000000E+00  0.00000000000E+00  0.99999998245E-14  0.12500000000E+03  0.12500000000E+03 0.  0.
        -11    1    3    3    0    0 -0.27955574927E+02  0.22009077075E+02 -0.18921567073E+02  0.40298130775E+02  0.51100000000E-03 0.  1.
         23    2    1    0    0    0  0.11440426948E+02  0.23079180971E+01 -0.35705900915E+02  0.87435106617E+02  0.78954269387E+02 0.  0.
         11    1    3    3    0    0  0.39396001875E+02 -0.19701158978E+02 -0.16784333842E+02  0.47136975843E+02  0.51100000000E-03 0. -1.
         22    1    1    0    0    0 -0.11440426948E+02 -0.23079180971E+01  0.35705900915E+02  0.37564893383E+02  0.00000000000E+00 0. -1.
</event>
<event>
 5    1  0.1681104E-003  0.9118800E+02  0.7818608E-02  0.1130116E+00
         25   -1    0    0    0    0  0.00000000000E+00  0.00000000000E+00  0.99999998245E-14  0.12500000000E+03  0.12500000000E+03 0.  0.
        -11    1    3    3    0    0  0.46423315971E+02  0.67311642513E+01  0.14701392150E+02  0.49158557437E+02  0.51100000000E-03 0.  1.
         23    2    1    0    0    0  0.49568685073E+01  0.11826355299E+02  0.28980179171E+02  0.93309559646E+02  0.87763260603E+02 0.  0.
         11    1    3    3    0    0 -0.41466447463E+02  0.50951910472E+01  0.14278787020E+02  0.44151002209E+02  0.51100000000E-03 0. -1.
         22    1    1    0    0    0 -0.49568685073E+01 -0.11826355299E+02 -0.28980179171E+02  0.31690440354E+02  0.00000000000E+00 0.  1.
</event>
<event>
 5    1  0.1681104E-003  0.9118800E+02  0.7818608E-02  0.1130116E+00
         25   -1    0    0    0    0  0.00000000000E+00  0.00000000000E+00  0.99999998245E-14  0.12500000000E+03  0.12500000000E+03 0.  0.
        -11    1    3    3    0    0  0.11302456346E+02 -0.60937369597E+02  0.64093538817E+01  0.62307209457E+02  0.51100000000E-03 0. -1.
         23    2    1    0    0    0  0.54633729456E+01 -0.27872369780E+02  0.64057940433E+01  0.95883825141E+02  0.91356205510E+02 0.  0.
         11    1    3    3    0    0 -0.58390834002E+01  0.33064999817E+02 -0.35598383266E-02  0.33576615684E+02  0.51100000000E-03 0.  1.
         22    1    1    0    0    0 -0.54633729456E+01  0.27872369780E+02 -0.64057940433E+01  0.29116174859E+02  0.00000000000E+00 0. -1.
</event>
<event>
 5    1  0.1681104E-003  0.9118800E+02  0.7818608E-02  0.1130116E+00
         25   -1    0    0    0    0  0.00000000000E+00  0.00000000000E+00  0.99999998245E-14  0.12500000000E+03  0.12500000000E+03 0.  0.
        -11    1    3    3    0    0  0.10846263907E+02 -0.28623559090E+02 -0.38400499371E+02  0.49107513966E+02  0.51100000000E-03 0.  1.
         23    2    1    0    0    0 -0.22358624040E+02 -0.17039358380E+02 -0.75415277858E+01  0.95894632036E+02  0.91370991069E+02 0.  0.
         11    1    3    3    0    0 -0.33204887948E+02  0.11584200709E+02  0.30858971585E+02  0.46787118070E+02  0.51100000000E-03 0. -1.
         22    1    1    0    0    0  0.22358624040E+02  0.17039358380E+02  0.75415277858E+01  0.29105367964E+02  0.00000000000E+00 0.  1.
</event>
<event>
 5    1  0.1681104E-003  0.9118800E+02  0.7818608E-02  0.1130116E+00
         25   -1    0    0    0    0  0.00000000000E+00  0.00000000000E+00  0.99999998245E-14  0.12500000000E+03  0.12500000000E+03 0.  0.
        -11    1    3    3    0    0 -0.11057539155E+02 -0.29324187199E+02  0.32857216116E+02  0.45406759169E+02  0.51100000000E-03 0. -1.
         23    2    1    0    0    0 -0.23581213006E+02 -0.87383864069E+01 -0.12612252083E+02  0.96866356325E+02  0.92690825227E+02 0.  0.
         11    1    3    3    0    0 -0.12523673851E+02  0.20585800792E+02 -0.45469468199E+02  0.51459597157E+02  0.51100000000E-03 0.  1.
         22    1    1    0    0    0  0.23581213006E+02  0.87383864069E+01  0.12612252083E+02  0.28133643675E+02  0.00000000000E+00 0.  1.
</event>
<event>
 4    1  0.1681104E-003  0.9118800E+02  0.7818608E-02  0.1130116E+00
         25   -1    0    0    0    0  0.00000000000E+00  0.00000000000E+00  0.99999998245E-14  0.12500000000E+03  0.12500000000E+03 0.  0.
        -11    1    1    0    0    0  0.12455022206E+02  0.57372220937E+00  0.34186998553E+01  0.12928427758E+02  0.51100000000E-03 0.  1.
         11    1    1    0    0    0  0.34834440031E+02 -0.37938229336E+02 -0.52700871034E+01  0.51773750837E+02  0.51100000000E-03 0. -1.
         22    1    1    0    0    0 -0.47289462237E+02  0.37364507126E+02  0.18513872481E+01  0.60297821405E+02  0.00000000000E+00 0. -1.
</event>
<event>
 5    1  0.1681104E-003  0.9118800E+02  0.7818608E-02  0.1130116E+00
         25   -1    0    0    0    0  0.00000000000E+00  0.00000000000E+00  0.99999998245E-14  0.12500000000E+03  0.12500000000E+03 0.  0.
        -11    1    3    3    0    0  0.60682745134E+02 -0.27008281137E+01  0.10002160590E+02  0.61560809337E+02  0.51100000000E-03 0.  1.
         23    2    1    0    0    0  0.26838552815E+02  0.47277903373E+01 -0.42267593702E+00  0.97744934899E+02  0.93868172054E+02 0.  0.
         11    1    3    3    0    0 -0.33844192319E+02  0.74286184509E+01 -0.10424836527E+02  0.36184125562E+02  0.51100000000E-03 0. -1.
         22    1    1    0    0    0 -0.26838552815E+02 -0.47277903373E+01  0.42267593702E+00  0.27255065101E+02  0.00000000000E+00 0.  1.
</event>
<event>
 5    1  0.1681104E-003  0.9118800E+02  0.7818608E-02  0.1130116E+00
         25   -1    0    0    0    0  0.00000000000E+00  0.00000000000E+00  0.99999998245E-14  0.12500000000E+03  0.12500000000E+03 0.  0.
        -11    1    3    3    0    0 -0.17722511870E+02  0.52149617294E+01 -0.40566856062E+02  0.44575251697E+02  0.51100000000E-03 0.  1.
         23    2    1    0    0    0  0.21648323377E+02  0.17117278208E+02 -0.10724834167E+02  0.95391332583E+02  0.90679838695E+02 0.  0.
         11    1    3    3    0    0  0.39370835247E+02  0.11902316478E+02  0.29842021895E+02  0.50816080886E+02  0.51100000000E-03 0. -1.
         22    1    1    0    0    0 -0.21648323377E+02 -0.17117278208E+02  0.10724834167E+02  0.29608667417E+02  0.00000000000E+00 0. -1.
</event>
<event>
 5    1  0.1681104E-003  0.9118800E+02  0.7818608E-02  0.1130116E+00
         25   -1    0    0    0    0  0.00000000000E+00  0.00000000000E+00  0.99999998245E-14  0.12500000000E+03  0.12500000000E+03 0.  0.
        -11    1    3    3    0    0  0.19572266547E+02 -0.48829026891E+02  0.12619725676E+01  0.52620718923E+02  0.51100000000E-03 0.  1.
         23    2    1    0    0    0  0.23366689698E+02 -0.87407783185E+01  0.15842780926E+02  0.95446707450E+02  0.90756139531E+02 0.  0.
         11    1    3    3    0    0  0.37944231511E+01  0.40088248573E+02  0.14580808358E+02  0.42825988527E+02  0.51100000000E-03 0. -1.
         22    1    1    0    0    0 -0.23366689698E+02  0.87407783185E+01 -0.15842780926E+02  0.29553292550E+02  0.00000000000E+00 0.  1.
</event>
<event>
 5    1  0.1681104E-003  0.9118800E+02  0.7818608E-02  0.1130116E+00
         25   -1    0    0    0    0  0.00000000000E+00  0.00000000000E+00  0.99999998245E-14  0.12500000000E+03  0.12500000000E+03 0.  0.
        -11    1    3    3    0    0 -0.32142299945E+02  0.33844602655E+01  0.49845439384E+02  0.59406648153E+02  0.51100000000E-03 0. -1.
         23    2    1    0    0    0 -0.20576822768E+01 -0.18023780708E+01  0.27807083557E+02  0.97058695110E+02  0.92949845494E+02 0.  0.
         11    1    3    3    0    0  0.30084617669E+02 -0.51868383364E+01 -0.22038355828E+02  0.37652046957E+02  0.51100000000E-03 0.  1.
         22    1    1    0    0    0  0.20576822768E+01  0.18023780708E+01 -0.27807083557E+02  0.27941304890E+02  0.00000000000E+00 0. -1.
</event>
<event>
 5    1  0.1681104E-003  0.9118800E+02  0.7818608E-02  0.1130116E+00
         25   -1    0    0    0    0  0.00000000000E+00  0.00000000000E+00  0.99999998245E-14  0.12500000000E+03  0.12500000000E+03 0.  0.
        -11    1    3    3    0    0  0.36096026221E+02 -0.34983541861E+02  0.93539501052E+01  0.51129909964E+02  0.51100000000E-03 0.  1.
         23    2    1    0    0    0  0.11415910138E+02 -0.28785180239E+01  0.27183735385E+02  0.95376287543E+02  0.90659097093E+02 0.  0.
         11    1    3    3    0    0 -0.24680116084E+02  0.32105023837E+02  0.17829785280E+02  0.44246377579E+02  0.51100000000E-03 0. -1.
         22    1    1    0    0    0 -0.11415910138E+02  0.28785180239E+01 -0.27183735385E+02  0.29623712457E+02  0.00000000000E+00 0.  1.
</event>
<event>
 5    1  0.1681104E-003  0.9118800E+02  0.7818608E-02  0.1130116E+00
         25   -1    0    0    0    0  0.00000000000E+00  0.00000000000E+00  0.99999998245E-14  0.12500000000E+03  0.12500000000E+03 0.  0.
        -11    1    3    3    0    0  0.34637228141E+02 -0.12038619976E+02 -0.35488991123E+02  0.51030720507E+02  0.51100000000E-03 0.  1.
         23    2    1    0    0    0  0.25705725979E+02 -0.10220700937E+02  0.85834844785E+01  0.96035827622E+02  0.91563949814E+02 0.  0.
         11    1    3    3    0    0 -0.89315021623E+01  0.18179190383E+01  0.44072475602E+02  0.45005107115E+02  0.51100000000E-03 0. -1.
         22    1    1    0    0    0 -0.25705725979E+02  0.10220700937E+02 -0.85834844785E+01  0.28964172378E+02  0.00000000000E+00 0. -1.
</event>
<event>
 5    1  0.1681104E-003  0.9118800E+02  0.7818608E-02  0.1130116E+00
         25   -1    0    0    0    0  0.00000000000E+00  0.00000000000E+00  0.99999998245E-14  0.12500000000E+03  0.12500000000E+03 0.  0.
        -11    1    3    3    0    0 -0.33501516109E+01  0.18512933098E+02  0.26748236735E+02  0.32701993462E+02  0.51100000000E-03 0. -1.
         23    2    1    0    0    0 -0.97522825845E+01 -0.18914078236E+02 -0.21932816212E+02  0.94440258540E+02  0.89359188867E+02 0.  0.
         11    1    3    3    0    0 -0.64021309735E+01 -0.37427011334E+02 -0.48681052947E+02  0.61738265077E+02  0.51100000000E-03 0.  1.
         22    1    1    0    0    0  0.97522825845E+01  0.18914078236E+02  0.21932816212E+02  0.30559741460E+02  0.00000000000E+00 0.  1.
</event>
<event>
 5    1  0.1681104E-003  0.9118800E+02  0.7818608E-02  0.1130116E+00
         25   -1    0    0    0    0  0.00000000000E+00  0.00000000000E+00  0.99999998245E-14  0.12500000000E+03  0.12500000000E+03 0.  0.
        -11    1    3    3    0    0  0.91333133312E-01  0.38576521189E+02  0.26540214558E+02  0.46824558918E+02  0.51100000000E-03 0.  1.
         23    2    1    0    0    0  0.28988749735E+02  0.53201015918E+01  0.10343126594E+02  0.93764901795E+02  0.88409419457E+02 0.  0.
         11    1    3    3    0    0  0.28897416601E+02 -0.33256419597E+02 -0.16197087964E+02  0.46940342877E+02  0.51100000000E-03 0. -1.
         22    1    1    0    0    0 -0.28988749735E+02 -0.53201015918E+01 -0.10343126594E+02  0.31235098205E+02  0.00000000000E+00 0.  1.
</event>
<event>
 5    1  0.1681104E-003  0.9118800E+02  0.7818608E-02  0.1130116E+00
         25   -1    0    0    0    0  0.00000000000E+00  0.00000000000E+00  0.99999998245E-14  0.12500000000E+03  0.12500000000E+03 0.  0.
        -11    1    3    3    0    0  0.14985190837E+02  0.28156178520E+02 -0.45373877735E+02  0.55462736268E+02  0.51100000000E-03 0. -1.
         23    2    1    0    0    0 -0.12906886371E+02  0.19692501541E+02 -0.20109896777E+02  0.94035661139E+02  0.88791414476E+02 0.  0.
         11    1    3    3    0    0 -0.27892077208E+02 -0.84636769800E+01  0.25263980958E+02  0.38572924871E+02  0.51100000000E-03 0.  1.
         22    1    1    0    0    0  0.12906886371E+02 -0.19692501541E+02  0.20109896777E+02  0.30964338861E+02  0.00000000000E+00 0. -1.
</event>
<event>
 5    1  0.1681104E-003  0.9118800E+02  0.7818608E-02  0.1130116E+00
         25   -1    0    0    0    0  0.00000000000E+00  0.00000000000E+00  0.99999998245E-14  0.12500000000E+03  0.12500000000E+03 0.  0.
        -11    1    3    3    0    0 -0.17200259336E+02  0.19974053300E+02 -0.54489658008E+02  0.60530443221E+02  0.51100000000E-03 0.  1.
         23    2    1    0    0    0 -0.18806238752E+02  0.11144481645E+02 -0.23022212807E+02  0.93252616334E+02  0.87682119519E+02 0.  0.
         11    1    3    3    0    0 -0.16059794164E+01 -0.88295716552E+01  0.31467445201E+02  0.32722173113E+02  0.51100000000E-03 0. -1.
         22    1    1    0    0    0  0.18806238752E+02 -0.11144481645E+02  0.23022212807E+02  0.31747383666E+02  0.00000000000E+00 0.  1.
</event>
<event>
 5    1  0.1681104E-003  0.9118800E+02  0.7818608E-02  0.1130116E+00
         25   -1    0    0    0    0  0.00000000000E+00  0.00000000000E+00  0.99999998245E-14  0.12500000000E+03  0.12500000000E+03 0.  0.
        -11    1    3    3    0    0  0.20489957939E+02  0.18055140084E+02 -0.14426073746E+02  0.30885887777E+02  0.51100000000E-03 0. -1.
         23    2    1    0    0    0 -0.33625429590E+02  0.97117694468E+01  0.63105467061E+01  0.89435818853E+02  0.82060677022E+02 0.  0.
         11    1    3    3    0    0 -0.54115387529E+02 -0.83433706372E+01  0.20736620452E+02  0.58549931076E+02  0.51100000000E-03 0.  1.
         22    1    1    0    0    0  0.33625429590E+02 -0.97117694468E+01 -0.63105467061E+01  0.35564181147E+02  0.00000000000E+00 0.  1.
</event>
<event>
 5    1  0.1681104E-003  0.9118800E+02  0.7818608E-02  0.1130116E+00
         25   -1    0    0    0    0  0.00000000000E+00  0.00000000000E+00  0.99999998245E-14  0.12500000000E+03  0.12500000000E+03 0.  0.
        -11    1    3    3    0    0 -0.89346244708E+01  0.29802340876E+01 -0.47757774197E+02  0.48677657155E+02  0.51100000000E-03 0.  1.
         23    2    1    0    0    0  0.14857424788E+02 -0.20909758545E+02 -0.17824024208E+02  0.93764492757E+02  0.88408841126E+02 0.  0.
         11    1    3    3    0    0  0.23792049259E+02 -0.23889992633E+02  0.29933749989E+02  0.45086835602E+02  0.51100000000E-03 0. -1.
         22    1    1    0    0    0 -0.14857424788E+02  0.20909758545E+02  0.17824024208E+02  0.31235507243E+02  0.00000000000E+00 0. -1.
</event>
<event>
 5    1  0.1681104E-003  0.9118800E+02  0.7818608E-02  0.1130116E+00
         25   -1    0    0    0    0  0.00000000000E+00  0.00000000000E+00  0.99999998245E-14  0.12500000000E+03  0.12500000000E+03 0.  0.
        -11    1    3    3    0    0  0.22573544794E+02 -0.38861186607E+02  0.65140968854E+01  0.45411344480E+02  0.51100000000E-03 0. -1.
         23    2    1    0    0    0  0.24168991847E+02 -0.81541119936E+01 -0.24889039693E+02  0.89361621724E+02  0.81947577335E+02 0.  0.
         11    1    3    3    0    0  0.15954470531E+01  0.30707074613E+02 -0.31403136578E+02  0.43950277244E+02  0.51100000000E-03 0.  1.
         22    1    1    0    0    0 -0.24168991847E+02  0.81541119936E+01  0.24889039693E+02  0.35638378276E+02  0.00000000000E+00 0. -1.
</event>
<event>
 5    1  0.1681104E-003  0.9118800E+02  0.7818608E-02  0.1130116E+00
         25   -1    0    0    0    0  0.00000000000E+00  0.00000000000E+00  0.99999998245E-14  0.12500000000E+03  0.12500000000E+03 0.  0.
        -11    1    3    3    0    0 -0.52441411552E+01  0.48501419370E+02  0.35193796006E+02  0.60153902408E+02  0.51100000000E-03 0. -1.
         23    2    1    0    0    0 -0.57353422463E+01  0.14939882674E+02  0.25151409599E+02  0.95189135373E+02  0.90400684971E+02 0.  0.
         11    1    3    3    0    0 -0.49120109109E+00 -0.33561536696E+02 -0.10042386406E+02  0.35035232965E+02  0.51100000000E-03 0.  1.
         22    1    1    0    0    0  0.57353422463E+01 -0.14939882674E+02 -0.25151409599E+02  0.29810864627E+02  0.00000000000E+00 0. -1.
</event>
<event>
 5    1  0.1681104E-003  0.9118800E+02  0.7818608E-02  0.1130116E+00
         25   -1    0    0    0    0  0.00000000000E+00  0.00000000000E+00  0.99999998245E-14  0.12500000000E+03  0.12500000000E+03 0.  0.
        -11    1    3    3    0    0  0.55794440552E+02  0.35246276588E+01  0.18917247414E+02  0.59019529367E+02  0.51100000000E-03 0.  1.
         23    2    1    0    0    0  0.27539052751E+02 -0.12699393673E+02  0.59019782128E+01  0.94104897266E+02  0.88888831225E+02 0.  0.
         11    1    3    3    0    0 -0.28255387802E+02 -0.16224021332E+02 -0.13015269201E+02  0.35085367900E+02  0.51100000000E-03 0. -1.
         22    1    1    0    0    0 -0.27539052751E+02  0.12699393673E+02 -0.59019782128E+01  0.30895102734E+02  0.00000000000E+00 0.  1.
</event>
<event>
 5    1  0.1681104E-003  0.9118800E+02  0.7818608E-02  0.1130116E+00
         25   -1    0    0    0    0  0.00000000000E+00  0.00000000000E+00  0.99999998245E-14  0.12500000000E+03  0.12500000000E+03 0.  0.
        -11    1    3    3    0    0 -0.56798368637E+02  0.23618345482E+02  0.79256570228E+01  0.62021745885E+02  0.51100000000E-03 0.  1.
         23    2    1    0    0    0 -0.23738529488E+02  0.15218005980E+02  0.58966758669E+01  0.96192426785E+02  0.91777484691E+02 0.  0.
         11    1    3    3    0    0  0.33059839150E+02 -0.84003395015E+01 -0.20289811558E+01  0.34170680899E+02  0.51100000000E-03 0. -1.
         22    1    1    0    0    0  0.23738529488E+02 -0.15218005980E+02 -0.58966758669E+01  0.28807573215E+02  0.00000000000E+00 0.  1.
</event>
<event>
 5    1  0.1681104E-003  0.9118800E+02  0.7818608E-02  0.1130116E+00
         25   -1    0    0    0    0  0.00000000000E+00  0.00000000000E+00  0.99999998245E-14  0.12500000000E+03  0.12500000000E+03 0.  0.
        -11    1    3    3    0    0 -0.29003964137E+01  0.18933696100E+01  0.40115432392E+02  0.40264687557E+02  0.51100000000E-03 0. -1.
         23    2    1    0    0    0  0.64004462873E+01  0.26396111771E+02 -0.93751168376E+01  0.96266513524E+02  0.91878334667E+02 0.  0.
         11    1    3    3    0    0  0.93008427010E+01  0.24502742161E+02 -0.49490549229E+02  0.56001825967E+02  0.51100000000E-03 0.  1.
         22    1    1    0    0    0 -0.64004462873E+01 -0.26396111771E+02  0.93751168376E+01  0.28733486476E+02  0.00000000000E+00 0.  1.
</event>
<event>
 5    1  0.1681104E-003  0.9118800E+02  0.7818608E-02  0.1130116E+00
         25   -1    0    0    0    0  0.00000000000E+00  0.00000000000E+00  0.99999998245E-14  0.12500000000E+03  0.12500000000E+03 0.  0.
        -11    1    3    3    0    0  0.92560220368E+01 -0.36798694649E+02  0.17278190909E+01  0.37984249774E+02  0.51100000000E-03 0. -1.
         23    2    1    0    0    0  0.20699428388E+02  0.19104371785E+02  0.88145812813E+01  0.95484915720E+02  0.90808749193E+02 0.  0.
         11    1    3    3    0    0  0.11443406351E+02  0.55903066434E+02  0.70867621904E+01  0.57500665946E+02  0.51100000000E-03 0.  1.
         22    1    1    0    0    0 -0.20699428388E+02 -0.19104371785E+02 -0.88145812813E+01  0.29515084280E+02  0.00000000000E+00 0.  1.
</event>
<event>
 5    1  0.1681104E-003  0.9118800E+02  0.7818608E-02  0.1130116E+00
         25   -1    0    0    0    0  0.00000000000E+00  0.00000000000E+00  0.99999998245E-14  0.12500000000E+03  0.12500000000E+03 0.  0.
        -11    1    3    3    0    0  0.30011188535E+02  0.26619512040E+02 -0.15617042633E+02  0.43048366745E+02  0.51100000000E-03 0. -1.
         23    2    1    0    0    0 -0.19832453107E+02  0.23089477516E+02 -0.72241307667E+01  0.93716805893E+02  0.88341391620E+02 0.  0.
         11    1    3    3    0    0 -0.49843641642E+02 -0.35300345245E+01  0.83929118664E+01  0.50668439148E+02  0.51100000000E-03 0.  1.
         22    1    1    0    0    0  0.19832453107E+02 -0.23089477516E+02  0.72241307667E+01  0.31283194107E+02  0.00000000000E+00 0.  1.
</event>
<event>
 5    1  0.1681104E-003  0.9118800E+02  0.7818608E-02  0.1130116E+00
         25   -1    0    0    0    0  0.00000000000E+00  0.00000000000E+00  0.99999998245E-14  0.12500000000E+03  0.12500000000E+03 0.  0.
        -11    1    3    3    0    0  0.72671755284E+01  0.83002541835E+01  0.52275354864E+02  0.53426760955E+02  0.51100000000E-03 0.  1.
         23    2    1    0    0    0 -0.20427976237E+01 -0.19466801630E+02  0.19764411647E+02  0.97183433792E+02  0.93117444381E+02 0.  0.
         11    1    3    3    0    0 -0.93099731521E+01 -0.27767055814E+02 -0.32510943217E+02  0.43756672837E+02  0.51100000000E-03 0. -1.
         22    1    1    0    0    0  0.20427976237E+01  0.19466801630E+02 -0.19764411647E+02  0.27816566208E+02  0.00000000000E+00 0.  1.
</event>
<event>
 5    1  0.1681104E-003  0.9118800E+02  0.7818608E-02  0.1130116E+00
         25   -1    0    0    0    0  0.00000000000E+00  0.00000000000E+00  0.99999998245E-14  0.12500000000E+03  0.12500000000E+03 0.  0.
        -11    1    3    3    0    0  0.29321939828E+02  0.24015517619E+02 -0.40466845987E+02  0.55444448470E+02  0.51100000000E-03 0. -1.
         23    2    1    0    0    0 -0.52474763461E+01  0.20931471956E+02 -0.18960674527E+02  0.96274232738E+02  0.91888836017E+02 0.  0.
         11    1    3    3    0    0 -0.34569416174E+02 -0.30840456630E+01  0.21506171459E+02  0.40829784268E+02  0.51100000000E-03 0.  1.
         22    1    1    0    0    0  0.52474763461E+01 -0.20931471956E+02  0.18960674527E+02  0.28725767262E+02  0.00000000000E+00 0. -1.
</event>
<event>
 5    1  0.1681104E-003  0.9118800E+02  0.7818608E-02  0.1130116E+00
         25   -1    0    0    0    0  0.00000000000E+00  0.00000000000E+00  0.99999998245E-14  0.12500000000E+03  0.12500000000E+03 0.  0.
        -11    1    3    3    0    0  0.41248996753E+02  0.29593780613E+02 -0.44270929141E+01  0.50959500940E+02  0.51100000000E-03 0. -1.
         23    2    1    0    0    0  0.17681108745E+02  0.98922529489E+00  0.22204651927E+02  0.96598472923E+02  0.92328859144E+02 0.  0.
         11    1    3    3    0    0 -0.23567888008E+02 -0.28604555319E+02  0.26631744841E+02  0.45638971983E+02  0.51100000000E-03 0.  1.
         22    1    1    0    0    0 -0.17681108745E+02 -0.98922529489E+00 -0.22204651927E+02  0.28401527077E+02  0.00000000000E+00 0. -1.
</event>
<event>
 5    1  0.1681104E-003  0.9118800E+02  0.7818608E-02  0.1130116E+00
         25   -1    0    0    0    0  0.00000000000E+00  0.00000000000E+00  0.99999998245E-14  0.12500000000E+03  0.12500000000E+03 0.  0.
        -11    1    3    3    0    0  0.50764775013E+01 -0.22999581385E+02 -0.33375702449E+02  0.40849588516E+02  0.51100000000E-03 0. -1.
         23    2    1    0    0    0 -0.13216186882E+02 -0.21377827553E+02  0.17125910742E+02  0.94586583137E+02  0.89563640972E+02 0.  0.
         11    1    3    3    0    0 -0.18292664383E+02  0.16217538318E+01  0.50501613191E+02  0.53736994621E+02  0.51100000000E-03 0.  1.
         22    1    1    0    0    0  0.13216186882E+02  0.21377827553E+02 -0.17125910742E+02  0.30413416863E+02  0.00000000000E+00 0.  1.
</event>
<event>
 5    1  0.1681104E-003  0.9118800E+02  0.7818608E-02  0.1130116E+00
         25   -1    0    0    0    0  0.00000000000E+00  0.00000000000E+00  0.99999998245E-14  0.12500000000E+03  0.12500000000E+03 0.  0.
        -11    1    3    3    0    0  0.45534134364E+02  0.63203102931E+01  0.36976710096E+02  0.58996447387E+02  0.51100000000E-03 0.  1.
         23    2    1    0    0    0  0.17764981880E+02 -0.11111352471E+02  0.20481322345E+02  0.95699124588E+02  0.91103134671E+02 0.  0.
         11    1    3    3    0    0 -0.27769152484E+02 -0.17431662764E+02 -0.16495387751E+02  0.36702677201E+02  0.51100000000E-03 0. -1.
         22    1    1    0    0    0 -0.17764981880E+02  0.11111352471E+02 -0.20481322345E+02  0.29300875412E+02  0.00000000000E+00 0.  1.
</event>
<event>
 5    1  0.1681104E-003  0.9118800E+02  0.7818608E-02  0.1130116E+00
         25   -1    0    0    0    0  0.00000000000E+00  0.00000000000E+00  0.99999998245E-14  0.12500000000E+03  0.12500000000E+03 0.  0.
        -11    1    3    3    0    0 -0.48997289946E+02 -0.19517279172E+02 -0.23892763950E+02  0.57900973893E+02  0.51100000000E-03 0. -1.
         23    2    1    0    0    0 -0.27461570659E+02 -0.14252718459E+02  0.42959226880E+01  0.93763278048E+02  0.88407123650E+02 0.  0.
         11    1    3    3    0    0  0.21535719287E+02  0.52645607127E+01  0.28188686638E+02  0.35862304155E+02  0.51100000000E-03 0.  1.
         22    1    1    0    0    0  0.27461570659E+02  0.14252718459E+02 -0.42959226880E+01  0.31236721952E+02  0.00000000000E+00 0. -1.
</event>
<event>
 5    1  0.1681104E-003  0.9118800E+02  0.7818608E-02  0.1130116E+00
         25   -1    0    0    0    0  0.00000000000E+00  0.00000000000E+00  0.99999998245E-14  0.12500000000E+03  0.12500000000E+03 0.  0.
        -11    1    3    3    0    0  0.12879203832E+02 -0.31021664490E+02  0.32185993674E+02  0.46520487402E+02  0.51100000000E-03 0.  1.
         23    2    1    0    0    0 -0.15238871088E+01 -0.29615535194E+02 -0.11995012899E+02  0.93011213039E+02  0.87337295927E+02 0.  0.
         11    1    3    3    0    0 -0.14403090941E+02  0.14061292955E+01 -0.44181006573E+02  0.46490725637E+02  0.51100000000E-03 0. -1.
         22    1    1    0    0    0  0.15238871088E+01  0.29615535194E+02  0.11995012899E+02  0.31988786961E+02  0.00000000000E+00 0. -1.
</event>
<event>
 5    1  0.1681104E-003  0.9118800E+02  0.7818608E-02  0.1130116E+00
         25   -1    0    0    0    0  0.00000000000E+00  0.00000000000E+00  0.99999998245E-14  0.12500000000E+03  0.12500000000E+03 0.  0.
        -11    1    3    3    0    0  0.30012527295E+02  0.20428291131E+02 -0.47051192647E+02  0.59429635730E+02  0.51100000000E-03 0. -1.
         23    2    1    0    0    0  0.24085736637E+02  0.12683883976E+02 -0.13030272424E+02  0.94820675596E+02  0.89889759700E+02 0.  0.
         11    1    3    3    0    0 -0.59267906585E+01 -0.77444071550E+01  0.34020920223E+02  0.35391039866E+02  0.51100000000E-03 0.  1.
         22    1    1    0    0    0 -0.24085736637E+02 -0.12683883976E+02  0.13030272424E+02  0.30179324404E+02  0.00000000000E+00 0. -1.
</event>
<event>
 5    1  0.1681104E-003  0.9118800E+02  0.7818608E-02  0.1130116E+00
         25   -1    0    0    0    0  0.00000000000E+00  0.00000000000E+00  0.99999998245E-14  0.12500000000E+03  0.12500000000E+03 0.  0.
        -11    1    3    3    0    0  0.35151853849E+02 -0.41830444798E+00 -0.17433866284E+02  0.39239871324E+02  0.51100000000E-03 0. -1.
         23    2    1    0    0    0 -0.84860876339E+00  0.20696497106E+02  0.20658272267E+02  0.95745438948E+02  0.91166659130E+02 0.  0.
         11    1    3    3    0    0 -0.36000462612E+02  0.21114801554E+02  0.38092138550E+02  0.56505567625E+02  0.51100000000E-03 0.  1.
         22    1    1    0    0    0  0.84860876339E+00 -0.20696497106E+02 -0.20658272267E+02  0.29254561052E+02  0.00000000000E+00 0.  1.
</event>
<event>
 5    1  0.1681104E-003  0.9118800E+02  0.7818608E-02  0.1130116E+00
         25   -1    0    0    0    0  0.00000000000E+00  0.00000000000E+00  0.99999998245E-14  0.12500000000E+03  0.12500000000E+03 0.  0.
        -11    1    3    3    0    0  0.23397819431E+02  0.37147772543E+02  0.19927065415E+01  0.43947535069E+02  0.51100000000E-03 0. -1.
         23    2    1    0    0    0 -0.24078109233E+02  0.16115661950E+02 -0.14719158072E+01  0.95989028964E+02  0.91500039568E+02 0.  0.
         11    1    3    3    0    0 -0.47475928664E+02 -0.21032110593E+02 -0.34646223487E+01  0.52041493895E+02  0.51100000000E-03 0.  1.
         22    1    1    0    0    0  0.24078109233E+02 -0.16115661950E+02  0.14719158072E+01  0.29010971036E+02  0.00000000000E+00 0. -1.
</event>
<event>
 5    1  0.1681104E-003  0.9118800E+02  0.7818608E-02  0.1130116E+00
         25   -1    0    0    0    0  0.00000000000E+00  0.00000000000E+00  0.99999998245E-14  0.12500000000E+03  0.12500000000E+03 0.  0.
        -11    1    3    3    0    0 -0.27423713045E+02 -0.16531286548E+02  0.49129892759E+02  0.58643753588E+02  0.51100000000E-03 0.  1.
         23    2    1    0    0    0 -0.23885676121E+02  0.16005406170E+01  0.17236704490E+02  0.95500996022E+02  0.90830881343E+02 0.  0.
         11    1    3    3    0    0  0.35380369247E+01  0.18131827165E+02 -0.31893188269E+02  0.36857242434E+02  0.51100000000E-03 0. -1.
         22    1    1    0    0    0  0.23885676121E+02 -0.16005406170E+01 -0.17236704490E+02  0.29499003978E+02  0.00000000000E+00 0.  1.
</event>
<event>
 5    1  0.1681104E-003  0.9118800E+02  0.7818608E-02  0.1130116E+00
         25   -1    0    0    0    0  0.00000000000E+00  0.00000000000E+00  0.99999998245E-14  0.12500000000E+03  0.12500000000E+03 0.  0.
        -11    1    3    3    0    0 -0.41921953428E+02  0.40272275191E+02  0.22771598378E+02  0.62432780022E+02  0.51100000000E-03 0. -1.
         23    2    1    0    0    0 -0.19434318428E+02  0.19180560255E+02  0.85379623178E+01  0.96390850677E+02  0.92047339283E+02 0.  0.
         11    1    3    3    0    0  0.22487635000E+02 -0.21091714936E+02 -0.14233636060E+02  0.33958070655E+02  0.51100000000E-03 0.  1.
         22    1    1    0    0    0  0.19434318428E+02 -0.19180560255E+02 -0.85379623178E+01  0.28609149323E+02  0.00000000000E+00 0. -1.
</event>
<event>
 5    1  0.1681104E-003  0.9118800E+02  0.7818608E-02  0.1130116E+00
         25   -1    0    0    0    0  0.00000000000E+00  0.00000000000E+00  0.99999998245E-14  0.12500000000E+03  0.12500000000E+03 0.  0.
        -11    1    3    3    0    0 -0.31305783463E+02  0.13328547804E+02 -0.11790009266E+02  0.36009812324E+02  0.51100000000E-03 0. -1.
         23    2    1    0    0    0  0.58855995205E+01 -0.27704716985E+02  0.91792557169E+01  0.95226683751E+02  0.90452589448E+02 0.  0.
         11    1    3    3    0    0  0.37191382984E+02 -0.41033264789E+02  0.20969264983E+02  0.59216871428E+02  0.51100000000E-03 0.  1.
         22    1    1    0    0    0 -0.58855995205E+01  0.27704716985E+02 -0.91792557169E+01  0.29773316249E+02  0.00000000000E+00 0.  1.
</event>
<event>
 5    1  0.1681104E-003  0.9118800E+02  0.7818608E-02  0.1130116E+00
         25   -1    0    0    0    0  0.00000000000E+00  0.00000000000E+00  0.99999998245E-14  0.12500000000E+03  0.12500000000E+03 0.  0.
        -11    1    3    3    0    0 -0.84453433782E+01 -0.35811486042E+02  0.75787679442E+01  0.37566262538E+02  0.51100000000E-03 0.  1.
         23    2    1    0    0    0 -0.77601668967E+01  0.14858981679E+02 -0.22838749035E+02  0.96669486692E+02  0.92424951571E+02 0.  0.
         11    1    3    3    0    0  0.68517648150E+00  0.50670467721E+02 -0.30417516979E+02  0.59103224153E+02  0.51100000000E-03 0. -1.
         22    1    1    0    0    0  0.77601668967E+01 -0.14858981679E+02  0.22838749035E+02  0.28330513308E+02  0.00000000000E+00 0. -1.
</event>
<event>
 5    1  0.1681104E-003  0.9118800E+02  0.7818608E-02  0.1130116E+00
         25   -1    0    0    0    0  0.00000000000E+00  0.00000000000E+00  0.99999998245E-14  0.12500000000E+03  0.12500000000E+03 0.  0.
        -11    1    3    3    0    0 -0.41342120485E+02  0.14174186825E+01  0.31393565191E+01  0.41485365631E+02  0.51100000000E-03 0.  1.
         23    2    1    0    0    0  0.47423102574E+01  0.14709713611E+02  0.26104821990E+02  0.94663109714E+02  0.89670382114E+02 0.  0.
         11    1    3    3    0    0  0.46084430742E+02  0.13292294928E+02  0.22965465471E+02  0.53177744084E+02  0.51100000000E-03 0. -1.
         22    1    1    0    0    0 -0.47423102574E+01 -0.14709713611E+02 -0.26104821990E+02  0.30336890286E+02  0.00000000000E+00 0. -1.
</event>
<event>
 5    1  0.1681104E-003  0.9118800E+02  0.7818608E-02  0.1130116E+00
         25   -1    0    0    0    0  0.00000000000E+00  0.00000000000E+00  0.99999998245E-14  0.12500000000E+03  0.12500000000E+03 0.  0.
        -11    1    3    3    0    0 -0.23914577276E+00 -0.58183023634E+02  0.21203210969E+02  0.61926549925E+02  0.51100000000E-03 0.  1.
         23    2    1    0    0    0  0.57347506070E+01 -0.26095030459E+02  0.10775387750E+02  0.96191199950E+02  0.91775813739E+02 0.  0.
         11    1    3    3    0    0  0.59738963797E+01  0.32087993176E+02 -0.10427823219E+02  0.34264650025E+02  0.51100000000E-03 0. -1.
         22    1    1    0    0    0 -0.57347506070E+01  0.26095030459E+02 -0.10775387750E+02  0.28808800050E+02  0.00000000000E+00 0.  1.
</event>
<event>
 5    1  0.1681104E-003  0.9118800E+02  0.7818608E-02  0.1130116E+00
         25   -1    0    0    0    0  0.00000000000E+00  0.00000000000E+00  0.99999998245E-14  0.12500000000E+03  0.12500000000E+03 0.  0.
        -11    1    3    3    0    0 -0.26014193832E+02  0.33572500590E+02 -0.17157152635E+02  0.45806320125E+02  0.51100000000E-03 0. -1.
         23    2    1    0    0    0  0.89705715481E+01  0.14637371525E+02  0.18879396343E+02  0.99482253129E+02  0.96153852145E+02 0.  0.
         11    1    3    3    0    0  0.34984765380E+02 -0.18935129065E+02  0.36036548978E+02  0.53675933004E+02  0.51100000000E-03 0.  1.
         22    1    1    0    0    0 -0.89705715481E+01 -0.14637371525E+02 -0.18879396343E+02  0.25517746871E+02  0.00000000000E+00 0. -1.
</event>
<event>
 5    1  0.1681104E-003  0.9118800E+02  0.7818608E-02  0.1130116E+00
         25   -1    0    0    0    0  0.00000000000E+00  0.00000000000E+00  0.99999998245E-14  0.12500000000E+03  0.12500000000E+03 0.  0.
        -11    1    3    3    0    0 -0.26283750202E+02  0.31167817387E+02  0.46742698882E+02  0.62025384033E+02  0.51100000000E-03 0.  1.
         23    2    1    0    0    0 -0.92910057144E+01  0.11048780710E+02  0.24802527805E+02  0.96302199947E+02  0.91926873039E+02 0.  0.
         11    1    3    3    0    0  0.16992744488E+02 -0.20119036678E+02 -0.21940171077E+02  0.34276815914E+02  0.51100000000E-03 0. -1.
         22    1    1    0    0    0  0.92910057144E+01 -0.11048780710E+02 -0.24802527805E+02  0.28697800053E+02  0.00000000000E+00 0.  1.
</event>
<event>
 5    1  0.1681104E-003  0.9118800E+02  0.7818608E-02  0.1130116E+00
         25   -1    0    0    0    0  0.00000000000E+00  0.00000000000E+00  0.99999998245E-14  0.12500000000E+03  0.12500000000E+03 0.  0.
        -11    1    3    3    0    0 -0.25735146716E+02 -0.31072788536E+02  0.47643242914E+02  0.62431518959E+02  0.51100000000E-03 0.  1.
         23    2    1    0    0    0 -0.14148751783E+02 -0.14682092535E+02  0.21862375865E+02  0.95104941935E+02  0.90284192879E+02 0.  0.
         11    1    3    3    0    0  0.11586394933E+02  0.16390696001E+02 -0.25780867049E+02  0.32673422976E+02  0.51100000000E-03 0. -1.
         22    1    1    0    0    0  0.14148751783E+02  0.14682092535E+02 -0.21862375865E+02  0.29895058065E+02  0.00000000000E+00 0.  1.
</event>
<event>
 5    1  0.1681104E-003  0.9118800E+02  0.7818608E-02  0.1130116E+00
         25   -1    0    0    0    0  0.00000000000E+00  0.00000000000E+00  0.99999998245E-14  0.12500000000E+03  0.12500000000E+03 0.  0.
        -11    1    3    3    0    0 -0.38909895203E+02 -0.10586868652E+02  0.18395602567E+02  0.44322228359E+02  0.51100000000E-03 0. -1.
         23    2    1    0    0    0 -0.52623276728E+01 -0.33744967350E+02 -0.35016070793E+01  0.90668146480E+02  0.83916843483E+02 0.  0.
         11    1    3    3    0    0  0.33647567530E+02 -0.23158098697E+02 -0.21897209647E+02  0.46345918122E+02  0.51100000000E-03 0.  1.
         22    1    1    0    0    0  0.52623276728E+01  0.33744967350E+02  0.35016070793E+01  0.34331853520E+02  0.00000000000E+00 0.  1.
</event>
<event>
 5    1  0.1681104E-003  0.9118800E+02  0.7818608E-02  0.1130116E+00
         25   -1    0    0    0    0  0.00000000000E+00  0.00000000000E+00  0.99999998245E-14  0.12500000000E+03  0.12500000000E+03 0.  0.
        -11    1    3    3    0    0 -0.56558462121E+02 -0.22586190142E+02 -0.41197034761E+01  0.61040704285E+02  0.51100000000E-03 0.  1.
         23    2    1    0    0    0 -0.23830995346E+02 -0.12202101076E+02 -0.10993870188E+02  0.96057422513E+02  0.91593425683E+02 0.  0.
         11    1    3    3    0    0  0.32727466775E+02  0.10384089065E+02 -0.68741667120E+01  0.35016718228E+02  0.51100000000E-03 0. -1.
         22    1    1    0    0    0  0.23830995346E+02  0.12202101076E+02  0.10993870188E+02  0.28942577487E+02  0.00000000000E+00 0.  1.
</event>
<event>
 5    1  0.1681104E-003  0.9118800E+02  0.7818608E-02  0.1130116E+00
         25   -1    0    0    0    0  0.00000000000E+00  0.00000000000E+00  0.99999998245E-14  0.12500000000E+03  0.12500000000E+03 0.  0.
        -11    1    3    3    0    0 -0.98953643364E+01  0.54967194655E+02 -0.54781086622E+01  0.56118806103E+02  0.51100000000E-03 0. -1.
         23    2    1    0    0    0 -0.14646186368E+02  0.18801196355E+02  0.13886374269E+02  0.97416904636E+02  0.93430327833E+02 0.  0.
         11    1    3    3    0    0 -0.47508220319E+01 -0.36165998300E+02  0.19364482931E+02  0.41298098533E+02  0.51100000000E-03 0.  1.
         22    1    1    0    0    0  0.14646186368E+02 -0.18801196355E+02 -0.13886374269E+02  0.27583095364E+02  0.00000000000E+00 0. -1.
</event>
<event>
 5    1  0.1681104E-003  0.9118800E+02  0.7818608E-02  0.1130116E+00
         25   -1    0    0    0    0  0.00000000000E+00  0.00000000000E+00  0.99999998245E-14  0.12500000000E+03  0.12500000000E+03 0.  0.
        -11    1    3    3    0    0  0.29211287866E+02  0.17775909990E+02  0.55206335171E+01  0.34637547683E+02  0.51100000000E-03 0.  1.
         23    2    1    0    0    0 -0.13605784148E+02 -0.22512435257E+02 -0.12146748961E+02  0.96026380726E+02  0.91551052324E+02 0.  0.
         11    1    3    3    0    0 -0.42817072014E+02 -0.40288345247E+02 -0.17667382478E+02  0.61388833044E+02  0.51100000000E-03 0. -1.
         22    1    1    0    0    0  0.13605784148E+02  0.22512435257E+02  0.12146748961E+02  0.28973619274E+02  0.00000000000E+00 0. -1.
</event>
<event>
 5    1  0.1681104E-003  0.9118800E+02  0.7818608E-02  0.1130116E+00
         25   -1    0    0    0    0  0.00000000000E+00  0.00000000000E+00  0.99999998245E-14  0.12500000000E+03  0.12500000000E+03 0.  0.
        -11    1    3    3    0    0 -0.37860007538E+02  0.31305249200E+02 -0.13198299067E+02  0.50868397820E+02  0.51100000000E-03 0.  1.
         23    2    1    0    0    0  0.68094162786E+01  0.23491162605E+02 -0.15100154559E+02  0.96255999960E+02  0.91864029903E+02 0.  0.
         11    1    3    3    0    0  0.44669423817E+02 -0.78140865956E+01 -0.19018554920E+01  0.45387602140E+02  0.51100000000E-03 0. -1.
         22    1    1    0    0    0 -0.68094162786E+01 -0.23491162605E+02  0.15100154559E+02  0.28744000040E+02  0.00000000000E+00 0.  1.
</event>
<event>
 5    1  0.1681104E-003  0.9118800E+02  0.7818608E-02  0.1130116E+00
         25   -1    0    0    0    0  0.00000000000E+00  0.00000000000E+00  0.99999998245E-14  0.12500000000E+03  0.12500000000E+03 0.  0.
        -11    1    3    3    0    0  0.33387122107E+02  0.57561013713E+01  0.82126907849E+01  0.34860879446E+02  0.51100000000E-03 0. -1.
         23    2    1    0    0    0 -0.21814954095E+02 -0.11039157989E+02 -0.14159452474E+02  0.96746764333E+02  0.92529406587E+02 0.  0.
         11    1    3    3    0    0 -0.55202076202E+02 -0.16795259360E+02 -0.22372143259E+02  0.61885884887E+02  0.51100000000E-03 0.  1.
         22    1    1    0    0    0  0.21814954095E+02  0.11039157989E+02  0.14159452474E+02  0.28253235667E+02  0.00000000000E+00 0.  1.
</event>
<event>
 5    1  0.1681104E-003  0.9118800E+02  0.7818608E-02  0.1130116E+00
         25   -1    0    0    0    0  0.00000000000E+00  0.00000000000E+00  0.99999998245E-14  0.12500000000E+03  0.12500000000E+03 0.  0.
        -11    1    3    3    0    0  0.42620850432E+01  0.31435141337E+02  0.39949756739E+02  0.51012905657E+02  0.51100000000E-03 0.  1.
         23    2    1    0    0    0  0.15223289400E+02 -0.88398313790E+01  0.22936019027E+02  0.96087163270E+02  0.91634004701E+02 0.  0.
         11    1    3    3    0    0  0.10961204357E+02 -0.40274972716E+02 -0.17013737712E+02  0.45074257613E+02  0.51100000000E-03 0. -1.
         22    1    1    0    0    0 -0.15223289400E+02  0.88398313790E+01 -0.22936019027E+02  0.28912836730E+02  0.00000000000E+00 0. -1.
</event>
<event>
 5    1  0.1681104E-003  0.9118800E+02  0.7818608E-02  0.1130116E+00
         25   -1    0    0    0    0  0.00000000000E+00  0.00000000000E+00  0.99999998245E-14  0.12500000000E+03  0.12500000000E+03 0.  0.
        -11    1    3    3    0    0  0.19986669151E+02  0.31630527276E+02 -0.35496943913E+02  0.51575093087E+02  0.51100000000E-03 0.  1.
         23    2    1    0    0    0 -0.10776993204E+02 -0.15781433087E+01 -0.24541293747E+02  0.98150247346E+02  0.94406365445E+02 0.  0.
         11    1    3    3    0    0 -0.30763662354E+02 -0.33208670585E+02  0.10955650166E+02  0.46575154259E+02  0.51100000000E-03 0. -1.
         22    1    1    0    0    0  0.10776993204E+02  0.15781433087E+01  0.24541293747E+02  0.26849752654E+02  0.00000000000E+00 0.  1.
</event>
<event>
 5    1  0.1681104E-003  0.9118800E+02  0.7818608E-02  0.1130116E+00
         25   -1    0    0    0    0  0.00000000000E+00  0.00000000000E+00  0.99999998245E-14  0.12500000000E+03  0.12500000000E+03 0.  0.
        -11    1    3    3    0    0  0.21453011350E+01  0.23377887031E+02  0.31634053942E+02  0.39393416811E+02  0.51100000000E-03 0.  1.
         23    2    1    0    0    0  0.25364286371E+02 -0.13751664653E+02 -0.40263741334E+01  0.95868110386E+02  0.91334700943E+02 0.  0.
         11    1    3    3    0    0  0.23218985236E+02 -0.37129551683E+02 -0.35660428075E+02  0.56474693575E+02  0.51100000000E-03 0. -1.
         22    1    1    0    0    0 -0.25364286371E+02  0.13751664653E+02  0.40263741334E+01  0.29131889614E+02  0.00000000000E+00 0. -1.
</event>
<event>
 5    1  0.1681104E-003  0.9118800E+02  0.7818608E-02  0.1130116E+00
         25   -1    0    0    0    0  0.00000000000E+00  0.00000000000E+00  0.99999998245E-14  0.12500000000E+03  0.12500000000E+03 0.  0.
        -11    1    3    3    0    0 -0.29987579747E+02  0.13645040391E+02 -0.51858184235E+02  0.61438695777E+02  0.51100000000E-03 0.  1.
         23    2    1    0    0    0 -0.10734939801E+02 -0.53921629167E+00 -0.27034625385E+02  0.95907034245E+02  0.91387956325E+02 0.  0.
         11    1    3    3    0    0  0.19252639946E+02 -0.14184256682E+02  0.24823558850E+02  0.34468338468E+02  0.51100000000E-03 0. -1.
         22    1    1    0    0    0  0.10734939801E+02  0.53921629167E+00  0.27034625385E+02  0.29092965755E+02  0.00000000000E+00 0.  1.
</event>
<event>
 5    1  0.1681104E-003  0.9118800E+02  0.7818608E-02  0.1130116E+00
         25   -1    0    0    0    0  0.00000000000E+00  0.00000000000E+00  0.99999998245E-14  0.12500000000E+03  0.12500000000E+03 0.  0.
        -11    1    3    3    0    0  0.24786788877E+02  0.45909360931E+02  0.29376342485E+02  0.59875068450E+02  0.51100000000E-03 0.  1.
         23    2    1    0    0    0  0.25505851599E+01  0.30625515427E+02  0.11779951608E+02  0.92088072987E+02  0.86005919835E+02 0.  0.
         11    1    3    3    0    0 -0.22236203717E+02 -0.15283845504E+02 -0.17596390876E+02  0.32213004536E+02  0.51100000000E-03 0. -1.
         22    1    1    0    0    0 -0.25505851599E+01 -0.30625515427E+02 -0.11779951608E+02  0.32911927013E+02  0.00000000000E+00 0.  1.
</event>
<event>
 5    1  0.1681104E-003  0.9118800E+02  0.7818608E-02  0.1130116E+00
         25   -1    0    0    0    0  0.00000000000E+00  0.00000000000E+00  0.99999998245E-14  0.12500000000E+03  0.12500000000E+03 0.  0.
        -11    1    3    3    0    0 -0.20067176945E+01  0.28101169916E+02 -0.34499914376E+02  0.44541517248E+02  0.51100000000E-03 0. -1.
         23    2    1    0    0    0 -0.26507019001E+02 -0.91963310856E+01 -0.13765437480E+02  0.93748090766E+02  0.88385647542E+02 0.  0.
         11    1    3    3    0    0 -0.24500301306E+02 -0.37297501001E+02  0.20734476895E+02  0.49206573518E+02  0.51100000000E-03 0.  1.
         22    1    1    0    0    0  0.26507019001E+02  0.91963310856E+01  0.13765437480E+02  0.31251909234E+02  0.00000000000E+00 0.  1.
</event>
<event>
 5    1  0.1681104E-003  0.9118800E+02  0.7818608E-02  0.1130116E+00
         25   -1    0    0    0    0  0.00000000000E+00  0.00000000000E+00  0.99999998245E-14  0.12500000000E+03  0.12500000000E+03 0.  0.
        -11    1    3    3    0    0 -0.24725070195E+02 -0.36657412873E+02 -0.24322269253E+02  0.50464520175E+02  0.51100000000E-03 0.  1.
         23    2    1    0    0    0 -0.44486151372E+01  0.46877361846E+01 -0.27621975901E+02  0.96632085028E+02  0.92374353893E+02 0.  0.
         11    1    3    3    0    0  0.20276455057E+02  0.41345149057E+02 -0.32997066481E+01  0.46167564853E+02  0.51100000000E-03 0. -1.
         22    1    1    0    0    0  0.44486151372E+01 -0.46877361846E+01  0.27621975901E+02  0.28367914972E+02  0.00000000000E+00 0. -1.
</event>
<event>
 5    1  0.1681104E-003  0.9118800E+02  0.7818608E-02  0.1130116E+00
         25   -1    0    0    0    0  0.00000000000E+00  0.00000000000E+00  0.99999998245E-14  0.12500000000E+03  0.12500000000E+03 0.  0.
        -11    1    3    3    0    0  0.13365013504E+02 -0.42382938311E+02 -0.32134929420E+02  0.54841505586E+02  0.51100000000E-03 0.  1.
         23    2    1    0    0    0  0.13204327217E+02 -0.26072100924E+02  0.49531423416E+01  0.95358098527E+02  0.90634014762E+02 0.  0.
         11    1    3    3    0    0 -0.16068628648E+00  0.16310837387E+02  0.37088071762E+02  0.40516592942E+02  0.51100000000E-03 0. -1.
         22    1    1    0    0    0 -0.13204327217E+02  0.26072100924E+02 -0.49531423416E+01  0.29641901473E+02  0.00000000000E+00 0.  1.
</event>
<event>
 5    1  0.1681104E-003  0.9118800E+02  0.7818608E-02  0.1130116E+00
         25   -1    0    0    0    0  0.00000000000E+00  0.00000000000E+00  0.99999998245E-14  0.12500000000E+03  0.12500000000E+03 0.  0.
        -11    1    3    3    0    0  0.36122559226E+02 -0.27318105777E+02 -0.41130819486E+02  0.61178938371E+02  0.51100000000E-03 0.  1.
         23    2    1    0    0    0  0.21079938656E+02 -0.15086157316E+02 -0.11379421650E+02  0.96690157305E+02  0.92452903288E+02 0.  0.
         11    1    3    3    0    0 -0.15042620570E+02  0.12231948461E+02  0.29751397836E+02  0.35511218935E+02  0.51100000000E-03 0. -1.
         22    1    1    0    0    0 -0.21079938656E+02  0.15086157316E+02  0.11379421650E+02  0.28309842695E+02  0.00000000000E+00 0.  1.
</event>
<event>
 5    1  0.1681104E-003  0.9118800E+02  0.7818608E-02  0.1130116E+00
         25   -1    0    0    0    0  0.00000000000E+00  0.00000000000E+00  0.99999998245E-14  0.12500000000E+03  0.12500000000E+03 0.  0.
        -11    1    3    3    0    0  0.20495375916E+02 -0.17829897232E+02 -0.33958268537E+02  0.43487120755E+02  0.51100000000E-03 0. -1.
         23    2    1    0    0    0  0.14059703964E+02  0.25647332025E+02 -0.74331874883E+01  0.94821975018E+02  0.89891566648E+02 0.  0.
         11    1    3    3    0    0 -0.64356719517E+01  0.43477229257E+02  0.26525081049E+02  0.51334854263E+02  0.51100000000E-03 0.  1.
         22    1    1    0    0    0 -0.14059703964E+02 -0.25647332025E+02  0.74331874883E+01  0.30178024982E+02  0.00000000000E+00 0.  1.
</event>
<event>
 5    1  0.1681104E-003  0.9118800E+02  0.7818608E-02  0.1130116E+00
         25   -1    0    0    0    0  0.00000000000E+00  0.00000000000E+00  0.99999998245E-14  0.12500000000E+03  0.12500000000E+03 0.  0.
        -11    1    3    3    0    0 -0.20260579922E+02 -0.43835806170E+02  0.11567251187E+02  0.49657530160E+02  0.51100000000E-03 0.  1.
         23    2    1    0    0    0  0.13432211262E+02 -0.12399358940E+02  0.21481774910E+02  0.96792996352E+02  0.92591841368E+02 0.  0.
         11    1    3    3    0    0  0.33692791184E+02  0.31436447230E+02  0.99145237235E+01  0.47135466192E+02  0.51100000000E-03 0. -1.
         22    1    1    0    0    0 -0.13432211262E+02  0.12399358940E+02 -0.21481774910E+02  0.28207003648E+02  0.00000000000E+00 0.  1.
</event>
<event>
 5    1  0.1681104E-003  0.9118800E+02  0.7818608E-02  0.1130116E+00
         25   -1    0    0    0    0  0.00000000000E+00  0.00000000000E+00  0.99999998245E-14  0.12500000000E+03  0.12500000000E+03 0.  0.
        -11    1    3    3    0    0  0.36278908921E+02 -0.78756970487E+01 -0.10433129229E+02  0.38562106041E+02  0.51100000000E-03 0.  1.
         23    2    1    0    0    0 -0.10972610392E+02  0.25609129175E+02 -0.44940414755E+01  0.96779048834E+02  0.92573010152E+02 0.  0.
         11    1    3    3    0    0 -0.47251519313E+02  0.33484826224E+02  0.59390877535E+01  0.58216942794E+02  0.51100000000E-03 0. -1.
         22    1    1    0    0    0  0.10972610392E+02 -0.25609129175E+02  0.44940414755E+01  0.28220951166E+02  0.00000000000E+00 0. -1.
</event>
<event>
 5    1  0.1681104E-003  0.9118800E+02  0.7818608E-02  0.1130116E+00
         25   -1    0    0    0    0  0.00000000000E+00  0.00000000000E+00  0.99999998245E-14  0.12500000000E+03  0.12500000000E+03 0.  0.
        -11    1    3    3    0    0 -0.21231054017E+01 -0.26358824849E+02 -0.23012357486E+02  0.35055153990E+02  0.51100000000E-03 0. -1.
         23    2    1    0    0    0 -0.18578024312E+02  0.17008744230E+02  0.15569675304E+02  0.95388259817E+02  0.90675602861E+02 0.  0.
         11    1    3    3    0    0 -0.16454918910E+02  0.43367569080E+02  0.38582032789E+02  0.60333105826E+02  0.51100000000E-03 0.  1.
         22    1    1    0    0    0  0.18578024312E+02 -0.17008744230E+02 -0.15569675304E+02  0.29611740183E+02  0.00000000000E+00 0.  1.
</event>
<event>
 5    1  0.1681104E-003  0.9118800E+02  0.7818608E-02  0.1130116E+00
         25   -1    0    0    0    0  0.00000000000E+00  0.00000000000E+00  0.99999998245E-14  0.12500000000E+03  0.12500000000E+03 0.  0.
        -11    1    3    3    0    0 -0.31503904763E+02  0.24962581121E+02  0.46740880408E+02  0.61646868316E+02  0.51100000000E-03 0. -1.
         23    2    1    0    0    0 -0.20747424308E+02  0.13161974220E+02  0.17941564933E+02  0.94576441151E+02  0.89549485134E+02 0.  0.
         11    1    3    3    0    0  0.10756480455E+02 -0.11800606902E+02 -0.28799315475E+02  0.32929572835E+02  0.51100000000E-03 0.  1.
         22    1    1    0    0    0  0.20747424308E+02 -0.13161974220E+02 -0.17941564933E+02  0.30423558849E+02  0.00000000000E+00 0. -1.
</event>
<event>
 5    1  0.1681104E-003  0.9118800E+02  0.7818608E-02  0.1130116E+00
         25   -1    0    0    0    0  0.00000000000E+00  0.00000000000E+00  0.99999998245E-14  0.12500000000E+03  0.12500000000E+03 0.  0.
        -11    1    3    3    0    0 -0.37604044773E+02  0.30312390459E+02 -0.24203844497E+02  0.54025283778E+02  0.51100000000E-03 0. -1.
         23    2    1    0    0    0 -0.13341733108E+02  0.63611211371E+01 -0.32659945739E+02  0.89151181887E+02  0.81625948519E+02 0.  0.
         11    1    3    3    0    0  0.24262311665E+02 -0.23951269321E+02 -0.84561012418E+01  0.35125898108E+02  0.51100000000E-03 0.  1.
         22    1    1    0    0    0  0.13341733108E+02 -0.63611211371E+01  0.32659945739E+02  0.35848818113E+02  0.00000000000E+00 0. -1.
</event>
<event>
 5    1  0.1681104E-003  0.9118800E+02  0.7818608E-02  0.1130116E+00
         25   -1    0    0    0    0  0.00000000000E+00  0.00000000000E+00  0.99999998245E-14  0.12500000000E+03  0.12500000000E+03 0.  0.
        -11    1    3    3    0    0 -0.38706412751E+02 -0.33374692865E+02 -0.20434446195E+02  0.55042012168E+02  0.51100000000E-03 0. -1.
         23    2    1    0    0    0  0.33554095280E-02 -0.22009936648E+02 -0.19806226735E+02  0.95390475520E+02  0.90678657246E+02 0.  0.
         11    1    3    3    0    0  0.38709768161E+02  0.11364756218E+02  0.62821946022E+00  0.40348463352E+02  0.51100000000E-03 0.  1.
         22    1    1    0    0    0 -0.33554095280E-02  0.22009936648E+02  0.19806226735E+02  0.29609524480E+02  0.00000000000E+00 0.  1.
</event>
<event>
 5    1  0.1681104E-003  0.9118800E+02  0.7818608E-02  0.1130116E+00
         25   -1    0    0    0    0  0.00000000000E+00  0.00000000000E+00  0.99999998245E-14  0.12500000000E+03  0.12500000000E+03 0.  0.
        -11    1    3    3    0    0  0.35707923467E+02 -0.16104432406E+01  0.20056534030E+02  0.40986752534E+02  0.51100000000E-03 0. -1.
         23    2    1    0    0    0 -0.63732437931E+01  0.28217443881E+02  0.74947459939E+00  0.96062064900E+02  0.91599761054E+02 0.  0.
         11    1    3    3    0    0 -0.42081167260E+02  0.29827887122E+02 -0.19307059430E+02  0.55075312366E+02  0.51100000000E-03 0.  1.
         22    1    1    0    0    0  0.63732437931E+01 -0.28217443881E+02 -0.74947459939E+00  0.28937935100E+02  0.00000000000E+00 0.  1.
</event>
<event>
 5    1  0.1681104E-003  0.9118800E+02  0.7818608E-02  0.1130116E+00
         25   -1    0    0    0    0  0.00000000000E+00  0.00000000000E+00  0.99999998245E-14  0.12500000000E+03  0.12500000000E+03 0.  0.
        -11    1    3    3    0    0 -0.29281436646E+01  0.26537025626E+02  0.30656692183E+02  0.40652435724E+02  0.51100000000E-03 0.  1.
         23    2    1    0    0    0 -0.30212260406E+02 -0.88955247918E+01  0.27048948036E+01  0.93389440118E+02  0.87876959606E+02 0.  0.
         11    1    3    3    0    0 -0.27284116741E+02 -0.35432550418E+02 -0.27951797380E+02  0.52737004394E+02  0.51100000000E-03 0. -1.
         22    1    1    0    0    0  0.30212260406E+02  0.88955247918E+01 -0.27048948036E+01  0.31610559882E+02  0.00000000000E+00 0. -1.
</event>
<event>
 5    1  0.1681104E-003  0.9118800E+02  0.7818608E-02  0.1130116E+00
         25   -1    0    0    0    0  0.00000000000E+00  0.00000000000E+00  0.99999998245E-14  0.12500000000E+03  0.12500000000E+03 0.  0.
        -11    1    3    3    0    0 -0.18118523440E+01  0.31201960545E+02  0.19981091567E+02  0.37095675911E+02  0.51100000000E-03 0.  1.
         23    2    1    0    0    0  0.26584943463E+02 -0.80442845578E+01 -0.11574834517E+02  0.94909361471E+02  0.90013001104E+02 0.  0.
         11    1    3    3    0    0  0.28396795807E+02 -0.39246245103E+02 -0.31555926085E+02  0.57813685561E+02  0.51100000000E-03 0. -1.
         22    1    1    0    0    0 -0.26584943463E+02  0.80442845578E+01  0.11574834517E+02  0.30090638529E+02  0.00000000000E+00 0. -1.
</event>
<event>
 5    1  0.1681104E-003  0.9118800E+02  0.7818608E-02  0.1130116E+00
         25   -1    0    0    0    0  0.00000000000E+00  0.00000000000E+00  0.99999998245E-14  0.12500000000E+03  0.12500000000E+03 0.  0.
        -11    1    3    3    0    0 -0.10324920218E+02 -0.22504435146E+02  0.34719727458E+02  0.42644027175E+02  0.51100000000E-03 0.  1.
         23    2    1    0    0    0 -0.48851427797E+01  0.23931737183E+02  0.52307630117E+00  0.10056915324E+03  0.97556590296E+02 0.  0.
         11    1    3    3    0    0  0.54397774382E+01  0.46436172328E+02 -0.34196651157E+02  0.57925126065E+02  0.51100000000E-03 0. -1.
         22    1    1    0    0    0  0.48851427797E+01 -0.23931737183E+02 -0.52307630117E+00  0.24430846759E+02  0.00000000000E+00 0. -1.
</event>
<event>
 5    1  0.1681104E-003  0.9118800E+02  0.7818608E-02  0.1130116E+00
         25   -1    0    0    0    0  0.00000000000E+00  0.00000000000E+00  0.99999998245E-14  0.12500000000E+03  0.12500000000E+03 0.  0.
        -11    1    3    3    0    0  0.25188403567E+02 -0.12523331919E+02  0.45563669017E+02  0.53547525164E+02  0.51100000000E-03 0. -1.
         23    2    1    0    0    0  0.27785173132E+02 -0.34812839549E+01  0.33486461739E+01  0.96798074265E+02  0.92598696353E+02 0.  0.
         11    1    3    3    0    0  0.25967695653E+01  0.90420479641E+01 -0.42215022844E+02  0.43250549101E+02  0.51100000000E-03 0.  1.
         22    1    1    0    0    0 -0.27785173132E+02  0.34812839549E+01 -0.33486461739E+01  0.28201925735E+02  0.00000000000E+00 0. -1.
</event>
<event>
 5    1  0.1681104E-003  0.9118800E+02  0.7818608E-02  0.1130116E+00
         25   -1    0    0    0    0  0.00000000000E+00  0.00000000000E+00  0.99999998245E-14  0.12500000000E+03  0.12500000000E+03 0.  0.
        -11    1    3    3    0    0 -0.13013252107E+02 -0.42889141981E+02 -0.43461636760E+02  0.62431859658E+02  0.51100000000E-03 0.  1.
         23    2    1    0    0    0 -0.76708617678E+01 -0.20722474588E+02 -0.19191090516E+02  0.95732936114E+02  0.91149514692E+02 0.  0.
         11    1    3    3    0    0  0.53423903390E+01  0.22166667393E+02  0.24270546244E+02  0.33301076456E+02  0.51100000000E-03 0. -1.
         22    1    1    0    0    0  0.76708617678E+01  0.20722474588E+02  0.19191090516E+02  0.29267063886E+02  0.00000000000E+00 0.  1.
</event>
<event>
 5    1  0.1681104E-003  0.9118800E+02  0.7818608E-02  0.1130116E+00
         25   -1    0    0    0    0  0.00000000000E+00  0.00000000000E+00  0.99999998245E-14  0.12500000000E+03  0.12500000000E+03 0.  0.
        -11    1    3    3    0    0 -0.46796871025E+02 -0.52388919873E+01 -0.14368711015E+02  0.49232641443E+02  0.51100000000E-03 0. -1.
         23    2    1    0    0    0 -0.15024610411E+02 -0.45598287014E+01  0.22281411138E+02  0.97742116038E+02  0.93864418229E+02 0.  0.
         11    1    3    3    0    0  0.31772260613E+02  0.67906328592E+00  0.36650122153E+02  0.48509474595E+02  0.51100000000E-03 0.  1.
         22    1    1    0    0    0  0.15024610411E+02  0.45598287014E+01 -0.22281411138E+02  0.27257883962E+02  0.00000000000E+00 0.  1.
</event>
<event>
 5    1  0.1681104E-003  0.9118800E+02  0.7818608E-02  0.1130116E+00
         25   -1    0    0    0    0  0.00000000000E+00  0.00000000000E+00  0.99999998245E-14  0.12500000000E+03  0.12500000000E+03 0.  0.
        -11    1    3    3    0    0 -0.29568886808E+01  0.31209283312E+02 -0.22565498644E+02  0.38625953514E+02  0.51100000000E-03 0.  1.
         23    2    1    0    0    0  0.24202110892E+02 -0.38880990494E+01  0.14563305163E+02  0.96487733462E+02  0.92178811912E+02 0.  0.
         11    1    3    3    0    0  0.27158999573E+02 -0.35097382362E+02  0.37128803807E+02  0.57861779949E+02  0.51100000000E-03 0. -1.
         22    1    1    0    0    0 -0.24202110892E+02  0.38880990494E+01 -0.14563305163E+02  0.28512266538E+02  0.00000000000E+00 0. -1.
</event>
<event>
 5    1  0.1681104E-003  0.9118800E+02  0.7818608E-02  0.1130116E+00
         25   -1    0    0    0    0  0.00000000000E+00  0.00000000000E+00  0.99999998245E-14  0.12500000000E+03  0.12500000000E+03 0.  0.
        -11    1    3    3    0    0 -0.16189605784E+02  0.30977105139E+02  0.24395326818E+02  0.42624128719E+02  0.51100000000E-03 0.  1.
         23    2    1    0    0    0  0.15784097151E+02  0.17225876930E+02 -0.16553528327E+02  0.96366316008E+02  0.92014015248E+02 0.  0.
         11    1    3    3    0    0  0.31973702934E+02 -0.13751228209E+02 -0.40948855145E+02  0.53742187289E+02  0.51100000000E-03 0. -1.
         22    1    1    0    0    0 -0.15784097151E+02 -0.17225876930E+02  0.16553528327E+02  0.28633683992E+02  0.00000000000E+00 0. -1.
</event>
<event>
 5    1  0.1681104E-003  0.9118800E+02  0.7818608E-02  0.1130116E+00
         25   -1    0    0    0    0  0.00000000000E+00  0.00000000000E+00  0.99999998245E-14  0.12500000000E+03  0.12500000000E+03 0.  0.
        -11    1    3    3    0    0 -0.48167666953E+02  0.18789811888E+02  0.33067941993E+02  0.61373202282E+02  0.51100000000E-03 0. -1.
         23    2    1    0    0    0 -0.27248028936E+02  0.64069374642E+01  0.89606227645E+01  0.95609581682E+02  0.90980192463E+02 0.  0.
         11    1    3    3    0    0  0.20919638017E+02 -0.12382874424E+02 -0.24107319228E+02  0.34236379400E+02  0.51100000000E-03 0.  1.
         22    1    1    0    0    0  0.27248028936E+02 -0.64069374642E+01 -0.89606227645E+01  0.29390418318E+02  0.00000000000E+00 0. -1.
</event>
<event>
 5    1  0.1681104E-003  0.9118800E+02  0.7818608E-02  0.1130116E+00
         25   -1    0    0    0    0  0.00000000000E+00  0.00000000000E+00  0.99999998245E-14  0.12500000000E+03  0.12500000000E+03 0.  0.
        -11    1    3    3    0    0 -0.41415229922E+01 -0.14625638648E+02  0.26914025530E+02  0.30909970706E+02  0.51100000000E-03 0.  1.
         23    2    1    0    0    0 -0.33127327231E+01 -0.22757272910E+02 -0.29321173571E+02  0.87736091349E+02  0.79429357527E+02 0.  0.
         11    1    3    3    0    0  0.82879026914E+00 -0.81316342626E+01 -0.56235199101E+02  0.56826120643E+02  0.51100000000E-03 0. -1.
         22    1    1    0    0    0  0.33127327231E+01  0.22757272910E+02  0.29321173571E+02  0.37263908651E+02  0.00000000000E+00 0. -1.
</event>
<event>
 5    1  0.1681104E-003  0.9118800E+02  0.7818608E-02  0.1130116E+00
         25   -1    0    0    0    0  0.00000000000E+00  0.00000000000E+00  0.99999998245E-14  0.12500000000E+03  0.12500000000E+03 0.  0.
        -11    1    3    3    0    0 -0.30611970636E+02 -0.45154204534E+02 -0.10440266947E+02  0.55542723263E+02  0.51100000000E-03 0.  1.
         23    2    1    0    0    0 -0.29529703980E+02 -0.94056961375E+01  0.32506610692E+01  0.93838528046E+02  0.88513456668E+02 0.  0.
         11    1    3    3    0    0  0.10822666558E+01  0.35748508397E+02  0.13690928016E+02  0.38295804782E+02  0.51100000000E-03 0. -1.
         22    1    1    0    0    0  0.29529703980E+02  0.94056961375E+01 -0.32506610692E+01  0.31161471954E+02  0.00000000000E+00 0.  1.
</event>
<event>
 5    1  0.1681104E-003  0.9118800E+02  0.7818608E-02  0.1130116E+00
         25   -1    0    0    0    0  0.00000000000E+00  0.00000000000E+00  0.99999998245E-14  0.12500000000E+03  0.12500000000E+03 0.  0.
        -11    1    3    3    0    0 -0.28633356263E+02  0.68124360393E+01  0.17476689258E+02  0.34230294234E+02  0.51100000000E-03 0. -1.
         23    2    1    0    0    0  0.67799186925E+01 -0.53213239304E+01 -0.29482009430E+02  0.94283999839E+02  0.89140338566E+02 0.  0.
         11    1    3    3    0    0  0.35413274955E+02 -0.12133759970E+02 -0.46958698689E+02  0.60053705605E+02  0.51100000000E-03 0.  1.
         22    1    1    0    0    0 -0.67799186925E+01  0.53213239304E+01  0.29482009430E+02  0.30716000161E+02  0.00000000000E+00 0.  1.
</event>
<event>
 5    1  0.1681104E-003  0.9118800E+02  0.7818608E-02  0.1130116E+00
         25   -1    0    0    0    0  0.00000000000E+00  0.00000000000E+00  0.99999998245E-14  0.12500000000E+03  0.12500000000E+03 0.  0.
        -11    1    3    3    0    0  0.33708603241E+02  0.18915038388E+02 -0.48466920817E+02  0.61992669110E+02  0.51100000000E-03 0. -1.
         23    2    1    0    0    0  0.19654759920E+02  0.86829247909E+01 -0.18457603186E+02  0.96673583252E+02  0.92430491792E+02 0.  0.
         11    1    3    3    0    0 -0.14053843321E+02 -0.10232113597E+02  0.30009317631E+02  0.34680914142E+02  0.51100000000E-03 0.  1.
         22    1    1    0    0    0 -0.19654759920E+02 -0.86829247909E+01  0.18457603186E+02  0.28326416748E+02  0.00000000000E+00 0. -1.
</event>
<event>
 5    1  0.1681104E-003  0.9118800E+02  0.7818608E-02  0.1130116E+00
         25   -1    0    0    0    0  0.00000000000E+00  0.00000000000E+00  0.99999998245E-14  0.12500000000E+03  0.12500000000E+03 0.  0.
        -11    1    3    3    0    0 -0.14019397333E+02  0.14811598977E+02  0.28284330188E+02  0.34870192145E+02  0.51100000000E-03 0.  1.
         23    2    1    0    0    0  0.72761213152E+01 -0.22129601870E+02 -0.16304783728E+02  0.96565739104E+02  0.92284531618E+02 0.  0.
         11    1    3    3    0    0  0.21295518648E+02 -0.36941200847E+02 -0.44589113915E+02  0.61695546958E+02  0.51100000000E-03 0. -1.
         22    1    1    0    0    0 -0.72761213152E+01  0.22129601870E+02  0.16304783728E+02  0.28434260896E+02  0.00000000000E+00 0. -1.
</event>
<event>
 5    1  0.1681104E-003  0.9118800E+02  0.7818608E-02  0.1130116E+00
         25   -1    0    0    0    0  0.00000000000E+00  0.00000000000E+00  0.99999998245E-14  0.12500000000E+03  0.12500000000E+03 0.  0.
        -11    1    3    3    0    0 -0.18515681323E+02 -0.45951359292E+02  0.35881481795E+02  0.61170569817E+02  0.51100000000E-03 0.  1.
         23    2    1    0    0    0 -0.16479837266E+02 -0.16963661223E+02  0.17848702424E+02  0.95370166780E+02  0.90650657444E+02 0.  0.
         11    1    3    3    0    0  0.20358440564E+01  0.28987698069E+02 -0.18032779371E+02  0.34199596963E+02  0.51100000000E-03 0. -1.
         22    1    1    0    0    0  0.16479837266E+02  0.16963661223E+02 -0.17848702424E+02  0.29629833220E+02  0.00000000000E+00 0.  1.
</event>
<event>
 5    1  0.1681104E-003  0.9118800E+02  0.7818608E-02  0.1130116E+00
         25   -1    0    0    0    0  0.00000000000E+00  0.00000000000E+00  0.99999998245E-14  0.12500000000E+03  0.12500000000E+03 0.  0.
        -11    1    3    3    0    0 -0.21775648909E+02  0.10639706393E+02 -0.45028947006E+02  0.51136956365E+02  0.51100000000E-03 0. -1.
         23    2    1    0    0    0 -0.16778120006E+02 -0.20566127075E+02 -0.16261458196E+02  0.93872746404E+02  0.88561767151E+02 0.  0.
         11    1    3    3    0    0  0.49975289032E+01 -0.31205833467E+02  0.28767488811E+02  0.42735790039E+02  0.51100000000E-03 0.  1.
         22    1    1    0    0    0  0.16778120006E+02  0.20566127075E+02  0.16261458196E+02  0.31127253596E+02  0.00000000000E+00 0.  1.
</event>
<event>
 5    1  0.1681104E-003  0.9118800E+02  0.7818608E-02  0.1130116E+00
         25   -1    0    0    0    0  0.00000000000E+00  0.00000000000E+00  0.99999998245E-14  0.12500000000E+03  0.12500000000E+03 0.  0.
        -11    1    3    3    0    0  0.37344910279E+02 -0.46639009302E+02  0.14493484441E+02  0.61480896252E+02  0.51100000000E-03 0. -1.
         23    2    1    0    0    0  0.17903842856E+02 -0.22283732741E+02 -0.12349139003E+01  0.96388160733E+02  0.92043686276E+02 0.  0.
         11    1    3    3    0    0 -0.19441067423E+02  0.24355276561E+02 -0.15728398341E+02  0.34907264481E+02  0.51100000000E-03 0.  1.
         22    1    1    0    0    0 -0.17903842856E+02  0.22283732741E+02  0.12349139003E+01  0.28611839267E+02  0.00000000000E+00 0. -1.
</event>
<event>
 5    1  0.1681104E-003  0.9118800E+02  0.7818608E-02  0.1130116E+00
         25   -1    0    0    0    0  0.00000000000E+00  0.00000000000E+00  0.99999998245E-14  0.12500000000E+03  0.12500000000E+03 0.  0.
        -11    1    3    3    0    0 -0.10915633055E+02  0.38170723386E+02 -0.33903088527E+02  0.52207035740E+02  0.51100000000E-03 0.  1.
         23    2    1    0    0    0  0.10626043428E+02  0.37134676564E+00 -0.26640891649E+02  0.96315721986E+02  0.91945258151E+02 0.  0.
         11    1    3    3    0    0  0.21541676482E+02 -0.37799376621E+02  0.72621968775E+01  0.44108686246E+02  0.51100000000E-03 0. -1.
         22    1    1    0    0    0 -0.10626043428E+02 -0.37134676564E+00  0.26640891649E+02  0.28684278014E+02  0.00000000000E+00 0.  1.
</event>
<event>
 5    1  0.1681104E-003  0.9118800E+02  0.7818608E-02  0.1130116E+00
         25   -1    0    0    0    0  0.00000000000E+00  0.00000000000E+00  0.99999998245E-14  0.12500000000E+03  0.12500000000E+03 0.  0.
        -11    1    3    3    0    0  0.19387111591E+02 -0.38306972543E+02  0.88013941976E+01  0.43826348027E+02  0.51100000000E-03 0.  1.
         23    2    1    0    0    0  0.23693746493E+02  0.14450099680E+02  0.24185157608E+01  0.97142357922E+02  0.93062288176E+02 0.  0.
         11    1    3    3    0    0  0.43066349019E+01  0.52757072224E+02 -0.63828784368E+01  0.53316009896E+02  0.51100000000E-03 0. -1.
         22    1    1    0    0    0 -0.23693746493E+02 -0.14450099680E+02 -0.24185157608E+01  0.27857642078E+02  0.00000000000E+00 0.  1.
</event>
<event>
 5    1  0.1681104E-003  0.9118800E+02  0.7818608E-02  0.1130116E+00
         25   -1    0    0    0    0  0.00000000000E+00  0.00000000000E+00  0.99999998245E-14  0.12500000000E+03  0.12500000000E+03 0.  0.
        -11    1    3    3    0    0 -0.81785214404E+01  0.35905979208E+02 -0.86190763718E+01  0.37820841259E+02  0.51100000000E-03 0.  1.
         23    2    1    0    0    0  0.29690774804E+02 -0.24569176155E+01  0.78590268511E+01  0.94188592118E+02  0.89006449370E+02 0.  0.
         11    1    3    3    0    0  0.37869296245E+02 -0.38362896823E+02  0.16478103223E+02  0.56367750858E+02  0.51100000000E-03 0. -1.
         22    1    1    0    0    0 -0.29690774804E+02  0.24569176155E+01 -0.78590268511E+01  0.30811407882E+02  0.00000000000E+00 0. -1.
</event>
<event>
 5    1  0.1681104E-003  0.9118800E+02  0.7818608E-02  0.1130116E+00
         25   -1    0    0    0    0  0.00000000000E+00  0.00000000000E+00  0.99999998245E-14  0.12500000000E+03  0.12500000000E+03 0.  0.
        -11    1    3    3    0    0 -0.35797875713E+02  0.14508240744E+01 -0.71151591381E+01  0.36526952869E+02  0.51100000000E-03 0. -1.
         23    2    1    0    0    0  0.25135871384E+02 -0.53974348504E+01 -0.86832017363E+01  0.97864371656E+02  0.94027086066E+02 0.  0.
         11    1    3    3    0    0  0.60933747097E+02 -0.68482589248E+01 -0.15680425982E+01  0.61337418787E+02  0.51100000000E-03 0.  1.
         22    1    1    0    0    0 -0.25135871384E+02  0.53974348504E+01  0.86832017363E+01  0.27135628344E+02  0.00000000000E+00 0.  1.
</event>
<event>
 5    1  0.1681104E-003  0.9118800E+02  0.7818608E-02  0.1130116E+00
         25   -1    0    0    0    0  0.00000000000E+00  0.00000000000E+00  0.99999998245E-14  0.12500000000E+03  0.12500000000E+03 0.  0.
        -11    1    3    3    0    0  0.15553738787E+02  0.28296398003E+02 -0.46194564675E+02  0.56360826254E+02  0.51100000000E-03 0.  1.
         23    2    1    0    0    0 -0.10805228345E+02  0.77994725645E+01 -0.27038459936E+02  0.94855961658E+02  0.89938814838E+02 0.  0.
         11    1    3    3    0    0 -0.26358967132E+02 -0.20496925438E+02  0.19156104740E+02  0.38495135404E+02  0.51100000000E-03 0. -1.
         22    1    1    0    0    0  0.10805228345E+02 -0.77994725645E+01  0.27038459936E+02  0.30144038342E+02  0.00000000000E+00 0.  1.
</event>
<event>
 5    1  0.1681104E-003  0.9118800E+02  0.7818608E-02  0.1130116E+00
         25   -1    0    0    0    0  0.00000000000E+00  0.00000000000E+00  0.99999998245E-14  0.12500000000E+03  0.12500000000E+03 0.  0.
        -11    1    3    3    0    0  0.34763162259E+02  0.34148393147E+02  0.23689917419E+01  0.48787317275E+02  0.51100000000E-03 0.  1.
         23    2    1    0    0    0 -0.73289951518E+00  0.14171108286E+02  0.25638088461E+02  0.95696945011E+02  0.91100144087E+02 0.  0.
         11    1    3    3    0    0 -0.35496061774E+02 -0.19977284861E+02  0.23269096719E+02  0.46909627735E+02  0.51100000000E-03 0. -1.
         22    1    1    0    0    0  0.73289951518E+00 -0.14171108286E+02 -0.25638088461E+02  0.29303054989E+02  0.00000000000E+00 0. -1.
</event>
<event>
 5    1  0.1681104E-003  0.9118800E+02  0.7818608E-02  0.1130116E+00
         25   -1    0    0    0    0  0.00000000000E+00  0.00000000000E+00  0.99999998245E-14  0.12500000000E+03  0.12500000000E+03 0.  0.
        -11    1    3    3    0    0  0.16393656624E+02 -0.14016342003E+02 -0.26779421536E+02  0.34385276482E+02  0.51100000000E-03 0.  1.
         23    2    1    0    0    0 -0.76292905811E+01  0.88825219276E+01  0.25859406693E+02  0.96613133582E+02  0.92348705434E+02 0.  0.
         11    1    3    3    0    0 -0.24022947206E+02  0.22898863930E+02  0.52638828228E+02  0.62227857100E+02  0.51100000000E-03 0. -1.
         22    1    1    0    0    0  0.76292905811E+01 -0.88825219276E+01 -0.25859406693E+02  0.28386866418E+02  0.00000000000E+00 0. -1.
</event>
<event>
 5    1  0.1681104E-003  0.9118800E+02  0.7818608E-02  0.1130116E+00
         25   -1    0    0    0    0  0.00000000000E+00  0.00000000000E+00  0.99999998245E-14  0.12500000000E+03  0.12500000000E+03 0.  0.
        -11    1    3    3    0    0  0.77423464129E+01 -0.59791576593E+02 -0.14349107235E+02  0.61974780662E+02  0.51100000000E-03 0.  1.
         23    2    1    0    0    0 -0.18943763389E+01 -0.29941530329E+02 -0.67880855458E+01  0.94240253487E+02  0.89078972669E+02 0.  0.
         11    1    3    3    0    0 -0.96367227518E+01  0.29850046264E+02  0.75610216895E+01  0.32265472825E+02  0.51100000000E-03 0. -1.
         22    1    1    0    0    0  0.18943763389E+01  0.29941530329E+02  0.67880855458E+01  0.30759746513E+02  0.00000000000E+00 0.  1.
</event>
<event>
 5    1  0.1681104E-003  0.9118800E+02  0.7818608E-02  0.1130116E+00
         25   -1    0    0    0    0  0.00000000000E+00  0.00000000000E+00  0.99999998245E-14  0.12500000000E+03  0.12500000000E+03 0.  0.
        -11    1    3    3    0    0 -0.18081028610E+02 -0.98376100432E+01 -0.49609510911E+02  0.53710387637E+02  0.51100000000E-03 0.  1.
         23    2    1    0    0    0  0.15097010447E+02 -0.29029259521E+01 -0.25202933553E+02  0.95478235771E+02  0.90799553648E+02 0.  0.
         11    1    3    3    0    0  0.33178039057E+02  0.69346840911E+01  0.24406577358E+02  0.41767848134E+02  0.51100000000E-03 0. -1.
         22    1    1    0    0    0 -0.15097010447E+02  0.29029259521E+01  0.25202933553E+02  0.29521764229E+02  0.00000000000E+00 0. -1.
</event>
<event>
 5    1  0.1681104E-003  0.9118800E+02  0.7818608E-02  0.1130116E+00
         25   -1    0    0    0    0  0.00000000000E+00  0.00000000000E+00  0.99999998245E-14  0.12500000000E+03  0.12500000000E+03 0.  0.
        -11    1    3    3    0    0 -0.24242370417E+02  0.33941460611E+02  0.17546280995E+02  0.45250273468E+02  0.51100000000E-03 0. -1.
         23    2    1    0    0    0  0.16090054268E+02  0.23055687762E+02 -0.98518012907E+01  0.95208850757E+02  0.90427941972E+02 0.  0.
         11    1    3    3    0    0  0.40332424686E+02 -0.10885772849E+02 -0.27398082286E+02  0.49958577289E+02  0.51100000000E-03 0.  1.
         22    1    1    0    0    0 -0.16090054268E+02 -0.23055687762E+02  0.98518012907E+01  0.29791149243E+02  0.00000000000E+00 0. -1.
</event>
<event>
 5    1  0.1681104E-003  0.9118800E+02  0.7818608E-02  0.1130116E+00
         25   -1    0    0    0    0  0.00000000000E+00  0.00000000000E+00  0.99999998245E-14  0.12500000000E+03  0.12500000000E+03 0.  0.
        -11    1    3    3    0    0  0.47900521651E+02  0.76380966335E+01  0.16718670331E+02  0.51306085726E+02  0.51100000000E-03 0.  1.
         23    2    1    0    0    0  0.13445942761E+02  0.27349381242E+02 -0.36787152199E+00  0.94521854379E+02  0.89473256310E+02 0.  0.
         11    1    3    3    0    0 -0.34454578891E+02  0.19711284609E+02 -0.17086541853E+02  0.43215768652E+02  0.51100000000E-03 0. -1.
         22    1    1    0    0    0 -0.13445942761E+02 -0.27349381242E+02  0.36787152199E+00  0.30478145621E+02  0.00000000000E+00 0.  1.
</event>
<event>
 5    1  0.1681104E-003  0.9118800E+02  0.7818608E-02  0.1130116E+00
         25   -1    0    0    0    0  0.00000000000E+00  0.00000000000E+00  0.99999998245E-14  0.12500000000E+03  0.12500000000E+03 0.  0.
        -11    1    3    3    0    0 -0.21289460541E+02 -0.43032869551E+01 -0.38081029446E+02  0.43839756074E+02  0.51100000000E-03 0.  1.
         23    2    1    0    0    0  0.25093192230E+02 -0.83534727009E-01 -0.13747061905E+02  0.96387817536E+02  0.92043220196E+02 0.  0.
         11    1    3    3    0    0  0.46382652770E+02  0.42197522281E+01  0.24333967540E+02  0.52548061462E+02  0.51100000000E-03 0. -1.
         22    1    1    0    0    0 -0.25093192230E+02  0.83534727009E-01  0.13747061905E+02  0.28612182464E+02  0.00000000000E+00 0. -1.
</event>
<event>
 5    1  0.1681104E-003  0.9118800E+02  0.7818608E-02  0.1130116E+00
         25   -1    0    0    0    0  0.00000000000E+00  0.00000000000E+00  0.99999998245E-14  0.12500000000E+03  0.12500000000E+03 0.  0.
        -11    1    3    3    0    0 -0.17828299198E+02  0.25835029451E+02 -0.20057886927E+02  0.37250715796E+02  0.51100000000E-03 0. -1.
         23    2    1    0    0    0  0.28794050733E+02  0.39712393893E+01  0.65372235358E+01  0.95207326547E+02  0.90425835007E+02 0.  0.
         11    1    3    3    0    0  0.46622349932E+02 -0.21863790062E+02  0.26595110463E+02  0.57956610752E+02  0.51100000000E-03 0.  1.
         22    1    1    0    0    0 -0.28794050733E+02 -0.39712393893E+01 -0.65372235358E+01  0.29792673453E+02  0.00000000000E+00 0.  1.
</event>
<event>
 5    1  0.1681104E-003  0.9118800E+02  0.7818608E-02  0.1130116E+00
         25   -1    0    0    0    0  0.00000000000E+00  0.00000000000E+00  0.99999998245E-14  0.12500000000E+03  0.12500000000E+03 0.  0.
        -11    1    3    3    0    0  0.57349890611E+02 -0.22940666416E+02  0.15788856287E+01  0.61788162367E+02  0.51100000000E-03 0. -1.
         23    2    1    0    0    0  0.26882497527E+02 -0.11294709253E+02 -0.58959437765E+01  0.95251028868E+02  0.90486226671E+02 0.  0.
         11    1    3    3    0    0 -0.30467393084E+02  0.11645957163E+02 -0.74748294052E+01  0.33462866501E+02  0.51100000000E-03 0.  1.
         22    1    1    0    0    0 -0.26882497527E+02  0.11294709253E+02  0.58959437765E+01  0.29748971132E+02  0.00000000000E+00 0. -1.
</event>
<event>
 5    1  0.1681104E-003  0.9118800E+02  0.7818608E-02  0.1130116E+00
         25   -1    0    0    0    0  0.00000000000E+00  0.00000000000E+00  0.99999998245E-14  0.12500000000E+03  0.12500000000E+03 0.  0.
        -11    1    3    3    0    0  0.18632194748E+02 -0.45093498167E+02  0.93348654066E+01  0.49676171053E+02  0.51100000000E-03 0. -1.
         23    2    1    0    0    0  0.28963253711E+02 -0.99181731792E+00 -0.44869965757E+00  0.96016295983E+02  0.91537282000E+02 0.  0.
         11    1    3    3    0    0  0.10331058963E+02  0.44101680849E+02 -0.97835650642E+01  0.46340124931E+02  0.51100000000E-03 0.  1.
         22    1    1    0    0    0 -0.28963253711E+02  0.99181731792E+00  0.44869965757E+00  0.28983704017E+02  0.00000000000E+00 0. -1.
</event>
<event>
 5    1  0.1681104E-003  0.9118800E+02  0.7818608E-02  0.1130116E+00
         25   -1    0    0    0    0  0.00000000000E+00  0.00000000000E+00  0.99999998245E-14  0.12500000000E+03  0.12500000000E+03 0.  0.
        -11    1    3    3    0    0  0.19921639772E+02  0.33840336686E+02  0.56224274255E+01  0.39669280415E+02  0.51100000000E-03 0. -1.
         23    2    1    0    0    0  0.23157626228E+02 -0.20346374775E+02  0.84614724433E+00  0.94162253906E+02  0.88969452491E+02 0.  0.
         11    1    3    3    0    0  0.32359864557E+01 -0.54186711461E+02 -0.47762801812E+01  0.54492973491E+02  0.51100000000E-03 0.  1.
         22    1    1    0    0    0 -0.23157626228E+02  0.20346374775E+02 -0.84614724433E+00  0.30837746094E+02  0.00000000000E+00 0.  1.
</event>
<event>
 5    1  0.1681104E-003  0.9118800E+02  0.7818608E-02  0.1130116E+00
         25   -1    0    0    0    0  0.00000000000E+00  0.00000000000E+00  0.99999998245E-14  0.12500000000E+03  0.12500000000E+03 0.  0.
        -11    1    3    3    0    0 -0.35165164160E+02  0.14467266433E+01 -0.97697731844E+01  0.36525747860E+02  0.51100000000E-03 0.  1.
         23    2    1    0    0    0  0.11767571363E+02  0.19856022956E+02  0.19468264890E+02  0.94804789763E+02  0.89867666270E+02 0.  0.
         11    1    3    3    0    0  0.46932735524E+02  0.18409296313E+02  0.29238038074E+02  0.58279041903E+02  0.51100000000E-03 0. -1.
         22    1    1    0    0    0 -0.11767571363E+02 -0.19856022956E+02 -0.19468264890E+02  0.30195210237E+02  0.00000000000E+00 0. -1.
</event>
<event>
 5    1  0.1681104E-003  0.9118800E+02  0.7818608E-02  0.1130116E+00
         25   -1    0    0    0    0  0.00000000000E+00  0.00000000000E+00  0.99999998245E-14  0.12500000000E+03  0.12500000000E+03 0.  0.
        -11    1    3    3    0    0 -0.13969368257E+02 -0.38564186464E+02  0.21448110846E+02  0.46285647736E+02  0.51100000000E-03 0. -1.
         23    2    1    0    0    0 -0.27065514419E+02 -0.38493513629E+01 -0.10957665057E+02  0.95547835390E+02  0.90895318073E+02 0.  0.
         11    1    3    3    0    0 -0.13096146162E+02  0.34714835102E+02 -0.32405775903E+02  0.49262187655E+02  0.51100000000E-03 0.  1.
         22    1    1    0    0    0  0.27065514419E+02  0.38493513629E+01  0.10957665057E+02  0.29452164610E+02  0.00000000000E+00 0. -1.
</event>
<event>
 5    1  0.1681104E-003  0.9118800E+02  0.7818608E-02  0.1130116E+00
         25   -1    0    0    0    0  0.00000000000E+00  0.00000000000E+00  0.99999998245E-14  0.12500000000E+03  0.12500000000E+03 0.  0.
        -11    1    3    3    0    0  0.41758590389E+02  0.20924701856E+02 -0.55473592226E+01  0.47036116056E+02  0.51100000000E-03 0.  1.
         23    2    1    0    0    0  0.19411916869E+02 -0.19195409900E+02  0.10597646623E+02  0.95715253259E+02  0.91125261672E+02 0.  0.
         11    1    3    3    0    0 -0.22346673521E+02 -0.40120111756E+02  0.16145005845E+02  0.48679137202E+02  0.51100000000E-03 0. -1.
         22    1    1    0    0    0 -0.19411916869E+02  0.19195409900E+02 -0.10597646623E+02  0.29284746741E+02  0.00000000000E+00 0. -1.
</event>
<event>
 5    1  0.1681104E-003  0.9118800E+02  0.7818608E-02  0.1130116E+00
         25   -1    0    0    0    0  0.00000000000E+00  0.00000000000E+00  0.99999998245E-14  0.12500000000E+03  0.12500000000E+03 0.  0.
        -11    1    3    3    0    0 -0.31565130940E+02  0.30129422695E+02 -0.31270138086E+02  0.53683900188E+02  0.51100000000E-03 0. -1.
         23    2    1    0    0    0 -0.12146077065E+01  0.70600695220E+00 -0.28946574166E+02  0.96019353464E+02  0.91541457089E+02 0.  0.
         11    1    3    3    0    0  0.30350523234E+02 -0.29423415743E+02  0.23235639202E+01  0.42335453276E+02  0.51100000000E-03 0.  1.
         22    1    1    0    0    0  0.12146077065E+01 -0.70600695220E+00  0.28946574166E+02  0.28980646536E+02  0.00000000000E+00 0. -1.
</event>
<event>
 5    1  0.1681104E-003  0.9118800E+02  0.7818608E-02  0.1130116E+00
         25   -1    0    0    0    0  0.00000000000E+00  0.00000000000E+00  0.99999998245E-14  0.12500000000E+03  0.12500000000E+03 0.  0.
        -11    1    3    3    0    0 -0.31618364210E+02  0.32595147714E+02  0.85848008198E+01  0.46215402359E+02  0.51100000000E-03 0.  1.
         23    2    1    0    0    0 -0.22321444444E+02 -0.16680737256E+02 -0.25144236198E+00  0.97133225864E+02  0.93050021311E+02 0.  0.
         11    1    3    3    0    0  0.92969197655E+01 -0.49275884970E+02 -0.88362431818E+01  0.50917823505E+02  0.51100000000E-03 0. -1.
         22    1    1    0    0    0  0.22321444444E+02  0.16680737256E+02  0.25144236198E+00  0.27866774136E+02  0.00000000000E+00 0.  1.
</event>
<event>
 5    1  0.1681104E-003  0.9118800E+02  0.7818608E-02  0.1130116E+00
         25   -1    0    0    0    0  0.00000000000E+00  0.00000000000E+00  0.99999998245E-14  0.12500000000E+03  0.12500000000E+03 0.  0.
        -11    1    3    3    0    0 -0.95728149307E+01 -0.21257333821E+01  0.37855116617E+02  0.39104569841E+02  0.51100000000E-03 0.  1.
         23    2    1    0    0    0  0.85417853368E+01 -0.18654629380E+02 -0.16458305815E+02  0.98697279146E+02  0.95127912762E+02 0.  0.
         11    1    3    3    0    0  0.18114600267E+02 -0.16528895997E+02 -0.54313422432E+02  0.59592709305E+02  0.51100000000E-03 0. -1.
         22    1    1    0    0    0 -0.85417853368E+01  0.18654629380E+02  0.16458305815E+02  0.26302720854E+02  0.00000000000E+00 0. -1.
</event>
<event>
 5    1  0.1681104E-003  0.9118800E+02  0.7818608E-02  0.1130116E+00
         25   -1    0    0    0    0  0.00000000000E+00  0.00000000000E+00  0.99999998245E-14  0.12500000000E+03  0.12500000000E+03 0.  0.
        -11    1    3    3    0    0  0.55734277960E+02  0.21583584752E+02  0.12023944055E+02  0.60965039993E+02  0.51100000000E-03 0. -1.
         23    2    1    0    0    0  0.23230445012E+02  0.18160264005E+02  0.86572894669E+00  0.95500877119E+02  0.90830717710E+02 0.  0.
         11    1    3    3    0    0 -0.32503832949E+02 -0.34233207469E+01 -0.11158215108E+02  0.34535837125E+02  0.51100000000E-03 0.  1.
         22    1    1    0    0    0 -0.23230445012E+02 -0.18160264005E+02 -0.86572894669E+00  0.29499122881E+02  0.00000000000E+00 0. -1.
</event>
<event>
 5    1  0.1681104E-003  0.9118800E+02  0.7818608E-02  0.1130116E+00
         25   -1    0    0    0    0  0.00000000000E+00  0.00000000000E+00  0.99999998245E-14  0.12500000000E+03  0.12500000000E+03 0.  0.
        -11    1    3    3    0    0  0.26990723537E+02 -0.19643934692E+02  0.26688254368E+02  0.42739282268E+02  0.51100000000E-03 0.  1.
         23    2    1    0    0    0  0.25540317838E+02  0.22956611531E+02  0.59291987672E+01  0.90150764051E+02  0.83142594455E+02 0.  0.
         11    1    3    3    0    0 -0.14504056996E+01  0.42600546223E+02 -0.20759055601E+02  0.47411481783E+02  0.51100000000E-03 0. -1.
         22    1    1    0    0    0 -0.25540317838E+02 -0.22956611531E+02 -0.59291987672E+01  0.34849235949E+02  0.00000000000E+00 0.  1.
</event>
<event>
 5    1  0.1681104E-003  0.9118800E+02  0.7818608E-02  0.1130116E+00
         25   -1    0    0    0    0  0.00000000000E+00  0.00000000000E+00  0.99999998245E-14  0.12500000000E+03  0.12500000000E+03 0.  0.
        -11    1    3    3    0    0  0.20893750792E+02 -0.41755539182E+02 -0.65805511403E+01  0.47152704357E+02  0.51100000000E-03 0.  1.
         23    2    1    0    0    0  0.19903861069E+02 -0.13286317754E+01  0.20948790357E+02  0.96072836896E+02  0.91614459688E+02 0.  0.
         11    1    3    3    0    0 -0.98988972345E+00  0.40426907407E+02  0.27529341497E+02  0.48920132539E+02  0.51100000000E-03 0. -1.
         22    1    1    0    0    0 -0.19903861069E+02  0.13286317754E+01 -0.20948790357E+02  0.28927163104E+02  0.00000000000E+00 0.  1.
</event>
<event>
 5    1  0.1681104E-003  0.9118800E+02  0.7818608E-02  0.1130116E+00
         25   -1    0    0    0    0  0.00000000000E+00  0.00000000000E+00  0.99999998245E-14  0.12500000000E+03  0.12500000000E+03 0.  0.
        -11    1    3    3    0    0  0.33673423147E+02 -0.21681015750E+01 -0.39007799959E+01  0.33967869756E+02  0.51100000000E-03 0. -1.
         23    2    1    0    0    0 -0.28078963418E+02  0.49598328618E+01  0.20397767793E+01  0.96413485382E+02  0.92078072013E+02 0.  0.
         11    1    3    3    0    0 -0.61752386566E+02  0.71279344369E+01  0.59405567752E+01  0.62445615627E+02  0.51100000000E-03 0.  1.
         22    1    1    0    0    0  0.28078963418E+02 -0.49598328618E+01 -0.20397767793E+01  0.28586514618E+02  0.00000000000E+00 0.  1.
</event>
<event>
 5    1  0.1681104E-003  0.9118800E+02  0.7818608E-02  0.1130116E+00
         25   -1    0    0    0    0  0.00000000000E+00  0.00000000000E+00  0.99999998245E-14  0.12500000000E+03  0.12500000000E+03 0.  0.
        -11    1    3    3    0    0  0.26919209161E+02 -0.31403414130E+02  0.94615998850E+01  0.42430414958E+02  0.51100000000E-03 0.  1.
         23    2    1    0    0    0  0.16500586983E+02  0.12468374528E+02 -0.19948344266E+02  0.96265592522E+02  0.91877081639E+02 0.  0.
         11    1    3    3    0    0 -0.10418622178E+02  0.43871788658E+02 -0.29409944151E+02  0.53835177564E+02  0.51100000000E-03 0. -1.
         22    1    1    0    0    0 -0.16500586983E+02 -0.12468374528E+02  0.19948344266E+02  0.28734407478E+02  0.00000000000E+00 0. -1.
</event>
<event>
 5    1  0.1681104E-003  0.9118800E+02  0.7818608E-02  0.1130116E+00
         25   -1    0    0    0    0  0.00000000000E+00  0.00000000000E+00  0.99999998245E-14  0.12500000000E+03  0.12500000000E+03 0.  0.
        -11    1    3    3    0    0  0.24950275289E+02  0.47434989875E+02 -0.90289200073E+01  0.54351779163E+02  0.51100000000E-03 0.  1.
         23    2    1    0    0    0  0.13048220303E+02  0.19760936143E+02  0.18336502452E+02  0.95050409477E+02  0.90208660168E+02 0.  0.
         11    1    3    3    0    0 -0.11902054986E+02 -0.27674053732E+02  0.27365422459E+02  0.40698630314E+02  0.51100000000E-03 0. -1.
         22    1    1    0    0    0 -0.13048220303E+02 -0.19760936143E+02 -0.18336502452E+02  0.29949590523E+02  0.00000000000E+00 0. -1.
</event>
<event>
 5    1  0.1681104E-003  0.9118800E+02  0.7818608E-02  0.1130116E+00
         25   -1    0    0    0    0  0.00000000000E+00  0.00000000000E+00  0.99999998245E-14  0.12500000000E+03  0.12500000000E+03 0.  0.
        -11    1    3    3    0    0 -0.21578297989E+02  0.10932243787E+02 -0.85539742329E+01  0.25657501315E+02  0.51100000000E-03 0.  1.
         23    2    1    0    0    0  0.20092725790E+02 -0.13439943380E+02  0.29308068635E+02  0.87009045881E+02  0.78276825882E+02 0.  0.
         11    1    3    3    0    0  0.41671023779E+02 -0.24372187168E+02  0.37862042868E+02  0.61351544565E+02  0.51100000000E-03 0. -1.
         22    1    1    0    0    0 -0.20092725790E+02  0.13439943380E+02 -0.29308068635E+02  0.37990954119E+02  0.00000000000E+00 0. -1.
</event>
<event>
 5    1  0.1681104E-003  0.9118800E+02  0.7818608E-02  0.1130116E+00
         25   -1    0    0    0    0  0.00000000000E+00  0.00000000000E+00  0.99999998245E-14  0.12500000000E+03  0.12500000000E+03 0.  0.
        -11    1    3    3    0    0  0.10004443755E+02  0.32194107457E+02  0.45766134953E+02  0.56842664950E+02  0.51100000000E-03 0. -1.
         23    2    1    0    0    0  0.71101862847E+01 -0.12205399756E+01  0.30437486242E+02  0.93719254555E+02  0.88344856323E+02 0.  0.
         11    1    3    3    0    0 -0.28942574705E+01 -0.33414647433E+02 -0.15328648710E+02  0.36876589605E+02  0.51100000000E-03 0.  1.
         22    1    1    0    0    0 -0.71101862847E+01  0.12205399756E+01 -0.30437486242E+02  0.31280745445E+02  0.00000000000E+00 0. -1.
</event>
<event>
 5    1  0.1681104E-003  0.9118800E+02  0.7818608E-02  0.1130116E+00
         25   -1    0    0    0    0  0.00000000000E+00  0.00000000000E+00  0.99999998245E-14  0.12500000000E+03  0.12500000000E+03 0.  0.
        -11    1    3    3    0    0 -0.18199836799E+02 -0.26792787251E+02  0.34046090807E+02  0.46991741910E+02  0.51100000000E-03 0.  1.
         23    2    1    0    0    0 -0.26362246323E+02  0.12177330397E+02  0.69859400133E+01  0.95132647177E+02  0.90322543112E+02 0.  0.
         11    1    3    3    0    0 -0.81624095232E+01  0.38970117648E+02 -0.27060150794E+02  0.48140905267E+02  0.51100000000E-03 0. -1.
         22    1    1    0    0    0  0.26362246323E+02 -0.12177330397E+02 -0.69859400133E+01  0.29867352823E+02  0.00000000000E+00 0. -1.
</event>
<event>
 5    1  0.1681104E-003  0.9118800E+02  0.7818608E-02  0.1130116E+00
         25   -1    0    0    0    0  0.00000000000E+00  0.00000000000E+00  0.99999998245E-14  0.12500000000E+03  0.12500000000E+03 0.  0.
        -11    1    3    3    0    0 -0.19533692143E+02  0.18199850367E+02  0.26230821015E+02  0.37428006272E+02  0.51100000000E-03 0. -1.
         23    2    1    0    0    0 -0.85673705625E+01 -0.42202892418E+01 -0.27076361760E+02  0.96288677393E+02  0.91908483549E+02 0.  0.
         11    1    3    3    0    0  0.10966321580E+02 -0.22420139609E+02 -0.53307182776E+02  0.58860671121E+02  0.51100000000E-03 0.  1.
         22    1    1    0    0    0  0.85673705625E+01  0.42202892418E+01  0.27076361760E+02  0.28711322607E+02  0.00000000000E+00 0.  1.
</event>
<event>
 5    1  0.1681104E-003  0.9118800E+02  0.7818608E-02  0.1130116E+00
         25   -1    0    0    0    0  0.00000000000E+00  0.00000000000E+00  0.99999998245E-14  0.12500000000E+03  0.12500000000E+03 0.  0.
        -11    1    3    3    0    0 -0.38016209929E+01  0.56041823525E+02  0.22900618685E+02  0.60659514032E+02  0.51100000000E-03 0. -1.
         23    2    1    0    0    0  0.60244887612E+01  0.35178839210E+02  0.71127785139E+01  0.88607187369E+02  0.80788593516E+02 0.  0.
         11    1    3    3    0    0  0.98261097541E+01 -0.20862984315E+02 -0.15787840171E+02  0.27947673337E+02  0.51100000000E-03 0.  1.
         22    1    1    0    0    0 -0.60244887612E+01 -0.35178839210E+02 -0.71127785139E+01  0.36392812631E+02  0.00000000000E+00 0. -1.
</event>
<event>
 5    1  0.1681104E-003  0.9118800E+02  0.7818608E-02  0.1130116E+00
         25   -1    0    0    0    0  0.00000000000E+00  0.00000000000E+00  0.99999998245E-14  0.12500000000E+03  0.12500000000E+03 0.  0.
        -11    1    3    3    0    0 -0.13476415546E+02  0.11673454524E+02 -0.31646804035E+02  0.36323594569E+02  0.51100000000E-03 0.  1.
         23    2    1    0    0    0  0.33771841916E+02  0.65255969945E+01 -0.68620342475E+01  0.89925675537E+02  0.82803495604E+02 0.  0.
         11    1    3    3    0    0  0.47248257462E+02 -0.51478575298E+01  0.24784769788E+02  0.53602080968E+02  0.51100000000E-03 0. -1.
         22    1    1    0    0    0 -0.33771841916E+02 -0.65255969945E+01  0.68620342475E+01  0.35074324463E+02  0.00000000000E+00 0. -1.
</event>
<event>
 5    1  0.1681104E-003  0.9118800E+02  0.7818608E-02  0.1130116E+00
         25   -1    0    0    0    0  0.00000000000E+00  0.00000000000E+00  0.99999998245E-14  0.12500000000E+03  0.12500000000E+03 0.  0.
        -11    1    3    3    0    0  0.57005404427E+02 -0.16700575753E+02  0.15973592160E+02  0.61511633136E+02  0.51100000000E-03 0. -1.
         23    2    1    0    0    0  0.26003341650E+02 -0.11719815019E+02  0.60363092362E+00  0.96471203822E+02  0.92156394003E+02 0.  0.
         11    1    3    3    0    0 -0.31002062777E+02  0.49807607337E+01 -0.15369961237E+02  0.34959570686E+02  0.51100000000E-03 0.  1.
         22    1    1    0    0    0 -0.26003341650E+02  0.11719815019E+02 -0.60363092362E+00  0.28528796178E+02  0.00000000000E+00 0. -1.
</event>
<event>
 5    1  0.1681104E-003  0.9118800E+02  0.7818608E-02  0.1130116E+00
         25   -1    0    0    0    0  0.00000000000E+00  0.00000000000E+00  0.99999998245E-14  0.12500000000E+03  0.12500000000E+03 0.  0.
        -11    1    3    3    0    0 -0.20743216222E+02  0.18816153409E+02 -0.19974332039E+02  0.34399165528E+02  0.51100000000E-03 0.  1.
         23    2    1    0    0    0  0.12669229996E+02  0.39333789908E+02  0.84418264786E+01  0.82822744856E+02  0.71278932470E+02 0.  0.
         11    1    3    3    0    0  0.33412446218E+02  0.20517636499E+02  0.28416158518E+02  0.48423579328E+02  0.51100000000E-03 0. -1.
         22    1    1    0    0    0 -0.12669229996E+02 -0.39333789908E+02 -0.84418264786E+01  0.42177255144E+02  0.00000000000E+00 0. -1.
</event>
<event>
 5    1  0.1681104E-003  0.9118800E+02  0.7818608E-02  0.1130116E+00
         25   -1    0    0    0    0  0.00000000000E+00  0.00000000000E+00  0.99999998245E-14  0.12500000000E+03  0.12500000000E+03 0.  0.
        -11    1    3    3    0    0  0.48429082934E+02 -0.15455689596E+02  0.30109385868E+02  0.59083242398E+02  0.51100000000E-03 0. -1.
         23    2    1    0    0    0  0.24977760514E+02 -0.15473366595E+02  0.22025343492E+01  0.95535364389E+02  0.90878166230E+02 0.  0.
         11    1    3    3    0    0 -0.23451322419E+02 -0.17676999349E-01 -0.27906851519E+02  0.36452121991E+02  0.51100000000E-03 0.  1.
         22    1    1    0    0    0 -0.24977760514E+02  0.15473366595E+02 -0.22025343492E+01  0.29464635611E+02  0.00000000000E+00 0. -1.
</event>
<event>
 5    1  0.1681104E-003  0.9118800E+02  0.7818608E-02  0.1130116E+00
         25   -1    0    0    0    0  0.00000000000E+00  0.00000000000E+00  0.99999998245E-14  0.12500000000E+03  0.12500000000E+03 0.  0.
        -11    1    3    3    0    0 -0.42749684541E+02 -0.43328917508E+02  0.17537044600E+01  0.60893399481E+02  0.51100000000E-03 0. -1.
         23    2    1    0    0    0 -0.11066789318E+02 -0.25333350685E+02  0.61787285113E+00  0.97347979286E+02  0.93338067375E+02 0.  0.
         11    1    3    3    0    0  0.31682895223E+02  0.17995566823E+02 -0.11358316089E+01  0.36454579804E+02  0.51100000000E-03 0.  1.
         22    1    1    0    0    0  0.11066789318E+02  0.25333350685E+02 -0.61787285113E+00  0.27652020714E+02  0.00000000000E+00 0. -1.
</event>
<event>
 5    1  0.1681104E-003  0.9118800E+02  0.7818608E-02  0.1130116E+00
         25   -1    0    0    0    0  0.00000000000E+00  0.00000000000E+00  0.99999998245E-14  0.12500000000E+03  0.12500000000E+03 0.  0.
        -11    1    3    3    0    0  0.48539851964E+02 -0.16485713538E+02 -0.50396704633E+01  0.51510137432E+02  0.51100000000E-03 0. -1.
         23    2    1    0    0    0  0.20636048633E+02  0.16845029041E+02  0.84988799790E+01  0.97038732727E+02  0.92922995979E+02 0.  0.
         11    1    3    3    0    0 -0.27903803331E+02  0.33330742580E+02  0.13538550442E+02  0.45528595296E+02  0.51100000000E-03 0.  1.
         22    1    1    0    0    0 -0.20636048633E+02 -0.16845029041E+02 -0.84988799790E+01  0.27961267273E+02  0.00000000000E+00 0. -1.
</event>
<event>
 5    1  0.1681104E-003  0.9118800E+02  0.7818608E-02  0.1130116E+00
         25   -1    0    0    0    0  0.00000000000E+00  0.00000000000E+00  0.99999998245E-14  0.12500000000E+03  0.12500000000E+03 0.  0.
        -11    1    3    3    0    0  0.29808102088E+02 -0.22117591957E+02 -0.25711406866E+02  0.45152931991E+02  0.51100000000E-03 0. -1.
         23    2    1    0    0    0  0.17412838532E+02  0.22531485152E+02 -0.42889341337E+01  0.96202956316E+02  0.91791824685E+02 0.  0.
         11    1    3    3    0    0 -0.12395263556E+02  0.44649077110E+02  0.21422472732E+02  0.51050024325E+02  0.51100000000E-03 0.  1.
         22    1    1    0    0    0 -0.17412838532E+02 -0.22531485152E+02  0.42889341337E+01  0.28797043684E+02  0.00000000000E+00 0.  1.
</event>
<event>
 5    1  0.1681104E-003  0.9118800E+02  0.7818608E-02  0.1130116E+00
         25   -1    0    0    0    0  0.00000000000E+00  0.00000000000E+00  0.99999998245E-14  0.12500000000E+03  0.12500000000E+03 0.  0.
        -11    1    3    3    0    0 -0.26792924872E+02  0.84612576987E+01 -0.42113532527E+02  0.50626113096E+02  0.51100000000E-03 0.  1.
         23    2    1    0    0    0 -0.14646979350E+02 -0.22759952531E+02 -0.13160701798E+02  0.94904260848E+02  0.90005917650E+02 0.  0.
         11    1    3    3    0    0  0.12145945523E+02 -0.31221210229E+02  0.28952830729E+02  0.44278147752E+02  0.51100000000E-03 0. -1.
         22    1    1    0    0    0  0.14646979350E+02  0.22759952531E+02  0.13160701798E+02  0.30095739152E+02  0.00000000000E+00 0.  1.
</event>
<event>
 5    1  0.1681104E-003  0.9118800E+02  0.7818608E-02  0.1130116E+00
         25   -1    0    0    0    0  0.00000000000E+00  0.00000000000E+00  0.99999998245E-14  0.12500000000E+03  0.12500000000E+03 0.  0.
        -11    1    3    3    0    0  0.24146014240E+01  0.37820061955E+02 -0.11601301084E+02  0.39633036389E+02  0.51100000000E-03 0. -1.
         23    2    1    0    0    0  0.33042855950E+02 -0.26518638391E+01  0.64543681415E+00  0.91844618841E+02  0.85651355565E+02 0.  0.
         11    1    3    3    0    0  0.30628254526E+02 -0.40471925794E+02  0.12246737898E+02  0.52211582452E+02  0.51100000000E-03 0.  1.
         22    1    1    0    0    0 -0.33042855950E+02  0.26518638391E+01 -0.64543681415E+00  0.33155381159E+02  0.00000000000E+00 0.  1.
</event>
<event>
 5    1  0.1681104E-003  0.9118800E+02  0.7818608E-02  0.1130116E+00
         25   -1    0    0    0    0  0.00000000000E+00  0.00000000000E+00  0.99999998245E-14  0.12500000000E+03  0.12500000000E+03 0.  0.
        -11    1    3    3    0    0 -0.36580248235E+02 -0.12202605831E+02  0.72762963716E+01  0.39242357717E+02  0.51100000000E-03 0.  1.
         23    2    1    0    0    0  0.17877538873E+02 -0.22658345420E+02 -0.40960802361E+01  0.95848929923E+02  0.91308446930E+02 0.  0.
         11    1    3    3    0    0  0.54457787108E+02 -0.10455739589E+02 -0.11372376608E+02  0.56606572207E+02  0.51100000000E-03 0. -1.
         22    1    1    0    0    0 -0.17877538873E+02  0.22658345420E+02  0.40960802361E+01  0.29151070077E+02  0.00000000000E+00 0. -1.
</event>
<event>
 5    1  0.1681104E-003  0.9118800E+02  0.7818608E-02  0.1130116E+00
         25   -1    0    0    0    0  0.00000000000E+00  0.00000000000E+00  0.99999998245E-14  0.12500000000E+03  0.12500000000E+03 0.  0.
        -11    1    3    3    0    0  0.43875603719E+02  0.15840497024E+02  0.29228545174E+02  0.55048140758E+02  0.51100000000E-03 0. -1.
         23    2    1    0    0    0  0.27947704728E+02  0.61493031716E+01 -0.67748848548E+01  0.95592735696E+02  0.90957044389E+02 0.  0.
         11    1    3    3    0    0 -0.15927898991E+02 -0.96911938522E+01 -0.36003430029E+02  0.40544594938E+02  0.51100000000E-03 0.  1.
         22    1    1    0    0    0 -0.27947704728E+02 -0.61493031716E+01  0.67748848548E+01  0.29407264304E+02  0.00000000000E+00 0. -1.
</event>
<event>
 5    1  0.1681104E-003  0.9118800E+02  0.7818608E-02  0.1130116E+00
         25   -1    0    0    0    0  0.00000000000E+00  0.00000000000E+00  0.99999998245E-14  0.12500000000E+03  0.12500000000E+03 0.  0.
        -11    1    3    3    0    0  0.13859831848E+02 -0.37486301532E+02  0.29132833490E+02  0.49457453724E+02  0.51100000000E-03 0. -1.
         23    2    1    0    0    0 -0.20739742926E+01 -0.27352210284E+02 -0.12259981840E+02  0.94954169482E+02  0.90075203971E+02 0.  0.
         11    1    3    3    0    0 -0.15933806141E+02  0.10134091247E+02 -0.41392815331E+02  0.45496715758E+02  0.51100000000E-03 0.  1.
         22    1    1    0    0    0  0.20739742926E+01  0.27352210284E+02  0.12259981840E+02  0.30045830518E+02  0.00000000000E+00 0. -1.
</event>
<event>
 5    1  0.1681104E-003  0.9118800E+02  0.7818608E-02  0.1130116E+00
         25   -1    0    0    0    0  0.00000000000E+00  0.00000000000E+00  0.99999998245E-14  0.12500000000E+03  0.12500000000E+03 0.  0.
        -11    1    3    3    0    0 -0.22571384008E+02 -0.21945134631E+02 -0.30680450110E+02  0.43958461406E+02  0.51100000000E-03 0. -1.
         23    2    1    0    0    0  0.40056029834E+01  0.15280443815E+01  0.19294432162E+02  0.10523500854E+03  0.10336223747E+03 0.  0.
         11    1    3    3    0    0  0.26576986991E+02  0.23473179012E+02  0.49974882272E+02  0.61276547135E+02  0.51100000000E-03 0.  1.
         22    1    1    0    0    0 -0.40056029834E+01 -0.15280443815E+01 -0.19294432162E+02  0.19764991458E+02  0.00000000000E+00 0.  1.
</event>
<event>
 5    1  0.1681104E-003  0.9118800E+02  0.7818608E-02  0.1130116E+00
         25   -1    0    0    0    0  0.00000000000E+00  0.00000000000E+00  0.99999998245E-14  0.12500000000E+03  0.12500000000E+03 0.  0.
        -11    1    3    3    0    0  0.11223038878E+02 -0.36541051508E+02  0.34626159792E+02  0.51576893947E+02  0.51100000000E-03 0. -1.
         23    2    1    0    0    0  0.25015593478E+02 -0.52610649708E+01  0.11690795628E+01  0.99410442194E+02  0.96060452572E+02 0.  0.
         11    1    3    3    0    0  0.13792554600E+02  0.31279986537E+02 -0.33457080229E+02  0.47833548247E+02  0.51100000000E-03 0.  1.
         22    1    1    0    0    0 -0.25015593478E+02  0.52610649708E+01 -0.11690795628E+01  0.25589557806E+02  0.00000000000E+00 0. -1.
</event>
<event>
 5    1  0.1681104E-003  0.9118800E+02  0.7818608E-02  0.1130116E+00
         25   -1    0    0    0    0  0.00000000000E+00  0.00000000000E+00  0.99999998245E-14  0.12500000000E+03  0.12500000000E+03 0.  0.
        -11    1    3    3    0    0  0.37064364532E+02  0.91289510453E+01 -0.23532618401E+02  0.44842936951E+02  0.51100000000E-03 0. -1.
         23    2    1    0    0    0 -0.82137627342E+01 -0.15987986806E+02 -0.21928895883E+02  0.96645845190E+02  0.92392972122E+02 0.  0.
         11    1    3    3    0    0 -0.45278127267E+02 -0.25116937851E+02  0.16037225179E+01  0.51802908239E+02  0.51100000000E-03 0.  1.
         22    1    1    0    0    0  0.82137627342E+01  0.15987986806E+02  0.21928895883E+02  0.28354154810E+02  0.00000000000E+00 0.  1.
</event>
<event>
 5    1  0.1681104E-003  0.9118800E+02  0.7818608E-02  0.1130116E+00
         25   -1    0    0    0    0  0.00000000000E+00  0.00000000000E+00  0.99999998245E-14  0.12500000000E+03  0.12500000000E+03 0.  0.
        -11    1    3    3    0    0  0.54305967788E+02  0.58420699243E+01  0.29963782954E+02  0.62298444664E+02  0.51100000000E-03 0.  1.
         23    2    1    0    0    0  0.23408811719E+02  0.11227378099E+01  0.16544111576E+02  0.96313058125E+02  0.91941636548E+02 0.  0.
         11    1    3    3    0    0 -0.30897156068E+02 -0.47193321144E+01 -0.13419671378E+02  0.34014613461E+02  0.51100000000E-03 0. -1.
         22    1    1    0    0    0 -0.23408811719E+02 -0.11227378099E+01 -0.16544111576E+02  0.28686941875E+02  0.00000000000E+00 0.  1.
</event>
<event>
 5    1  0.1681104E-003  0.9118800E+02  0.7818608E-02  0.1130116E+00
         25   -1    0    0    0    0  0.00000000000E+00  0.00000000000E+00  0.99999998245E-14  0.12500000000E+03  0.12500000000E+03 0.  0.
        -11    1    3    3    0    0  0.15018037065E+02 -0.97285971689E+01 -0.37482433825E+02  0.41534562546E+02  0.51100000000E-03 0.  1.
         23    2    1    0    0    0  0.12423062418E+02 -0.10918202273E+02  0.19977121270E+02  0.99064985156E+02  0.95609865019E+02 0.  0.
         11    1    3    3    0    0 -0.25949746466E+01 -0.11896051043E+01  0.57459555095E+02  0.57530422610E+02  0.51100000000E-03 0. -1.
         22    1    1    0    0    0 -0.12423062418E+02  0.10918202273E+02 -0.19977121270E+02  0.25935014844E+02  0.00000000000E+00 0. -1.
</event>
<event>
 5    1  0.1681104E-003  0.9118800E+02  0.7818608E-02  0.1130116E+00
         25   -1    0    0    0    0  0.00000000000E+00  0.00000000000E+00  0.99999998245E-14  0.12500000000E+03  0.12500000000E+03 0.  0.
        -11    1    3    3    0    0 -0.19704430440E+02 -0.13351416226E+02 -0.23534387592E+02  0.33472261558E+02  0.51100000000E-03 0. -1.
         23    2    1    0    0    0  0.25935892266E+02  0.43015726826E+01  0.14064614183E+02  0.95184108142E+02  0.90393733386E+02 0.  0.
         11    1    3    3    0    0  0.45640322706E+02  0.17652988909E+02  0.37599001775E+02  0.61711846584E+02  0.51100000000E-03 0.  1.
         22    1    1    0    0    0 -0.25935892266E+02 -0.43015726826E+01 -0.14064614183E+02  0.29815891858E+02  0.00000000000E+00 0.  1.
</event>
<event>
 5    1  0.1681104E-003  0.9118800E+02  0.7818608E-02  0.1130116E+00
         25   -1    0    0    0    0  0.00000000000E+00  0.00000000000E+00  0.99999998245E-14  0.12500000000E+03  0.12500000000E+03 0.  0.
        -11    1    3    3    0    0  0.18150416222E+02 -0.25085430164E+02  0.17242740386E+02  0.35440492545E+02  0.51100000000E-03 0. -1.
         23    2    1    0    0    0  0.16760741734E+02  0.22051950721E+02 -0.15883496719E+02  0.93070445320E+02  0.87422030004E+02 0.  0.
         11    1    3    3    0    0 -0.13896744880E+01  0.47137380885E+02 -0.33126237105E+02  0.57629952775E+02  0.51100000000E-03 0.  1.
         22    1    1    0    0    0 -0.16760741734E+02 -0.22051950721E+02  0.15883496719E+02  0.31929554680E+02  0.00000000000E+00 0.  1.
</event>
<event>
 5    1  0.1681104E-003  0.9118800E+02  0.7818608E-02  0.1130116E+00
         25   -1    0    0    0    0  0.00000000000E+00  0.00000000000E+00  0.99999998245E-14  0.12500000000E+03  0.12500000000E+03 0.  0.
        -11    1    3    3    0    0  0.46430194534E+02 -0.14402283474E+02 -0.25895077316E+02  0.55079431399E+02  0.51100000000E-03 0. -1.
         23    2    1    0    0    0  0.53388937891E+01 -0.22058211209E+02 -0.13114767917E+02  0.98788063670E+02  0.95247130757E+02 0.  0.
         11    1    3    3    0    0 -0.41091300745E+02 -0.76559277357E+01  0.12780309399E+02  0.43708632271E+02  0.51100000000E-03 0.  1.
         22    1    1    0    0    0 -0.53388937891E+01  0.22058211209E+02  0.13114767917E+02  0.26211936330E+02  0.00000000000E+00 0.  1.
</event>
<event>
 5    1  0.1681104E-003  0.9118800E+02  0.7818608E-02  0.1130116E+00
         25   -1    0    0    0    0  0.00000000000E+00  0.00000000000E+00  0.99999998245E-14  0.12500000000E+03  0.12500000000E+03 0.  0.
        -11    1    3    3    0    0  0.22560925160E+02 -0.13716424832E+02  0.55384310228E+02  0.61355989715E+02  0.51100000000E-03 0.  1.
         23    2    1    0    0    0  0.16803693073E+02 -0.91761874169E+01  0.20714579950E+02  0.96792548167E+02  0.92591236312E+02 0.  0.
         11    1    3    3    0    0 -0.57572320866E+01  0.45402374148E+01 -0.34669730278E+02  0.35436558452E+02  0.51100000000E-03 0. -1.
         22    1    1    0    0    0 -0.16803693073E+02  0.91761874169E+01 -0.20714579950E+02  0.28207451833E+02  0.00000000000E+00 0.  1.
</event>
<event>
 5    1  0.1681104E-003  0.9118800E+02  0.7818608E-02  0.1130116E+00
         25   -1    0    0    0    0  0.00000000000E+00  0.00000000000E+00  0.99999998245E-14  0.12500000000E+03  0.12500000000E+03 0.  0.
        -11    1    3    3    0    0 -0.16425457395E+02 -0.11712969444E+01 -0.32622696953E+02  0.36543233901E+02  0.51100000000E-03 0. -1.
         23    2    1    0    0    0 -0.47212673796E+01  0.22642609577E+02  0.19314725610E+02  0.94866351705E+02  0.89953254118E+02 0.  0.
         11    1    3    3    0    0  0.11704190016E+02  0.23813906522E+02  0.51937422563E+02  0.58323117805E+02  0.51100000000E-03 0.  1.
         22    1    1    0    0    0  0.47212673796E+01 -0.22642609577E+02 -0.19314725610E+02  0.30133648295E+02  0.00000000000E+00 0.  1.
</event>
<event>
 5    1  0.1681104E-003  0.9118800E+02  0.7818608E-02  0.1130116E+00
         25   -1    0    0    0    0  0.00000000000E+00  0.00000000000E+00  0.99999998245E-14  0.12500000000E+03  0.12500000000E+03 0.  0.
        -11    1    3    3    0    0 -0.10071768812E+02 -0.41690336171E+02 -0.39122697839E+02  0.58052649754E+02  0.51100000000E-03 0.  1.
         23    2    1    0    0    0  0.10917003301E+02 -0.15173496765E+02 -0.22539202224E+02  0.95718066969E+02  0.91129121263E+02 0.  0.
         11    1    3    3    0    0  0.20988772113E+02  0.26516839406E+02  0.16583495614E+02  0.37665417214E+02  0.51100000000E-03 0. -1.
         22    1    1    0    0    0 -0.10917003301E+02  0.15173496765E+02  0.22539202224E+02  0.29281933031E+02  0.00000000000E+00 0.  1.
</event>
<event>
 5    1  0.1681104E-003  0.9118800E+02  0.7818608E-02  0.1130116E+00
         25   -1    0    0    0    0  0.00000000000E+00  0.00000000000E+00  0.99999998245E-14  0.12500000000E+03  0.12500000000E+03 0.  0.
        -11    1    3    3    0    0 -0.45577789899E+01  0.26027356284E+02  0.49186669134E+02  0.55834801380E+02  0.51100000000E-03 0. -1.
         23    2    1    0    0    0  0.73760908999E+01 -0.73698701146E+01  0.22441811982E+02  0.10025415939E+03  0.97152147930E+02 0.  0.
         11    1    3    3    0    0  0.11933869890E+02 -0.33397226398E+02 -0.26744857152E+02  0.44419358010E+02  0.51100000000E-03 0.  1.
         22    1    1    0    0    0 -0.73760908999E+01  0.73698701146E+01 -0.22441811982E+02  0.24745840610E+02  0.00000000000E+00 0. -1.
</event>
<event>
 5    1  0.1681104E-003  0.9118800E+02  0.7818608E-02  0.1130116E+00
         25   -1    0    0    0    0  0.00000000000E+00  0.00000000000E+00  0.99999998245E-14  0.12500000000E+03  0.12500000000E+03 0.  0.
        -11    1    3    3    0    0 -0.12899877458E+02 -0.34272633937E+02  0.27990877168E+02  0.46092401546E+02  0.51100000000E-03 0. -1.
         23    2    1    0    0    0 -0.95734895011E+01 -0.20768340744E+02 -0.19106324080E+02  0.95200213116E+02  0.90416001233E+02 0.  0.
         11    1    3    3    0    0  0.33263879568E+01  0.13504293193E+02 -0.47097201248E+02  0.49107811570E+02  0.51100000000E-03 0.  1.
         22    1    1    0    0    0  0.95734895011E+01  0.20768340744E+02  0.19106324080E+02  0.29799786884E+02  0.00000000000E+00 0. -1.
</event>
<event>
 5    1  0.1681104E-003  0.9118800E+02  0.7818608E-02  0.1130116E+00
         25   -1    0    0    0    0  0.00000000000E+00  0.00000000000E+00  0.99999998245E-14  0.12500000000E+03  0.12500000000E+03 0.  0.
        -11    1    3    3    0    0  0.12568969040E+02 -0.31804895482E+02  0.28797340863E+02  0.44708133492E+02  0.51100000000E-03 0. -1.
         23    2    1    0    0    0 -0.24329229417E+02  0.25774012570E+01  0.80338653543E+01  0.99249322459E+02  0.95850563977E+02 0.  0.
         11    1    3    3    0    0 -0.36898198457E+02  0.34382296739E+02 -0.20763475508E+02  0.54541188967E+02  0.51100000000E-03 0.  1.
         22    1    1    0    0    0  0.24329229417E+02 -0.25774012570E+01 -0.80338653543E+01  0.25750677541E+02  0.00000000000E+00 0.  1.
</event>
<event>
 5    1  0.1681104E-003  0.9118800E+02  0.7818608E-02  0.1130116E+00
         25   -1    0    0    0    0  0.00000000000E+00  0.00000000000E+00  0.99999998245E-14  0.12500000000E+03  0.12500000000E+03 0.  0.
        -11    1    3    3    0    0  0.24717908839E+01  0.11500076643E+02  0.33429526460E+02  0.35438605398E+02  0.51100000000E-03 0. -1.
         23    2    1    0    0    0 -0.17672675411E+02 -0.14831153592E+02 -0.17384966614E+02  0.96111877229E+02  0.91667711367E+02 0.  0.
         11    1    3    3    0    0 -0.20144466295E+02 -0.26331230235E+02 -0.50814493074E+02  0.60673271831E+02  0.51100000000E-03 0.  1.
         22    1    1    0    0    0  0.17672675411E+02  0.14831153592E+02  0.17384966614E+02  0.28888122771E+02  0.00000000000E+00 0.  1.
</event>
<event>
 5    1  0.1681104E-003  0.9118800E+02  0.7818608E-02  0.1130116E+00
         25   -1    0    0    0    0  0.00000000000E+00  0.00000000000E+00  0.99999998245E-14  0.12500000000E+03  0.12500000000E+03 0.  0.
        -11    1    3    3    0    0 -0.11528207488E+02 -0.17634633754E+01 -0.38561024522E+02  0.40286002326E+02  0.51100000000E-03 0.  1.
         23    2    1    0    0    0  0.28627958501E+02  0.22714096231E+01  0.25438390702E+00  0.96280946729E+02  0.91897968870E+02 0.  0.
         11    1    3    3    0    0  0.40156165989E+02  0.40348729985E+01  0.38815408429E+02  0.55994944404E+02  0.51100000000E-03 0. -1.
         22    1    1    0    0    0 -0.28627958501E+02 -0.22714096231E+01 -0.25438390702E+00  0.28719053271E+02  0.00000000000E+00 0. -1.
</event>
<event>
 5    1  0.1681104E-003  0.9118800E+02  0.7818608E-02  0.1130116E+00
         25   -1    0    0    0    0  0.00000000000E+00  0.00000000000E+00  0.99999998245E-14  0.12500000000E+03  0.12500000000E+03 0.  0.
        -11    1    3    3    0    0  0.10250817562E+02  0.30940860238E+02 -0.32833303452E+02  0.46264910124E+02  0.51100000000E-03 0. -1.
         23    2    1    0    0    0  0.27740857054E+02 -0.61104476213E+01 -0.41189141059E+01  0.96297070295E+02  0.91919897594E+02 0.  0.
         11    1    3    3    0    0  0.17490039492E+02 -0.37051307859E+02  0.28714389346E+02  0.50032160171E+02  0.51100000000E-03 0.  1.
         22    1    1    0    0    0 -0.27740857054E+02  0.61104476213E+01  0.41189141059E+01  0.28702929705E+02  0.00000000000E+00 0.  1.
</event>
<event>
 5    1  0.1681104E-003  0.9118800E+02  0.7818608E-02  0.1130116E+00
         25   -1    0    0    0    0  0.00000000000E+00  0.00000000000E+00  0.99999998245E-14  0.12500000000E+03  0.12500000000E+03 0.  0.
        -11    1    3    3    0    0 -0.16859776954E+02  0.36842376106E+02  0.35022747767E+02  0.53555631053E+02  0.51100000000E-03 0.  1.
         23    2    1    0    0    0 -0.16593512824E+02 -0.52383146671E+01  0.20586907479E+02  0.98044381514E+02  0.94266088168E+02 0.  0.
         11    1    3    3    0    0  0.26626412926E+00 -0.42080690773E+02 -0.14435840287E+02  0.44488750461E+02  0.51100000000E-03 0. -1.
         22    1    1    0    0    0  0.16593512824E+02  0.52383146671E+01 -0.20586907479E+02  0.26955618486E+02  0.00000000000E+00 0.  1.
</event>
<event>
 5    1  0.1681104E-003  0.9118800E+02  0.7818608E-02  0.1130116E+00
         25   -1    0    0    0    0  0.00000000000E+00  0.00000000000E+00  0.99999998245E-14  0.12500000000E+03  0.12500000000E+03 0.  0.
        -11    1    3    3    0    0 -0.29617951782E+02 -0.21277361251E+02  0.10654874145E+02  0.37993098227E+02  0.51100000000E-03 0.  1.
         23    2    1    0    0    0  0.26836225248E+01  0.41904727862E+01 -0.29266017379E+02  0.95313948305E+02  0.90573103492E+02 0.  0.
         11    1    3    3    0    0  0.32301574307E+02  0.25467834037E+02 -0.39920891524E+02  0.57320850078E+02  0.51100000000E-03 0. -1.
         22    1    1    0    0    0 -0.26836225248E+01 -0.41904727862E+01  0.29266017379E+02  0.29686051695E+02  0.00000000000E+00 0. -1.
</event>
<event>
 5    1  0.1681104E-003  0.9118800E+02  0.7818608E-02  0.1130116E+00
         25   -1    0    0    0    0  0.00000000000E+00  0.00000000000E+00  0.99999998245E-14  0.12500000000E+03  0.12500000000E+03 0.  0.
        -11    1    3    3    0    0 -0.54656391470E+02  0.40122854251E+01 -0.12074506753E+02  0.56117851674E+02  0.51100000000E-03 0.  1.
         23    2    1    0    0    0 -0.24696836047E+02 -0.13529391201E+02  0.73459596201E+01  0.95897744765E+02  0.91375249336E+02 0.  0.
         11    1    3    3    0    0  0.29959555423E+02 -0.17541676626E+02  0.19420466373E+02  0.39779893092E+02  0.51100000000E-03 0. -1.
         22    1    1    0    0    0  0.24696836047E+02  0.13529391201E+02 -0.73459596201E+01  0.29102255235E+02  0.00000000000E+00 0. -1.
</event>
<event>
 5    1  0.1681104E-003  0.9118800E+02  0.7818608E-02  0.1130116E+00
         25   -1    0    0    0    0  0.00000000000E+00  0.00000000000E+00  0.99999998245E-14  0.12500000000E+03  0.12500000000E+03 0.  0.
        -11    1    3    3    0    0  0.55892506470E+02 -0.19669976029E+02 -0.11391101892E+02  0.60337695009E+02  0.51100000000E-03 0.  1.
         23    2    1    0    0    0  0.20751377477E+02 -0.19496613989E+02 -0.61810909545E+01  0.95863364820E+02  0.91328205966E+02 0.  0.
         11    1    3    3    0    0 -0.35141128993E+02  0.17336204044E+00  0.52100109377E+01  0.35525669811E+02  0.51100000000E-03 0. -1.
         22    1    1    0    0    0 -0.20751377477E+02  0.19496613989E+02  0.61810909545E+01  0.29136635180E+02  0.00000000000E+00 0.  1.
</event>
<event>
 5    1  0.1681104E-003  0.9118800E+02  0.7818608E-02  0.1130116E+00
         25   -1    0    0    0    0  0.00000000000E+00  0.00000000000E+00  0.99999998245E-14  0.12500000000E+03  0.12500000000E+03 0.  0.
        -11    1    3    3    0    0  0.26025155235E+02 -0.30569991049E+02  0.19732638908E+02  0.44734886792E+02  0.51100000000E-03 0.  1.
         23    2    1    0    0    0 -0.17250228150E+02 -0.22526819116E+02 -0.63859331966E+01  0.95917219983E+02  0.91401887266E+02 0.  0.
         11    1    3    3    0    0 -0.43275383385E+02  0.80431719329E+01 -0.26118572105E+02  0.51182333191E+02  0.51100000000E-03 0. -1.
         22    1    1    0    0    0  0.17250228150E+02  0.22526819116E+02  0.63859331966E+01  0.29082780017E+02  0.00000000000E+00 0. -1.
</event>
<event>
 5    1  0.1681104E-003  0.9118800E+02  0.7818608E-02  0.1130116E+00
         25   -1    0    0    0    0  0.00000000000E+00  0.00000000000E+00  0.99999998245E-14  0.12500000000E+03  0.12500000000E+03 0.  0.
        -11    1    3    3    0    0  0.33120618195E+02 -0.29460808714E+02  0.54438480288E+01  0.44660386040E+02  0.51100000000E-03 0. -1.
         23    2    1    0    0    0 -0.17210481118E+02 -0.23437679512E+02 -0.18041744747E+01  0.95866161826E+02  0.91332034120E+02 0.  0.
         11    1    3    3    0    0 -0.50331099312E+02  0.60231292018E+01 -0.72480225034E+01  0.51205775786E+02  0.51100000000E-03 0.  1.
         22    1    1    0    0    0  0.17210481118E+02  0.23437679512E+02  0.18041744747E+01  0.29133838174E+02  0.00000000000E+00 0. -1.
</event>
<event>
 5    1  0.1681104E-003  0.9118800E+02  0.7818608E-02  0.1130116E+00
         25   -1    0    0    0    0  0.00000000000E+00  0.00000000000E+00  0.99999998245E-14  0.12500000000E+03  0.12500000000E+03 0.  0.
        -11    1    3    3    0    0 -0.32297729966E+02 -0.89988010486E+01  0.10546348056E+02  0.35147506865E+02  0.51100000000E-03 0. -1.
         23    2    1    0    0    0  0.19059223769E+02 -0.18093630600E+02 -0.16570938681E+02  0.93931857349E+02  0.88645159695E+02 0.  0.
         11    1    3    3    0    0  0.51356953736E+02 -0.90948295513E+01 -0.27117286737E+02  0.58784350484E+02  0.51100000000E-03 0.  1.
         22    1    1    0    0    0 -0.19059223769E+02  0.18093630600E+02  0.16570938681E+02  0.31068142651E+02  0.00000000000E+00 0.  1.
</event>
<event>
 5    1  0.1681104E-003  0.9118800E+02  0.7818608E-02  0.1130116E+00
         25   -1    0    0    0    0  0.00000000000E+00  0.00000000000E+00  0.99999998245E-14  0.12500000000E+03  0.12500000000E+03 0.  0.
        -11    1    3    3    0    0  0.10588355123E+02 -0.77393724748E+01  0.25668282541E+02  0.28824848298E+02  0.51100000000E-03 0.  1.
         23    2    1    0    0    0  0.17034964122E+02  0.34732002980E+02 -0.10427739657E+02  0.84934556186E+02  0.74890847549E+02 0.  0.
         11    1    3    3    0    0  0.64466089990E+01  0.42471375455E+02 -0.36096022198E+02  0.56109707889E+02  0.51100000000E-03 0. -1.
         22    1    1    0    0    0 -0.17034964122E+02 -0.34732002980E+02  0.10427739657E+02  0.40065443814E+02  0.00000000000E+00 0. -1.
</event>
<event>
 5    1  0.1681104E-003  0.9118800E+02  0.7818608E-02  0.1130116E+00
         25   -1    0    0    0    0  0.00000000000E+00  0.00000000000E+00  0.99999998245E-14  0.12500000000E+03  0.12500000000E+03 0.  0.
        -11    1    3    3    0    0 -0.39724382566E+02  0.28671180532E+02 -0.10845753889E+02  0.50176623452E+02  0.51100000000E-03 0.  1.
         23    2    1    0    0    0  0.70504131180E+01  0.25143374047E+02 -0.98380096094E+01  0.97095089739E+02  0.92998776522E+02 0.  0.
         11    1    3    3    0    0  0.46774795684E+02 -0.35278064844E+01  0.10077442799E+01  0.46918466287E+02  0.51100000000E-03 0. -1.
         22    1    1    0    0    0 -0.70504131180E+01 -0.25143374047E+02  0.98380096094E+01  0.27904910261E+02  0.00000000000E+00 0.  1.
</event>
<event>
 5    1  0.1681104E-003  0.9118800E+02  0.7818608E-02  0.1130116E+00
         25   -1    0    0    0    0  0.00000000000E+00  0.00000000000E+00  0.99999998245E-14  0.12500000000E+03  0.12500000000E+03 0.  0.
        -11    1    3    3    0    0 -0.13626907312E+02 -0.45522466962E+02  0.19098732957E+02  0.51212783580E+02  0.51100000000E-03 0.  1.
         23    2    1    0    0    0  0.74919996386E+01 -0.12510683443E+01  0.23348371187E+02  0.10044716579E+03  0.97400161436E+02 0.  0.
         11    1    3    3    0    0  0.21118906951E+02  0.44271398618E+02  0.42496382298E+01  0.49234382211E+02  0.51100000000E-03 0. -1.
         22    1    1    0    0    0 -0.74919996386E+01  0.12510683443E+01 -0.23348371187E+02  0.24552834209E+02  0.00000000000E+00 0. -1.
</event>
<event>
 5    1  0.1681104E-003  0.9118800E+02  0.7818608E-02  0.1130116E+00
         25   -1    0    0    0    0  0.00000000000E+00  0.00000000000E+00  0.99999998245E-14  0.12500000000E+03  0.12500000000E+03 0.  0.
        -11    1    3    3    0    0  0.29601766917E+02  0.38607196087E+02  0.11405215263E+02  0.49968581427E+02  0.51100000000E-03 0. -1.
         23    2    1    0    0    0  0.11990532941E+02  0.10512683901E+02 -0.22519397152E+02  0.97406293270E+02  0.93416129857E+02 0.  0.
         11    1    3    3    0    0 -0.17611233976E+02 -0.28094512187E+02 -0.33924612415E+02  0.47437711843E+02  0.51100000000E-03 0.  1.
         22    1    1    0    0    0 -0.11990532941E+02 -0.10512683901E+02  0.22519397152E+02  0.27593706730E+02  0.00000000000E+00 0.  1.
</event>
<event>
 5    1  0.1681104E-003  0.9118800E+02  0.7818608E-02  0.1130116E+00
         25   -1    0    0    0    0  0.00000000000E+00  0.00000000000E+00  0.99999998245E-14  0.12500000000E+03  0.12500000000E+03 0.  0.
        -11    1    3    3    0    0 -0.27741322686E+02 -0.31438827853E+02  0.23248553909E+02  0.47942425265E+02  0.51100000000E-03 0. -1.
         23    2    1    0    0    0  0.17745332798E+02 -0.15683638954E+02  0.15489365913E+02  0.96701699285E+02  0.92468507186E+02 0.  0.
         11    1    3    3    0    0  0.45486655484E+02  0.15755188899E+02 -0.77591879959E+01  0.48759274020E+02  0.51100000000E-03 0.  1.
         22    1    1    0    0    0 -0.17745332798E+02  0.15683638954E+02 -0.15489365913E+02  0.28298300715E+02  0.00000000000E+00 0. -1.
</event>
<event>
 5    1  0.1681104E-003  0.9118800E+02  0.7818608E-02  0.1130116E+00
         25   -1    0    0    0    0  0.00000000000E+00  0.00000000000E+00  0.99999998245E-14  0.12500000000E+03  0.12500000000E+03 0.  0.
        -11    1    3    3    0    0  0.40132846757E+02 -0.42916403651E+02  0.90985567491E+01  0.59457941659E+02  0.51100000000E-03 0. -1.
         23    2    1    0    0    0  0.42819032731E+01 -0.23970534702E+02  0.29065771691E+01  0.10047716533E+03  0.97438654197E+02 0.  0.
         11    1    3    3    0    0 -0.35850943484E+02  0.18945868948E+02 -0.61919795801E+01  0.41019223668E+02  0.51100000000E-03 0.  1.
         22    1    1    0    0    0 -0.42819032731E+01  0.23970534702E+02 -0.29065771691E+01  0.24522834673E+02  0.00000000000E+00 0. -1.
</event>
<event>
 5    1  0.1681104E-003  0.9118800E+02  0.7818608E-02  0.1130116E+00
         25   -1    0    0    0    0  0.00000000000E+00  0.00000000000E+00  0.99999998245E-14  0.12500000000E+03  0.12500000000E+03 0.  0.
        -11    1    3    3    0    0 -0.20439736831E+02  0.14044432642E+02  0.51484704208E+02  0.57146335820E+02  0.51100000000E-03 0. -1.
         23    2    1    0    0    0 -0.10848595809E+02 -0.11919168489E+02  0.23477826837E+02  0.96522518343E+02  0.92225970235E+02 0.  0.
         11    1    3    3    0    0  0.95911410217E+01 -0.25963601131E+02 -0.28006877371E+02  0.39376182524E+02  0.51100000000E-03 0.  1.
         22    1    1    0    0    0  0.10848595809E+02  0.11919168489E+02 -0.23477826837E+02  0.28477481657E+02  0.00000000000E+00 0. -1.
</event>
<event>
 5    1  0.1681104E-003  0.9118800E+02  0.7818608E-02  0.1130116E+00
         25   -1    0    0    0    0  0.00000000000E+00  0.00000000000E+00  0.99999998245E-14  0.12500000000E+03  0.12500000000E+03 0.  0.
        -11    1    3    3    0    0  0.53413281928E+02 -0.27662536460E+02 -0.15804052852E+02  0.62192947321E+02  0.51100000000E-03 0.  1.
         23    2    1    0    0    0  0.23381180828E+02 -0.14610208858E+02 -0.11116778391E+02  0.95272561806E+02  0.90515967937E+02 0.  0.
         11    1    3    3    0    0 -0.30032101100E+02  0.13052327602E+02  0.46872744610E+01  0.33079614485E+02  0.51100000000E-03 0. -1.
         22    1    1    0    0    0 -0.23381180828E+02  0.14610208858E+02  0.11116778391E+02  0.29727438194E+02  0.00000000000E+00 0.  1.
</event>
<event>
 5    1  0.1681104E-003  0.9118800E+02  0.7818608E-02  0.1130116E+00
         25   -1    0    0    0    0  0.00000000000E+00  0.00000000000E+00  0.99999998245E-14  0.12500000000E+03  0.12500000000E+03 0.  0.
        -11    1    3    3    0    0  0.11300941676E+02  0.24340470024E+02 -0.17696827775E+02  0.32145722536E+02  0.51100000000E-03 0. -1.
         23    2    1    0    0    0  0.17399563303E+02  0.18344213938E+02  0.32926269943E+02  0.83486216259E+02  0.72433100615E+02 0.  0.
         11    1    3    3    0    0  0.60986216273E+01 -0.59962560866E+01  0.50623097719E+02  0.51340493723E+02  0.51100000000E-03 0.  1.
         22    1    1    0    0    0 -0.17399563303E+02 -0.18344213938E+02 -0.32926269943E+02  0.41513783741E+02  0.00000000000E+00 0.  1.
</event>
<event>
 5    1  0.1681104E-003  0.9118800E+02  0.7818608E-02  0.1130116E+00
         25   -1    0    0    0    0  0.00000000000E+00  0.00000000000E+00  0.99999998245E-14  0.12500000000E+03  0.12500000000E+03 0.  0.
        -11    1    3    3    0    0 -0.28448062379E+02  0.40611760212E+02 -0.24555579115E+01  0.49645111396E+02  0.51100000000E-03 0.  1.
         23    2    1    0    0    0  0.12312978470E+02  0.23899822853E+02  0.11358194981E+02  0.95814051935E+02  0.91260686957E+02 0.  0.
         11    1    3    3    0    0  0.40761040848E+02 -0.16711937358E+02  0.13813752892E+02  0.46168940539E+02  0.51100000000E-03 0. -1.
         22    1    1    0    0    0 -0.12312978470E+02 -0.23899822853E+02 -0.11358194981E+02  0.29185948065E+02  0.00000000000E+00 0.  1.
</event>
<event>
 5    1  0.1681104E-003  0.9118800E+02  0.7818608E-02  0.1130116E+00
         25   -1    0    0    0    0  0.00000000000E+00  0.00000000000E+00  0.99999998245E-14  0.12500000000E+03  0.12500000000E+03 0.  0.
        -11    1    3    3    0    0 -0.47807876977E+01  0.30035053507E+02 -0.20230182577E+02  0.36526985333E+02  0.51100000000E-03 0. -1.
         23    2    1    0    0    0  0.11223380911E+01  0.40274368360E+01  0.30699682453E+02  0.94016933770E+02  0.88765046288E+02 0.  0.
         11    1    3    3    0    0  0.59031257888E+01 -0.26007616671E+02  0.50929865031E+02  0.57489948437E+02  0.51100000000E-03 0.  1.
         22    1    1    0    0    0 -0.11223380911E+01 -0.40274368360E+01 -0.30699682453E+02  0.30983066230E+02  0.00000000000E+00 0.  1.
</event>
<event>
 5    1  0.1681104E-003  0.9118800E+02  0.7818608E-02  0.1130116E+00
         25   -1    0    0    0    0  0.00000000000E+00  0.00000000000E+00  0.99999998245E-14  0.12500000000E+03  0.12500000000E+03 0.  0.
        -11    1    3    3    0    0 -0.18221677275E+02 -0.10881334426E+02 -0.53693437883E+02  0.57735762172E+02  0.51100000000E-03 0. -1.
         23    2    1    0    0    0 -0.20750884097E+02  0.43282953225E+01 -0.16058536867E+02  0.98406580936E+02  0.94745159422E+02 0.  0.
         11    1    3    3    0    0 -0.25292068220E+01  0.15209629748E+02  0.37634901016E+02  0.40670818764E+02  0.51100000000E-03 0.  1.
         22    1    1    0    0    0  0.20750884097E+02 -0.43282953225E+01  0.16058536867E+02  0.26593419064E+02  0.00000000000E+00 0. -1.
</event>
<event>
 5    1  0.1681104E-003  0.9118800E+02  0.7818608E-02  0.1130116E+00
         25   -1    0    0    0    0  0.00000000000E+00  0.00000000000E+00  0.99999998245E-14  0.12500000000E+03  0.12500000000E+03 0.  0.
        -11    1    3    3    0    0  0.15317375890E+02  0.29629311244E+02  0.17620157406E+02  0.37722513652E+02  0.51100000000E-03 0. -1.
         23    2    1    0    0    0 -0.17050604271E+02 -0.94855480608E+01 -0.16957398700E+02  0.99149427498E+02  0.95720200974E+02 0.  0.
         11    1    3    3    0    0 -0.32367980161E+02 -0.39114859304E+02 -0.34577556106E+02  0.61426913846E+02  0.51100000000E-03 0.  1.
         22    1    1    0    0    0  0.17050604271E+02  0.94855480608E+01  0.16957398700E+02  0.25850572502E+02  0.00000000000E+00 0.  1.
</event>
<event>
 5    1  0.1681104E-003  0.9118800E+02  0.7818608E-02  0.1130116E+00
         25   -1    0    0    0    0  0.00000000000E+00  0.00000000000E+00  0.99999998245E-14  0.12500000000E+03  0.12500000000E+03 0.  0.
        -11    1    3    3    0    0  0.26853167502E+02  0.47948901823E+02 -0.28171037159E+02  0.61755948101E+02  0.51100000000E-03 0.  1.
         23    2    1    0    0    0  0.68654252391E+01  0.25465779143E+02 -0.15573789921E+02  0.94370228477E+02  0.89261173638E+02 0.  0.
         11    1    3    3    0    0 -0.19987742263E+02 -0.22483122680E+02  0.12597247239E+02  0.32614280376E+02  0.51100000000E-03 0. -1.
         22    1    1    0    0    0 -0.68654252391E+01 -0.25465779143E+02  0.15573789921E+02  0.30629771523E+02  0.00000000000E+00 0.  1.
</event>
<event>
 5    1  0.1681104E-003  0.9118800E+02  0.7818608E-02  0.1130116E+00
         25   -1    0    0    0    0  0.00000000000E+00  0.00000000000E+00  0.99999998245E-14  0.12500000000E+03  0.12500000000E+03 0.  0.
        -11    1    3    3    0    0  0.34801180511E+02 -0.14292380580E+02  0.84581068377E+01  0.38560781620E+02  0.51100000000E-03 0.  1.
         23    2    1    0    0    0  0.32638476314E+01  0.29390928430E+02 -0.69975515495E+01  0.94611760449E+02  0.89598772940E+02 0.  0.
         11    1    3    3    0    0 -0.31537332880E+02  0.43683309010E+02 -0.15455658387E+02  0.56050978829E+02  0.51100000000E-03 0. -1.
         22    1    1    0    0    0 -0.32638476314E+01 -0.29390928430E+02  0.69975515495E+01  0.30388239551E+02  0.00000000000E+00 0. -1.
</event>
<event>
 5    1  0.1681104E-003  0.9118800E+02  0.7818608E-02  0.1130116E+00
         25   -1    0    0    0    0  0.00000000000E+00  0.00000000000E+00  0.99999998245E-14  0.12500000000E+03  0.12500000000E+03 0.  0.
        -11    1    3    3    0    0 -0.30989265976E+02 -0.26049190803E+02  0.25450309096E+02  0.47818544316E+02  0.51100000000E-03 0.  1.
         23    2    1    0    0    0  0.10631449655E+02  0.52713059961E+01  0.21977981340E+02  0.10002308961E+03  0.96854387631E+02 0.  0.
         11    1    3    3    0    0  0.41620715631E+02  0.31320496799E+02 -0.34723277553E+01  0.52204545297E+02  0.51100000000E-03 0. -1.
         22    1    1    0    0    0 -0.10631449655E+02 -0.52713059961E+01 -0.21977981340E+02  0.24976910387E+02  0.00000000000E+00 0. -1.
</event>
<event>
 5    1  0.1681104E-003  0.9118800E+02  0.7818608E-02  0.1130116E+00
         25   -1    0    0    0    0  0.00000000000E+00  0.00000000000E+00  0.99999998245E-14  0.12500000000E+03  0.12500000000E+03 0.  0.
        -11    1    3    3    0    0 -0.54608882496E+02 -0.55419974480E+01 -0.11273955443E+02  0.56035219771E+02  0.51100000000E-03 0. -1.
         23    2    1    0    0    0 -0.20721337639E+02  0.14293356847E+02 -0.15356577900E+02  0.95512742273E+02  0.90847044906E+02 0.  0.
         11    1    3    3    0    0  0.33887544858E+02  0.19835354295E+02 -0.40826224571E+01  0.39477522502E+02  0.51100000000E-03 0.  1.
         22    1    1    0    0    0  0.20721337639E+02 -0.14293356847E+02  0.15356577900E+02  0.29487257727E+02  0.00000000000E+00 0.  1.
</event>
<event>
 5    1  0.1681104E-003  0.9118800E+02  0.7818608E-02  0.1130116E+00
         25   -1    0    0    0    0  0.00000000000E+00  0.00000000000E+00  0.99999998245E-14  0.12500000000E+03  0.12500000000E+03 0.  0.
        -11    1    3    3    0    0  0.52742580060E+01 -0.34627902345E+02  0.30368017435E+02  0.46358665873E+02  0.51100000000E-03 0.  1.
         23    2    1    0    0    0  0.36844979409E+01 -0.23071119486E+02 -0.17615462884E+02  0.95739846002E+02  0.91158990233E+02 0.  0.
         11    1    3    3    0    0 -0.15897600652E+01  0.11556782859E+02 -0.47983480319E+02  0.49381180128E+02  0.51100000000E-03 0. -1.
         22    1    1    0    0    0 -0.36844979409E+01  0.23071119486E+02  0.17615462884E+02  0.29260153998E+02  0.00000000000E+00 0. -1.
</event>
<event>
 5    1  0.1681104E-003  0.9118800E+02  0.7818608E-02  0.1130116E+00
         25   -1    0    0    0    0  0.00000000000E+00  0.00000000000E+00  0.99999998245E-14  0.12500000000E+03  0.12500000000E+03 0.  0.
        -11    1    3    3    0    0  0.69034126423E+00 -0.13315651048E+02 -0.55536234591E+02  0.57114415752E+02  0.51100000000E-03 0.  1.
         23    2    1    0    0    0  0.15781787974E+02 -0.14118852200E+02 -0.19409498184E+02  0.96274829176E+02  0.91889647372E+02 0.  0.
         11    1    3    3    0    0  0.15091446709E+02 -0.80320115182E+00  0.36126736407E+02  0.39160413424E+02  0.51100000000E-03 0. -1.
         22    1    1    0    0    0 -0.15781787974E+02  0.14118852200E+02  0.19409498184E+02  0.28725170824E+02  0.00000000000E+00 0.  1.
</event>
<event>
 5    1  0.1681104E-003  0.9118800E+02  0.7818608E-02  0.1130116E+00
         25   -1    0    0    0    0  0.00000000000E+00  0.00000000000E+00  0.99999998245E-14  0.12500000000E+03  0.12500000000E+03 0.  0.
        -11    1    3    3    0    0 -0.20975410318E+02 -0.69116307107E+01  0.50104015890E+02  0.54755373121E+02  0.51100000000E-03 0.  1.
         23    2    1    0    0    0  0.50983421211E+01 -0.19555056930E+02  0.22100929451E+02  0.95052639072E+02  0.90211749612E+02 0.  0.
         11    1    3    3    0    0  0.26073752439E+02 -0.12643426219E+02 -0.28003086438E+02  0.40297265951E+02  0.51100000000E-03 0. -1.
         22    1    1    0    0    0 -0.50983421211E+01  0.19555056930E+02 -0.22100929451E+02  0.29947360928E+02  0.00000000000E+00 0.  1.
</event>
<event>
 5    1  0.1681104E-003  0.9118800E+02  0.7818608E-02  0.1130116E+00
         25   -1    0    0    0    0  0.00000000000E+00  0.00000000000E+00  0.99999998245E-14  0.12500000000E+03  0.12500000000E+03 0.  0.
        -11    1    3    3    0    0  0.41985814012E+02 -0.33917072897E+02 -0.26933476028E+02  0.60320714049E+02  0.51100000000E-03 0.  1.
         23    2    1    0    0    0  0.19185052855E+02 -0.21267209312E+02 -0.21777677464E+01  0.96275391781E+02  0.91890412695E+02 0.  0.
         11    1    3    3    0    0 -0.22800761157E+02  0.12649863585E+02  0.24755708281E+02  0.35954677732E+02  0.51100000000E-03 0. -1.
         22    1    1    0    0    0 -0.19185052855E+02  0.21267209312E+02  0.21777677464E+01  0.28724608219E+02  0.00000000000E+00 0.  1.
</event>
<event>
 5    1  0.1681104E-003  0.9118800E+02  0.7818608E-02  0.1130116E+00
         25   -1    0    0    0    0  0.00000000000E+00  0.00000000000E+00  0.99999998245E-14  0.12500000000E+03  0.12500000000E+03 0.  0.
        -11    1    3    3    0    0  0.20932831751E+01 -0.50042123678E+02  0.22400121184E+02  0.54866760483E+02  0.51100000000E-03 0.  1.
         23    2    1    0    0    0 -0.20731295179E+02 -0.25622602860E+02  0.94558763056E+01  0.90711255872E+02  0.83981033383E+02 0.  0.
         11    1    3    3    0    0 -0.22824578354E+02  0.24419520817E+02 -0.12944244878E+02  0.35844495389E+02  0.51100000000E-03 0. -1.
         22    1    1    0    0    0  0.20731295179E+02  0.25622602860E+02 -0.94558763056E+01  0.34288744128E+02  0.00000000000E+00 0.  1.
</event>
<event>
 5    1  0.1681104E-003  0.9118800E+02  0.7818608E-02  0.1130116E+00
         25   -1    0    0    0    0  0.00000000000E+00  0.00000000000E+00  0.99999998245E-14  0.12500000000E+03  0.12500000000E+03 0.  0.
        -11    1    3    3    0    0  0.27852961217E+02  0.79524285692E+01 -0.16912165538E+02  0.33541763701E+02  0.51100000000E-03 0. -1.
         23    2    1    0    0    0 -0.16341744671E+02 -0.18912982621E+02  0.16440252902E+02  0.95082856988E+02  0.90253610715E+02 0.  0.
         11    1    3    3    0    0 -0.44194705888E+02 -0.26865411190E+02  0.33352418441E+02  0.61541093287E+02  0.51100000000E-03 0.  1.
         22    1    1    0    0    0  0.16341744671E+02  0.18912982621E+02 -0.16440252902E+02  0.29917143012E+02  0.00000000000E+00 0.  1.
</event>
<event>
 5    1  0.1681104E-003  0.9118800E+02  0.7818608E-02  0.1130116E+00
         25   -1    0    0    0    0  0.00000000000E+00  0.00000000000E+00  0.99999998245E-14  0.12500000000E+03  0.12500000000E+03 0.  0.
        -11    1    3    3    0    0 -0.38165417004E+02 -0.40344080189E+01 -0.13755028962E+02  0.40768570311E+02  0.51100000000E-03 0. -1.
         23    2    1    0    0    0  0.17549545670E+02 -0.17899064054E+02  0.50737879822E+00  0.99927694951E+02  0.96731193199E+02 0.  0.
         11    1    3    3    0    0  0.55714962675E+02 -0.13864656035E+02  0.14262407760E+02  0.59159124640E+02  0.51100000000E-03 0.  1.
         22    1    1    0    0    0 -0.17549545670E+02  0.17899064054E+02 -0.50737879822E+00  0.25072305049E+02  0.00000000000E+00 0.  1.
</event>
<event>
 5    1  0.1681104E-003  0.9118800E+02  0.7818608E-02  0.1130116E+00
         25   -1    0    0    0    0  0.00000000000E+00  0.00000000000E+00  0.99999998245E-14  0.12500000000E+03  0.12500000000E+03 0.  0.
        -11    1    3    3    0    0  0.53795412794E+01 -0.23055601896E+02  0.53632567630E+02  0.58625528177E+02  0.51100000000E-03 0. -1.
         23    2    1    0    0    0 -0.11961919652E+02 -0.15945959195E+02  0.32517482173E+02  0.86858843970E+02  0.78036600339E+02 0.  0.
         11    1    3    3    0    0 -0.17341460932E+02  0.71096427007E+01 -0.21115085456E+02  0.28233315793E+02  0.51100000000E-03 0.  1.
         22    1    1    0    0    0  0.11961919652E+02  0.15945959195E+02 -0.32517482173E+02  0.38141156030E+02  0.00000000000E+00 0. -1.
</event>
<event>
 5    1  0.1681104E-003  0.9118800E+02  0.7818608E-02  0.1130116E+00
         25   -1    0    0    0    0  0.00000000000E+00  0.00000000000E+00  0.99999998245E-14  0.12500000000E+03  0.12500000000E+03 0.  0.
        -11    1    3    3    0    0 -0.19996232277E+02 -0.32418468544E+02 -0.39697502219E+01  0.38295761189E+02  0.51100000000E-03 0.  1.
         23    2    1    0    0    0  0.26496570837E+02 -0.79054143170E+00  0.10707865735E+02  0.96410638159E+02  0.92074206702E+02 0.  0.
         11    1    3    3    0    0  0.46492803114E+02  0.31627927112E+02  0.14677615957E+02  0.58114876970E+02  0.51100000000E-03 0. -1.
         22    1    1    0    0    0 -0.26496570837E+02  0.79054143170E+00 -0.10707865735E+02  0.28589361841E+02  0.00000000000E+00 0. -1.
</event>
<event>
 5    1  0.1681104E-003  0.9118800E+02  0.7818608E-02  0.1130116E+00
         25   -1    0    0    0    0  0.00000000000E+00  0.00000000000E+00  0.99999998245E-14  0.12500000000E+03  0.12500000000E+03 0.  0.
        -11    1    3    3    0    0  0.34221049531E+01  0.41153847736E+02 -0.29875928425E+01  0.41403812591E+02  0.51100000000E-03 0.  1.
         23    2    1    0    0    0 -0.84088801843E+01 -0.34956046580E+01  0.27020740886E+02  0.96485986675E+02  0.92176443134E+02 0.  0.
         11    1    3    3    0    0 -0.11830985137E+02 -0.44649452394E+02  0.30008333728E+02  0.55082174084E+02  0.51100000000E-03 0. -1.
         22    1    1    0    0    0  0.84088801843E+01  0.34956046580E+01 -0.27020740886E+02  0.28514013325E+02  0.00000000000E+00 0. -1.
</event>
<event>
 5    1  0.1681104E-003  0.9118800E+02  0.7818608E-02  0.1130116E+00
         25   -1    0    0    0    0  0.00000000000E+00  0.00000000000E+00  0.99999998245E-14  0.12500000000E+03  0.12500000000E+03 0.  0.
        -11    1    3    3    0    0 -0.38828593110E+02  0.75716574035E+01 -0.43617559924E+01  0.39799680330E+02  0.51100000000E-03 0.  1.
         23    2    1    0    0    0  0.59785648272E+01 -0.11919598054E+02  0.24899790806E+02  0.96754298781E+02  0.92539584478E+02 0.  0.
         11    1    3    3    0    0  0.44807157937E+02 -0.19491255458E+02  0.29261546798E+02  0.56954618452E+02  0.51100000000E-03 0. -1.
         22    1    1    0    0    0 -0.59785648272E+01  0.11919598054E+02 -0.24899790806E+02  0.28245701219E+02  0.00000000000E+00 0. -1.
</event>
<event>
 5    1  0.1681104E-003  0.9118800E+02  0.7818608E-02  0.1130116E+00
         25   -1    0    0    0    0  0.00000000000E+00  0.00000000000E+00  0.99999998245E-14  0.12500000000E+03  0.12500000000E+03 0.  0.
        -11    1    3    3    0    0 -0.21909227117E+02  0.24043227915E+02 -0.23533958651E+02  0.40148950814E+02  0.51100000000E-03 0.  1.
         23    2    1    0    0    0 -0.19327798365E+02 -0.12382428763E+02  0.18274618174E+02  0.95659754583E+02  0.91049100192E+02 0.  0.
         11    1    3    3    0    0  0.25814287512E+01 -0.36425656678E+02  0.41808576824E+02  0.55510803770E+02  0.51100000000E-03 0. -1.
         22    1    1    0    0    0  0.19327798365E+02  0.12382428763E+02 -0.18274618174E+02  0.29340245417E+02  0.00000000000E+00 0. -1.
</event>
<event>
 5    1  0.1681104E-003  0.9118800E+02  0.7818608E-02  0.1130116E+00
         25   -1    0    0    0    0  0.00000000000E+00  0.00000000000E+00  0.99999998245E-14  0.12500000000E+03  0.12500000000E+03 0.  0.
        -11    1    3    3    0    0  0.38517023353E+02  0.18015536833E+01  0.42806595209E+02  0.57612596516E+02  0.51100000000E-03 0.  1.
         23    2    1    0    0    0  0.18631630427E+02 -0.16294607421E+02  0.16334453960E+02  0.95344203441E+02  0.90614849005E+02 0.  0.
         11    1    3    3    0    0 -0.19885392926E+02 -0.18096161105E+02 -0.26472141249E+02  0.37731606925E+02  0.51100000000E-03 0. -1.
         22    1    1    0    0    0 -0.18631630427E+02  0.16294607421E+02 -0.16334453960E+02  0.29655796559E+02  0.00000000000E+00 0.  1.
</event>
<event>
 5    1  0.1681104E-003  0.9118800E+02  0.7818608E-02  0.1130116E+00
         25   -1    0    0    0    0  0.00000000000E+00  0.00000000000E+00  0.99999998245E-14  0.12500000000E+03  0.12500000000E+03 0.  0.
        -11    1    3    3    0    0  0.19461240487E+02 -0.29011093027E+02  0.13661498653E+02  0.37510264537E+02  0.51100000000E-03 0.  1.
         23    2    1    0    0    0  0.13661079889E+02  0.26431358565E+02 -0.12684004649E+01  0.95219962071E+02  0.90443300016E+02 0.  0.
         11    1    3    3    0    0 -0.58001605983E+01  0.55442451592E+02 -0.14929899118E+02  0.57709697534E+02  0.51100000000E-03 0. -1.
         22    1    1    0    0    0 -0.13661079889E+02 -0.26431358565E+02  0.12684004649E+01  0.29780037929E+02  0.00000000000E+00 0. -1.
</event>
<event>
 5    1  0.1681104E-003  0.9118800E+02  0.7818608E-02  0.1130116E+00
         25   -1    0    0    0    0  0.00000000000E+00  0.00000000000E+00  0.99999998245E-14  0.12500000000E+03  0.12500000000E+03 0.  0.
        -11    1    3    3    0    0 -0.14777196296E+02  0.53489011878E+02  0.67232669309E+01  0.55898499448E+02  0.51100000000E-03 0.  1.
         23    2    1    0    0    0 -0.28951588871E+00  0.22368486299E+02 -0.16377703985E+02  0.97275242353E+02  0.93240605899E+02 0.  0.
         11    1    3    3    0    0  0.14487680407E+02 -0.31120525580E+02 -0.23100970916E+02  0.41376742905E+02  0.51100000000E-03 0. -1.
         22    1    1    0    0    0  0.28951588871E+00 -0.22368486299E+02  0.16377703985E+02  0.27724757647E+02  0.00000000000E+00 0. -1.
</event>
<event>
 5    1  0.1681104E-003  0.9118800E+02  0.7818608E-02  0.1130116E+00
         25   -1    0    0    0    0  0.00000000000E+00  0.00000000000E+00  0.99999998245E-14  0.12500000000E+03  0.12500000000E+03 0.  0.
        -11    1    3    3    0    0 -0.34835671853E+01 -0.89717805398E+01  0.40931741318E+02  0.42048014626E+02  0.51100000000E-03 0.  1.
         23    2    1    0    0    0  0.27843248875E+02  0.14482171433E+02  0.95970030392E+01  0.92181068502E+02  0.86140972397E+02 0.  0.
         11    1    3    3    0    0  0.31326816061E+02  0.23453951973E+02 -0.31334738279E+02  0.50133053876E+02  0.51100000000E-03 0. -1.
         22    1    1    0    0    0 -0.27843248875E+02 -0.14482171433E+02 -0.95970030392E+01  0.32818931498E+02  0.00000000000E+00 0. -1.
</event>
<event>
 5    1  0.1681104E-003  0.9118800E+02  0.7818608E-02  0.1130116E+00
         25   -1    0    0    0    0  0.00000000000E+00  0.00000000000E+00  0.99999998245E-14  0.12500000000E+03  0.12500000000E+03 0.  0.
        -11    1    3    3    0    0  0.61434831647E+01  0.40631101769E+02 -0.50712509493E+01  0.41404666437E+02  0.51100000000E-03 0.  1.
         23    2    1    0    0    0  0.19059523803E+02 -0.10646841158E+02  0.15585763086E+02  0.98175819021E+02  0.94440217891E+02 0.  0.
         11    1    3    3    0    0  0.12916040638E+02 -0.51277942927E+02  0.20657014035E+02  0.56771152584E+02  0.51100000000E-03 0. -1.
         22    1    1    0    0    0 -0.19059523803E+02  0.10646841158E+02 -0.15585763086E+02  0.26824180979E+02  0.00000000000E+00 0. -1.
</event>
<event>
 5    1  0.1681104E-003  0.9118800E+02  0.7818608E-02  0.1130116E+00
         25   -1    0    0    0    0  0.00000000000E+00  0.00000000000E+00  0.99999998245E-14  0.12500000000E+03  0.12500000000E+03 0.  0.
        -11    1    3    3    0    0  0.34923006128E+02 -0.44989281925E+02 -0.11438173009E+02  0.58090305965E+02  0.51100000000E-03 0. -1.
         23    2    1    0    0    0  0.14804488469E+02 -0.29879981668E+02 -0.21647608789E+02  0.85243174805E+02  0.75404202146E+02 0.  0.
         11    1    3    3    0    0 -0.20118517658E+02  0.15109300257E+02 -0.10209435780E+02  0.27152868840E+02  0.51100000000E-03 0.  1.
         22    1    1    0    0    0 -0.14804488469E+02  0.29879981668E+02  0.21647608789E+02  0.39756825195E+02  0.00000000000E+00 0. -1.
</event>
<event>
 5    1  0.1681104E-003  0.9118800E+02  0.7818608E-02  0.1130116E+00
         25   -1    0    0    0    0  0.00000000000E+00  0.00000000000E+00  0.99999998245E-14  0.12500000000E+03  0.12500000000E+03 0.  0.
        -11    1    3    3    0    0 -0.39540025101E+01  0.29630924938E+02  0.18032946172E+02  0.34911502351E+02  0.51100000000E-03 0.  1.
         23    2    1    0    0    0 -0.11700465356E+02 -0.21148793360E+02 -0.15529503968E+02  0.96271306267E+02  0.91884854937E+02 0.  0.
         11    1    3    3    0    0 -0.77464628454E+01 -0.50779718298E+02 -0.33562450139E+02  0.61359803916E+02  0.51100000000E-03 0. -1.
         22    1    1    0    0    0  0.11700465356E+02  0.21148793360E+02  0.15529503968E+02  0.28728693733E+02  0.00000000000E+00 0. -1.
</event>
<event>
 5    1  0.1681104E-003  0.9118800E+02  0.7818608E-02  0.1130116E+00
         25   -1    0    0    0    0  0.00000000000E+00  0.00000000000E+00  0.99999998245E-14  0.12500000000E+03  0.12500000000E+03 0.  0.
        -11    1    3    3    0    0 -0.24870762029E+02 -0.47326736161E+02  0.31612190171E+02  0.62110428490E+02  0.51100000000E-03 0. -1.
         23    2    1    0    0    0 -0.96136849434E+01 -0.26399044801E+02  0.20114977826E+02  0.90446493122E+02  0.83586023237E+02 0.  0.
         11    1    3    3    0    0  0.15257077086E+02  0.20927691360E+02 -0.11497212345E+02  0.28336064632E+02  0.51100000000E-03 0.  1.
         22    1    1    0    0    0  0.96136849434E+01  0.26399044801E+02 -0.20114977826E+02  0.34553506878E+02  0.00000000000E+00 0. -1.
</event>
<event>
 5    1  0.1681104E-003  0.9118800E+02  0.7818608E-02  0.1130116E+00
         25   -1    0    0    0    0  0.00000000000E+00  0.00000000000E+00  0.99999998245E-14  0.12500000000E+03  0.12500000000E+03 0.  0.
        -11    1    3    3    0    0  0.58991069799E+02 -0.16790364359E+01 -0.34603223490E+01  0.59116320170E+02  0.51100000000E-03 0.  1.
         23    2    1    0    0    0  0.25672056609E+02 -0.59696722298E+00  0.12913326332E+02  0.96256916356E+02  0.91865276841E+02 0.  0.
         11    1    3    3    0    0 -0.33319013190E+02  0.10820692129E+01  0.16373648681E+02  0.37140596187E+02  0.51100000000E-03 0. -1.
         22    1    1    0    0    0 -0.25672056609E+02  0.59696722298E+00 -0.12913326332E+02  0.28743083644E+02  0.00000000000E+00 0.  1.
</event>
<event>
 5    1  0.1681104E-003  0.9118800E+02  0.7818608E-02  0.1130116E+00
         25   -1    0    0    0    0  0.00000000000E+00  0.00000000000E+00  0.99999998245E-14  0.12500000000E+03  0.12500000000E+03 0.  0.
        -11    1    3    3    0    0 -0.44529889103E+01 -0.39292347599E+02 -0.29602308036E+02  0.49396501206E+02  0.51100000000E-03 0.  1.
         23    2    1    0    0    0  0.25529169180E+02 -0.15530223823E+02 -0.54896402621E+01  0.94618056658E+02  0.89607556404E+02 0.  0.
         11    1    3    3    0    0  0.29982158090E+02  0.23762123776E+02  0.24112667774E+02  0.45221555452E+02  0.51100000000E-03 0. -1.
         22    1    1    0    0    0 -0.25529169180E+02  0.15530223823E+02  0.54896402621E+01  0.30381943342E+02  0.00000000000E+00 0. -1.
</event>
<event>
 5    1  0.1681104E-003  0.9118800E+02  0.7818608E-02  0.1130116E+00
         25   -1    0    0    0    0  0.00000000000E+00  0.00000000000E+00  0.99999998245E-14  0.12500000000E+03  0.12500000000E+03 0.  0.
        -11    1    3    3    0    0 -0.35383371766E+02  0.66312775106E+01  0.16436239309E+02  0.39574067289E+02  0.51100000000E-03 0.  1.
         23    2    1    0    0    0  0.17679300470E+02 -0.10289000008E+02  0.21284338914E+02  0.95479765087E+02  0.90801658970E+02 0.  0.
         11    1    3    3    0    0  0.53062672236E+02 -0.16920277519E+02  0.48480996056E+01  0.55905697798E+02  0.51100000000E-03 0. -1.
         22    1    1    0    0    0 -0.17679300470E+02  0.10289000008E+02 -0.21284338914E+02  0.29520234913E+02  0.00000000000E+00 0. -1.
</event>
<event>
 5    1  0.1681104E-003  0.9118800E+02  0.7818608E-02  0.1130116E+00
         25   -1    0    0    0    0  0.00000000000E+00  0.00000000000E+00  0.99999998245E-14  0.12500000000E+03  0.12500000000E+03 0.  0.
        -11    1    3    3    0    0 -0.89191158678E+01  0.14361459926E+02 -0.31210720665E+02  0.35495228464E+02  0.51100000000E-03 0.  1.
         23    2    1    0    0    0  0.88921221517E+01 -0.29303158672E+01  0.25734070966E+02  0.97615716260E+02  0.93695939427E+02 0.  0.
         11    1    3    3    0    0  0.17811238019E+02 -0.17291775793E+02  0.56944791631E+02  0.62120487796E+02  0.51100000000E-03 0. -1.
         22    1    1    0    0    0 -0.88921221517E+01  0.29303158672E+01 -0.25734070966E+02  0.27384283740E+02  0.00000000000E+00 0. -1.
</event>
<event>
 5    1  0.1681104E-003  0.9118800E+02  0.7818608E-02  0.1130116E+00
         25   -1    0    0    0    0  0.00000000000E+00  0.00000000000E+00  0.99999998245E-14  0.12500000000E+03  0.12500000000E+03 0.  0.
        -11    1    3    3    0    0  0.15977574672E+01  0.37362039202E+02 -0.28829179150E+02  0.47218601980E+02  0.51100000000E-03 0.  1.
         23    2    1    0    0    0  0.26239293690E+02 -0.63253119798E+00 -0.15895523313E+02  0.94315015228E+02  0.89183820320E+02 0.  0.
         11    1    3    3    0    0  0.24641536223E+02 -0.37994570400E+02  0.12933655836E+02  0.47096413248E+02  0.51100000000E-03 0. -1.
         22    1    1    0    0    0 -0.26239293690E+02  0.63253119798E+00  0.15895523313E+02  0.30684984772E+02  0.00000000000E+00 0. -1.
</event>
<event>
 5    1  0.1681104E-003  0.9118800E+02  0.7818608E-02  0.1130116E+00
         25   -1    0    0    0    0  0.00000000000E+00  0.00000000000E+00  0.99999998245E-14  0.12500000000E+03  0.12500000000E+03 0.  0.
        -11    1    3    3    0    0  0.16578029431E+02 -0.26487940789E+00 -0.58951739702E+02  0.61238948677E+02  0.51100000000E-03 0. -1.
         23    2    1    0    0    0  0.15843169300E+02  0.46404335124E-01 -0.23745094017E+02  0.96454638613E+02  0.92133922381E+02 0.  0.
         11    1    3    3    0    0 -0.73486013148E+00  0.31128374301E+00  0.35206645685E+02  0.35215689936E+02  0.51100000000E-03 0.  1.
         22    1    1    0    0    0 -0.15843169300E+02 -0.46404335124E-01  0.23745094017E+02  0.28545361387E+02  0.00000000000E+00 0. -1.
</event>
<event>
 5    1  0.1681104E-003  0.9118800E+02  0.7818608E-02  0.1130116E+00
         25   -1    0    0    0    0  0.00000000000E+00  0.00000000000E+00  0.99999998245E-14  0.12500000000E+03  0.12500000000E+03 0.  0.
        -11    1    3    3    0    0 -0.20637509223E+02  0.99593911354E+01 -0.50120131395E+02  0.55110106424E+02  0.51100000000E-03 0. -1.
         23    2    1    0    0    0  0.70814096099E+01 -0.82402910284E+01 -0.27987197967E+02  0.94977808069E+02  0.90108001960E+02 0.  0.
         11    1    3    3    0    0  0.27718918833E+02 -0.18199682164E+02  0.22132933428E+02  0.39867701646E+02  0.51100000000E-03 0.  1.
         22    1    1    0    0    0 -0.70814096099E+01  0.82402910284E+01  0.27987197967E+02  0.30022191931E+02  0.00000000000E+00 0. -1.
</event>
<event>
 5    1  0.1681104E-003  0.9118800E+02  0.7818608E-02  0.1130116E+00
         25   -1    0    0    0    0  0.00000000000E+00  0.00000000000E+00  0.99999998245E-14  0.12500000000E+03  0.12500000000E+03 0.  0.
        -11    1    3    3    0    0  0.53896859233E+02  0.27220346454E+02  0.12024445822E+02  0.61566273185E+02  0.51100000000E-03 0.  1.
         23    2    1    0    0    0  0.24634089268E+02  0.13340143948E+02  0.13320743052E+02  0.93980006607E+02  0.88713029775E+02 0.  0.
         11    1    3    3    0    0 -0.29262769965E+02 -0.13880202506E+02  0.12962972298E+01  0.32413733423E+02  0.51100000000E-03 0. -1.
         22    1    1    0    0    0 -0.24634089268E+02 -0.13340143948E+02 -0.13320743052E+02  0.31019993393E+02  0.00000000000E+00 0.  1.
</event>
<event>
 5    1  0.1681104E-003  0.9118800E+02  0.7818608E-02  0.1130116E+00
         25   -1    0    0    0    0  0.00000000000E+00  0.00000000000E+00  0.99999998245E-14  0.12500000000E+03  0.12500000000E+03 0.  0.
        -11    1    3    3    0    0  0.27472833995E+01  0.35617892889E+02  0.68947520768E+01  0.36382955713E+02  0.51100000000E-03 0. -1.
         23    2    1    0    0    0 -0.24684760851E+02 -0.11706073219E+02 -0.13201754940E+02  0.94657687926E+02  0.89662823855E+02 0.  0.
         11    1    3    3    0    0 -0.27432044251E+02 -0.47323966108E+02 -0.20096507017E+02  0.58274732213E+02  0.51100000000E-03 0.  1.
         22    1    1    0    0    0  0.24684760851E+02  0.11706073219E+02  0.13201754940E+02  0.30342312074E+02  0.00000000000E+00 0.  1.
</event>
<event>
 5    1  0.1681104E-003  0.9118800E+02  0.7818608E-02  0.1130116E+00
         25   -1    0    0    0    0  0.00000000000E+00  0.00000000000E+00  0.99999998245E-14  0.12500000000E+03  0.12500000000E+03 0.  0.
        -11    1    3    3    0    0 -0.31541990389E+02 -0.64252572524E+01 -0.13041098448E+02  0.34731129227E+02  0.51100000000E-03 0. -1.
         23    2    1    0    0    0  0.19195212929E+02  0.17213500342E+02  0.12605393431E+02  0.96300579501E+02  0.91924669569E+02 0.  0.
         11    1    3    3    0    0  0.50737203317E+02  0.23638757595E+02  0.25646491879E+02  0.61569450274E+02  0.51100000000E-03 0.  1.
         22    1    1    0    0    0 -0.19195212929E+02 -0.17213500342E+02 -0.12605393431E+02  0.28699420499E+02  0.00000000000E+00 0.  1.
</event>
<event>
 5    1  0.1681104E-003  0.9118800E+02  0.7818608E-02  0.1130116E+00
         25   -1    0    0    0    0  0.00000000000E+00  0.00000000000E+00  0.99999998245E-14  0.12500000000E+03  0.12500000000E+03 0.  0.
        -11    1    3    3    0    0 -0.25205499357E+02 -0.94114425695E+01  0.43722366684E+02  0.51337489204E+02  0.51100000000E-03 0. -1.
         23    2    1    0    0    0 -0.13556383833E+02  0.21339807680E+02  0.12050459085E+02  0.96993277617E+02  0.92861829641E+02 0.  0.
         11    1    3    3    0    0  0.11649115525E+02  0.30751250250E+02 -0.31671907599E+02  0.45655788413E+02  0.51100000000E-03 0.  1.
         22    1    1    0    0    0  0.13556383833E+02 -0.21339807680E+02 -0.12050459085E+02  0.28006722383E+02  0.00000000000E+00 0. -1.
</event>
<event>
 5    1  0.1681104E-003  0.9118800E+02  0.7818608E-02  0.1130116E+00
         25   -1    0    0    0    0  0.00000000000E+00  0.00000000000E+00  0.99999998245E-14  0.12500000000E+03  0.12500000000E+03 0.  0.
        -11    1    3    3    0    0 -0.36652806595E+02 -0.16850228653E+02  0.56065824710E+01  0.40728272787E+02  0.51100000000E-03 0. -1.
         23    2    1    0    0    0 -0.47557128028E+01  0.27307852194E+02  0.10359083366E+02  0.95408680261E+02  0.90703748904E+02 0.  0.
         11    1    3    3    0    0  0.31897093792E+02  0.44158080847E+02  0.47525008946E+01  0.54680407474E+02  0.51100000000E-03 0.  1.
         22    1    1    0    0    0  0.47557128028E+01 -0.27307852194E+02 -0.10359083366E+02  0.29591319739E+02  0.00000000000E+00 0.  1.
</event>
<event>
 5    1  0.1681104E-003  0.9118800E+02  0.7818608E-02  0.1130116E+00
         25   -1    0    0    0    0  0.00000000000E+00  0.00000000000E+00  0.99999998245E-14  0.12500000000E+03  0.12500000000E+03 0.  0.
        -11    1    3    3    0    0  0.47191586680E+02  0.34477539943E+02 -0.16849971703E+02  0.60824897538E+02  0.51100000000E-03 0.  1.
         23    2    1    0    0    0  0.12728103411E+02  0.69540932620E+01  0.44838274947E+01  0.10981880313E+03  0.10876442792E+03 0.  0.
         11    1    3    3    0    0 -0.34463483269E+02 -0.27523446681E+02  0.21333799198E+02  0.48993905587E+02  0.51100000000E-03 0. -1.
         22    1    1    0    0    0 -0.12728103411E+02 -0.69540932620E+01 -0.44838274947E+01  0.15181196874E+02  0.00000000000E+00 0.  1.
</event>
<event>
 5    1  0.1681104E-003  0.9118800E+02  0.7818608E-02  0.1130116E+00
         25   -1    0    0    0    0  0.00000000000E+00  0.00000000000E+00  0.99999998245E-14  0.12500000000E+03  0.12500000000E+03 0.  0.
        -11    1    3    3    0    0 -0.13853644348E+02 -0.18118394028E+02 -0.35375863029E+02  0.42090988930E+02  0.51100000000E-03 0.  1.
         23    2    1    0    0    0  0.34836261234E+01  0.26700191593E+02 -0.12954466594E+02  0.95119335904E+02  0.90304119375E+02 0.  0.
         11    1    3    3    0    0  0.17337270471E+02  0.44818585621E+02  0.22421396435E+02  0.53028346974E+02  0.51100000000E-03 0. -1.
         22    1    1    0    0    0 -0.34836261234E+01 -0.26700191593E+02  0.12954466594E+02  0.29880664096E+02  0.00000000000E+00 0. -1.
</event>
<event>
 5    1  0.1681104E-003  0.9118800E+02  0.7818608E-02  0.1130116E+00
         25   -1    0    0    0    0  0.00000000000E+00  0.00000000000E+00  0.99999998245E-14  0.12500000000E+03  0.12500000000E+03 0.  0.
        -11    1    3    3    0    0 -0.30998622051E+02  0.16175110642E+02 -0.71302463301E+01  0.35684579111E+02  0.51100000000E-03 0.  1.
         23    2    1    0    0    0  0.27336077886E+02  0.98366695429E+01  0.47749523556E+01  0.95558169352E+02  0.90909528313E+02 0.  0.
         11    1    3    3    0    0  0.58334699937E+02 -0.63384410993E+01  0.11905198686E+02  0.59873590241E+02  0.51100000000E-03 0. -1.
         22    1    1    0    0    0 -0.27336077886E+02 -0.98366695429E+01 -0.47749523556E+01  0.29441830648E+02  0.00000000000E+00 0. -1.
</event>
<event>
 5    1  0.1681104E-003  0.9118800E+02  0.7818608E-02  0.1130116E+00
         25   -1    0    0    0    0  0.00000000000E+00  0.00000000000E+00  0.99999998245E-14  0.12500000000E+03  0.12500000000E+03 0.  0.
        -11    1    3    3    0    0 -0.24323166619E+02  0.29682728013E+02 -0.10160250508E+02  0.39697751414E+02  0.51100000000E-03 0.  1.
         23    2    1    0    0    0  0.13332178532E+02 -0.68483406973E+01 -0.26421081006E+02  0.94623688897E+02  0.89615412872E+02 0.  0.
         11    1    3    3    0    0  0.37655345151E+02 -0.36531068710E+02 -0.16260830498E+02  0.54925937483E+02  0.51100000000E-03 0. -1.
         22    1    1    0    0    0 -0.13332178532E+02  0.68483406973E+01  0.26421081006E+02  0.30376311103E+02  0.00000000000E+00 0. -1.
</event>
<event>
 5    1  0.1681104E-003  0.9118800E+02  0.7818608E-02  0.1130116E+00
         25   -1    0    0    0    0  0.00000000000E+00  0.00000000000E+00  0.99999998245E-14  0.12500000000E+03  0.12500000000E+03 0.  0.
        -11    1    3    3    0    0 -0.23319826148E+01 -0.15724793418E+02  0.43320317297E+02  0.46144958142E+02  0.51100000000E-03 0.  1.
         23    2    1    0    0    0 -0.28091133469E+02 -0.83108886761E+01  0.16924060841E+01  0.95656399531E+02  0.91044493973E+02 0.  0.
         11    1    3    3    0    0 -0.25759150854E+02  0.74139047414E+01 -0.41627911213E+02  0.49511441389E+02  0.51100000000E-03 0. -1.
         22    1    1    0    0    0  0.28091133469E+02  0.83108886761E+01 -0.16924060841E+01  0.29343600469E+02  0.00000000000E+00 0. -1.
</event>
<event>
 5    1  0.1681104E-003  0.9118800E+02  0.7818608E-02  0.1130116E+00
         25   -1    0    0    0    0  0.00000000000E+00  0.00000000000E+00  0.99999998245E-14  0.12500000000E+03  0.12500000000E+03 0.  0.
        -11    1    3    3    0    0 -0.31882155720E+01 -0.28380674352E+02  0.31430568062E+02  0.42467728973E+02  0.51100000000E-03 0. -1.
         23    2    1    0    0    0 -0.25769191898E+02  0.12531286732E+02  0.58029025691E+01  0.95763754063E+02  0.91191767808E+02 0.  0.
         11    1    3    3    0    0 -0.22580976326E+02  0.40911961084E+02 -0.25627665493E+02  0.53296025090E+02  0.51100000000E-03 0.  1.
         22    1    1    0    0    0  0.25769191898E+02 -0.12531286732E+02 -0.58029025691E+01  0.29236245937E+02  0.00000000000E+00 0.  1.
</event>
<event>
 5    1  0.1681104E-003  0.9118800E+02  0.7818608E-02  0.1130116E+00
         25   -1    0    0    0    0  0.00000000000E+00  0.00000000000E+00  0.99999998245E-14  0.12500000000E+03  0.12500000000E+03 0.  0.
        -11    1    3    3    0    0 -0.21437172707E+02 -0.45206477694E+02 -0.22641095585E+02  0.54916274534E+02  0.51100000000E-03 0. -1.
         23    2    1    0    0    0 -0.27083911514E+02 -0.95602097583E+01 -0.26947521586E+01  0.96152165372E+02  0.91722632666E+02 0.  0.
         11    1    3    3    0    0 -0.56467388069E+01  0.35646267936E+02  0.19946343426E+02  0.41235890838E+02  0.51100000000E-03 0.  1.
         22    1    1    0    0    0  0.27083911514E+02  0.95602097583E+01  0.26947521586E+01  0.28847834628E+02  0.00000000000E+00 0. -1.
</event>
<event>
 5    1  0.1681104E-003  0.9118800E+02  0.7818608E-02  0.1130116E+00
         25   -1    0    0    0    0  0.00000000000E+00  0.00000000000E+00  0.99999998245E-14  0.12500000000E+03  0.12500000000E+03 0.  0.
        -11    1    3    3    0    0 -0.16637119493E+02 -0.29543058350E+02  0.28296083161E+01  0.34023414367E+02  0.51100000000E-03 0. -1.
         23    2    1    0    0    0  0.23715080248E+02  0.16684221979E+02  0.56866937153E+01  0.95451619679E+02  0.90762904976E+02 0.  0.
         11    1    3    3    0    0  0.40352199741E+02  0.46227280329E+02  0.28570853992E+01  0.61428205312E+02  0.51100000000E-03 0.  1.
         22    1    1    0    0    0 -0.23715080248E+02 -0.16684221979E+02 -0.56866937153E+01  0.29548380321E+02  0.00000000000E+00 0.  1.
</event>
<event>
 5    1  0.1681104E-003  0.9118800E+02  0.7818608E-02  0.1130116E+00
         25   -1    0    0    0    0  0.00000000000E+00  0.00000000000E+00  0.99999998245E-14  0.12500000000E+03  0.12500000000E+03 0.  0.
        -11    1    3    3    0    0 -0.64354668867E+00  0.19765753142E+02 -0.27979908362E+02  0.34263310141E+02  0.51100000000E-03 0.  1.
         23    2    1    0    0    0  0.17553126510E+02 -0.13117605554E+02  0.20083460196E+02  0.95275780933E+02  0.90520413350E+02 0.  0.
         11    1    3    3    0    0  0.18196673199E+02 -0.32883358696E+02  0.48063368558E+02  0.61012470791E+02  0.51100000000E-03 0. -1.
         22    1    1    0    0    0 -0.17553126510E+02  0.13117605554E+02 -0.20083460196E+02  0.29724219067E+02  0.00000000000E+00 0. -1.
</event>
<event>
 5    1  0.1681104E-003  0.9118800E+02  0.7818608E-02  0.1130116E+00
         25   -1    0    0    0    0  0.00000000000E+00  0.00000000000E+00  0.99999998245E-14  0.12500000000E+03  0.12500000000E+03 0.  0.
        -11    1    3    3    0    0  0.35362450707E+01  0.32873276135E+02 -0.24371718456E+02  0.41074785134E+02  0.51100000000E-03 0. -1.
         23    2    1    0    0    0  0.21613066319E+02 -0.16782808074E+02 -0.10314288643E+02  0.95756678835E+02  0.91182069008E+02 0.  0.
         11    1    3    3    0    0  0.18076821248E+02 -0.49656084209E+02  0.14057429813E+02  0.54681893700E+02  0.51100000000E-03 0.  1.
         22    1    1    0    0    0 -0.21613066319E+02  0.16782808074E+02  0.10314288643E+02  0.29243321165E+02  0.00000000000E+00 0.  1.
</event>
<event>
 5    1  0.1681104E-003  0.9118800E+02  0.7818608E-02  0.1130116E+00
         25   -1    0    0    0    0  0.00000000000E+00  0.00000000000E+00  0.99999998245E-14  0.12500000000E+03  0.12500000000E+03 0.  0.
        -11    1    3    3    0    0  0.36804080559E+02 -0.18741092859E+02  0.20621752430E+02  0.46163032622E+02  0.51100000000E-03 0.  1.
         23    2    1    0    0    0 -0.62858158890E+01 -0.25620052344E+02  0.23193088304E+02  0.89874255757E+02  0.82725835984E+02 0.  0.
         11    1    3    3    0    0 -0.43089896448E+02 -0.68789594855E+01  0.25713358739E+01  0.43711223135E+02  0.51100000000E-03 0. -1.
         22    1    1    0    0    0  0.62858158890E+01  0.25620052344E+02 -0.23193088304E+02  0.35125744243E+02  0.00000000000E+00 0. -1.
</event>
<event>
 5    1  0.1681104E-003  0.9118800E+02  0.7818608E-02  0.1130116E+00
         25   -1    0    0    0    0  0.00000000000E+00  0.00000000000E+00  0.99999998245E-14  0.12500000000E+03  0.12500000000E+03 0.  0.
        -11    1    3    3    0    0  0.32583306008E+02 -0.85208843257E+01  0.28559688718E+02  0.44158047058E+02  0.51100000000E-03 0. -1.
         23    2    1    0    0    0 -0.11532871904E+02  0.17244668544E+02  0.20418096180E+02  0.95891850296E+02  0.91367185434E+02 0.  0.
         11    1    3    3    0    0 -0.44116177912E+02  0.25765552869E+02 -0.81415925371E+01  0.51733803238E+02  0.51100000000E-03 0.  1.
         22    1    1    0    0    0  0.11532871904E+02 -0.17244668544E+02 -0.20418096180E+02  0.29108149704E+02  0.00000000000E+00 0.  1.
</event>
<event>
 5    1  0.1681104E-003  0.9118800E+02  0.7818608E-02  0.1130116E+00
         25   -1    0    0    0    0  0.00000000000E+00  0.00000000000E+00  0.99999998245E-14  0.12500000000E+03  0.12500000000E+03 0.  0.
        -11    1    3    3    0    0  0.30563408265E+02  0.49907149921E+01  0.16932066610E+02  0.35294816062E+02  0.51100000000E-03 0.  1.
         23    2    1    0    0    0 -0.24090220566E+02  0.15853714404E+02 -0.59859798393E+01  0.95546461300E+02  0.90893428393E+02 0.  0.
         11    1    3    3    0    0 -0.54653628831E+02  0.10862999412E+02 -0.22918046449E+02  0.60251645238E+02  0.51100000000E-03 0. -1.
         22    1    1    0    0    0  0.24090220566E+02 -0.15853714404E+02  0.59859798393E+01  0.29453538700E+02  0.00000000000E+00 0. -1.
</event>
<event>
 5    1  0.1681104E-003  0.9118800E+02  0.7818608E-02  0.1130116E+00
         25   -1    0    0    0    0  0.00000000000E+00  0.00000000000E+00  0.99999998245E-14  0.12500000000E+03  0.12500000000E+03 0.  0.
        -11    1    3    3    0    0 -0.34153340962E+02  0.33080588783E+02  0.31194796031E+01  0.47649839520E+02  0.51100000000E-03 0. -1.
         23    2    1    0    0    0  0.66569781747E+01  0.18967348121E+02 -0.20010656513E+02  0.96636255056E+02  0.92379996558E+02 0.  0.
         11    1    3    3    0    0  0.40810319136E+02 -0.14113240662E+02 -0.23130136117E+02  0.48986415536E+02  0.51100000000E-03 0.  1.
         22    1    1    0    0    0 -0.66569781747E+01 -0.18967348121E+02  0.20010656513E+02  0.28363744944E+02  0.00000000000E+00 0. -1.
</event>
<event>
 5    1  0.1681104E-003  0.9118800E+02  0.7818608E-02  0.1130116E+00
         25   -1    0    0    0    0  0.00000000000E+00  0.00000000000E+00  0.99999998245E-14  0.12500000000E+03  0.12500000000E+03 0.  0.
        -11    1    3    3    0    0 -0.39882491731E+02  0.17286902779E+02  0.44374276555E+02  0.62117039325E+02  0.51100000000E-03 0.  1.
         23    2    1    0    0    0 -0.17360004154E+02  0.12785624512E+02  0.20384807652E+02  0.95328762726E+02  0.90593546578E+02 0.  0.
         11    1    3    3    0    0  0.22522487578E+02 -0.45012782678E+01 -0.23989468904E+02  0.33211723401E+02  0.51100000000E-03 0. -1.
         22    1    1    0    0    0  0.17360004154E+02 -0.12785624512E+02 -0.20384807652E+02  0.29671237274E+02  0.00000000000E+00 0.  1.
</event>
<event>
 5    1  0.1681104E-003  0.9118800E+02  0.7818608E-02  0.1130116E+00
         25   -1    0    0    0    0  0.00000000000E+00  0.00000000000E+00  0.99999998245E-14  0.12500000000E+03  0.12500000000E+03 0.  0.
        -11    1    3    3    0    0 -0.30794101514E+02 -0.22172940540E+02 -0.33305669060E+02  0.50489440204E+02  0.51100000000E-03 0. -1.
         23    2    1    0    0    0 -0.10754392148E+02  0.16650417042E+02 -0.21522107328E+02  0.95740908388E+02  0.91160446998E+02 0.  0.
         11    1    3    3    0    0  0.20039709367E+02  0.38823357582E+02  0.11783561732E+02  0.45251468184E+02  0.51100000000E-03 0.  1.
         22    1    1    0    0    0  0.10754392148E+02 -0.16650417042E+02  0.21522107328E+02  0.29259091612E+02  0.00000000000E+00 0.  1.
</event>
<event>
 5    1  0.1681104E-003  0.9118800E+02  0.7818608E-02  0.1130116E+00
         25   -1    0    0    0    0  0.00000000000E+00  0.00000000000E+00  0.99999998245E-14  0.12500000000E+03  0.12500000000E+03 0.  0.
        -11    1    3    3    0    0 -0.13343962578E+02 -0.25517651050E+02 -0.25577602112E+02  0.38515264279E+02  0.51100000000E-03 0.  1.
         23    2    1    0    0    0 -0.24492545847E+02  0.13298757748E+02  0.12893571854E+02  0.94291923621E+02  0.89151449261E+02 0.  0.
         11    1    3    3    0    0 -0.11148583269E+02  0.38816408797E+02  0.38471173966E+02  0.55776659343E+02  0.51100000000E-03 0. -1.
         22    1    1    0    0    0  0.24492545847E+02 -0.13298757748E+02 -0.12893571854E+02  0.30708076379E+02  0.00000000000E+00 0.  1.
</event>
<event>
 5    1  0.1681104E-003  0.9118800E+02  0.7818608E-02  0.1130116E+00
         25   -1    0    0    0    0  0.00000000000E+00  0.00000000000E+00  0.99999998245E-14  0.12500000000E+03  0.12500000000E+03 0.  0.
        -11    1    3    3    0    0  0.78593115870E+01  0.15904667489E+02 -0.57272455164E+02  0.59957162602E+02  0.51100000000E-03 0.  1.
         23    2    1    0    0    0 -0.84902271253E+01  0.83199545105E+01 -0.30829237227E+02  0.91958397925E+02  0.85817244661E+02 0.  0.
         11    1    3    3    0    0 -0.16349538712E+02 -0.75847129785E+01  0.26443217937E+02  0.32001235323E+02  0.51100000000E-03 0. -1.
         22    1    1    0    0    0  0.84902271253E+01 -0.83199545105E+01  0.30829237227E+02  0.33041602075E+02  0.00000000000E+00 0.  1.
</event>
<event>
 5    1  0.1681104E-003  0.9118800E+02  0.7818608E-02  0.1130116E+00
         25   -1    0    0    0    0  0.00000000000E+00  0.00000000000E+00  0.99999998245E-14  0.12500000000E+03  0.12500000000E+03 0.  0.
        -11    1    3    3    0    0 -0.85854693687E+01 -0.39948219094E+02  0.30693374245E+02  0.51104341458E+02  0.51100000000E-03 0. -1.
         23    2    1    0    0    0  0.15088214752E+02 -0.25160960036E+02 -0.37338115327E+01  0.95425188371E+02  0.90726496090E+02 0.  0.
         11    1    3    3    0    0  0.23673684121E+02  0.14787259058E+02 -0.34427185777E+02  0.44320846913E+02  0.51100000000E-03 0.  1.
         22    1    1    0    0    0 -0.15088214752E+02  0.25160960036E+02  0.37338115327E+01  0.29574811629E+02  0.00000000000E+00 0. -1.
</event>
<event>
 5    1  0.1681104E-003  0.9118800E+02  0.7818608E-02  0.1130116E+00
         25   -1    0    0    0    0  0.00000000000E+00  0.00000000000E+00  0.99999998245E-14  0.12500000000E+03  0.12500000000E+03 0.  0.
        -11    1    3    3    0    0 -0.16589613211E+02 -0.20762950347E+02 -0.25853664136E+02  0.37077315479E+02  0.51100000000E-03 0.  1.
         23    2    1    0    0    0  0.68961733158E+01  0.56152232105E+00  0.26126563516E+02  0.97972794542E+02  0.94171113594E+02 0.  0.
         11    1    3    3    0    0  0.23485786527E+02  0.21324472668E+02  0.51980227652E+02  0.60895479063E+02  0.51100000000E-03 0. -1.
         22    1    1    0    0    0 -0.68961733158E+01 -0.56152232105E+00 -0.26126563516E+02  0.27027205458E+02  0.00000000000E+00 0. -1.
</event>
<event>
 5    1  0.1681104E-003  0.9118800E+02  0.7818608E-02  0.1130116E+00
         25   -1    0    0    0    0  0.00000000000E+00  0.00000000000E+00  0.99999998245E-14  0.12500000000E+03  0.12500000000E+03 0.  0.
        -11    1    3    3    0    0 -0.66096002654E+01 -0.34293968992E+01  0.35186594051E+02  0.35965872434E+02  0.51100000000E-03 0. -1.
         23    2    1    0    0    0  0.13383866742E+02 -0.17411047899E+02 -0.19362561393E+02  0.95722341938E+02  0.91134984964E+02 0.  0.
         11    1    3    3    0    0  0.19993467008E+02 -0.13981651000E+02 -0.54549155444E+02  0.59756469504E+02  0.51100000000E-03 0.  1.
         22    1    1    0    0    0 -0.13383866742E+02  0.17411047899E+02  0.19362561393E+02  0.29277658062E+02  0.00000000000E+00 0.  1.
</event>
<event>
 5    1  0.1681104E-003  0.9118800E+02  0.7818608E-02  0.1130116E+00
         25   -1    0    0    0    0  0.00000000000E+00  0.00000000000E+00  0.99999998245E-14  0.12500000000E+03  0.12500000000E+03 0.  0.
        -11    1    3    3    0    0 -0.41593613990E+02 -0.21615003404E+02  0.29110292779E+02  0.55178313157E+02  0.51100000000E-03 0. -1.
         23    2    1    0    0    0 -0.10642113155E+02 -0.28897521773E+02  0.85609279552E+01  0.93037352668E+02  0.87374699810E+02 0.  0.
         11    1    3    3    0    0  0.30951500835E+02 -0.72825183691E+01 -0.20549364824E+02  0.37859039511E+02  0.51100000000E-03 0.  1.
         22    1    1    0    0    0  0.10642113155E+02  0.28897521773E+02 -0.85609279552E+01  0.31962647332E+02  0.00000000000E+00 0. -1.
</event>
<event>
 5    1  0.1681104E-003  0.9118800E+02  0.7818608E-02  0.1130116E+00
         25   -1    0    0    0    0  0.00000000000E+00  0.00000000000E+00  0.99999998245E-14  0.12500000000E+03  0.12500000000E+03 0.  0.
        -11    1    3    3    0    0  0.35670081095E+02 -0.74534094016E+01  0.25587079949E+00  0.36441370270E+02  0.51100000000E-03 0.  1.
         23    2    1    0    0    0 -0.13049183478E+02  0.19145657437E+02  0.19008217344E+02  0.95030853954E+02  0.90181558472E+02 0.  0.
         11    1    3    3    0    0 -0.48719264573E+02  0.26599066839E+02  0.18752346544E+02  0.58589483684E+02  0.51100000000E-03 0. -1.
         22    1    1    0    0    0  0.13049183478E+02 -0.19145657437E+02 -0.19008217344E+02  0.29969146046E+02  0.00000000000E+00 0.  1.
</event>
<event>
 5    1  0.1681104E-003  0.9118800E+02  0.7818608E-02  0.1130116E+00
         25   -1    0    0    0    0  0.00000000000E+00  0.00000000000E+00  0.99999998245E-14  0.12500000000E+03  0.12500000000E+03 0.  0.
        -11    1    3    3    0    0 -0.55895353657E+02 -0.13350799582E+00  0.24231045309E+02  0.60921686959E+02  0.51100000000E-03 0. -1.
         23    2    1    0    0    0 -0.22673239755E+02 -0.70100293458E+01  0.17510008321E+02  0.95507344917E+02  0.90839618171E+02 0.  0.
         11    1    3    3    0    0  0.33222113902E+02 -0.68765213500E+01 -0.67210369885E+01  0.34585657959E+02  0.51100000000E-03 0.  1.
         22    1    1    0    0    0  0.22673239755E+02  0.70100293458E+01 -0.17510008321E+02  0.29492655083E+02  0.00000000000E+00 0. -1.
</event>
<event>
 5    1  0.1681104E-003  0.9118800E+02  0.7818608E-02  0.1130116E+00
         25   -1    0    0    0    0  0.00000000000E+00  0.00000000000E+00  0.99999998245E-14  0.12500000000E+03  0.12500000000E+03 0.  0.
        -11    1    3    3    0    0  0.27300513120E+02  0.19346890226E+01 -0.25989454404E+02  0.37742718221E+02  0.51100000000E-03 0.  1.
         23    2    1    0    0    0 -0.21759595789E+02  0.45078335459E+01  0.11907945233E+02  0.99788896656E+02  0.96551665775E+02 0.  0.
         11    1    3    3    0    0 -0.49060108909E+02  0.25731445234E+01  0.37897399637E+02  0.62046178435E+02  0.51100000000E-03 0. -1.
         22    1    1    0    0    0  0.21759595789E+02 -0.45078335459E+01 -0.11907945233E+02  0.25211103344E+02  0.00000000000E+00 0. -1.
</event>
<event>
 5    1  0.1681104E-003  0.9118800E+02  0.7818608E-02  0.1130116E+00
         25   -1    0    0    0    0  0.00000000000E+00  0.00000000000E+00  0.99999998245E-14  0.12500000000E+03  0.12500000000E+03 0.  0.
        -11    1    3    3    0    0  0.22765063901E+02  0.13462127444E+02  0.20871744069E+02  0.33691344741E+02  0.51100000000E-03 0. -1.
         23    2    1    0    0    0 -0.22143275781E+02  0.55022016386E+01 -0.19792231841E+02  0.94795177100E+02  0.89854294694E+02 0.  0.
         11    1    3    3    0    0 -0.44908339682E+02 -0.79599258058E+01 -0.40663975910E+02  0.61103832358E+02  0.51100000000E-03 0.  1.
         22    1    1    0    0    0  0.22143275781E+02 -0.55022016386E+01  0.19792231841E+02  0.30204822900E+02  0.00000000000E+00 0.  1.
</event>
<event>
 5    1  0.1681104E-003  0.9118800E+02  0.7818608E-02  0.1130116E+00
         25   -1    0    0    0    0  0.00000000000E+00  0.00000000000E+00  0.99999998245E-14  0.12500000000E+03  0.12500000000E+03 0.  0.
        -11    1    3    3    0    0  0.74231236988E+01  0.26208043160E+02 -0.15087412282E+02  0.31138309224E+02  0.51100000000E-03 0.  1.
         23    2    1    0    0    0  0.12035102440E+01 -0.23401009756E+02  0.21583605338E+02  0.93142383738E+02  0.87524830388E+02 0.  0.
         11    1    3    3    0    0 -0.62196134549E+01 -0.49609052916E+02  0.36671017619E+02  0.62004074514E+02  0.51100000000E-03 0. -1.
         22    1    1    0    0    0 -0.12035102440E+01  0.23401009756E+02 -0.21583605338E+02  0.31857616262E+02  0.00000000000E+00 0. -1.
</event>
<event>
 5    1  0.1681104E-003  0.9118800E+02  0.7818608E-02  0.1130116E+00
         25   -1    0    0    0    0  0.00000000000E+00  0.00000000000E+00  0.99999998245E-14  0.12500000000E+03  0.12500000000E+03 0.  0.
        -11    1    3    3    0    0  0.21657963999E+02 -0.25158391749E+02  0.16124934352E+02  0.36905630845E+02  0.51100000000E-03 0.  1.
         23    2    1    0    0    0 -0.25913345109E+02 -0.79990452070E+01 -0.12633129323E+02  0.95082076685E+02  0.90252529999E+02 0.  0.
         11    1    3    3    0    0 -0.47571309108E+02  0.17159346541E+02 -0.28758063675E+02  0.58176445840E+02  0.51100000000E-03 0. -1.
         22    1    1    0    0    0  0.25913345109E+02  0.79990452070E+01  0.12633129323E+02  0.29917923315E+02  0.00000000000E+00 0. -1.
</event>
<event>
 5    1  0.1681104E-003  0.9118800E+02  0.7818608E-02  0.1130116E+00
         25   -1    0    0    0    0  0.00000000000E+00  0.00000000000E+00  0.99999998245E-14  0.12500000000E+03  0.12500000000E+03 0.  0.
        -11    1    3    3    0    0 -0.35222084647E+02  0.24969545547E+02  0.22412779749E+02  0.48645720758E+02  0.51100000000E-03 0. -1.
         23    2    1    0    0    0 -0.14772223058E+02  0.12976607908E+02 -0.19822534876E+02  0.97079688114E+02  0.92978072838E+02 0.  0.
         11    1    3    3    0    0  0.20449861588E+02 -0.11992937639E+02 -0.42235314625E+02  0.48433967357E+02  0.51100000000E-03 0.  1.
         22    1    1    0    0    0  0.14772223058E+02 -0.12976607908E+02  0.19822534876E+02  0.27920311886E+02  0.00000000000E+00 0. -1.
</event>
<event>
 5    1  0.1681104E-003  0.9118800E+02  0.7818608E-02  0.1130116E+00
         25   -1    0    0    0    0  0.00000000000E+00  0.00000000000E+00  0.99999998245E-14  0.12500000000E+03  0.12500000000E+03 0.  0.
        -11    1    3    3    0    0  0.26016278359E+02  0.37350608509E+02  0.84600816610E+01  0.46297815041E+02  0.51100000000E-03 0.  1.
         23    2    1    0    0    0  0.48473169754E+01  0.12441743906E+02  0.34445579442E+02  0.88056916529E+02  0.79932653729E+02 0.  0.
         11    1    3    3    0    0 -0.21168961384E+02 -0.24908864603E+02  0.25985497781E+02  0.41759101488E+02  0.51100000000E-03 0. -1.
         22    1    1    0    0    0 -0.48473169754E+01 -0.12441743906E+02 -0.34445579442E+02  0.36943083471E+02  0.00000000000E+00 0.  1.
</event>
<event>
 5    1  0.1681104E-003  0.9118800E+02  0.7818608E-02  0.1130116E+00
         25   -1    0    0    0    0  0.00000000000E+00  0.00000000000E+00  0.99999998245E-14  0.12500000000E+03  0.12500000000E+03 0.  0.
        -11    1    3    3    0    0 -0.49148653168E+02  0.15398137008E+01 -0.27478212112E+02  0.56329506261E+02  0.51100000000E-03 0.  1.
         23    2    1    0    0    0 -0.10093019851E+02 -0.26413957142E+00 -0.27794975853E+02  0.95428062254E+02  0.90730455545E+02 0.  0.
         11    1    3    3    0    0  0.39055633317E+02 -0.18039532722E+01 -0.31676374087E+00  0.39098555993E+02  0.51100000000E-03 0. -1.
         22    1    1    0    0    0  0.10093019851E+02  0.26413957142E+00  0.27794975853E+02  0.29571937746E+02  0.00000000000E+00 0.  1.
</event>
<event>
 5    1  0.1681104E-003  0.9118800E+02  0.7818608E-02  0.1130116E+00
         25   -1    0    0    0    0  0.00000000000E+00  0.00000000000E+00  0.99999998245E-14  0.12500000000E+03  0.12500000000E+03 0.  0.
        -11    1    3    3    0    0 -0.59869410455E+01 -0.26247814181E+02  0.54829677286E+02  0.61082605739E+02  0.51100000000E-03 0.  1.
         23    2    1    0    0    0  0.48631928654E+01 -0.19006273140E+02  0.29534102410E+02  0.89543656862E+02  0.82224778599E+02 0.  0.
         11    1    3    3    0    0  0.10850133911E+02  0.72415410410E+01 -0.25295574875E+02  0.28461051124E+02  0.51100000000E-03 0. -1.
         22    1    1    0    0    0 -0.48631928654E+01  0.19006273140E+02 -0.29534102410E+02  0.35456343138E+02  0.00000000000E+00 0.  1.
</event>
<event>
 5    1  0.1681104E-003  0.9118800E+02  0.7818608E-02  0.1130116E+00
         25   -1    0    0    0    0  0.00000000000E+00  0.00000000000E+00  0.99999998245E-14  0.12500000000E+03  0.12500000000E+03 0.  0.
        -11    1    3    3    0    0  0.47539354452E+01  0.92978095116E+01 -0.33682251273E+02  0.35263908107E+02  0.51100000000E-03 0. -1.
         23    2    1    0    0    0 -0.17839637377E+01  0.16834495586E+02  0.25010627836E+02  0.94798770339E+02  0.89859293258E+02 0.  0.
         11    1    3    3    0    0 -0.65378991829E+01  0.75366860748E+01  0.58692879109E+02  0.59534862232E+02  0.51100000000E-03 0.  1.
         22    1    1    0    0    0  0.17839637377E+01 -0.16834495586E+02 -0.25010627836E+02  0.30201229661E+02  0.00000000000E+00 0.  1.
</event>
<event>
 5    1  0.1681104E-003  0.9118800E+02  0.7818608E-02  0.1130116E+00
         25   -1    0    0    0    0  0.00000000000E+00  0.00000000000E+00  0.99999998245E-14  0.12500000000E+03  0.12500000000E+03 0.  0.
        -11    1    3    3    0    0  0.51495103044E+02 -0.25901202891E+02 -0.22074470100E+02  0.61724388852E+02  0.51100000000E-03 0.  1.
         23    2    1    0    0    0  0.22548677716E+02 -0.16918239296E+02 -0.54654684717E+01  0.96285177465E+02  0.91903723353E+02 0.  0.
         11    1    3    3    0    0 -0.28946425328E+02  0.89829635948E+01  0.16609001628E+02  0.34560788613E+02  0.51100000000E-03 0. -1.
         22    1    1    0    0    0 -0.22548677716E+02  0.16918239296E+02  0.54654684717E+01  0.28714822535E+02  0.00000000000E+00 0.  1.
</event>
<event>
 5    1  0.1681104E-003  0.9118800E+02  0.7818608E-02  0.1130116E+00
         25   -1    0    0    0    0  0.00000000000E+00  0.00000000000E+00  0.99999998245E-14  0.12500000000E+03  0.12500000000E+03 0.  0.
        -11    1    3    3    0    0 -0.47194719234E+02 -0.15534287660E+02 -0.25331534331E+02  0.55770442427E+02  0.51100000000E-03 0. -1.
         23    2    1    0    0    0 -0.27916744726E+02 -0.29160415135E+02 -0.11986023850E+02  0.82888965642E+02  0.71394967684E+02 0.  0.
         11    1    3    3    0    0  0.19277974509E+02 -0.13626127475E+02  0.13345510480E+02  0.27118523215E+02  0.51100000000E-03 0.  1.
         22    1    1    0    0    0  0.27916744726E+02  0.29160415135E+02  0.11986023850E+02  0.42111034358E+02  0.00000000000E+00 0. -1.
</event>
<event>
 5    1  0.1681104E-003  0.9118800E+02  0.7818608E-02  0.1130116E+00
         25   -1    0    0    0    0  0.00000000000E+00  0.00000000000E+00  0.99999998245E-14  0.12500000000E+03  0.12500000000E+03 0.  0.
        -11    1    3    3    0    0  0.10214629020E+01  0.15700985782E+02  0.31157021619E+02  0.34904503111E+02  0.51100000000E-03 0.  1.
         23    2    1    0    0    0 -0.17424531482E+02 -0.34611593382E+01 -0.23412258852E+02  0.95610753907E+02  0.90981802999E+02 0.  0.
         11    1    3    3    0    0 -0.18445994384E+02 -0.19162145120E+02 -0.54569280471E+02  0.60706250797E+02  0.51100000000E-03 0. -1.
         22    1    1    0    0    0  0.17424531482E+02  0.34611593382E+01  0.23412258852E+02  0.29389246093E+02  0.00000000000E+00 0. -1.
</event>
<event>
 5    1  0.1681104E-003  0.9118800E+02  0.7818608E-02  0.1130116E+00
         25   -1    0    0    0    0  0.00000000000E+00  0.00000000000E+00  0.99999998245E-14  0.12500000000E+03  0.12500000000E+03 0.  0.
        -11    1    3    3    0    0  0.14373085322E+02 -0.46460321266E+02 -0.10891556732E+02  0.49837466249E+02  0.51100000000E-03 0. -1.
         23    2    1    0    0    0  0.25442965741E+02 -0.24722960846E+01 -0.14963948977E+02  0.95379457760E+02  0.90663468056E+02 0.  0.
         11    1    3    3    0    0  0.11069880419E+02  0.43988025182E+02 -0.40723922448E+01  0.45541991511E+02  0.51100000000E-03 0.  1.
         22    1    1    0    0    0 -0.25442965741E+02  0.24722960846E+01  0.14963948977E+02  0.29620542240E+02  0.00000000000E+00 0.  1.
</event>
<event>
 5    1  0.1681104E-003  0.9118800E+02  0.7818608E-02  0.1130116E+00
         25   -1    0    0    0    0  0.00000000000E+00  0.00000000000E+00  0.99999998245E-14  0.12500000000E+03  0.12500000000E+03 0.  0.
        -11    1    3    3    0    0 -0.13615562185E+02  0.38175558717E+02 -0.20120246420E+02  0.45250205891E+02  0.51100000000E-03 0.  1.
         23    2    1    0    0    0  0.21101997189E+02  0.73493824402E+00 -0.19416483164E+02  0.96314912619E+02  0.91944157807E+02 0.  0.
         11    1    3    3    0    0  0.34717559374E+02 -0.37440620473E+02  0.70376325564E+00  0.51064706728E+02  0.51100000000E-03 0. -1.
         22    1    1    0    0    0 -0.21101997189E+02 -0.73493824402E+00  0.19416483164E+02  0.28685087381E+02  0.00000000000E+00 0.  1.
</event>
<event>
 5    1  0.1681104E-003  0.9118800E+02  0.7818608E-02  0.1130116E+00
         25   -1    0    0    0    0  0.00000000000E+00  0.00000000000E+00  0.99999998245E-14  0.12500000000E+03  0.12500000000E+03 0.  0.
        -11    1    3    3    0    0  0.17984060514E+02  0.16530090978E+01  0.37260106364E+02  0.41406212072E+02  0.51100000000E-03 0. -1.
         23    2    1    0    0    0 -0.25695166095E+02  0.12102211995E+02  0.64380881101E+01  0.95876915096E+02  0.91346750210E+02 0.  0.
         11    1    3    3    0    0 -0.43679226609E+02  0.10449202897E+02 -0.30822018254E+02  0.54470703024E+02  0.51100000000E-03 0.  1.
         22    1    1    0    0    0  0.25695166095E+02 -0.12102211995E+02 -0.64380881101E+01  0.29123084904E+02  0.00000000000E+00 0.  1.
</event>
<event>
 5    1  0.1681104E-003  0.9118800E+02  0.7818608E-02  0.1130116E+00
         25   -1    0    0    0    0  0.00000000000E+00  0.00000000000E+00  0.99999998245E-14  0.12500000000E+03  0.12500000000E+03 0.  0.
        -11    1    3    3    0    0  0.42030788861E+02  0.21229522376E+02 -0.21122158659E+02  0.51608385165E+02  0.51100000000E-03 0. -1.
         23    2    1    0    0    0  0.56577360729E+01  0.30642843031E+02 -0.19767126459E+01  0.93776592125E+02  0.88425946595E+02 0.  0.
         11    1    3    3    0    0 -0.36373052789E+02  0.94133206551E+01  0.19145446013E+02  0.42168206960E+02  0.51100000000E-03 0.  1.
         22    1    1    0    0    0 -0.56577360729E+01 -0.30642843031E+02  0.19767126459E+01  0.31223407875E+02  0.00000000000E+00 0.  1.
</event>
<event>
 5    1  0.1681104E-003  0.9118800E+02  0.7818608E-02  0.1130116E+00
         25   -1    0    0    0    0  0.00000000000E+00  0.00000000000E+00  0.99999998245E-14  0.12500000000E+03  0.12500000000E+03 0.  0.
        -11    1    3    3    0    0 -0.36816143405E+02 -0.37937235972E+02 -0.43194470896E+01  0.53040738229E+02  0.51100000000E-03 0.  1.
         23    2    1    0    0    0 -0.27854107378E+02  0.46857871964E+01 -0.70102544917E+00  0.96745808521E+02  0.92528115350E+02 0.  0.
         11    1    3    3    0    0  0.89620360273E+01  0.42623023169E+02  0.36184216405E+01  0.43705070292E+02  0.51100000000E-03 0. -1.
         22    1    1    0    0    0  0.27854107378E+02 -0.46857871964E+01  0.70102544917E+00  0.28254191479E+02  0.00000000000E+00 0.  1.
</event>
<event>
 5    1  0.1681104E-003  0.9118800E+02  0.7818608E-02  0.1130116E+00
         25   -1    0    0    0    0  0.00000000000E+00  0.00000000000E+00  0.99999998245E-14  0.12500000000E+03  0.12500000000E+03 0.  0.
        -11    1    3    3    0    0 -0.28710493199E+02 -0.22532399958E+02  0.44536774501E+02  0.57580602210E+02  0.51100000000E-03 0.  1.
         23    2    1    0    0    0  0.16029043147E+01 -0.19304925297E+02  0.23124924601E+02  0.94833601794E+02  0.89907732973E+02 0.  0.
         11    1    3    3    0    0  0.30313397514E+02  0.32274746618E+01 -0.21411849901E+02  0.37252999583E+02  0.51100000000E-03 0. -1.
         22    1    1    0    0    0 -0.16029043147E+01  0.19304925297E+02 -0.23124924601E+02  0.30166398206E+02  0.00000000000E+00 0.  1.
</event>
<event>
 5    1  0.1681104E-003  0.9118800E+02  0.7818608E-02  0.1130116E+00
         25   -1    0    0    0    0  0.00000000000E+00  0.00000000000E+00  0.99999998245E-14  0.12500000000E+03  0.12500000000E+03 0.  0.
        -11    1    3    3    0    0 -0.32023194516E+02  0.11170058237E+02 -0.11199159951E+02  0.35716611988E+02  0.51100000000E-03 0.  1.
         23    2    1    0    0    0  0.23082262280E+02 -0.62124885157E+01 -0.19576776226E+02  0.94102815453E+02  0.88885903625E+02 0.  0.
         11    1    3    3    0    0  0.55105456796E+02 -0.17382546753E+02 -0.83776162747E+01  0.58386203465E+02  0.51100000000E-03 0. -1.
         22    1    1    0    0    0 -0.23082262280E+02  0.62124885157E+01  0.19576776226E+02  0.30897184547E+02  0.00000000000E+00 0. -1.
</event>
<event>
 5    1  0.1681104E-003  0.9118800E+02  0.7818608E-02  0.1130116E+00
         25   -1    0    0    0    0  0.00000000000E+00  0.00000000000E+00  0.99999998245E-14  0.12500000000E+03  0.12500000000E+03 0.  0.
        -11    1    3    3    0    0  0.27324996463E+02  0.17417705619E+02  0.27101778923E+02  0.42243796252E+02  0.51100000000E-03 0.  1.
         23    2    1    0    0    0  0.22947152902E+02 -0.97694673997E+01 -0.17409388201E+02  0.94584525039E+02  0.89560768530E+02 0.  0.
         11    1    3    3    0    0 -0.43778435610E+01 -0.27187173019E+02 -0.44511167123E+02  0.52340728787E+02  0.51100000000E-03 0. -1.
         22    1    1    0    0    0 -0.22947152902E+02  0.97694673997E+01  0.17409388201E+02  0.30415474961E+02  0.00000000000E+00 0.  1.
</event>
<event>
 5    1  0.1681104E-003  0.9118800E+02  0.7818608E-02  0.1130116E+00
         25   -1    0    0    0    0  0.00000000000E+00  0.00000000000E+00  0.99999998245E-14  0.12500000000E+03  0.12500000000E+03 0.  0.
        -11    1    3    3    0    0  0.13177129220E+02  0.32579390992E+02  0.56061130689E+01  0.35587665783E+02  0.51100000000E-03 0. -1.
         23    2    1    0    0    0 -0.11309046152E+02 -0.23849537718E+02  0.87826424711E+01  0.97182203844E+02  0.93115793295E+02 0.  0.
         11    1    3    3    0    0 -0.24486175372E+02 -0.56428928709E+02  0.31765294022E+01  0.61594538061E+02  0.51100000000E-03 0.  1.
         22    1    1    0    0    0  0.11309046152E+02  0.23849537718E+02 -0.87826424711E+01  0.27817796156E+02  0.00000000000E+00 0.  1.
</event>
<event>
 5    1  0.1681104E-003  0.9118800E+02  0.7818608E-02  0.1130116E+00
         25   -1    0    0    0    0  0.00000000000E+00  0.00000000000E+00  0.99999998245E-14  0.12500000000E+03  0.12500000000E+03 0.  0.
        -11    1    3    3    0    0 -0.24951125081E+02 -0.86744640891E+01  0.26416165470E+02  0.37357981322E+02  0.51100000000E-03 0.  1.
         23    2    1    0    0    0  0.15518344919E+02 -0.96891232444E+01 -0.19290036314E+02  0.98414221109E+02  0.94755238785E+02 0.  0.
         11    1    3    3    0    0  0.40469470000E+02 -0.10146591553E+01 -0.45706201783E+02  0.61056239787E+02  0.51100000000E-03 0. -1.
         22    1    1    0    0    0 -0.15518344919E+02  0.96891232444E+01  0.19290036314E+02  0.26585778891E+02  0.00000000000E+00 0. -1.
</event>
<event>
 5    1  0.1681104E-003  0.9118800E+02  0.7818608E-02  0.1130116E+00
         25   -1    0    0    0    0  0.00000000000E+00  0.00000000000E+00  0.99999998245E-14  0.12500000000E+03  0.12500000000E+03 0.  0.
        -11    1    3    3    0    0  0.22028695827E+02 -0.52999312020E+02  0.20065240789E+02  0.60801351979E+02  0.51100000000E-03 0.  1.
         23    2    1    0    0    0  0.12063060792E+02 -0.19714832926E+02  0.18175252472E+02  0.95597077094E+02  0.90963010469E+02 0.  0.
         11    1    3    3    0    0 -0.99656350348E+01  0.33284479093E+02 -0.18899883163E+01  0.34795725115E+02  0.51100000000E-03 0. -1.
         22    1    1    0    0    0 -0.12063060792E+02  0.19714832926E+02 -0.18175252472E+02  0.29402922906E+02  0.00000000000E+00 0.  1.
</event>
<event>
 5    1  0.1681104E-003  0.9118800E+02  0.7818608E-02  0.1130116E+00
         25   -1    0    0    0    0  0.00000000000E+00  0.00000000000E+00  0.99999998245E-14  0.12500000000E+03  0.12500000000E+03 0.  0.
        -11    1    3    3    0    0  0.18237335712E+02 -0.29281497856E+02 -0.25294907006E+01  0.34589085765E+02  0.51100000000E-03 0.  1.
         23    2    1    0    0    0 -0.22458944467E+02  0.12598530563E+02  0.14537964902E+02  0.95428399056E+02  0.90730919559E+02 0.  0.
         11    1    3    3    0    0 -0.40696280179E+02  0.41880028419E+02  0.17067455602E+02  0.60839313291E+02  0.51100000000E-03 0. -1.
         22    1    1    0    0    0  0.22458944467E+02 -0.12598530563E+02 -0.14537964902E+02  0.29571600944E+02  0.00000000000E+00 0. -1.
</event>
<event>
 5    1  0.1681104E-003  0.9118800E+02  0.7818608E-02  0.1130116E+00
         25   -1    0    0    0    0  0.00000000000E+00  0.00000000000E+00  0.99999998245E-14  0.12500000000E+03  0.12500000000E+03 0.  0.
        -11    1    3    3    0    0  0.26974850138E-01  0.20674655612E+01  0.54646776559E+02  0.54685878707E+02  0.51100000000E-03 0. -1.
         23    2    1    0    0    0 -0.11192291231E+02  0.20019146759E+02  0.25593706036E+02  0.90633280508E+02  0.83864892101E+02 0.  0.
         11    1    3    3    0    0 -0.11219266081E+02  0.17951681198E+02 -0.29053070522E+02  0.35947401801E+02  0.51100000000E-03 0.  1.
         22    1    1    0    0    0  0.11192291231E+02 -0.20019146759E+02 -0.25593706036E+02  0.34366719492E+02  0.00000000000E+00 0.  1.
</event>
<event>
 5    1  0.1681104E-003  0.9118800E+02  0.7818608E-02  0.1130116E+00
         25   -1    0    0    0    0  0.00000000000E+00  0.00000000000E+00  0.99999998245E-14  0.12500000000E+03  0.12500000000E+03 0.  0.
        -11    1    3    3    0    0 -0.20315844845E+02  0.55226817710E+01  0.32023864969E+02  0.38324424242E+02  0.51100000000E-03 0.  1.
         23    2    1    0    0    0  0.46272849525E+01  0.22105299211E+02 -0.17654689640E+02  0.96333920995E+02  0.91969996460E+02 0.  0.
         11    1    3    3    0    0  0.24943129797E+02  0.16582617440E+02 -0.49678554609E+02  0.58009496753E+02  0.51100000000E-03 0. -1.
         22    1    1    0    0    0 -0.46272849525E+01 -0.22105299211E+02  0.17654689640E+02  0.28666079005E+02  0.00000000000E+00 0. -1.
</event>
<event>
 5    1  0.1681104E-003  0.9118800E+02  0.7818608E-02  0.1130116E+00
         25   -1    0    0    0    0  0.00000000000E+00  0.00000000000E+00  0.99999998245E-14  0.12500000000E+03  0.12500000000E+03 0.  0.
        -11    1    3    3    0    0 -0.19201286522E+02  0.19470928346E+00  0.28855380900E+02  0.34660645161E+02  0.51100000000E-03 0.  1.
         23    2    1    0    0    0  0.14129361878E+02  0.14425779001E+02 -0.20718342705E+02  0.96069191312E+02  0.91609485470E+02 0.  0.
         11    1    3    3    0    0  0.33330648400E+02  0.14231069718E+02 -0.49573723606E+02  0.61408546152E+02  0.51100000000E-03 0. -1.
         22    1    1    0    0    0 -0.14129361878E+02 -0.14425779001E+02  0.20718342705E+02  0.28930808688E+02  0.00000000000E+00 0. -1.
</event>
<event>
 5    1  0.1681104E-003  0.9118800E+02  0.7818608E-02  0.1130116E+00
         25   -1    0    0    0    0  0.00000000000E+00  0.00000000000E+00  0.99999998245E-14  0.12500000000E+03  0.12500000000E+03 0.  0.
        -11    1    3    3    0    0 -0.39306513694E+02 -0.48316603301E+02 -0.35847070770E+01  0.62388671234E+02  0.51100000000E-03 0. -1.
         23    2    1    0    0    0 -0.16033463769E+02 -0.23830881248E+02 -0.20289260112E+01  0.96205913763E+02  0.91795851980E+02 0.  0.
         11    1    3    3    0    0  0.23273049925E+02  0.24485722052E+02  0.15557810658E+01  0.33817242529E+02  0.51100000000E-03 0.  1.
         22    1    1    0    0    0  0.16033463769E+02  0.23830881248E+02  0.20289260112E+01  0.28794086237E+02  0.00000000000E+00 0. -1.
</event>
<event>
 5    1  0.1681104E-003  0.9118800E+02  0.7818608E-02  0.1130116E+00
         25   -1    0    0    0    0  0.00000000000E+00  0.00000000000E+00  0.99999998245E-14  0.12500000000E+03  0.12500000000E+03 0.  0.
        -11    1    3    3    0    0  0.21488156808E+02 -0.14092041580E+02 -0.52522561535E+02  0.58471753773E+02  0.51100000000E-03 0.  1.
         23    2    1    0    0    0  0.19576336267E+02 -0.11980709892E+02 -0.11987889998E+02  0.99106374186E+02  0.95663961588E+02 0.  0.
         11    1    3    3    0    0 -0.19118205410E+01  0.21113316873E+01  0.40534671537E+02  0.40634620413E+02  0.51100000000E-03 0. -1.
         22    1    1    0    0    0 -0.19576336267E+02  0.11980709892E+02  0.11987889998E+02  0.25893625814E+02  0.00000000000E+00 0.  1.
</event>
<event>
 5    1  0.1681104E-003  0.9118800E+02  0.7818608E-02  0.1130116E+00
         25   -1    0    0    0    0  0.00000000000E+00  0.00000000000E+00  0.99999998245E-14  0.12500000000E+03  0.12500000000E+03 0.  0.
        -11    1    3    3    0    0  0.61494227384E+01  0.34586509970E+02  0.13629342544E+02  0.37680247482E+02  0.51100000000E-03 0. -1.
         23    2    1    0    0    0  0.31308020560E+02 -0.18289121297E+01 -0.14837972605E+02  0.90305583995E+02  0.83375032226E+02 0.  0.
         11    1    3    3    0    0  0.25158597821E+02 -0.36415422099E+02 -0.28467315149E+02  0.52625336512E+02  0.51100000000E-03 0.  1.
         22    1    1    0    0    0 -0.31308020560E+02  0.18289121297E+01  0.14837972605E+02  0.34694416005E+02  0.00000000000E+00 0.  1.
</event>
<event>
 4    1  0.1681104E-003  0.9118800E+02  0.7818608E-02  0.1130116E+00
         25   -1    0    0    0    0  0.00000000000E+00  0.00000000000E+00  0.99999998245E-14  0.12500000000E+03  0.12500000000E+03 0.  0.
        -11    1    1    0    0    0  0.12021107631E+02 -0.12941787534E+02 -0.16477842740E+01  0.17740126452E+02  0.51100000000E-03 0.  1.
         11    1    1    0    0    0 -0.17934447112E+02  0.11560256017E+02 -0.50467068236E+02  0.54792416346E+02  0.51100000000E-03 0. -1.
         22    1    1    0    0    0  0.59133394810E+01  0.13815315177E+01  0.52114852510E+02  0.52467457203E+02  0.00000000000E+00 0. -1.
</event>
<event>
 5    1  0.1681104E-003  0.9118800E+02  0.7818608E-02  0.1130116E+00
         25   -1    0    0    0    0  0.00000000000E+00  0.00000000000E+00  0.99999998245E-14  0.12500000000E+03  0.12500000000E+03 0.  0.
        -11    1    3    3    0    0  0.25015486691E+02 -0.11002728364E+01 -0.41676161370E+02  0.48619827247E+02  0.51100000000E-03 0. -1.
         23    2    1    0    0    0  0.23937339032E+02  0.18987428289E+02 -0.50555181497E+00  0.94442280589E+02  0.89362017363E+02 0.  0.
         11    1    3    3    0    0 -0.10781476586E+01  0.20087701126E+02  0.41170609555E+02  0.45822453342E+02  0.51100000000E-03 0.  1.
         22    1    1    0    0    0 -0.23937339032E+02 -0.18987428289E+02  0.50555181497E+00  0.30557719411E+02  0.00000000000E+00 0. -1.
</event>
<event>
 5    1  0.1681104E-003  0.9118800E+02  0.7818608E-02  0.1130116E+00
         25   -1    0    0    0    0  0.00000000000E+00  0.00000000000E+00  0.99999998245E-14  0.12500000000E+03  0.12500000000E+03 0.  0.
        -11    1    3    3    0    0  0.36214471449E+02  0.20055416418E+02  0.62949033976E+01  0.41872825066E+02  0.51100000000E-03 0. -1.
         23    2    1    0    0    0 -0.21325603870E+02 -0.72624167174E-01  0.60514694555E+01  0.10283229969E+03  0.10041451549E+03 0.  0.
         11    1    3    3    0    0 -0.57540075318E+02 -0.20128040585E+02 -0.24343394205E+00  0.60959474619E+02  0.51100000000E-03 0.  1.
         22    1    1    0    0    0  0.21325603870E+02  0.72624167174E-01 -0.60514694555E+01  0.22167700315E+02  0.00000000000E+00 0.  1.
</event>
<event>
 5    1  0.1681104E-003  0.9118800E+02  0.7818608E-02  0.1130116E+00
         25   -1    0    0    0    0  0.00000000000E+00  0.00000000000E+00  0.99999998245E-14  0.12500000000E+03  0.12500000000E+03 0.  0.
        -11    1    3    3    0    0 -0.49528217948E+02  0.36098437740E+01 -0.35812006649E+02  0.61225608741E+02  0.51100000000E-03 0.  1.
         23    2    1    0    0    0 -0.25558308532E+02 -0.50932120680E+01 -0.11307748560E+02  0.96591671614E+02  0.92319650690E+02 0.  0.
         11    1    3    3    0    0  0.23969909417E+02 -0.87030558420E+01  0.24504258089E+02  0.35366062873E+02  0.51100000000E-03 0. -1.
         22    1    1    0    0    0  0.25558308532E+02  0.50932120680E+01  0.11307748560E+02  0.28408328386E+02  0.00000000000E+00 0.  1.
</event>
<event>
 5    1  0.1681104E-003  0.9118800E+02  0.7818608E-02  0.1130116E+00
         25   -1    0    0    0    0  0.00000000000E+00  0.00000000000E+00  0.99999998245E-14  0.12500000000E+03  0.12500000000E+03 0.  0.
        -11    1    3    3    0    0 -0.32857847703E+01 -0.61580460751E+01  0.42111646681E+02  0.42686165200E+02  0.51100000000E-03 0. -1.
         23    2    1    0    0    0 -0.21689075541E+00 -0.28973465683E+02 -0.54420613488E+01  0.95519077575E+02  0.90855761479E+02 0.  0.
         11    1    3    3    0    0  0.30688940148E+01 -0.22815419608E+02 -0.47553708030E+02  0.52832912375E+02  0.51100000000E-03 0.  1.
         22    1    1    0    0    0  0.21689075541E+00  0.28973465683E+02  0.54420613488E+01  0.29480922425E+02  0.00000000000E+00 0.  1.
</event>
<event>
 5    1  0.1681104E-003  0.9118800E+02  0.7818608E-02  0.1130116E+00
         25   -1    0    0    0    0  0.00000000000E+00  0.00000000000E+00  0.99999998245E-14  0.12500000000E+03  0.12500000000E+03 0.  0.
        -11    1    3    3    0    0  0.28644225209E+02 -0.12665125456E+02  0.30754769980E+02  0.43894793740E+02  0.51100000000E-03 0.  1.
         23    2    1    0    0    0 -0.89118802643E+01  0.19541603610E+02  0.22213429130E+02  0.94101257061E+02  0.88883712036E+02 0.  0.
         11    1    3    3    0    0 -0.37556105473E+02  0.32206729066E+02 -0.85413408498E+01  0.50206463321E+02  0.51100000000E-03 0. -1.
         22    1    1    0    0    0  0.89118802643E+01 -0.19541603610E+02 -0.22213429130E+02  0.30898742939E+02  0.00000000000E+00 0. -1.
</event>
<event>
 5    1  0.1681104E-003  0.9118800E+02  0.7818608E-02  0.1130116E+00
         25   -1    0    0    0    0  0.00000000000E+00  0.00000000000E+00  0.99999998245E-14  0.12500000000E+03  0.12500000000E+03 0.  0.
        -11    1    3    3    0    0 -0.49001858988E+02  0.43146143304E+01 -0.24699579970E+01  0.49253413830E+02  0.51100000000E-03 0. -1.
         23    2    1    0    0    0 -0.98205323341E+01 -0.26564194023E+01 -0.27098699486E+02  0.96054552462E+02  0.91589508763E+02 0.  0.
         11    1    3    3    0    0  0.39181326654E+02 -0.69710337328E+01 -0.24628741489E+02  0.46801138632E+02  0.51100000000E-03 0.  1.
         22    1    1    0    0    0  0.98205323341E+01  0.26564194023E+01  0.27098699486E+02  0.28945447538E+02  0.00000000000E+00 0. -1.
</event>
<event>
 5    1  0.1681104E-003  0.9118800E+02  0.7818608E-02  0.1130116E+00
         25   -1    0    0    0    0  0.00000000000E+00  0.00000000000E+00  0.99999998245E-14  0.12500000000E+03  0.12500000000E+03 0.  0.
        -11    1    3    3    0    0 -0.83507787523E+01  0.37238512538E+02  0.14711026535E+02  0.40900569969E+02  0.51100000000E-03 0. -1.
         23    2    1    0    0    0 -0.98502654602E+01  0.68143405307E+00 -0.26921098233E+02  0.96325314089E+02  0.91958297735E+02 0.  0.
         11    1    3    3    0    0 -0.14994867079E+01 -0.36557078485E+02 -0.41632124768E+02  0.55424744120E+02  0.51100000000E-03 0.  1.
         22    1    1    0    0    0  0.98502654602E+01 -0.68143405307E+00  0.26921098233E+02  0.28674685911E+02  0.00000000000E+00 0.  1.
</event>
<event>
 5    1  0.1681104E-003  0.9118800E+02  0.7818608E-02  0.1130116E+00
         25   -1    0    0    0    0  0.00000000000E+00  0.00000000000E+00  0.99999998245E-14  0.12500000000E+03  0.12500000000E+03 0.  0.
        -11    1    3    3    0    0 -0.39608379848E+02 -0.25533369431E+02 -0.19324170974E+02  0.50933292578E+02  0.51100000000E-03 0.  1.
         23    2    1    0    0    0 -0.20301209699E+02 -0.19715119586E+00  0.16476065027E+02  0.98853514526E+02  0.95332988160E+02 0.  0.
         11    1    3    3    0    0  0.19307170149E+02  0.25336218235E+02  0.35800236001E+02  0.47920221949E+02  0.51100000000E-03 0. -1.
         22    1    1    0    0    0  0.20301209699E+02  0.19715119586E+00 -0.16476065027E+02  0.26146485474E+02  0.00000000000E+00 0. -1.
</event>
<event>
 5    1  0.1681104E-003  0.9118800E+02  0.7818608E-02  0.1130116E+00
         25   -1    0    0    0    0  0.00000000000E+00  0.00000000000E+00  0.99999998245E-14  0.12500000000E+03  0.12500000000E+03 0.  0.
        -11    1    3    3    0    0 -0.26141266979E+02 -0.17451674635E+02 -0.31744921503E+02  0.44672886949E+02  0.51100000000E-03 0.  1.
         23    2    1    0    0    0 -0.49819905304E+01  0.24793982511E+02 -0.18257684163E+02  0.93808577631E+02  0.88471150144E+02 0.  0.
         11    1    3    3    0    0  0.21159276448E+02  0.42245657146E+02  0.13487237341E+02  0.49135690683E+02  0.51100000000E-03 0. -1.
         22    1    1    0    0    0  0.49819905304E+01 -0.24793982511E+02  0.18257684163E+02  0.31191422369E+02  0.00000000000E+00 0.  1.
</event>
<event>
 5    1  0.1681104E-003  0.9118800E+02  0.7818608E-02  0.1130116E+00
         25   -1    0    0    0    0  0.00000000000E+00  0.00000000000E+00  0.99999998245E-14  0.12500000000E+03  0.12500000000E+03 0.  0.
        -11    1    3    3    0    0  0.25189953754E+02  0.13130102745E+02  0.27815062129E+02  0.39756899398E+02  0.51100000000E-03 0. -1.
         23    2    1    0    0    0 -0.79243518700E+01  0.26907541939E+02 -0.12993466120E+02  0.94086551024E+02  0.88863028061E+02 0.  0.
         11    1    3    3    0    0 -0.33114305624E+02  0.13777439195E+02 -0.40808528249E+02  0.54329651626E+02  0.51100000000E-03 0.  1.
         22    1    1    0    0    0  0.79243518700E+01 -0.26907541939E+02  0.12993466120E+02  0.30913448976E+02  0.00000000000E+00 0.  1.
</event>
<event>
 5    1  0.1681104E-003  0.9118800E+02  0.7818608E-02  0.1130116E+00
         25   -1    0    0    0    0  0.00000000000E+00  0.00000000000E+00  0.99999998245E-14  0.12500000000E+03  0.12500000000E+03 0.  0.
        -11    1    3    3    0    0  0.42763349954E+02 -0.38418918326E+02 -0.13039517777E+02  0.58946979641E+02  0.51100000000E-03 0. -1.
         23    2    1    0    0    0  0.14547348315E+02 -0.12295886269E+02  0.97052996441E+01  0.10362227787E+03  0.10139314310E+03 0.  0.
         11    1    3    3    0    0 -0.28216001639E+02  0.26123032057E+02  0.22744817422E+02  0.44675298232E+02  0.51100000000E-03 0.  1.
         22    1    1    0    0    0 -0.14547348315E+02  0.12295886269E+02 -0.97052996441E+01  0.21377722127E+02  0.00000000000E+00 0. -1.
</event>
<event>
 5    1  0.1681104E-003  0.9118800E+02  0.7818608E-02  0.1130116E+00
         25   -1    0    0    0    0  0.00000000000E+00  0.00000000000E+00  0.99999998245E-14  0.12500000000E+03  0.12500000000E+03 0.  0.
        -11    1    3    3    0    0 -0.75767747513E+01 -0.69460281751E+01 -0.57694293526E+02  0.58602784309E+02  0.51100000000E-03 0. -1.
         23    2    1    0    0    0 -0.16479184288E+02  0.48827483594E+01 -0.23311153519E+02  0.96037703393E+02  0.91566510517E+02 0.  0.
         11    1    3    3    0    0 -0.89024095369E+01  0.11828776535E+02  0.34383140007E+02  0.37434919084E+02  0.51100000000E-03 0.  1.
         22    1    1    0    0    0  0.16479184288E+02 -0.48827483594E+01  0.23311153519E+02  0.28962296607E+02  0.00000000000E+00 0. -1.
</event>
<event>
 5    1  0.1681104E-003  0.9118800E+02  0.7818608E-02  0.1130116E+00
         25   -1    0    0    0    0  0.00000000000E+00  0.00000000000E+00  0.99999998245E-14  0.12500000000E+03  0.12500000000E+03 0.  0.
        -11    1    3    3    0    0 -0.27217596235E+02 -0.11126231617E+02  0.50773872771E+02  0.58673475534E+02  0.51100000000E-03 0.  1.
         23    2    1    0    0    0 -0.20411955356E+02 -0.15447509175E+02  0.15029494588E+02  0.95315674696E+02  0.90575486054E+02 0.  0.
         11    1    3    3    0    0  0.68056408793E+01 -0.43212775582E+01 -0.35744378183E+02  0.36642199162E+02  0.51100000000E-03 0. -1.
         22    1    1    0    0    0  0.20411955356E+02  0.15447509175E+02 -0.15029494588E+02  0.29684325304E+02  0.00000000000E+00 0.  1.
</event>
<event>
 5    1  0.1681104E-003  0.9118800E+02  0.7818608E-02  0.1130116E+00
         25   -1    0    0    0    0  0.00000000000E+00  0.00000000000E+00  0.99999998245E-14  0.12500000000E+03  0.12500000000E+03 0.  0.
        -11    1    3    3    0    0 -0.63828809934E+01  0.95098607248E+01 -0.54443523376E+02  0.55635203411E+02  0.51100000000E-03 0.  1.
         23    2    1    0    0    0  0.42604078496E+01  0.24339540747E+02 -0.30322296543E+02  0.85884709045E+02  0.76460298595E+02 0.  0.
         11    1    3    3    0    0  0.10643288843E+02  0.14829680022E+02  0.24121226832E+02  0.30249505634E+02  0.51100000000E-03 0. -1.
         22    1    1    0    0    0 -0.42604078496E+01 -0.24339540747E+02  0.30322296543E+02  0.39115290955E+02  0.00000000000E+00 0.  1.
</event>
<event>
 5    1  0.1681104E-003  0.9118800E+02  0.7818608E-02  0.1130116E+00
         25   -1    0    0    0    0  0.00000000000E+00  0.00000000000E+00  0.99999998245E-14  0.12500000000E+03  0.12500000000E+03 0.  0.
        -11    1    3    3    0    0  0.51351999789E+02 -0.21616297025E+02 -0.17314272758E+02  0.58344461783E+02  0.51100000000E-03 0. -1.
         23    2    1    0    0    0  0.14232089601E+02 -0.10647256877E+02 -0.21302758729E+02  0.97256100078E+02  0.93214939894E+02 0.  0.
         11    1    3    3    0    0 -0.37119910188E+02  0.10969040148E+02 -0.39884859716E+01  0.38911638295E+02  0.51100000000E-03 0.  1.
         22    1    1    0    0    0 -0.14232089601E+02  0.10647256877E+02  0.21302758729E+02  0.27743899922E+02  0.00000000000E+00 0. -1.
</event>
<event>
 5    1  0.1681104E-003  0.9118800E+02  0.7818608E-02  0.1130116E+00
         25   -1    0    0    0    0  0.00000000000E+00  0.00000000000E+00  0.99999998245E-14  0.12500000000E+03  0.12500000000E+03 0.  0.
        -11    1    3    3    0    0 -0.25166437816E+02 -0.55405934853E+02 -0.12101646576E+02  0.62045282330E+02  0.51100000000E-03 0.  1.
         23    2    1    0    0    0 -0.67529362027E+01 -0.26826192660E+02 -0.73790930087E+01  0.96369635462E+02  0.92018524577E+02 0.  0.
         11    1    3    3    0    0  0.18413501613E+02  0.28579742193E+02  0.47225535675E+01  0.34324353132E+02  0.51100000000E-03 0. -1.
         22    1    1    0    0    0  0.67529362027E+01  0.26826192660E+02  0.73790930087E+01  0.28630364538E+02  0.00000000000E+00 0.  1.
</event>
<event>
 5    1  0.1681104E-003  0.9118800E+02  0.7818608E-02  0.1130116E+00
         25   -1    0    0    0    0  0.00000000000E+00  0.00000000000E+00  0.99999998245E-14  0.12500000000E+03  0.12500000000E+03 0.  0.
        -11    1    3    3    0    0  0.19124051071E+02 -0.31465405672E+02 -0.55796400952E+01  0.37241555651E+02  0.51100000000E-03 0.  1.
         23    2    1    0    0    0  0.81287227673E+01  0.25493341661E+02  0.84784432534E+01  0.96930967190E+02  0.92777916540E+02 0.  0.
         11    1    3    3    0    0 -0.10995328304E+02  0.56958747333E+02  0.14058083349E+02  0.59689411539E+02  0.51100000000E-03 0. -1.
         22    1    1    0    0    0 -0.81287227673E+01 -0.25493341661E+02 -0.84784432534E+01  0.28069032810E+02  0.00000000000E+00 0. -1.
</event>
<event>
 5    1  0.1681104E-003  0.9118800E+02  0.7818608E-02  0.1130116E+00
         25   -1    0    0    0    0  0.00000000000E+00  0.00000000000E+00  0.99999998245E-14  0.12500000000E+03  0.12500000000E+03 0.  0.
        -11    1    3    3    0    0 -0.50943761122E+02  0.12249275173E+01 -0.86955865132E+01  0.51695072006E+02  0.51100000000E-03 0. -1.
         23    2    1    0    0    0 -0.14369665859E+02 -0.23803068933E+02 -0.81860831050E+01  0.96015774219E+02  0.91536569494E+02 0.  0.
         11    1    3    3    0    0  0.36574095263E+02 -0.25027996451E+02  0.50950340825E+00  0.44320702212E+02  0.51100000000E-03 0.  1.
         22    1    1    0    0    0  0.14369665859E+02  0.23803068933E+02  0.81860831050E+01  0.28984225781E+02  0.00000000000E+00 0. -1.
</event>
<event>
 5    1  0.1681104E-003  0.9118800E+02  0.7818608E-02  0.1130116E+00
         25   -1    0    0    0    0  0.00000000000E+00  0.00000000000E+00  0.99999998245E-14  0.12500000000E+03  0.12500000000E+03 0.  0.
        -11    1    3    3    0    0 -0.46795375098E+01  0.44517158209E+02  0.30231752656E+02  0.54015130429E+02  0.51100000000E-03 0.  1.
         23    2    1    0    0    0  0.10253453516E+02  0.27943329236E+02 -0.40952521378E+01  0.94954467090E+02  0.90075616969E+02 0.  0.
         11    1    3    3    0    0  0.14932991026E+02 -0.16573828973E+02 -0.34327004794E+02  0.40939336661E+02  0.51100000000E-03 0. -1.
         22    1    1    0    0    0 -0.10253453516E+02 -0.27943329236E+02  0.40952521378E+01  0.30045532910E+02  0.00000000000E+00 0.  1.
</event>
<event>
 5    1  0.1681104E-003  0.9118800E+02  0.7818608E-02  0.1130116E+00
         25   -1    0    0    0    0  0.00000000000E+00  0.00000000000E+00  0.99999998245E-14  0.12500000000E+03  0.12500000000E+03 0.  0.
        -11    1    3    3    0    0 -0.41669929296E+02 -0.57273420281E+01  0.24863043638E+02  0.48860581182E+02  0.51100000000E-03 0.  1.
         23    2    1    0    0    0  0.10342088247E+02 -0.17108463535E+01  0.21433902587E+02  0.10114003427E+03  0.98285342586E+02 0.  0.
         11    1    3    3    0    0  0.52012017544E+02  0.40164956746E+01 -0.34291410504E+01  0.52279453087E+02  0.51100000000E-03 0. -1.
         22    1    1    0    0    0 -0.10342088247E+02  0.17108463535E+01 -0.21433902587E+02  0.23859965731E+02  0.00000000000E+00 0. -1.
</event>
<event>
 5    1  0.1681104E-003  0.9118800E+02  0.7818608E-02  0.1130116E+00
         25   -1    0    0    0    0  0.00000000000E+00  0.00000000000E+00  0.99999998245E-14  0.12500000000E+03  0.12500000000E+03 0.  0.
        -11    1    3    3    0    0 -0.32542663129E+02 -0.14130921496E+02  0.28355991945E+02  0.45417729416E+02  0.51100000000E-03 0. -1.
         23    2    1    0    0    0  0.16722637078E+02 -0.14375789891E+02  0.19682673794E+02  0.95441285997E+02  0.90748672162E+02 0.  0.
         11    1    3    3    0    0  0.49265300207E+02 -0.24486839563E+00 -0.86733181512E+01  0.50023556581E+02  0.51100000000E-03 0.  1.
         22    1    1    0    0    0 -0.16722637078E+02  0.14375789891E+02 -0.19682673794E+02  0.29558714003E+02  0.00000000000E+00 0.  1.
</event>
<event>
 5    1  0.1681104E-003  0.9118800E+02  0.7818608E-02  0.1130116E+00
         25   -1    0    0    0    0  0.00000000000E+00  0.00000000000E+00  0.99999998245E-14  0.12500000000E+03  0.12500000000E+03 0.  0.
        -11    1    3    3    0    0  0.49071325156E+02  0.17943268447E+02 -0.28238355581E+02  0.59391586621E+02  0.51100000000E-03 0.  1.
         23    2    1    0    0    0  0.18967297928E+02  0.21296789409E+02 -0.98406741924E+01  0.94831299359E+02  0.89904531808E+02 0.  0.
         11    1    3    3    0    0 -0.30104027228E+02  0.33535209628E+01  0.18397681389E+02  0.35439712738E+02  0.51100000000E-03 0. -1.
         22    1    1    0    0    0 -0.18967297928E+02 -0.21296789409E+02  0.98406741924E+01  0.30168700641E+02  0.00000000000E+00 0.  1.
</event>
<event>
 5    1  0.1681104E-003  0.9118800E+02  0.7818608E-02  0.1130116E+00
         25   -1    0    0    0    0  0.00000000000E+00  0.00000000000E+00  0.99999998245E-14  0.12500000000E+03  0.12500000000E+03 0.  0.
        -11    1    3    3    0    0 -0.25500832079E+02 -0.19760436494E+02  0.74292956668E+00  0.32269478330E+02  0.51100000000E-03 0.  1.
         23    2    1    0    0    0  0.26336932634E+02 -0.13980506640E+02 -0.20739288471E+02  0.88679115199E+02  0.80899807167E+02 0.  0.
         11    1    3    3    0    0  0.51837764713E+02  0.57799298539E+01 -0.21482218038E+02  0.56409636868E+02  0.51100000000E-03 0. -1.
         22    1    1    0    0    0 -0.26336932634E+02  0.13980506640E+02  0.20739288471E+02  0.36320884801E+02  0.00000000000E+00 0. -1.
</event>
<event>
 5    1  0.1681104E-003  0.9118800E+02  0.7818608E-02  0.1130116E+00
         25   -1    0    0    0    0  0.00000000000E+00  0.00000000000E+00  0.99999998245E-14  0.12500000000E+03  0.12500000000E+03 0.  0.
        -11    1    3    3    0    0 -0.25279651763E+01 -0.42308337433E+02  0.10249865883E+02  0.43605570460E+02  0.51100000000E-03 0.  1.
         23    2    1    0    0    0 -0.82323715033E+01  0.64778041452E+01  0.27426717048E+02  0.95640866921E+02  0.91023165899E+02 0.  0.
         11    1    3    3    0    0 -0.57044063270E+01  0.48786141578E+02  0.17176851164E+02  0.52035296461E+02  0.51100000000E-03 0. -1.
         22    1    1    0    0    0  0.82323715033E+01 -0.64778041452E+01 -0.27426717048E+02  0.29359133079E+02  0.00000000000E+00 0.  1.
</event>
<event>
 5    1  0.1681104E-003  0.9118800E+02  0.7818608E-02  0.1130116E+00
         25   -1    0    0    0    0  0.00000000000E+00  0.00000000000E+00  0.99999998245E-14  0.12500000000E+03  0.12500000000E+03 0.  0.
        -11    1    3    3    0    0 -0.36460959586E+02  0.38353433873E+02 -0.21208585659E+02  0.57010451408E+02  0.51100000000E-03 0. -1.
         23    2    1    0    0    0 -0.28630836745E+02  0.65610240799E+01 -0.75312461807E+00  0.95617368287E+02  0.90990890048E+02 0.  0.
         11    1    3    3    0    0  0.78301228412E+01 -0.31792409793E+02  0.20455461041E+02  0.38606916878E+02  0.51100000000E-03 0.  1.
         22    1    1    0    0    0  0.28630836745E+02 -0.65610240799E+01  0.75312461807E+00  0.29382631713E+02  0.00000000000E+00 0.  1.
</event>
<event>
 5    1  0.1681104E-003  0.9118800E+02  0.7818608E-02  0.1130116E+00
         25   -1    0    0    0    0  0.00000000000E+00  0.00000000000E+00  0.99999998245E-14  0.12500000000E+03  0.12500000000E+03 0.  0.
        -11    1    3    3    0    0 -0.15744477626E+02  0.48755093807E+02 -0.29934006976E+01  0.51321615289E+02  0.51100000000E-03 0.  1.
         23    2    1    0    0    0 -0.25797272106E+01  0.22991418036E+02  0.24548771834E+02  0.91267189646E+02  0.84804465753E+02 0.  0.
         11    1    3    3    0    0  0.13164750415E+02 -0.25763675771E+02  0.27542172532E+02  0.39945574357E+02  0.51100000000E-03 0. -1.
         22    1    1    0    0    0  0.25797272106E+01 -0.22991418036E+02 -0.24548771834E+02  0.33732810354E+02  0.00000000000E+00 0.  1.
</event>
<event>
 5    1  0.1681104E-003  0.9118800E+02  0.7818608E-02  0.1130116E+00
         25   -1    0    0    0    0  0.00000000000E+00  0.00000000000E+00  0.99999998245E-14  0.12500000000E+03  0.12500000000E+03 0.  0.
        -11    1    3    3    0    0 -0.15795459759E+02 -0.19554564637E+02  0.23285883705E+02  0.34265287498E+02  0.51100000000E-03 0. -1.
         23    2    1    0    0    0  0.59609956244E+01  0.24210246607E+02 -0.14602196131E+02  0.96105473850E+02  0.91658979170E+02 0.  0.
         11    1    3    3    0    0  0.21756455383E+02  0.43764811244E+02 -0.37888079836E+02  0.61840186352E+02  0.51100000000E-03 0.  1.
         22    1    1    0    0    0 -0.59609956244E+01 -0.24210246607E+02  0.14602196131E+02  0.28894526150E+02  0.00000000000E+00 0.  1.
</event>
<event>
 5    1  0.1681104E-003  0.9118800E+02  0.7818608E-02  0.1130116E+00
         25   -1    0    0    0    0  0.00000000000E+00  0.00000000000E+00  0.99999998245E-14  0.12500000000E+03  0.12500000000E+03 0.  0.
        -11    1    3    3    0    0  0.13406068974E+02  0.37629133733E+02  0.85613278991E+01  0.40853038155E+02  0.51100000000E-03 0.  1.
         23    2    1    0    0    0 -0.21462232841E+02 -0.20299024514E+01  0.20781852182E+02  0.95056163863E+02  0.90216633531E+02 0.  0.
         11    1    3    3    0    0 -0.34868301815E+02 -0.39659036184E+02  0.12220524283E+02  0.54203125708E+02  0.51100000000E-03 0. -1.
         22    1    1    0    0    0  0.21462232841E+02  0.20299024514E+01 -0.20781852182E+02  0.29943836137E+02  0.00000000000E+00 0. -1.
</event>
<event>
 5    1  0.1681104E-003  0.9118800E+02  0.7818608E-02  0.1130116E+00
         25   -1    0    0    0    0  0.00000000000E+00  0.00000000000E+00  0.99999998245E-14  0.12500000000E+03  0.12500000000E+03 0.  0.
        -11    1    3    3    0    0 -0.18183998311E+02 -0.29572539483E+02  0.26244841396E+02  0.43519933205E+02  0.51100000000E-03 0.  1.
         23    2    1    0    0    0  0.12455482634E+02  0.13287372971E+02  0.22091986734E+02  0.96368737262E+02  0.92017304436E+02 0.  0.
         11    1    3    3    0    0  0.30639480945E+02  0.42859912454E+02 -0.41528546622E+01  0.52848804057E+02  0.51100000000E-03 0. -1.
         22    1    1    0    0    0 -0.12455482634E+02 -0.13287372971E+02 -0.22091986734E+02  0.28631262738E+02  0.00000000000E+00 0. -1.
</event>
<event>
 5    1  0.1681104E-003  0.9118800E+02  0.7818608E-02  0.1130116E+00
         25   -1    0    0    0    0  0.00000000000E+00  0.00000000000E+00  0.99999998245E-14  0.12500000000E+03  0.12500000000E+03 0.  0.
        -11    1    3    3    0    0  0.56010458046E+02 -0.10290867863E+02  0.10474763943E+02  0.57903316414E+02  0.51100000000E-03 0. -1.
         23    2    1    0    0    0  0.22087699820E+02 -0.17384560818E+02 -0.59715215230E+01  0.96264159879E+02  0.91875132488E+02 0.  0.
         11    1    3    3    0    0 -0.33922758226E+02 -0.70936929554E+01 -0.16446285466E+02  0.38360843464E+02  0.51100000000E-03 0.  1.
         22    1    1    0    0    0 -0.22087699820E+02  0.17384560818E+02  0.59715215230E+01  0.28735840121E+02  0.00000000000E+00 0. -1.
</event>
<event>
 5    1  0.1681104E-003  0.9118800E+02  0.7818608E-02  0.1130116E+00
         25   -1    0    0    0    0  0.00000000000E+00  0.00000000000E+00  0.99999998245E-14  0.12500000000E+03  0.12500000000E+03 0.  0.
        -11    1    3    3    0    0 -0.23583733831E+02  0.10644261776E+02  0.27943505366E+02  0.38083228626E+02  0.51100000000E-03 0. -1.
         23    2    1    0    0    0  0.16408059745E+02 -0.24110224790E+02  0.73805501699E+01  0.94916784001E+02  0.90023308094E+02 0.  0.
         11    1    3    3    0    0  0.39991793576E+02 -0.34754486566E+02 -0.20562955196E+02  0.56833555375E+02  0.51100000000E-03 0.  1.
         22    1    1    0    0    0 -0.16408059745E+02  0.24110224790E+02 -0.73805501699E+01  0.30083215999E+02  0.00000000000E+00 0.  1.
</event>
<event>
 5    1  0.1681104E-003  0.9118800E+02  0.7818608E-02  0.1130116E+00
         25   -1    0    0    0    0  0.00000000000E+00  0.00000000000E+00  0.99999998245E-14  0.12500000000E+03  0.12500000000E+03 0.  0.
        -11    1    3    3    0    0  0.29773319036E+02 -0.10876473838E+02 -0.15411857042E+02  0.35245901142E+02  0.51100000000E-03 0. -1.
         23    2    1    0    0    0 -0.26393810672E+02  0.10016296237E+02 -0.81834235029E+01  0.95607350369E+02  0.90977126753E+02 0.  0.
         11    1    3    3    0    0 -0.56167129709E+02  0.20892770075E+02  0.72284335386E+01  0.60361449227E+02  0.51100000000E-03 0.  1.
         22    1    1    0    0    0  0.26393810672E+02 -0.10016296237E+02  0.81834235029E+01  0.29392649631E+02  0.00000000000E+00 0.  1.
</event>
<event>
 5    1  0.1681104E-003  0.9118800E+02  0.7818608E-02  0.1130116E+00
         25   -1    0    0    0    0  0.00000000000E+00  0.00000000000E+00  0.99999998245E-14  0.12500000000E+03  0.12500000000E+03 0.  0.
        -11    1    3    3    0    0  0.48820447393E+02 -0.10379930077E+02 -0.33239851088E+02  0.59967213814E+02  0.51100000000E-03 0. -1.
         23    2    1    0    0    0  0.17427239764E+02 -0.16400328890E+02 -0.14164670012E+02  0.97191415893E+02  0.93128158863E+02 0.  0.
         11    1    3    3    0    0 -0.31393207629E+02 -0.60203988134E+01  0.19075181075E+02  0.37224202079E+02  0.51100000000E-03 0.  1.
         22    1    1    0    0    0 -0.17427239764E+02  0.16400328890E+02  0.14164670012E+02  0.27808584107E+02  0.00000000000E+00 0. -1.
</event>
<event>
 5    1  0.1681104E-003  0.9118800E+02  0.7818608E-02  0.1130116E+00
         25   -1    0    0    0    0  0.00000000000E+00  0.00000000000E+00  0.99999998245E-14  0.12500000000E+03  0.12500000000E+03 0.  0.
        -11    1    3    3    0    0 -0.33597261218E+02  0.34259434482E+02 -0.13401744572E+02  0.49820593836E+02  0.51100000000E-03 0.  1.
         23    2    1    0    0    0 -0.22002088174E+02 -0.11633282140E+02 -0.12465043956E+02  0.97164726368E+02  0.93092328319E+02 0.  0.
         11    1    3    3    0    0  0.11595173044E+02 -0.45892716622E+02  0.93670061624E+00  0.47344132531E+02  0.51100000000E-03 0. -1.
         22    1    1    0    0    0  0.22002088174E+02  0.11633282140E+02  0.12465043956E+02  0.27835273632E+02  0.00000000000E+00 0.  1.
</event>
<event>
 5    1  0.1681104E-003  0.9118800E+02  0.7818608E-02  0.1130116E+00
         25   -1    0    0    0    0  0.00000000000E+00  0.00000000000E+00  0.99999998245E-14  0.12500000000E+03  0.12500000000E+03 0.  0.
        -11    1    3    3    0    0  0.26777261589E+01  0.10898393408E+02  0.30841013248E+02  0.32819404240E+02  0.51100000000E-03 0.  1.
         23    2    1    0    0    0 -0.23640642727E+02 -0.14106664529E+02 -0.16825338018E+02  0.92735933733E+02  0.86942414466E+02 0.  0.
         11    1    3    3    0    0 -0.26318368886E+02 -0.25005057937E+02 -0.47666351265E+02  0.59916529493E+02  0.51100000000E-03 0. -1.
         22    1    1    0    0    0  0.23640642727E+02  0.14106664529E+02  0.16825338018E+02  0.32264066267E+02  0.00000000000E+00 0. -1.
</event>
<event>
 5    1  0.1681104E-003  0.9118800E+02  0.7818608E-02  0.1130116E+00
         25   -1    0    0    0    0  0.00000000000E+00  0.00000000000E+00  0.99999998245E-14  0.12500000000E+03  0.12500000000E+03 0.  0.
        -11    1    3    3    0    0 -0.44406380516E+01 -0.41274236801E+02  0.18459625503E+02  0.45431703289E+02  0.51100000000E-03 0. -1.
         23    2    1    0    0    0  0.13127115544E+02 -0.12836053650E+02 -0.20973168723E+02  0.97126011371E+02  0.93040329120E+02 0.  0.
         11    1    3    3    0    0  0.17567753596E+02  0.28438183151E+02 -0.39432794225E+02  0.51694308082E+02  0.51100000000E-03 0.  1.
         22    1    1    0    0    0 -0.13127115544E+02  0.12836053650E+02  0.20973168723E+02  0.27873988629E+02  0.00000000000E+00 0.  1.
</event>
<event>
 5    1  0.1681104E-003  0.9118800E+02  0.7818608E-02  0.1130116E+00
         25   -1    0    0    0    0  0.00000000000E+00  0.00000000000E+00  0.99999998245E-14  0.12500000000E+03  0.12500000000E+03 0.  0.
        -11    1    3    3    0    0 -0.28095273603E+02 -0.25790849175E+02  0.30126672168E+02  0.48601735321E+02  0.51100000000E-03 0.  1.
         23    2    1    0    0    0  0.15582798069E+02 -0.82060490041E+01  0.22700704402E+02  0.96268748439E+02  0.91881375206E+02 0.  0.
         11    1    3    3    0    0  0.43678071672E+02  0.17584800171E+02 -0.74259677655E+01  0.47667013118E+02  0.51100000000E-03 0. -1.
         22    1    1    0    0    0 -0.15582798069E+02  0.82060490041E+01 -0.22700704402E+02  0.28731251561E+02  0.00000000000E+00 0. -1.
</event>
<event>
 5    1  0.1681104E-003  0.9118800E+02  0.7818608E-02  0.1130116E+00
         25   -1    0    0    0    0  0.00000000000E+00  0.00000000000E+00  0.99999998245E-14  0.12500000000E+03  0.12500000000E+03 0.  0.
        -11    1    3    3    0    0 -0.38873141159E+02 -0.17971892202E+02  0.15627367890E+02  0.45588645958E+02  0.51100000000E-03 0.  1.
         23    2    1    0    0    0  0.60862283759E+01  0.21331284422E+01  0.27916150138E+02  0.96348580291E+02  0.91989918322E+02 0.  0.
         11    1    3    3    0    0  0.44959369535E+02  0.20105020644E+02  0.12288782248E+02  0.50759934333E+02  0.51100000000E-03 0. -1.
         22    1    1    0    0    0 -0.60862283759E+01 -0.21331284422E+01 -0.27916150138E+02  0.28651419709E+02  0.00000000000E+00 0. -1.
</event>
<event>
 5    1  0.1681104E-003  0.9118800E+02  0.7818608E-02  0.1130116E+00
         25   -1    0    0    0    0  0.00000000000E+00  0.00000000000E+00  0.99999998245E-14  0.12500000000E+03  0.12500000000E+03 0.  0.
        -11    1    3    3    0    0  0.33182688587E+02  0.38694816276E+02  0.11640810336E+02  0.52286595739E+02  0.51100000000E-03 0.  1.
         23    2    1    0    0    0  0.24882441610E+02  0.47576898512E+01 -0.14399024629E+02  0.95860620744E+02  0.91324450099E+02 0.  0.
         11    1    3    3    0    0 -0.83002469774E+01 -0.33937126425E+02 -0.26039834964E+02  0.43574025004E+02  0.51100000000E-03 0. -1.
         22    1    1    0    0    0 -0.24882441610E+02 -0.47576898512E+01  0.14399024629E+02  0.29139379256E+02  0.00000000000E+00 0. -1.
</event>
<event>
 5    1  0.1681104E-003  0.9118800E+02  0.7818608E-02  0.1130116E+00
         25   -1    0    0    0    0  0.00000000000E+00  0.00000000000E+00  0.99999998245E-14  0.12500000000E+03  0.12500000000E+03 0.  0.
        -11    1    3    3    0    0 -0.13340392771E+02 -0.31895625227E+02 -0.32440222221E+02  0.47409545515E+02  0.51100000000E-03 0.  1.
         23    2    1    0    0    0  0.16741471087E+02  0.45980465961E+01 -0.23886416521E+02  0.95470696235E+02  0.90789173686E+02 0.  0.
         11    1    3    3    0    0  0.30081863858E+02  0.36493671823E+02  0.85538056998E+01  0.48061150720E+02  0.51100000000E-03 0. -1.
         22    1    1    0    0    0 -0.16741471087E+02 -0.45980465961E+01  0.23886416521E+02  0.29529303765E+02  0.00000000000E+00 0. -1.
</event>
<event>
 5    1  0.1681104E-003  0.9118800E+02  0.7818608E-02  0.1130116E+00
         25   -1    0    0    0    0  0.00000000000E+00  0.00000000000E+00  0.99999998245E-14  0.12500000000E+03  0.12500000000E+03 0.  0.
        -11    1    3    3    0    0 -0.14907532258E+02  0.10943159627E+02  0.43020929885E+02  0.46827210776E+02  0.51100000000E-03 0.  1.
         23    2    1    0    0    0 -0.24573903877E+02  0.14519563077E+02 -0.50701322640E+01  0.96010334516E+02  0.91529140873E+02 0.  0.
         11    1    3    3    0    0 -0.96663716192E+01  0.35764034503E+01 -0.48091062149E+02  0.49183123740E+02  0.51100000000E-03 0. -1.
         22    1    1    0    0    0  0.24573903877E+02 -0.14519563077E+02  0.50701322640E+01  0.28989665484E+02  0.00000000000E+00 0.  1.
</event>
<event>
 5    1  0.1681104E-003  0.9118800E+02  0.7818608E-02  0.1130116E+00
         25   -1    0    0    0    0  0.00000000000E+00  0.00000000000E+00  0.99999998245E-14  0.12500000000E+03  0.12500000000E+03 0.  0.
        -11    1    3    3    0    0  0.64589610802E+00 -0.19202042303E+02  0.30829903700E+02  0.36326554651E+02  0.51100000000E-03 0.  1.
         23    2    1    0    0    0 -0.22261463191E+02 -0.18036056402E+01 -0.20187154374E+02  0.94894403536E+02  0.89992226798E+02 0.  0.
         11    1    3    3    0    0 -0.22907359299E+02  0.17398436663E+02 -0.51017058073E+02  0.58567848886E+02  0.51100000000E-03 0. -1.
         22    1    1    0    0    0  0.22261463191E+02  0.18036056402E+01  0.20187154374E+02  0.30105596464E+02  0.00000000000E+00 0. -1.
</event>
<event>
 5    1  0.1681104E-003  0.9118800E+02  0.7818608E-02  0.1130116E+00
         25   -1    0    0    0    0  0.00000000000E+00  0.00000000000E+00  0.99999998245E-14  0.12500000000E+03  0.12500000000E+03 0.  0.
        -11    1    3    3    0    0 -0.23388815348E+02 -0.34696054022E+02  0.35087059283E+02  0.54607275865E+02  0.51100000000E-03 0.  1.
         23    2    1    0    0    0 -0.22076678357E+02  0.33541665282E+01  0.17906609357E+02  0.96376987946E+02  0.92028511813E+02 0.  0.
         11    1    3    3    0    0  0.13121369909E+01  0.38050220550E+02 -0.17180449926E+02  0.41769712081E+02  0.51100000000E-03 0. -1.
         22    1    1    0    0    0  0.22076678357E+02 -0.33541665282E+01 -0.17906609357E+02  0.28623012054E+02  0.00000000000E+00 0.  1.
</event>
<event>
 5    1  0.1681104E-003  0.9118800E+02  0.7818608E-02  0.1130116E+00
         25   -1    0    0    0    0  0.00000000000E+00  0.00000000000E+00  0.99999998245E-14  0.12500000000E+03  0.12500000000E+03 0.  0.
        -11    1    3    3    0    0  0.40250193606E+02  0.39710494953E+02  0.11702500797E+02  0.57740367334E+02  0.51100000000E-03 0.  1.
         23    2    1    0    0    0  0.27314722390E+02  0.69785407671E+01 -0.44389808123E+01  0.96460577421E+02  0.92141979333E+02 0.  0.
         11    1    3    3    0    0 -0.12935471216E+02 -0.32731954186E+02 -0.16141481609E+02  0.38720210087E+02  0.51100000000E-03 0. -1.
         22    1    1    0    0    0 -0.27314722390E+02 -0.69785407671E+01  0.44389808123E+01  0.28539422579E+02  0.00000000000E+00 0.  1.
</event>
<event>
 5    1  0.1681104E-003  0.9118800E+02  0.7818608E-02  0.1130116E+00
         25   -1    0    0    0    0  0.00000000000E+00  0.00000000000E+00  0.99999998245E-14  0.12500000000E+03  0.12500000000E+03 0.  0.
        -11    1    3    3    0    0 -0.28373717766E+02  0.25455717100E+02  0.13193020708E+01  0.38141866120E+02  0.51100000000E-03 0.  1.
         23    2    1    0    0    0  0.18427199520E+02 -0.13420499738E+01  0.22327566025E+02  0.96019265281E+02  0.91541336675E+02 0.  0.
         11    1    3    3    0    0  0.46800917286E+02 -0.26797767074E+02  0.21008263954E+02  0.57877399160E+02  0.51100000000E-03 0. -1.
         22    1    1    0    0    0 -0.18427199520E+02  0.13420499738E+01 -0.22327566025E+02  0.28980734719E+02  0.00000000000E+00 0. -1.
</event>
<event>
 5    1  0.1681104E-003  0.9118800E+02  0.7818608E-02  0.1130116E+00
         25   -1    0    0    0    0  0.00000000000E+00  0.00000000000E+00  0.99999998245E-14  0.12500000000E+03  0.12500000000E+03 0.  0.
        -11    1    3    3    0    0 -0.29778709879E+02  0.39337793540E+02  0.33664321564E+02  0.59728720974E+02  0.51100000000E-03 0.  1.
         23    2    1    0    0    0 -0.19588590775E+02  0.70004337663E+01  0.19546727030E+02  0.96455412088E+02  0.92134971764E+02 0.  0.
         11    1    3    3    0    0  0.10190119104E+02 -0.32337359773E+02 -0.14117594533E+02  0.36726691113E+02  0.51100000000E-03 0. -1.
         22    1    1    0    0    0  0.19588590775E+02 -0.70004337663E+01 -0.19546727030E+02  0.28544587912E+02  0.00000000000E+00 0.  1.
</event>
<event>
 5    1  0.1681104E-003  0.9118800E+02  0.7818608E-02  0.1130116E+00
         25   -1    0    0    0    0  0.00000000000E+00  0.00000000000E+00  0.99999998245E-14  0.12500000000E+03  0.12500000000E+03 0.  0.
        -11    1    3    3    0    0 -0.16887901262E+02  0.31724128060E+02  0.24172881744E+02  0.43312235249E+02  0.51100000000E-03 0.  1.
         23    2    1    0    0    0 -0.25056108238E+02 -0.15190854673E+02  0.26248125660E+01  0.95581293932E+02  0.90941318899E+02 0.  0.
         11    1    3    3    0    0 -0.81682069759E+01 -0.46914982733E+02 -0.21548069178E+02  0.52269058683E+02  0.51100000000E-03 0. -1.
         22    1    1    0    0    0  0.25056108238E+02  0.15190854673E+02 -0.26248125660E+01  0.29418706068E+02  0.00000000000E+00 0. -1.
</event>
<event>
 5    1  0.1681104E-003  0.9118800E+02  0.7818608E-02  0.1130116E+00
         25   -1    0    0    0    0  0.00000000000E+00  0.00000000000E+00  0.99999998245E-14  0.12500000000E+03  0.12500000000E+03 0.  0.
        -11    1    3    3    0    0  0.15145284850E+02  0.22511382728E+02  0.44019601360E+02  0.51709450874E+02  0.51100000000E-03 0.  1.
         23    2    1    0    0    0  0.11024088043E+02  0.26446958722E+02 -0.25198703075E+00  0.96346280515E+02  0.91986793231E+02 0.  0.
         11    1    3    3    0    0 -0.41211968067E+01  0.39355759942E+01 -0.44271588391E+02  0.44636829641E+02  0.51100000000E-03 0. -1.
         22    1    1    0    0    0 -0.11024088043E+02 -0.26446958722E+02  0.25198703075E+00  0.28653719485E+02  0.00000000000E+00 0.  1.
</event>
<event>
 5    1  0.1681104E-003  0.9118800E+02  0.7818608E-02  0.1130116E+00
         25   -1    0    0    0    0  0.00000000000E+00  0.00000000000E+00  0.99999998245E-14  0.12500000000E+03  0.12500000000E+03 0.  0.
        -11    1    3    3    0    0  0.36731893180E+02  0.40575584292E+01  0.49010043028E+02  0.61381431026E+02  0.51100000000E-03 0. -1.
         23    2    1    0    0    0  0.15380466815E+02 -0.36430301337E+00  0.33489701461E+02  0.88145535141E+02  0.80071117047E+02 0.  0.
         11    1    3    3    0    0 -0.21351426365E+02 -0.44218614425E+01 -0.15520341567E+02  0.26764104115E+02  0.51100000000E-03 0.  1.
         22    1    1    0    0    0 -0.15380466815E+02  0.36430301337E+00 -0.33489701461E+02  0.36854464859E+02  0.00000000000E+00 0. -1.
</event>
<event>
 5    1  0.1681104E-003  0.9118800E+02  0.7818608E-02  0.1130116E+00
         25   -1    0    0    0    0  0.00000000000E+00  0.00000000000E+00  0.99999998245E-14  0.12500000000E+03  0.12500000000E+03 0.  0.
        -11    1    3    3    0    0  0.80992046032E+01 -0.27201420391E+02 -0.44979045256E+02  0.53184855917E+02  0.51100000000E-03 0.  1.
         23    2    1    0    0    0  0.24659958874E+02 -0.27220278930E+01 -0.12093669876E+02  0.97399640246E+02  0.93407227030E+02 0.  0.
         11    1    3    3    0    0  0.16560754270E+02  0.24479392498E+02  0.32885375380E+02  0.44214784329E+02  0.51100000000E-03 0. -1.
         22    1    1    0    0    0 -0.24659958874E+02  0.27220278930E+01  0.12093669876E+02  0.27600359754E+02  0.00000000000E+00 0.  1.
</event>
<event>
 5    1  0.1681104E-003  0.9118800E+02  0.7818608E-02  0.1130116E+00
         25   -1    0    0    0    0  0.00000000000E+00  0.00000000000E+00  0.99999998245E-14  0.12500000000E+03  0.12500000000E+03 0.  0.
        -11    1    3    3    0    0  0.45571080861E+02  0.26865435411E+02  0.24660167577E+02  0.58366076584E+02  0.51100000000E-03 0. -1.
         23    2    1    0    0    0  0.19453121365E+02  0.22141463733E+02 -0.13072066738E+01  0.95497845225E+02  0.90826545163E+02 0.  0.
         11    1    3    3    0    0 -0.26117959496E+02 -0.47239716781E+01 -0.25967374251E+02  0.37131768641E+02  0.51100000000E-03 0.  1.
         22    1    1    0    0    0 -0.19453121365E+02 -0.22141463733E+02  0.13072066738E+01  0.29502154775E+02  0.00000000000E+00 0. -1.
</event>
<event>
 5    1  0.1681104E-003  0.9118800E+02  0.7818608E-02  0.1130116E+00
         25   -1    0    0    0    0  0.00000000000E+00  0.00000000000E+00  0.99999998245E-14  0.12500000000E+03  0.12500000000E+03 0.  0.
        -11    1    3    3    0    0  0.30177642608E+02  0.27729224811E+01  0.18668292523E+02  0.35593319014E+02  0.51100000000E-03 0.  1.
         23    2    1    0    0    0  0.19186872062E+01 -0.20154413561E+02 -0.25254478279E+02  0.92632262672E+02  0.86793235151E+02 0.  0.
         11    1    3    3    0    0 -0.28258955402E+02 -0.22927336042E+02 -0.43922770802E+02  0.57038943658E+02  0.51100000000E-03 0. -1.
         22    1    1    0    0    0 -0.19186872062E+01  0.20154413561E+02  0.25254478279E+02  0.32367737328E+02  0.00000000000E+00 0. -1.
</event>
<event>
 5    1  0.1681104E-003  0.9118800E+02  0.7818608E-02  0.1130116E+00
         25   -1    0    0    0    0  0.00000000000E+00  0.00000000000E+00  0.99999998245E-14  0.12500000000E+03  0.12500000000E+03 0.  0.
        -11    1    3    3    0    0 -0.14511614178E+02  0.21168624495E+02 -0.25631555346E+02  0.36272224068E+02  0.51100000000E-03 0.  1.
         23    2    1    0    0    0  0.14669872319E+02 -0.20311148157E+02  0.97545601349E+01  0.98113212599E+02  0.94357316355E+02 0.  0.
         11    1    3    3    0    0  0.29181486497E+02 -0.41479772652E+02  0.35386115481E+02  0.61840988532E+02  0.51100000000E-03 0. -1.
         22    1    1    0    0    0 -0.14669872319E+02  0.20311148157E+02 -0.97545601349E+01  0.26886787401E+02  0.00000000000E+00 0. -1.
</event>
<event>
 5    1  0.1681104E-003  0.9118800E+02  0.7818608E-02  0.1130116E+00
         25   -1    0    0    0    0  0.00000000000E+00  0.00000000000E+00  0.99999998245E-14  0.12500000000E+03  0.12500000000E+03 0.  0.
        -11    1    3    3    0    0 -0.34950689319E+02 -0.21818417615E+02 -0.39370763186E+02  0.56988165659E+02  0.51100000000E-03 0.  1.
         23    2    1    0    0    0 -0.33144130000E+00 -0.13046613669E+02 -0.27393770315E+02  0.94656258740E+02  0.89660831387E+02 0.  0.
         11    1    3    3    0    0  0.34619248019E+02  0.87718039458E+01  0.11976992871E+02  0.37668093081E+02  0.51100000000E-03 0. -1.
         22    1    1    0    0    0  0.33144130000E+00  0.13046613669E+02  0.27393770315E+02  0.30343741260E+02  0.00000000000E+00 0.  1.
</event>
<event>
 5    1  0.1681104E-003  0.9118800E+02  0.7818608E-02  0.1130116E+00
         25   -1    0    0    0    0  0.00000000000E+00  0.00000000000E+00  0.99999998245E-14  0.12500000000E+03  0.12500000000E+03 0.  0.
        -11    1    3    3    0    0 -0.44478899151E+02 -0.10493060567E+02 -0.39571070036E+02  0.60451190011E+02  0.51100000000E-03 0. -1.
         23    2    1    0    0    0 -0.23780210110E+02 -0.11739121956E+02 -0.98101418803E+01  0.96723786306E+02  0.92498359858E+02 0.  0.
         11    1    3    3    0    0  0.20698689042E+02 -0.12460613890E+01  0.29760928155E+02  0.36272596295E+02  0.51100000000E-03 0.  1.
         22    1    1    0    0    0  0.23780210110E+02  0.11739121956E+02  0.98101418803E+01  0.28276213694E+02  0.00000000000E+00 0. -1.
</event>
<event>
 5    1  0.1681104E-003  0.9118800E+02  0.7818608E-02  0.1130116E+00
         25   -1    0    0    0    0  0.00000000000E+00  0.00000000000E+00  0.99999998245E-14  0.12500000000E+03  0.12500000000E+03 0.  0.
        -11    1    3    3    0    0 -0.17995484139E+02  0.29168428881E+02  0.40118224146E+02  0.52764634006E+02  0.51100000000E-03 0.  1.
         23    2    1    0    0    0 -0.12176840497E+02 -0.10939501934E+02  0.23024331034E+02  0.96749903246E+02  0.92533646916E+02 0.  0.
         11    1    3    3    0    0  0.58186436425E+01 -0.40107930816E+02 -0.17093893113E+02  0.43985269241E+02  0.51100000000E-03 0. -1.
         22    1    1    0    0    0  0.12176840497E+02  0.10939501934E+02 -0.23024331034E+02  0.28250096754E+02  0.00000000000E+00 0.  1.
</event>
<event>
 5    1  0.1681104E-003  0.9118800E+02  0.7818608E-02  0.1130116E+00
         25   -1    0    0    0    0  0.00000000000E+00  0.00000000000E+00  0.99999998245E-14  0.12500000000E+03  0.12500000000E+03 0.  0.
        -11    1    3    3    0    0  0.27010520709E+02  0.32281067219E+02 -0.19927173789E+02  0.46569601515E+02  0.51100000000E-03 0. -1.
         23    2    1    0    0    0 -0.17924679727E+02  0.17656157794E+02  0.39780014520E+01  0.99527298005E+02  0.96212392659E+02 0.  0.
         11    1    3    3    0    0 -0.44935200436E+02 -0.14624909425E+02  0.23905175241E+02  0.52957696490E+02  0.51100000000E-03 0.  1.
         22    1    1    0    0    0  0.17924679727E+02 -0.17656157794E+02 -0.39780014520E+01  0.25472701995E+02  0.00000000000E+00 0.  1.
</event>
<event>
 5    1  0.1681104E-003  0.9118800E+02  0.7818608E-02  0.1130116E+00
         25   -1    0    0    0    0  0.00000000000E+00  0.00000000000E+00  0.99999998245E-14  0.12500000000E+03  0.12500000000E+03 0.  0.
        -11    1    3    3    0    0  0.38048262379E+02  0.36972699772E+02 -0.22769195354E+02  0.57732894054E+02  0.51100000000E-03 0. -1.
         23    2    1    0    0    0  0.48918777165E+01  0.24463888138E+02 -0.19527238223E+02  0.93318375625E+02  0.87775816182E+02 0.  0.
         11    1    3    3    0    0 -0.33156384663E+02 -0.12508811634E+02  0.32419571309E+01  0.35585481572E+02  0.51100000000E-03 0.  1.
         22    1    1    0    0    0 -0.48918777165E+01 -0.24463888138E+02  0.19527238223E+02  0.31681624375E+02  0.00000000000E+00 0. -1.
</event>
<event>
 5    1  0.1681104E-003  0.9118800E+02  0.7818608E-02  0.1130116E+00
         25   -1    0    0    0    0  0.00000000000E+00  0.00000000000E+00  0.99999998245E-14  0.12500000000E+03  0.12500000000E+03 0.  0.
        -11    1    3    3    0    0 -0.29751656281E+02 -0.22199750314E+02  0.26190809508E+00  0.37122211162E+02  0.51100000000E-03 0. -1.
         23    2    1    0    0    0  0.27487363540E+02 -0.72289710643E+01  0.34318778814E+01  0.96371500863E+02  0.92021058545E+02 0.  0.
         11    1    3    3    0    0  0.57239019821E+02  0.14970779249E+02  0.31699697863E+01  0.59249289701E+02  0.51100000000E-03 0.  1.
         22    1    1    0    0    0 -0.27487363540E+02  0.72289710643E+01 -0.34318778814E+01  0.28628499137E+02  0.00000000000E+00 0.  1.
</event>
<event>
 5    1  0.1681104E-003  0.9118800E+02  0.7818608E-02  0.1130116E+00
         25   -1    0    0    0    0  0.00000000000E+00  0.00000000000E+00  0.99999998245E-14  0.12500000000E+03  0.12500000000E+03 0.  0.
        -11    1    3    3    0    0  0.94811288589E+01 -0.39060955937E+02 -0.15777920835E+02  0.43180931779E+02  0.51100000000E-03 0.  1.
         23    2    1    0    0    0 -0.24953598010E+02  0.16037970770E+01 -0.13656026833E+02  0.96508926178E+02  0.92207546027E+02 0.  0.
         11    1    3    3    0    0 -0.34434726868E+02  0.40664753014E+02  0.21218940022E+01  0.53327994399E+02  0.51100000000E-03 0. -1.
         22    1    1    0    0    0  0.24953598010E+02 -0.16037970770E+01  0.13656026833E+02  0.28491073822E+02  0.00000000000E+00 0.  1.
</event>
<event>
 5    1  0.1681104E-003  0.9118800E+02  0.7818608E-02  0.1130116E+00
         25   -1    0    0    0    0  0.00000000000E+00  0.00000000000E+00  0.99999998245E-14  0.12500000000E+03  0.12500000000E+03 0.  0.
        -11    1    3    3    0    0  0.16470260978E+02 -0.42977614989E+02  0.14299824147E+02  0.48195745224E+02  0.51100000000E-03 0.  1.
         23    2    1    0    0    0  0.21289716343E+02 -0.81146905193E+01 -0.17998860408E+02  0.95964518255E+02  0.91466548878E+02 0.  0.
         11    1    3    3    0    0  0.48194553645E+01  0.34862924470E+02 -0.32298684556E+02  0.47768773031E+02  0.51100000000E-03 0. -1.
         22    1    1    0    0    0 -0.21289716343E+02  0.81146905193E+01  0.17998860408E+02  0.29035481745E+02  0.00000000000E+00 0.  1.
</event>
<event>
 5    1  0.1681104E-003  0.9118800E+02  0.7818608E-02  0.1130116E+00
         25   -1    0    0    0    0  0.00000000000E+00  0.00000000000E+00  0.99999998245E-14  0.12500000000E+03  0.12500000000E+03 0.  0.
        -11    1    3    3    0    0  0.14756551628E+01  0.39425727865E+02  0.12216458349E+02  0.41301421655E+02  0.51100000000E-03 0. -1.
         23    2    1    0    0    0 -0.20983978896E+02 -0.12914431339E+02  0.10314345230E+02  0.98288661122E+02  0.94589456498E+02 0.  0.
         11    1    3    3    0    0 -0.22459634058E+02 -0.52340159204E+02 -0.19021131184E+01  0.56987239468E+02  0.51100000000E-03 0.  1.
         22    1    1    0    0    0  0.20983978896E+02  0.12914431339E+02 -0.10314345230E+02  0.26711338878E+02  0.00000000000E+00 0.  1.
</event>
<event>
 5    1  0.1681104E-003  0.9118800E+02  0.7818608E-02  0.1130116E+00
         25   -1    0    0    0    0  0.00000000000E+00  0.00000000000E+00  0.99999998245E-14  0.12500000000E+03  0.12500000000E+03 0.  0.
        -11    1    3    3    0    0  0.29892161720E+02  0.20707952373E+02 -0.14473688268E+02  0.39138833352E+02  0.51100000000E-03 0. -1.
         23    2    1    0    0    0 -0.30382523937E+01  0.46098815210E+00  0.28150867236E+02  0.96681899537E+02  0.92441737783E+02 0.  0.
         11    1    3    3    0    0 -0.32930414114E+02 -0.20246964221E+02  0.42624555504E+02  0.57543066186E+02  0.51100000000E-03 0.  1.
         22    1    1    0    0    0  0.30382523937E+01 -0.46098815210E+00 -0.28150867236E+02  0.28318100463E+02  0.00000000000E+00 0.  1.
</event>
<event>
 5    1  0.1681104E-003  0.9118800E+02  0.7818608E-02  0.1130116E+00
         25   -1    0    0    0    0  0.00000000000E+00  0.00000000000E+00  0.99999998245E-14  0.12500000000E+03  0.12500000000E+03 0.  0.
        -11    1    3    3    0    0 -0.41022474157E+00  0.13131276112E+02 -0.38759956645E+02  0.40925944534E+02  0.51100000000E-03 0. -1.
         23    2    1    0    0    0  0.76296937464E+01  0.25297508807E+02  0.13602595200E+02  0.95281205027E+02  0.90527903194E+02 0.  0.
         11    1    3    3    0    0  0.80399184879E+01  0.12166232695E+02  0.52362551845E+02  0.54355260493E+02  0.51100000000E-03 0.  1.
         22    1    1    0    0    0 -0.76296937464E+01 -0.25297508807E+02 -0.13602595200E+02  0.29718794973E+02  0.00000000000E+00 0.  1.
</event>
<event>
 5    1  0.1681104E-003  0.9118800E+02  0.7818608E-02  0.1130116E+00
         25   -1    0    0    0    0  0.00000000000E+00  0.00000000000E+00  0.99999998245E-14  0.12500000000E+03  0.12500000000E+03 0.  0.
        -11    1    3    3    0    0 -0.36959526539E+02 -0.11166825371E+02  0.31447661940E+02  0.49796184920E+02  0.51100000000E-03 0. -1.
         23    2    1    0    0    0 -0.22115716450E+01  0.16392837312E+02  0.25586577759E+02  0.94532162439E+02  0.89487656186E+02 0.  0.
         11    1    3    3    0    0  0.34747954894E+02  0.27559662683E+02 -0.58610841815E+01  0.44735977518E+02  0.51100000000E-03 0.  1.
         22    1    1    0    0    0  0.22115716450E+01 -0.16392837312E+02 -0.25586577759E+02  0.30467837561E+02  0.00000000000E+00 0.  1.
</event>
<event>
 5    1  0.1681104E-003  0.9118800E+02  0.7818608E-02  0.1130116E+00
         25   -1    0    0    0    0  0.00000000000E+00  0.00000000000E+00  0.99999998245E-14  0.12500000000E+03  0.12500000000E+03 0.  0.
        -11    1    3    3    0    0 -0.16540262250E+02  0.38149437792E+02 -0.50473739048E+01  0.41885986473E+02  0.51100000000E-03 0.  1.
         23    2    1    0    0    0  0.29802161250E+01 -0.19730963041E+02  0.64228145285E+01  0.10403705323E+03  0.10190320558E+03 0.  0.
         11    1    3    3    0    0  0.19520478375E+02 -0.57880400833E+02  0.11470188433E+02  0.62151066761E+02  0.51100000000E-03 0. -1.
         22    1    1    0    0    0 -0.29802161250E+01  0.19730963041E+02 -0.64228145285E+01  0.20962946766E+02  0.00000000000E+00 0. -1.
</event>
<event>
 5    1  0.1681104E-003  0.9118800E+02  0.7818608E-02  0.1130116E+00
         25   -1    0    0    0    0  0.00000000000E+00  0.00000000000E+00  0.99999998245E-14  0.12500000000E+03  0.12500000000E+03 0.  0.
        -11    1    3    3    0    0  0.15702251465E+01 -0.11356597273E+01 -0.33584101265E+02  0.33639964151E+02  0.51100000000E-03 0.  1.
         23    2    1    0    0    0  0.71121222775E+01  0.78755215159E+01  0.27442794701E+02  0.95576997036E+02  0.90935412568E+02 0.  0.
         11    1    3    3    0    0  0.55418971311E+01  0.90111812432E+01  0.61026895965E+02  0.61937032885E+02  0.51100000000E-03 0. -1.
         22    1    1    0    0    0 -0.71121222775E+01 -0.78755215159E+01 -0.27442794701E+02  0.29423002964E+02  0.00000000000E+00 0. -1.
</event>
<event>
 5    1  0.1681104E-003  0.9118800E+02  0.7818608E-02  0.1130116E+00
         25   -1    0    0    0    0  0.00000000000E+00  0.00000000000E+00  0.99999998245E-14  0.12500000000E+03  0.12500000000E+03 0.  0.
        -11    1    3    3    0    0  0.17220036484E+02 -0.47239210169E+02 -0.23177234381E+02  0.55364761606E+02  0.51100000000E-03 0.  1.
         23    2    1    0    0    0 -0.31214471670E+01 -0.37323694266E+02 -0.27667046929E+02  0.78435345252E+02  0.63117638683E+02 0.  0.
         11    1    3    3    0    0 -0.20341483651E+02  0.99155159034E+01 -0.44898125477E+01  0.23070583645E+02  0.51100000000E-03 0. -1.
         22    1    1    0    0    0  0.31214471670E+01  0.37323694266E+02  0.27667046929E+02  0.46564654748E+02  0.00000000000E+00 0.  1.
</event>
<event>
 5    1  0.1681104E-003  0.9118800E+02  0.7818608E-02  0.1130116E+00
         25   -1    0    0    0    0  0.00000000000E+00  0.00000000000E+00  0.99999998245E-14  0.12500000000E+03  0.12500000000E+03 0.  0.
        -11    1    3    3    0    0 -0.22241245904E+02  0.38091833829E+00 -0.29520322707E+02  0.36963056842E+02  0.51100000000E-03 0. -1.
         23    2    1    0    0    0  0.27806312386E+02  0.92906209785E+01 -0.12956161933E+00  0.95682369930E+02  0.91080143185E+02 0.  0.
         11    1    3    3    0    0  0.50047558290E+02  0.89097026402E+01  0.29390761088E+02  0.58719313088E+02  0.51100000000E-03 0.  1.
         22    1    1    0    0    0 -0.27806312386E+02 -0.92906209785E+01  0.12956161933E+00  0.29317630070E+02  0.00000000000E+00 0.  1.
</event>
<event>
 5    1  0.1681104E-003  0.9118800E+02  0.7818608E-02  0.1130116E+00
         25   -1    0    0    0    0  0.00000000000E+00  0.00000000000E+00  0.99999998245E-14  0.12500000000E+03  0.12500000000E+03 0.  0.
        -11    1    3    3    0    0  0.40301794814E+02  0.22666952864E+02  0.89424842203E+01  0.47095577729E+02  0.51100000000E-03 0.  1.
         23    2    1    0    0    0 -0.90822663180E+01  0.25988647434E+02  0.68259087604E+01  0.96636460247E+02  0.92380274203E+02 0.  0.
         11    1    3    3    0    0 -0.49384061132E+02  0.33216945695E+01 -0.21165754599E+01  0.49540882518E+02  0.51100000000E-03 0. -1.
         22    1    1    0    0    0  0.90822663180E+01 -0.25988647434E+02 -0.68259087604E+01  0.28363539753E+02  0.00000000000E+00 0.  1.
</event>
<event>
 5    1  0.1681104E-003  0.9118800E+02  0.7818608E-02  0.1130116E+00
         25   -1    0    0    0    0  0.00000000000E+00  0.00000000000E+00  0.99999998245E-14  0.12500000000E+03  0.12500000000E+03 0.  0.
        -11    1    3    3    0    0  0.15668702994E+02 -0.20063509351E+02  0.19383691447E+02  0.31996564743E+02  0.51100000000E-03 0. -1.
         23    2    1    0    0    0 -0.21007463754E+02  0.14521917789E+02 -0.17135601984E+02  0.94245675345E+02  0.89086580562E+02 0.  0.
         11    1    3    3    0    0 -0.36676166748E+02  0.34585427140E+02 -0.36519293431E+02  0.62249110602E+02  0.51100000000E-03 0.  1.
         22    1    1    0    0    0  0.21007463754E+02 -0.14521917789E+02  0.17135601984E+02  0.30754324655E+02  0.00000000000E+00 0.  1.
</event>
<event>
 5    1  0.1681104E-003  0.9118800E+02  0.7818608E-02  0.1130116E+00
         25   -1    0    0    0    0  0.00000000000E+00  0.00000000000E+00  0.99999998245E-14  0.12500000000E+03  0.12500000000E+03 0.  0.
        -11    1    3    3    0    0  0.49668645210E+02 -0.22044998302E+02 -0.27055307562E+02  0.60703755523E+02  0.51100000000E-03 0.  1.
         23    2    1    0    0    0  0.19941032320E+02 -0.19259052522E+02 -0.79166703264E+01  0.96168948283E+02  0.91745501638E+02 0.  0.
         11    1    3    3    0    0 -0.29727612889E+02  0.27859457800E+01  0.19138637236E+02  0.35465192760E+02  0.51100000000E-03 0. -1.
         22    1    1    0    0    0 -0.19941032320E+02  0.19259052522E+02  0.79166703264E+01  0.28831051717E+02  0.00000000000E+00 0.  1.
</event>
<event>
 5    1  0.1681104E-003  0.9118800E+02  0.7818608E-02  0.1130116E+00
         25   -1    0    0    0    0  0.00000000000E+00  0.00000000000E+00  0.99999998245E-14  0.12500000000E+03  0.12500000000E+03 0.  0.
        -11    1    3    3    0    0 -0.47030472015E+01  0.15440422510E+02  0.58303985262E+02  0.60496942055E+02  0.51100000000E-03 0. -1.
         23    2    1    0    0    0 -0.94741104276E+01  0.14169871164E+02  0.21830133484E+02  0.97303452469E+02  0.93278417211E+02 0.  0.
         11    1    3    3    0    0 -0.47710632260E+01 -0.12705513458E+01 -0.36473851779E+02  0.36806510414E+02  0.51100000000E-03 0.  1.
         22    1    1    0    0    0  0.94741104276E+01 -0.14169871164E+02 -0.21830133484E+02  0.27696547531E+02  0.00000000000E+00 0. -1.
</event>
<event>
 5    1  0.1681104E-003  0.9118800E+02  0.7818608E-02  0.1130116E+00
         25   -1    0    0    0    0  0.00000000000E+00  0.00000000000E+00  0.99999998245E-14  0.12500000000E+03  0.12500000000E+03 0.  0.
        -11    1    3    3    0    0  0.46816025626E+02  0.27325285723E+02 -0.26509382828E+02  0.60342015822E+02  0.51100000000E-03 0.  1.
         23    2    1    0    0    0  0.28533874702E+02  0.41083123124E+01 -0.85148964557E+01  0.94940663726E+02  0.90056459688E+02 0.  0.
         11    1    3    3    0    0 -0.18282150924E+02 -0.23216973410E+02  0.17994486372E+02  0.34598647904E+02  0.51100000000E-03 0. -1.
         22    1    1    0    0    0 -0.28533874702E+02 -0.41083123124E+01  0.85148964557E+01  0.30059336274E+02  0.00000000000E+00 0.  1.
</event>
<event>
 5    1  0.1681104E-003  0.9118800E+02  0.7818608E-02  0.1130116E+00
         25   -1    0    0    0    0  0.00000000000E+00  0.00000000000E+00  0.99999998245E-14  0.12500000000E+03  0.12500000000E+03 0.  0.
        -11    1    3    3    0    0  0.25488731808E+02 -0.10509422002E+02 -0.40547783784E+02  0.49033112996E+02  0.51100000000E-03 0.  1.
         23    2    1    0    0    0  0.24892125423E+02 -0.12471738194E+02  0.67308500632E+01  0.96356213514E+02  0.92000290101E+02 0.  0.
         11    1    3    3    0    0 -0.59660638475E+00 -0.19623161917E+01  0.47278633847E+02  0.47323100519E+02  0.51100000000E-03 0. -1.
         22    1    1    0    0    0 -0.24892125423E+02  0.12471738194E+02 -0.67308500632E+01  0.28643786486E+02  0.00000000000E+00 0.  1.
</event>
<event>
 5    1  0.1681104E-003  0.9118800E+02  0.7818608E-02  0.1130116E+00
         25   -1    0    0    0    0  0.00000000000E+00  0.00000000000E+00  0.99999998245E-14  0.12500000000E+03  0.12500000000E+03 0.  0.
        -11    1    3    3    0    0 -0.80917124556E+01 -0.31596264723E+02 -0.15312097311E+02  0.36031376316E+02  0.51100000000E-03 0.  1.
         23    2    1    0    0    0  0.16475771871E+02  0.11343868235E+02  0.19922858205E+02  0.96767843080E+02  0.92557877947E+02 0.  0.
         11    1    3    3    0    0  0.24567484326E+02  0.42940132958E+02  0.35234955516E+02  0.60736466764E+02  0.51100000000E-03 0. -1.
         22    1    1    0    0    0 -0.16475771871E+02 -0.11343868235E+02 -0.19922858205E+02  0.28232156920E+02  0.00000000000E+00 0. -1.
</event>
<event>
 5    1  0.1681104E-003  0.9118800E+02  0.7818608E-02  0.1130116E+00
         25   -1    0    0    0    0  0.00000000000E+00  0.00000000000E+00  0.99999998245E-14  0.12500000000E+03  0.12500000000E+03 0.  0.
        -11    1    3    3    0    0  0.43315918906E+02 -0.21101371262E+02  0.10268803005E+02  0.49264439662E+02  0.51100000000E-03 0. -1.
         23    2    1    0    0    0  0.52271956083E+00 -0.28719821734E+02 -0.59641211377E+01  0.95662785799E+02  0.91053261609E+02 0.  0.
         11    1    3    3    0    0 -0.42793199345E+02 -0.76184504711E+01 -0.16232924143E+02  0.46398346137E+02  0.51100000000E-03 0.  1.
         22    1    1    0    0    0 -0.52271956083E+00  0.28719821734E+02  0.59641211377E+01  0.29337214201E+02  0.00000000000E+00 0.  1.
</event>
<event>
 5    1  0.1681104E-003  0.9118800E+02  0.7818608E-02  0.1130116E+00
         25   -1    0    0    0    0  0.00000000000E+00  0.00000000000E+00  0.99999998245E-14  0.12500000000E+03  0.12500000000E+03 0.  0.
        -11    1    3    3    0    0  0.88536194240E+01 -0.11379727418E+01  0.33400938285E+02  0.34573172221E+02  0.51100000000E-03 0.  1.
         23    2    1    0    0    0 -0.21014404973E+01  0.16753246170E+02 -0.23981833889E+02  0.95670566557E+02  0.91063942586E+02 0.  0.
         11    1    3    3    0    0 -0.10955059921E+02  0.17891218912E+02 -0.57382772174E+02  0.61097394336E+02  0.51100000000E-03 0. -1.
         22    1    1    0    0    0  0.21014404973E+01 -0.16753246170E+02  0.23981833889E+02  0.29329433443E+02  0.00000000000E+00 0. -1.
</event>
<event>
 5    1  0.1681104E-003  0.9118800E+02  0.7818608E-02  0.1130116E+00
         25   -1    0    0    0    0  0.00000000000E+00  0.00000000000E+00  0.99999998245E-14  0.12500000000E+03  0.12500000000E+03 0.  0.
        -11    1    3    3    0    0 -0.45548408656E+01 -0.18433156251E+02 -0.36349168320E+02  0.41009631338E+02  0.51100000000E-03 0. -1.
         23    2    1    0    0    0 -0.55275055269E+00  0.21597732875E+02  0.89680707690E+01  0.10160782413E+03  0.98878491256E+02 0.  0.
         11    1    3    3    0    0  0.40020903129E+01  0.40030889126E+02  0.45317239089E+02  0.60598192794E+02  0.51100000000E-03 0.  1.
         22    1    1    0    0    0  0.55275055269E+00 -0.21597732875E+02 -0.89680707690E+01  0.23392175868E+02  0.00000000000E+00 0.  1.
</event>
<event>
 5    1  0.1681104E-003  0.9118800E+02  0.7818608E-02  0.1130116E+00
         25   -1    0    0    0    0  0.00000000000E+00  0.00000000000E+00  0.99999998245E-14  0.12500000000E+03  0.12500000000E+03 0.  0.
        -11    1    3    3    0    0  0.35948325824E+00 -0.14451300585E+02 -0.44183962839E+02  0.46488621072E+02  0.51100000000E-03 0. -1.
         23    2    1    0    0    0  0.90607301806E+01  0.23824539948E+02 -0.14753450028E+02  0.95548857019E+02  0.90896723014E+02 0.  0.
         11    1    3    3    0    0  0.87012469224E+01  0.38275840534E+02  0.29430512810E+02  0.49060235946E+02  0.51100000000E-03 0.  1.
         22    1    1    0    0    0 -0.90607301806E+01 -0.23824539948E+02  0.14753450028E+02  0.29451142981E+02  0.00000000000E+00 0.  1.
</event>
<event>
 5    1  0.1681104E-003  0.9118800E+02  0.7818608E-02  0.1130116E+00
         25   -1    0    0    0    0  0.00000000000E+00  0.00000000000E+00  0.99999998245E-14  0.12500000000E+03  0.12500000000E+03 0.  0.
        -11    1    3    3    0    0  0.85728510838E+00  0.41777206202E+02 -0.22906891747E+02  0.47652865450E+02  0.51100000000E-03 0.  1.
         23    2    1    0    0    0  0.17032561998E+02 -0.23823558439E+01 -0.24916235227E+02  0.94724555074E+02  0.89755995725E+02 0.  0.
         11    1    3    3    0    0  0.16175276890E+02 -0.44159562046E+02 -0.20093434795E+01  0.47071689624E+02  0.51100000000E-03 0. -1.
         22    1    1    0    0    0 -0.17032561998E+02  0.23823558439E+01  0.24916235227E+02  0.30275444926E+02  0.00000000000E+00 0. -1.
</event>
<event>
 5    1  0.1681104E-003  0.9118800E+02  0.7818608E-02  0.1130116E+00
         25   -1    0    0    0    0  0.00000000000E+00  0.00000000000E+00  0.99999998245E-14  0.12500000000E+03  0.12500000000E+03 0.  0.
        -11    1    3    3    0    0 -0.23383672223E+02  0.44736467519E+02 -0.32770072900E+02  0.60183264541E+02  0.51100000000E-03 0. -1.
         23    2    1    0    0    0 -0.31222907699E+01  0.27650697852E+02 -0.90849193743E+01  0.95728075714E+02  0.91142849026E+02 0.  0.
         11    1    3    3    0    0  0.20261381453E+02 -0.17085769667E+02  0.23685153526E+02  0.35544811173E+02  0.51100000000E-03 0.  1.
         22    1    1    0    0    0  0.31222907699E+01 -0.27650697852E+02  0.90849193743E+01  0.29271924286E+02  0.00000000000E+00 0. -1.
</event>
<event>
 5    1  0.1681104E-003  0.9118800E+02  0.7818608E-02  0.1130116E+00
         25   -1    0    0    0    0  0.00000000000E+00  0.00000000000E+00  0.99999998245E-14  0.12500000000E+03  0.12500000000E+03 0.  0.
        -11    1    3    3    0    0  0.40127275044E+01 -0.56528229827E+02 -0.16571864143E+02  0.59043792483E+02  0.51100000000E-03 0.  1.
         23    2    1    0    0    0 -0.17438978836E+01 -0.21087718174E+02 -0.20960722809E+02  0.95216028836E+02  0.90437863801E+02 0.  0.
         11    1    3    3    0    0 -0.57566253880E+01  0.35440511653E+02 -0.43888586666E+01  0.36172236352E+02  0.51100000000E-03 0. -1.
         22    1    1    0    0    0  0.17438978836E+01  0.21087718174E+02  0.20960722809E+02  0.29783971164E+02  0.00000000000E+00 0.  1.
</event>
<event>
 5    1  0.1681104E-003  0.9118800E+02  0.7818608E-02  0.1130116E+00
         25   -1    0    0    0    0  0.00000000000E+00  0.00000000000E+00  0.99999998245E-14  0.12500000000E+03  0.12500000000E+03 0.  0.
        -11    1    3    3    0    0  0.51940060195E+02 -0.70749931401E+00 -0.23573327102E+02  0.57043598758E+02  0.51100000000E-03 0. -1.
         23    2    1    0    0    0  0.27912205186E+02 -0.68315286596E+01  0.60078170406E+01  0.95642635545E+02  0.91025594676E+02 0.  0.
         11    1    3    3    0    0 -0.24027855009E+02 -0.61240293456E+01  0.29581144143E+02  0.38599036786E+02  0.51100000000E-03 0.  1.
         22    1    1    0    0    0 -0.27912205186E+02  0.68315286596E+01 -0.60078170406E+01  0.29357364455E+02  0.00000000000E+00 0. -1.
</event>
<event>
 5    1  0.1681104E-003  0.9118800E+02  0.7818608E-02  0.1130116E+00
         25   -1    0    0    0    0  0.00000000000E+00  0.00000000000E+00  0.99999998245E-14  0.12500000000E+03  0.12500000000E+03 0.  0.
        -11    1    3    3    0    0  0.56458992561E+02 -0.15524859326E+02  0.76177599080E+01  0.59048025914E+02  0.51100000000E-03 0.  1.
         23    2    1    0    0    0  0.28561137754E+02  0.18865189069E+01 -0.77485531196E+01  0.95346372586E+02  0.90617841215E+02 0.  0.
         11    1    3    3    0    0 -0.27897854807E+02  0.17411378233E+02 -0.15366313028E+02  0.36298346672E+02  0.51100000000E-03 0. -1.
         22    1    1    0    0    0 -0.28561137754E+02 -0.18865189069E+01  0.77485531196E+01  0.29653627414E+02  0.00000000000E+00 0.  1.
</event>
<event>
 5    1  0.1681104E-003  0.9118800E+02  0.7818608E-02  0.1130116E+00
         25   -1    0    0    0    0  0.00000000000E+00  0.00000000000E+00  0.99999998245E-14  0.12500000000E+03  0.12500000000E+03 0.  0.
        -11    1    3    3    0    0  0.14072880066E+01 -0.84522148345E+01  0.43612899326E+02  0.44446657726E+02  0.51100000000E-03 0. -1.
         23    2    1    0    0    0  0.27210359010E+02 -0.32386544573E+01 -0.24366327392E+01  0.97489462032E+02  0.93527351657E+02 0.  0.
         11    1    3    3    0    0  0.25803071004E+02  0.52135603772E+01 -0.46049532065E+02  0.53042804306E+02  0.51100000000E-03 0.  1.
         22    1    1    0    0    0 -0.27210359010E+02  0.32386544573E+01  0.24366327392E+01  0.27510537968E+02  0.00000000000E+00 0.  1.
</event>
<event>
 5    1  0.1681104E-003  0.9118800E+02  0.7818608E-02  0.1130116E+00
         25   -1    0    0    0    0  0.00000000000E+00  0.00000000000E+00  0.99999998245E-14  0.12500000000E+03  0.12500000000E+03 0.  0.
        -11    1    3    3    0    0 -0.28293844186E+02  0.34019370210E+02  0.20975039255E+02  0.48967452867E+02  0.51100000000E-03 0. -1.
         23    2    1    0    0    0  0.68144566675E+01  0.28121415009E+02 -0.81225904793E+01  0.94946260168E+02  0.90064227316E+02 0.  0.
         11    1    3    3    0    0  0.35108300853E+02 -0.58979552011E+01 -0.29097629735E+02  0.45978807301E+02  0.51100000000E-03 0.  1.
         22    1    1    0    0    0 -0.68144566675E+01 -0.28121415009E+02  0.81225904793E+01  0.30053739832E+02  0.00000000000E+00 0. -1.
</event>
<event>
 5    1  0.1681104E-003  0.9118800E+02  0.7818608E-02  0.1130116E+00
         25   -1    0    0    0    0  0.00000000000E+00  0.00000000000E+00  0.99999998245E-14  0.12500000000E+03  0.12500000000E+03 0.  0.
        -11    1    3    3    0    0 -0.53402695590E+02  0.16915220194E+02  0.23455510554E+02  0.60730005320E+02  0.51100000000E-03 0.  1.
         23    2    1    0    0    0 -0.20120084684E+02  0.14664536569E+02  0.17378252130E+02  0.94637686393E+02  0.89634935144E+02 0.  0.
         11    1    3    3    0    0  0.33282610907E+02 -0.22506836250E+01 -0.60772584238E+01  0.33907681073E+02  0.51100000000E-03 0. -1.
         22    1    1    0    0    0  0.20120084684E+02 -0.14664536569E+02 -0.17378252130E+02  0.30362313607E+02  0.00000000000E+00 0.  1.
</event>
<event>
 5    1  0.1681104E-003  0.9118800E+02  0.7818608E-02  0.1130116E+00
         25   -1    0    0    0    0  0.00000000000E+00  0.00000000000E+00  0.99999998245E-14  0.12500000000E+03  0.12500000000E+03 0.  0.
        -11    1    3    3    0    0 -0.34880184458E+02 -0.30116732955E+02 -0.12626093761E+02  0.47781409728E+02  0.51100000000E-03 0.  1.
         23    2    1    0    0    0  0.14023365020E+02 -0.22721025110E+02 -0.35928410993E+01  0.98059171214E+02  0.94285697767E+02 0.  0.
         11    1    3    3    0    0  0.48903549478E+02  0.73957078446E+01  0.90332526621E+01  0.50277761485E+02  0.51100000000E-03 0. -1.
         22    1    1    0    0    0 -0.14023365020E+02  0.22721025110E+02  0.35928410993E+01  0.26940828786E+02  0.00000000000E+00 0.  1.
</event>
<event>
 5    1  0.1681104E-003  0.9118800E+02  0.7818608E-02  0.1130116E+00
         25   -1    0    0    0    0  0.00000000000E+00  0.00000000000E+00  0.99999998245E-14  0.12500000000E+03  0.12500000000E+03 0.  0.
        -11    1    3    3    0    0 -0.22457639629E+02  0.22097384264E+02  0.14186718090E+02  0.34552900594E+02  0.51100000000E-03 0. -1.
         23    2    1    0    0    0  0.22419466898E+02 -0.13475999291E+02 -0.10369116127E+02  0.96861883109E+02  0.92684792589E+02 0.  0.
         11    1    3    3    0    0  0.44877106527E+02 -0.35573383555E+02 -0.24555834218E+02  0.62308982516E+02  0.51100000000E-03 0.  1.
         22    1    1    0    0    0 -0.22419466898E+02  0.13475999291E+02  0.10369116127E+02  0.28138116891E+02  0.00000000000E+00 0.  1.
</event>
<event>
 5    1  0.1681104E-003  0.9118800E+02  0.7818608E-02  0.1130116E+00
         25   -1    0    0    0    0  0.00000000000E+00  0.00000000000E+00  0.99999998245E-14  0.12500000000E+03  0.12500000000E+03 0.  0.
        -11    1    3    3    0    0  0.20954130092E+02  0.76315428838E+01  0.28954659037E+02  0.36547069580E+02  0.51100000000E-03 0.  1.
         23    2    1    0    0    0 -0.18897787883E+02  0.17975744584E+02 -0.13452586793E+02  0.95653349908E+02  0.91040306881E+02 0.  0.
         11    1    3    3    0    0 -0.39851917975E+02  0.10344201700E+02 -0.42407245829E+02  0.59106280328E+02  0.51100000000E-03 0. -1.
         22    1    1    0    0    0  0.18897787883E+02 -0.17975744584E+02  0.13452586793E+02  0.29346650092E+02  0.00000000000E+00 0. -1.
</event>
<event>
 5    1  0.1681104E-003  0.9118800E+02  0.7818608E-02  0.1130116E+00
         25   -1    0    0    0    0  0.00000000000E+00  0.00000000000E+00  0.99999998245E-14  0.12500000000E+03  0.12500000000E+03 0.  0.
        -11    1    3    3    0    0  0.30171710351E+02  0.89250495744E+01  0.22071529739E+02  0.38433592607E+02  0.51100000000E-03 0. -1.
         23    2    1    0    0    0 -0.24452941208E+02 -0.87198071020E+01  0.10521429458E+02  0.96987826799E+02  0.92854492081E+02 0.  0.
         11    1    3    3    0    0 -0.54624651559E+02 -0.17644856676E+02 -0.11550100281E+02  0.58554234192E+02  0.51100000000E-03 0.  1.
         22    1    1    0    0    0  0.24452941208E+02  0.87198071020E+01 -0.10521429458E+02  0.28012173201E+02  0.00000000000E+00 0.  1.
</event>
<event>
 5    1  0.1681104E-003  0.9118800E+02  0.7818608E-02  0.1130116E+00
         25   -1    0    0    0    0  0.00000000000E+00  0.00000000000E+00  0.99999998245E-14  0.12500000000E+03  0.12500000000E+03 0.  0.
        -11    1    3    3    0    0  0.65810641593E-01  0.34916033717E+02  0.53250792326E+01  0.35319827444E+02  0.51100000000E-03 0. -1.
         23    2    1    0    0    0 -0.13781790112E+02 -0.20203896121E+02 -0.15723173907E+02  0.95925039039E+02  0.91412579877E+02 0.  0.
         11    1    3    3    0    0 -0.13847600753E+02 -0.55119929839E+02 -0.21048253139E+02  0.60605211595E+02  0.51100000000E-03 0.  1.
         22    1    1    0    0    0  0.13781790112E+02  0.20203896121E+02  0.15723173907E+02  0.29074960961E+02  0.00000000000E+00 0.  1.
</event>
<event>
 5    1  0.1681104E-003  0.9118800E+02  0.7818608E-02  0.1130116E+00
         25   -1    0    0    0    0  0.00000000000E+00  0.00000000000E+00  0.99999998245E-14  0.12500000000E+03  0.12500000000E+03 0.  0.
        -11    1    3    3    0    0 -0.17520842518E+00 -0.57918962681E+01 -0.57751952023E+02  0.58041922118E+02  0.51100000000E-03 0. -1.
         23    2    1    0    0    0 -0.97601652774E+01  0.10901156916E+02 -0.25336782311E+02  0.95741692014E+02  0.91161521507E+02 0.  0.
         11    1    3    3    0    0 -0.95849568522E+01  0.16693053184E+02  0.32415169713E+02  0.37699769896E+02  0.51100000000E-03 0.  1.
         22    1    1    0    0    0  0.97601652774E+01 -0.10901156916E+02  0.25336782311E+02  0.29258307986E+02  0.00000000000E+00 0. -1.
</event>
<event>
 5    1  0.1681104E-003  0.9118800E+02  0.7818608E-02  0.1130116E+00
         25   -1    0    0    0    0  0.00000000000E+00  0.00000000000E+00  0.99999998245E-14  0.12500000000E+03  0.12500000000E+03 0.  0.
        -11    1    3    3    0    0  0.15234306599E+02  0.14819296719E+02  0.36292354626E+02  0.42057468508E+02  0.51100000000E-03 0. -1.
         23    2    1    0    0    0  0.21813074154E+02  0.60112984019E+01 -0.17143551072E+02  0.96612551085E+02  0.92347916984E+02 0.  0.
         11    1    3    3    0    0  0.65787675556E+01 -0.88079983171E+01 -0.53435905698E+02  0.54555082576E+02  0.51100000000E-03 0.  1.
         22    1    1    0    0    0 -0.21813074154E+02 -0.60112984019E+01  0.17143551072E+02  0.28387448915E+02  0.00000000000E+00 0.  1.
</event>
<event>
 5    1  0.1681104E-003  0.9118800E+02  0.7818608E-02  0.1130116E+00
         25   -1    0    0    0    0  0.00000000000E+00  0.00000000000E+00  0.99999998245E-14  0.12500000000E+03  0.12500000000E+03 0.  0.
        -11    1    3    3    0    0  0.19593165949E+02 -0.13139809086E+02  0.26146542074E+02  0.35216308685E+02  0.51100000000E-03 0.  1.
         23    2    1    0    0    0 -0.24315555434E+02 -0.76289862966E+01 -0.14819388749E+02  0.95520143303E+02  0.90857227703E+02 0.  0.
         11    1    3    3    0    0 -0.43908721383E+02  0.55108227891E+01 -0.40965930822E+02  0.60303834619E+02  0.51100000000E-03 0. -1.
         22    1    1    0    0    0  0.24315555434E+02  0.76289862966E+01  0.14819388749E+02  0.29479856697E+02  0.00000000000E+00 0. -1.
</event>
<event>
 5    1  0.1681104E-003  0.9118800E+02  0.7818608E-02  0.1130116E+00
         25   -1    0    0    0    0  0.00000000000E+00  0.00000000000E+00  0.99999998245E-14  0.12500000000E+03  0.12500000000E+03 0.  0.
        -11    1    3    3    0    0  0.98981119451E+01  0.29148753049E+02 -0.15046461058E+02  0.34263952122E+02  0.51100000000E-03 0.  1.
         23    2    1    0    0    0 -0.15030392823E+02 -0.17157082643E+02  0.17623657776E+02  0.96175158168E+02  0.91753961996E+02 0.  0.
         11    1    3    3    0    0 -0.24928504768E+02 -0.46305835692E+02  0.32670118834E+02  0.61911206046E+02  0.51100000000E-03 0. -1.
         22    1    1    0    0    0  0.15030392823E+02  0.17157082643E+02 -0.17623657776E+02  0.28824841832E+02  0.00000000000E+00 0. -1.
</event>
<event>
 5    1  0.1681104E-003  0.9118800E+02  0.7818608E-02  0.1130116E+00
         25   -1    0    0    0    0  0.00000000000E+00  0.00000000000E+00  0.99999998245E-14  0.12500000000E+03  0.12500000000E+03 0.  0.
        -11    1    3    3    0    0 -0.52835939847E+02 -0.15303112864E+01  0.28326504510E+01  0.52933942806E+02  0.51100000000E-03 0.  1.
         23    2    1    0    0    0 -0.17258057807E+02 -0.24268219163E+02  0.17072250352E+01  0.95172133199E+02  0.90377172448E+02 0.  0.
         11    1    3    3    0    0  0.35577882040E+02 -0.22737907877E+02 -0.11254254158E+01  0.42238190393E+02  0.51100000000E-03 0. -1.
         22    1    1    0    0    0  0.17258057807E+02  0.24268219163E+02 -0.17072250352E+01  0.29827866801E+02  0.00000000000E+00 0. -1.
</event>
<event>
 5    1  0.1681104E-003  0.9118800E+02  0.7818608E-02  0.1130116E+00
         25   -1    0    0    0    0  0.00000000000E+00  0.00000000000E+00  0.99999998245E-14  0.12500000000E+03  0.12500000000E+03 0.  0.
        -11    1    3    3    0    0  0.42871204504E+02  0.27587439097E+02 -0.21604920019E+02  0.55369482035E+02  0.51100000000E-03 0. -1.
         23    2    1    0    0    0  0.37500066765E+02  0.18485434704E+02  0.39318705427E+01  0.83006834966E+02  0.71601038691E+02 0.  0.
         11    1    3    3    0    0 -0.53711377385E+01 -0.91020043937E+01  0.25536790562E+02  0.27637352931E+02  0.51100000000E-03 0.  1.
         22    1    1    0    0    0 -0.37500066765E+02 -0.18485434704E+02 -0.39318705427E+01  0.41993165034E+02  0.00000000000E+00 0. -1.
</event>
<event>
 5    1  0.1681104E-003  0.9118800E+02  0.7818608E-02  0.1130116E+00
         25   -1    0    0    0    0  0.00000000000E+00  0.00000000000E+00  0.99999998245E-14  0.12500000000E+03  0.12500000000E+03 0.  0.
        -11    1    3    3    0    0  0.44454678940E+01 -0.59080174590E+01  0.32518530028E+02  0.33348487979E+02  0.51100000000E-03 0.  1.
         23    2    1    0    0    0 -0.16185846681E+02  0.11880829500E+02 -0.22562224327E+02  0.94797521477E+02  0.89857555994E+02 0.  0.
         11    1    3    3    0    0 -0.20631314575E+02  0.17788846959E+02 -0.55080754354E+02  0.61449033497E+02  0.51100000000E-03 0. -1.
         22    1    1    0    0    0  0.16185846681E+02 -0.11880829500E+02  0.22562224327E+02  0.30202478523E+02  0.00000000000E+00 0. -1.
</event>
<event>
 5    1  0.1681104E-003  0.9118800E+02  0.7818608E-02  0.1130116E+00
         25   -1    0    0    0    0  0.00000000000E+00  0.00000000000E+00  0.99999998245E-14  0.12500000000E+03  0.12500000000E+03 0.  0.
        -11    1    3    3    0    0  0.36894831382E+02 -0.47409927235E+01  0.22315149886E+02  0.43378237740E+02  0.51100000000E-03 0. -1.
         23    2    1    0    0    0 -0.13137257552E+02  0.11779580837E+02  0.22924874060E+02  0.96070846688E+02  0.91611744181E+02 0.  0.
         11    1    3    3    0    0 -0.50032088935E+02  0.16520573560E+02  0.60972417447E+00  0.52692608948E+02  0.51100000000E-03 0.  1.
         22    1    1    0    0    0  0.13137257552E+02 -0.11779580837E+02 -0.22924874060E+02  0.28929153312E+02  0.00000000000E+00 0.  1.
</event>
<event>
 5    1  0.1681104E-003  0.9118800E+02  0.7818608E-02  0.1130116E+00
         25   -1    0    0    0    0  0.00000000000E+00  0.00000000000E+00  0.99999998245E-14  0.12500000000E+03  0.12500000000E+03 0.  0.
        -11    1    3    3    0    0 -0.81319300151E+01 -0.97705176297E+01 -0.28275113380E+02  0.31001182840E+02  0.51100000000E-03 0. -1.
         23    2    1    0    0    0  0.19290325591E+02 -0.20603072285E+02  0.21952786203E+02  0.89243489110E+02  0.81767183377E+02 0.  0.
         11    1    3    3    0    0  0.27422255606E+02 -0.10832554655E+02  0.50227899583E+02  0.58242306270E+02  0.51100000000E-03 0.  1.
         22    1    1    0    0    0 -0.19290325591E+02  0.20603072285E+02 -0.21952786203E+02  0.35756510890E+02  0.00000000000E+00 0.  1.
</event>
<event>
 5    1  0.1681104E-003  0.9118800E+02  0.7818608E-02  0.1130116E+00
         25   -1    0    0    0    0  0.00000000000E+00  0.00000000000E+00  0.99999998245E-14  0.12500000000E+03  0.12500000000E+03 0.  0.
        -11    1    3    3    0    0  0.63206985465E+01  0.89819699692E+01  0.34124280590E+02  0.35848201359E+02  0.51100000000E-03 0.  1.
         23    2    1    0    0    0 -0.20612797490E+02 -0.10173275216E+02 -0.16779741598E+02  0.96540508137E+02  0.92250349778E+02 0.  0.
         11    1    3    3    0    0 -0.26933496037E+02 -0.19155245185E+02 -0.50904022188E+02  0.60692306778E+02  0.51100000000E-03 0. -1.
         22    1    1    0    0    0  0.20612797490E+02  0.10173275216E+02  0.16779741598E+02  0.28459491863E+02  0.00000000000E+00 0. -1.
</event>
<event>
 5    1  0.1681104E-003  0.9118800E+02  0.7818608E-02  0.1130116E+00
         25   -1    0    0    0    0  0.00000000000E+00  0.00000000000E+00  0.99999998245E-14  0.12500000000E+03  0.12500000000E+03 0.  0.
        -11    1    3    3    0    0 -0.21773859548E+02 -0.37413745014E+01 -0.27527007914E+02  0.35296388026E+02  0.51100000000E-03 0.  1.
         23    2    1    0    0    0  0.22035769114E+02 -0.48430284057E+01  0.16216035150E+02  0.97215294845E+02  0.93160204547E+02 0.  0.
         11    1    3    3    0    0  0.43809628662E+02 -0.11016539043E+01  0.43743043064E+02  0.61918906818E+02  0.51100000000E-03 0. -1.
         22    1    1    0    0    0 -0.22035769114E+02  0.48430284057E+01 -0.16216035150E+02  0.27784705155E+02  0.00000000000E+00 0. -1.
</event>
<event>
 5    1  0.1681104E-003  0.9118800E+02  0.7818608E-02  0.1130116E+00
         25   -1    0    0    0    0  0.00000000000E+00  0.00000000000E+00  0.99999998245E-14  0.12500000000E+03  0.12500000000E+03 0.  0.
        -11    1    3    3    0    0  0.35974535075E+02  0.25922984001E+02  0.29827330149E+02  0.53440040208E+02  0.51100000000E-03 0.  1.
         23    2    1    0    0    0  0.80500903898E+01  0.26770782438E+02  0.33220307028E+02  0.81582635425E+02  0.69069956249E+02 0.  0.
         11    1    3    3    0    0 -0.27924444685E+02  0.84779843731E+00  0.33929768787E+01  0.28142595217E+02  0.51100000000E-03 0. -1.
         22    1    1    0    0    0 -0.80500903898E+01 -0.26770782438E+02 -0.33220307028E+02  0.43417364575E+02  0.00000000000E+00 0.  1.
</event>
<event>
 5    1  0.1681104E-003  0.9118800E+02  0.7818608E-02  0.1130116E+00
         25   -1    0    0    0    0  0.00000000000E+00  0.00000000000E+00  0.99999998245E-14  0.12500000000E+03  0.12500000000E+03 0.  0.
        -11    1    3    3    0    0  0.34939258502E+02  0.24080474922E+02 -0.44556953857E+02  0.61530018645E+02  0.51100000000E-03 0.  1.
         23    2    1    0    0    0  0.98546121602E+01  0.15028210847E+02 -0.22939627405E+02  0.95859186567E+02  0.91322487054E+02 0.  0.
         11    1    3    3    0    0 -0.25084646342E+02 -0.90522640755E+01  0.21617326452E+02  0.34329167922E+02  0.51100000000E-03 0. -1.
         22    1    1    0    0    0 -0.98546121602E+01 -0.15028210847E+02  0.22939627405E+02  0.29140813433E+02  0.00000000000E+00 0.  1.
</event>
<event>
 5    1  0.1681104E-003  0.9118800E+02  0.7818608E-02  0.1130116E+00
         25   -1    0    0    0    0  0.00000000000E+00  0.00000000000E+00  0.99999998245E-14  0.12500000000E+03  0.12500000000E+03 0.  0.
        -11    1    3    3    0    0  0.22216295828E+02  0.38365826502E+02  0.25108083697E+02  0.50950135532E+02  0.51100000000E-03 0. -1.
         23    2    1    0    0    0 -0.15630665120E+02  0.18684992588E+02  0.19131073046E+02  0.94025097321E+02  0.88776541554E+02 0.  0.
         11    1    3    3    0    0 -0.37846960948E+02 -0.19680833915E+02 -0.59770106510E+01  0.43074961789E+02  0.51100000000E-03 0.  1.
         22    1    1    0    0    0  0.15630665120E+02 -0.18684992588E+02 -0.19131073046E+02  0.30974902679E+02  0.00000000000E+00 0.  1.
</event>
<event>
 5    1  0.1681104E-003  0.9118800E+02  0.7818608E-02  0.1130116E+00
         25   -1    0    0    0    0  0.00000000000E+00  0.00000000000E+00  0.99999998245E-14  0.12500000000E+03  0.12500000000E+03 0.  0.
        -11    1    3    3    0    0 -0.68041228038E+01 -0.17668772205E+00  0.51528451974E+02  0.51976039372E+02  0.51100000000E-03 0.  1.
         23    2    1    0    0    0  0.21319806628E+02 -0.68109483197E+01  0.17701109972E+02  0.96464890645E+02  0.92147830475E+02 0.  0.
         11    1    3    3    0    0  0.28123929432E+02 -0.66342605977E+01 -0.33827342003E+02  0.44488851273E+02  0.51100000000E-03 0. -1.
         22    1    1    0    0    0 -0.21319806628E+02  0.68109483197E+01 -0.17701109972E+02  0.28535109355E+02  0.00000000000E+00 0.  1.
</event>
<event>
 5    1  0.1681104E-003  0.9118800E+02  0.7818608E-02  0.1130116E+00
         25   -1    0    0    0    0  0.00000000000E+00  0.00000000000E+00  0.99999998245E-14  0.12500000000E+03  0.12500000000E+03 0.  0.
        -11    1    3    3    0    0 -0.24025708419E+02 -0.33300234486E+02  0.36788687831E+02  0.55132094414E+02  0.51100000000E-03 0. -1.
         23    2    1    0    0    0  0.59853662916E+01 -0.22251949591E+02  0.28215433784E+01  0.10178502687E+03  0.99102253850E+02 0.  0.
         11    1    3    3    0    0  0.30011074711E+02  0.11048284895E+02 -0.33967144453E+02  0.46652932459E+02  0.51100000000E-03 0.  1.
         22    1    1    0    0    0 -0.59853662916E+01  0.22251949591E+02 -0.28215433784E+01  0.23214973127E+02  0.00000000000E+00 0. -1.
</event>
<event>
 5    1  0.1681104E-003  0.9118800E+02  0.7818608E-02  0.1130116E+00
         25   -1    0    0    0    0  0.00000000000E+00  0.00000000000E+00  0.99999998245E-14  0.12500000000E+03  0.12500000000E+03 0.  0.
        -11    1    3    3    0    0  0.22831862768E+02 -0.12605902014E+02 -0.33583214062E+02  0.42520994697E+02  0.51100000000E-03 0.  1.
         23    2    1    0    0    0 -0.12920756401E+01 -0.26457332983E+02  0.11998321246E+02  0.95920460101E+02  0.91406318300E+02 0.  0.
         11    1    3    3    0    0 -0.24123938408E+02 -0.13851430969E+02  0.45581535308E+02  0.53399465404E+02  0.51100000000E-03 0. -1.
         22    1    1    0    0    0  0.12920756401E+01  0.26457332983E+02 -0.11998321246E+02  0.29079539899E+02  0.00000000000E+00 0. -1.
</event>
<event>
 5    1  0.1681104E-003  0.9118800E+02  0.7818608E-02  0.1130116E+00
         25   -1    0    0    0    0  0.00000000000E+00  0.00000000000E+00  0.99999998245E-14  0.12500000000E+03  0.12500000000E+03 0.  0.
        -11    1    3    3    0    0 -0.22073294046E+02  0.34433594866E+02  0.16799428059E+02  0.44216779041E+02  0.51100000000E-03 0. -1.
         23    2    1    0    0    0 -0.54802418778E+01 -0.15073202645E+02  0.23173188384E+02  0.96817893107E+02  0.92625446163E+02 0.  0.
         11    1    3    3    0    0  0.16593052168E+02 -0.49506797511E+02  0.63737603251E+01  0.52601114066E+02  0.51100000000E-03 0.  1.
         22    1    1    0    0    0  0.54802418778E+01  0.15073202645E+02 -0.23173188384E+02  0.28182106893E+02  0.00000000000E+00 0.  1.
</event>
<event>
 4    1  0.1681104E-003  0.9118800E+02  0.7818608E-02  0.1130116E+00
         25   -1    0    0    0    0  0.00000000000E+00  0.00000000000E+00  0.99999998245E-14  0.12500000000E+03  0.12500000000E+03 0.  0.
        -11    1    1    0    0    0 -0.53390074254E+01 -0.20126611388E+02 -0.55341061242E+01  0.21545575349E+02  0.51100000000E-03 0.  1.
         11    1    1    0    0    0  0.49237254555E+02 -0.60669393951E+01 -0.87540962113E+01  0.50376077562E+02  0.51100000000E-03 0. -1.
         22    1    1    0    0    0 -0.43898247130E+02  0.26193550783E+02  0.14288202336E+02  0.53078347089E+02  0.00000000000E+00 0. -1.
</event>
<event>
 5    1  0.1681104E-003  0.9118800E+02  0.7818608E-02  0.1130116E+00
         25   -1    0    0    0    0  0.00000000000E+00  0.00000000000E+00  0.99999998245E-14  0.12500000000E+03  0.12500000000E+03 0.  0.
        -11    1    3    3    0    0 -0.51991831655E+02 -0.25205066206E+02 -0.17754333184E+02  0.60445531417E+02  0.51100000000E-03 0.  1.
         23    2    1    0    0    0 -0.34554796317E+02 -0.27315703511E+02 -0.91162080209E+01  0.80019038966E+02  0.66179753260E+02 0.  0.
         11    1    3    3    0    0  0.17437035337E+02 -0.21106373054E+01  0.86381251630E+01  0.19573507549E+02  0.51100000000E-03 0. -1.
         22    1    1    0    0    0  0.34554796317E+02  0.27315703511E+02  0.91162080209E+01  0.44980961034E+02  0.00000000000E+00 0.  1.
</event>
<event>
 5    1  0.1681104E-003  0.9118800E+02  0.7818608E-02  0.1130116E+00
         25   -1    0    0    0    0  0.00000000000E+00  0.00000000000E+00  0.99999998245E-14  0.12500000000E+03  0.12500000000E+03 0.  0.
        -11    1    3    3    0    0  0.27648186699E+02  0.63885871886E+01 -0.33700051370E+02  0.44055984118E+02  0.51100000000E-03 0. -1.
         23    2    1    0    0    0 -0.16126609085E+02  0.21612682051E+02 -0.90131197719E+01  0.96567415277E+02  0.92286801977E+02 0.  0.
         11    1    3    3    0    0 -0.43774795784E+02  0.15224094862E+02  0.24686931598E+02  0.52511431159E+02  0.51100000000E-03 0.  1.
         22    1    1    0    0    0  0.16126609085E+02 -0.21612682051E+02  0.90131197719E+01  0.28432584723E+02  0.00000000000E+00 0. -1.
</event>
<event>
 5    1  0.1681104E-003  0.9118800E+02  0.7818608E-02  0.1130116E+00
         25   -1    0    0    0    0  0.00000000000E+00  0.00000000000E+00  0.99999998245E-14  0.12500000000E+03  0.12500000000E+03 0.  0.
        -11    1    3    3    0    0 -0.10433594362E+01  0.29284957129E+02  0.29664055528E+02  0.41697164215E+02  0.51100000000E-03 0.  1.
         23    2    1    0    0    0 -0.27052624965E+02  0.83821073733E+01 -0.11279042948E+02  0.94515232471E+02  0.89464004592E+02 0.  0.
         11    1    3    3    0    0 -0.26009265529E+02 -0.20902849755E+02 -0.40943098476E+02  0.52818068256E+02  0.51100000000E-03 0. -1.
         22    1    1    0    0    0  0.27052624965E+02 -0.83821073733E+01  0.11279042948E+02  0.30484767529E+02  0.00000000000E+00 0. -1.
</event>
<event>
 5    1  0.1681104E-003  0.9118800E+02  0.7818608E-02  0.1130116E+00
         25   -1    0    0    0    0  0.00000000000E+00  0.00000000000E+00  0.99999998245E-14  0.12500000000E+03  0.12500000000E+03 0.  0.
        -11    1    3    3    0    0  0.23014922110E+02 -0.25514963892E+02  0.29612582971E+02  0.45360832142E+02  0.51100000000E-03 0.  1.
         23    2    1    0    0    0  0.17706630691E+02  0.20581328197E+02  0.14854107676E+02  0.94052296440E+02  0.88814830462E+02 0.  0.
         11    1    3    3    0    0 -0.53082914184E+01  0.46096292089E+02 -0.14758475295E+02  0.48691464298E+02  0.51100000000E-03 0. -1.
         22    1    1    0    0    0 -0.17706630691E+02 -0.20581328197E+02 -0.14854107676E+02  0.30947703560E+02  0.00000000000E+00 0.  1.
</event>
<event>
 5    1  0.1681104E-003  0.9118800E+02  0.7818608E-02  0.1130116E+00
         25   -1    0    0    0    0  0.00000000000E+00  0.00000000000E+00  0.99999998245E-14  0.12500000000E+03  0.12500000000E+03 0.  0.
        -11    1    3    3    0    0 -0.34386679916E+02 -0.48887507193E+02  0.24906677553E+01  0.59821697914E+02  0.51100000000E-03 0.  1.
         23    2    1    0    0    0 -0.77223566986E+01 -0.27088959585E+02 -0.78088119072E+01  0.95769466858E+02  0.91199598214E+02 0.  0.
         11    1    3    3    0    0  0.26664323217E+02  0.21798547608E+02 -0.10299479662E+02  0.35947768944E+02  0.51100000000E-03 0. -1.
         22    1    1    0    0    0  0.77223566986E+01  0.27088959585E+02  0.78088119072E+01  0.29230533142E+02  0.00000000000E+00 0.  1.
</event>
<event>
 5    1  0.1681104E-003  0.9118800E+02  0.7818608E-02  0.1130116E+00
         25   -1    0    0    0    0  0.00000000000E+00  0.00000000000E+00  0.99999998245E-14  0.12500000000E+03  0.12500000000E+03 0.  0.
        -11    1    3    3    0    0 -0.20740812522E+02 -0.28161941153E+02  0.90043999718E+01  0.36115861511E+02  0.51100000000E-03 0.  1.
         23    2    1    0    0    0 -0.96248600580E+01  0.27271164424E+02 -0.77074670438E+01  0.95070760310E+02  0.90236855429E+02 0.  0.
         11    1    3    3    0    0  0.11115952464E+02  0.55433105577E+02 -0.16711867016E+02  0.58954898800E+02  0.51100000000E-03 0. -1.
         22    1    1    0    0    0  0.96248600580E+01 -0.27271164424E+02  0.77074670438E+01  0.29929239690E+02  0.00000000000E+00 0. -1.
</event>
<event>
 5    1  0.1681104E-003  0.9118800E+02  0.7818608E-02  0.1130116E+00
         25   -1    0    0    0    0  0.00000000000E+00  0.00000000000E+00  0.99999998245E-14  0.12500000000E+03  0.12500000000E+03 0.  0.
        -11    1    3    3    0    0 -0.69534223418E+01 -0.35536174956E+02  0.38033237987E+02  0.52513779190E+02  0.51100000000E-03 0.  1.
         23    2    1    0    0    0  0.61843289104E+01 -0.28706991516E+02 -0.23643496422E+01  0.95539391805E+02  0.90883705642E+02 0.  0.
         11    1    3    3    0    0  0.13137751252E+02  0.68291834396E+01 -0.40397587629E+02  0.43025612615E+02  0.51100000000E-03 0. -1.
         22    1    1    0    0    0 -0.61843289104E+01  0.28706991516E+02  0.23643496422E+01  0.29460608195E+02  0.00000000000E+00 0.  1.
</event>
<event>
 5    1  0.1681104E-003  0.9118800E+02  0.7818608E-02  0.1130116E+00
         25   -1    0    0    0    0  0.00000000000E+00  0.00000000000E+00  0.99999998245E-14  0.12500000000E+03  0.12500000000E+03 0.  0.
        -11    1    3    3    0    0 -0.26426916161E+02  0.24038105314E+02 -0.94172142181E+00  0.35736525354E+02  0.51100000000E-03 0. -1.
         23    2    1    0    0    0  0.10581312210E+02 -0.18521191557E+02  0.19865203785E+02  0.95851671983E+02  0.91312200694E+02 0.  0.
         11    1    3    3    0    0  0.37008228371E+02 -0.42559296871E+02  0.20806925207E+02  0.60115146629E+02  0.51100000000E-03 0.  1.
         22    1    1    0    0    0 -0.10581312210E+02  0.18521191557E+02 -0.19865203785E+02  0.29148328017E+02  0.00000000000E+00 0.  1.
</event>
<event>
 5    1  0.1681104E-003  0.9118800E+02  0.7818608E-02  0.1130116E+00
         25   -1    0    0    0    0  0.00000000000E+00  0.00000000000E+00  0.99999998245E-14  0.12500000000E+03  0.12500000000E+03 0.  0.
        -11    1    3    3    0    0 -0.30925246306E+02  0.21498828074E+02 -0.44509606347E+02  0.58306736532E+02  0.51100000000E-03 0. -1.
         23    2    1    0    0    0 -0.27485212993E+02  0.29518519961E+01 -0.14416208245E+02  0.93823447534E+02  0.88492157186E+02 0.  0.
         11    1    3    3    0    0  0.34400333127E+01 -0.18546976078E+02  0.30093398101E+02  0.35516711002E+02  0.51100000000E-03 0.  1.
         22    1    1    0    0    0  0.27485212993E+02 -0.29518519961E+01  0.14416208245E+02  0.31176552466E+02  0.00000000000E+00 0. -1.
</event>
<event>
 5    1  0.1681104E-003  0.9118800E+02  0.7818608E-02  0.1130116E+00
         25   -1    0    0    0    0  0.00000000000E+00  0.00000000000E+00  0.99999998245E-14  0.12500000000E+03  0.12500000000E+03 0.  0.
        -11    1    3    3    0    0  0.20749483926E+02  0.54517628117E+02  0.36607572984E+01  0.58447532052E+02  0.51100000000E-03 0.  1.
         23    2    1    0    0    0  0.12535003404E+02  0.21261235179E+02  0.16807310845E+02  0.95139455305E+02  0.90331964587E+02 0.  0.
         11    1    3    3    0    0 -0.82144805228E+01 -0.33256392939E+02  0.13146553546E+02  0.36691923252E+02  0.51100000000E-03 0. -1.
         22    1    1    0    0    0 -0.12535003404E+02 -0.21261235179E+02 -0.16807310845E+02  0.29860544695E+02  0.00000000000E+00 0.  1.
</event>
<event>
 5    1  0.1681104E-003  0.9118800E+02  0.7818608E-02  0.1130116E+00
         25   -1    0    0    0    0  0.00000000000E+00  0.00000000000E+00  0.99999998245E-14  0.12500000000E+03  0.12500000000E+03 0.  0.
        -11    1    3    3    0    0  0.56896316771E+02 -0.18587309603E+02 -0.10166129579E+02  0.60712676858E+02  0.51100000000E-03 0.  1.
         23    2    1    0    0    0  0.22521740178E+02 -0.15760506532E+02 -0.11437892722E+02  0.95226727814E+02  0.90452650339E+02 0.  0.
         11    1    3    3    0    0 -0.34374576594E+02  0.28268030716E+01 -0.12717631433E+01  0.34514050955E+02  0.51100000000E-03 0. -1.
         22    1    1    0    0    0 -0.22521740178E+02  0.15760506532E+02  0.11437892722E+02  0.29773272186E+02  0.00000000000E+00 0.  1.
</event>
<event>
 5    1  0.1681104E-003  0.9118800E+02  0.7818608E-02  0.1130116E+00
         25   -1    0    0    0    0  0.00000000000E+00  0.00000000000E+00  0.99999998245E-14  0.12500000000E+03  0.12500000000E+03 0.  0.
        -11    1    3    3    0    0  0.90830761247E+01 -0.32768820762E+02 -0.18430115505E+02  0.38677733178E+02  0.51100000000E-03 0.  1.
         23    2    1    0    0    0  0.53623802251E+01  0.21590938173E+02 -0.22553664136E+02  0.93320487712E+02  0.87778823915E+02 0.  0.
         11    1    3    3    0    0 -0.37206958996E+01  0.54359758935E+02 -0.41235486310E+01  0.54642754534E+02  0.51100000000E-03 0. -1.
         22    1    1    0    0    0 -0.53623802251E+01 -0.21590938173E+02  0.22553664136E+02  0.31679512288E+02  0.00000000000E+00 0. -1.
</event>
<event>
 5    1  0.1681104E-003  0.9118800E+02  0.7818608E-02  0.1130116E+00
         25   -1    0    0    0    0  0.00000000000E+00  0.00000000000E+00  0.99999998245E-14  0.12500000000E+03  0.12500000000E+03 0.  0.
        -11    1    3    3    0    0  0.37243417477E+02  0.36716081468E+02  0.10937043805E+02  0.53429970159E+02  0.51100000000E-03 0. -1.
         23    2    1    0    0    0  0.11865080571E+02  0.19568575571E+02 -0.18243302700E+02  0.95733510969E+02  0.91150303029E+02 0.  0.
         11    1    3    3    0    0 -0.25378336906E+02 -0.17147505897E+02 -0.29180346505E+02  0.42303540810E+02  0.51100000000E-03 0.  1.
         22    1    1    0    0    0 -0.11865080571E+02 -0.19568575571E+02  0.18243302700E+02  0.29266489031E+02  0.00000000000E+00 0. -1.
</event>
<event>
 5    1  0.1681104E-003  0.9118800E+02  0.7818608E-02  0.1130116E+00
         25   -1    0    0    0    0  0.00000000000E+00  0.00000000000E+00  0.99999998245E-14  0.12500000000E+03  0.12500000000E+03 0.  0.
        -11    1    3    3    0    0 -0.45121306960E+02 -0.17063251231E+01  0.34048537657E+02  0.56552160030E+02  0.51100000000E-03 0.  1.
         23    2    1    0    0    0 -0.10235067797E+02  0.11473189117E+02  0.26139003213E+02  0.94674463396E+02  0.89686207686E+02 0.  0.
         11    1    3    3    0    0  0.34886239163E+02  0.13179514240E+02 -0.79095344444E+01  0.38122303366E+02  0.51100000000E-03 0. -1.
         22    1    1    0    0    0  0.10235067797E+02 -0.11473189117E+02 -0.26139003213E+02  0.30325536604E+02  0.00000000000E+00 0.  1.
</event>
<event>
 5    1  0.1681104E-003  0.9118800E+02  0.7818608E-02  0.1130116E+00
         25   -1    0    0    0    0  0.00000000000E+00  0.00000000000E+00  0.99999998245E-14  0.12500000000E+03  0.12500000000E+03 0.  0.
        -11    1    3    3    0    0  0.35587819606E+02 -0.45917580395E+01 -0.21549867942E+02  0.41856587950E+02  0.51100000000E-03 0. -1.
         23    2    1    0    0    0 -0.10201058785E+02 -0.27183267511E+02 -0.49447360710E+01  0.95547630864E+02  0.90895036806E+02 0.  0.
         11    1    3    3    0    0 -0.45788878391E+02 -0.22591509471E+02  0.16605131871E+02  0.53691042914E+02  0.51100000000E-03 0.  1.
         22    1    1    0    0    0  0.10201058785E+02  0.27183267511E+02  0.49447360710E+01  0.29452369136E+02  0.00000000000E+00 0.  1.
</event>
<event>
 5    1  0.1681104E-003  0.9118800E+02  0.7818608E-02  0.1130116E+00
         25   -1    0    0    0    0  0.00000000000E+00  0.00000000000E+00  0.99999998245E-14  0.12500000000E+03  0.12500000000E+03 0.  0.
        -11    1    3    3    0    0 -0.32728536466E+02  0.88952719467E+01  0.13475485356E+02  0.36494817003E+02  0.51100000000E-03 0.  1.
         23    2    1    0    0    0  0.69354180381E+01 -0.11888822687E+01 -0.28810718724E+02  0.95342438101E+02  0.90612413748E+02 0.  0.
         11    1    3    3    0    0  0.39663954504E+02 -0.10084154215E+02 -0.42286204080E+02  0.58847621098E+02  0.51100000000E-03 0. -1.
         22    1    1    0    0    0 -0.69354180381E+01  0.11888822687E+01  0.28810718724E+02  0.29657561899E+02  0.00000000000E+00 0. -1.
</event>
<event>
 5    1  0.1681104E-003  0.9118800E+02  0.7818608E-02  0.1130116E+00
         25   -1    0    0    0    0  0.00000000000E+00  0.00000000000E+00  0.99999998245E-14  0.12500000000E+03  0.12500000000E+03 0.  0.
        -11    1    3    3    0    0  0.34858412341E+02  0.32606786723E+02  0.32298407347E+01  0.47840812313E+02  0.51100000000E-03 0.  1.
         23    2    1    0    0    0  0.36189657387E+02  0.28988669898E+01 -0.18095649998E+02  0.84434654193E+02  0.74051762627E+02 0.  0.
         11    1    3    3    0    0  0.13312450457E+01 -0.29707919733E+02 -0.21325490733E+02  0.36593841880E+02  0.51100000000E-03 0. -1.
         22    1    1    0    0    0 -0.36189657387E+02 -0.28988669898E+01  0.18095649998E+02  0.40565345807E+02  0.00000000000E+00 0. -1.
</event>
<event>
 5    1  0.1681104E-003  0.9118800E+02  0.7818608E-02  0.1130116E+00
         25   -1    0    0    0    0  0.00000000000E+00  0.00000000000E+00  0.99999998245E-14  0.12500000000E+03  0.12500000000E+03 0.  0.
        -11    1    3    3    0    0  0.13238308703E+02  0.60254339047E+02 -0.90288091914E+01  0.62348677508E+02  0.51100000000E-03 0.  1.
         23    2    1    0    0    0  0.88435065002E+01  0.27501524100E+02 -0.28083190808E+01  0.95975388184E+02  0.91481402733E+02 0.  0.
         11    1    3    3    0    0 -0.43948022031E+01 -0.32752814948E+02  0.62204901106E+01  0.33626710676E+02  0.51100000000E-03 0. -1.
         22    1    1    0    0    0 -0.88435065002E+01 -0.27501524100E+02  0.28083190808E+01  0.29024611816E+02  0.00000000000E+00 0.  1.
</event>
<event>
 5    1  0.1681104E-003  0.9118800E+02  0.7818608E-02  0.1130116E+00
         25   -1    0    0    0    0  0.00000000000E+00  0.00000000000E+00  0.99999998245E-14  0.12500000000E+03  0.12500000000E+03 0.  0.
        -11    1    3    3    0    0  0.29886009031E+02 -0.41853085768E+02  0.13867166822E+02  0.53264928800E+02  0.51100000000E-03 0. -1.
         23    2    1    0    0    0 -0.29316104381E+01 -0.26353104368E+02 -0.99534880303E+01  0.96677705362E+02  0.92436066233E+02 0.  0.
         11    1    3    3    0    0 -0.32817619470E+02  0.15499981400E+02 -0.23820654852E+02  0.43412776563E+02  0.51100000000E-03 0.  1.
         22    1    1    0    0    0  0.29316104381E+01  0.26353104368E+02  0.99534880303E+01  0.28322294638E+02  0.00000000000E+00 0. -1.
</event>
<event>
 5    1  0.1681104E-003  0.9118800E+02  0.7818608E-02  0.1130116E+00
         25   -1    0    0    0    0  0.00000000000E+00  0.00000000000E+00  0.99999998245E-14  0.12500000000E+03  0.12500000000E+03 0.  0.
        -11    1    3    3    0    0 -0.52161871582E+02 -0.14661203225E+02  0.24781656502E+02  0.59581391610E+02  0.51100000000E-03 0. -1.
         23    2    1    0    0    0 -0.17000344584E+02 -0.17554873778E+02  0.15497304266E+02  0.96062969246E+02  0.91600995144E+02 0.  0.
         11    1    3    3    0    0  0.35161526998E+02 -0.28936705532E+01 -0.92843522360E+01  0.36481577636E+02  0.51100000000E-03 0.  1.
         22    1    1    0    0    0  0.17000344584E+02  0.17554873778E+02 -0.15497304266E+02  0.28937030754E+02  0.00000000000E+00 0. -1.
</event>
<event>
 5    1  0.1681104E-003  0.9118800E+02  0.7818608E-02  0.1130116E+00
         25   -1    0    0    0    0  0.00000000000E+00  0.00000000000E+00  0.99999998245E-14  0.12500000000E+03  0.12500000000E+03 0.  0.
        -11    1    3    3    0    0 -0.52731187548E+01  0.33091023559E+02  0.24733918464E+02  0.41648389457E+02  0.51100000000E-03 0.  1.
         23    2    1    0    0    0 -0.26638813730E+02 -0.12053113226E+02  0.50691893301E+01  0.95325084400E+02  0.90588471121E+02 0.  0.
         11    1    3    3    0    0 -0.21365694975E+02 -0.45144136785E+02 -0.19664729134E+02  0.53676694943E+02  0.51100000000E-03 0. -1.
         22    1    1    0    0    0  0.26638813730E+02  0.12053113226E+02 -0.50691893301E+01  0.29674915600E+02  0.00000000000E+00 0. -1.
</event>
<event>
 5    1  0.1681104E-003  0.9118800E+02  0.7818608E-02  0.1130116E+00
         25   -1    0    0    0    0  0.00000000000E+00  0.00000000000E+00  0.99999998245E-14  0.12500000000E+03  0.12500000000E+03 0.  0.
        -11    1    3    3    0    0 -0.14819217936E+02 -0.11954343038E+02 -0.35839142569E+02  0.40582750992E+02  0.51100000000E-03 0. -1.
         23    2    1    0    0    0 -0.92753974542E+01 -0.15813578676E+02  0.20599335296E+02  0.97424016189E+02  0.93439841863E+02 0.  0.
         11    1    3    3    0    0  0.55438204821E+01 -0.38592356386E+01  0.56438477865E+02  0.56841265198E+02  0.51100000000E-03 0.  1.
         22    1    1    0    0    0  0.92753974542E+01  0.15813578676E+02 -0.20599335296E+02  0.27575983811E+02  0.00000000000E+00 0.  1.
</event>
<event>
 4    1  0.1681104E-003  0.9118800E+02  0.7818608E-02  0.1130116E+00
         25   -1    0    0    0    0  0.00000000000E+00  0.00000000000E+00  0.99999998245E-14  0.12500000000E+03  0.12500000000E+03 0.  0.
        -11    1    1    0    0    0  0.38138411091E+02 -0.17530936623E+02 -0.16170934474E+02  0.44981899265E+02  0.51100000000E-03 0.  1.
         11    1    1    0    0    0  0.16831111333E+02  0.15585548343E+02  0.85882964501E+01  0.24493967870E+02  0.51100000000E-03 0. -1.
         22    1    1    0    0    0 -0.54969522424E+02  0.19453882797E+01  0.75826380236E+01  0.55524132866E+02  0.00000000000E+00 0.  1.
</event>
<event>
 5    1  0.1681104E-003  0.9118800E+02  0.7818608E-02  0.1130116E+00
         25   -1    0    0    0    0  0.00000000000E+00  0.00000000000E+00  0.99999998245E-14  0.12500000000E+03  0.12500000000E+03 0.  0.
        -11    1    3    3    0    0 -0.96241888040E+00 -0.89498185091E+01 -0.35488621803E+02  0.36612399254E+02  0.51100000000E-03 0.  1.
         23    2    1    0    0    0 -0.70939066844E+01 -0.19323519265E+02  0.21719447654E+02  0.95075823900E+02  0.90243869460E+02 0.  0.
         11    1    3    3    0    0 -0.61314878040E+01 -0.10373700756E+02  0.57208069457E+02  0.58463424646E+02  0.51100000000E-03 0. -1.
         22    1    1    0    0    0  0.70939066844E+01  0.19323519265E+02 -0.21719447654E+02  0.29924176100E+02  0.00000000000E+00 0. -1.
</event>
<event>
 5    1  0.1681104E-003  0.9118800E+02  0.7818608E-02  0.1130116E+00
         25   -1    0    0    0    0  0.00000000000E+00  0.00000000000E+00  0.99999998245E-14  0.12500000000E+03  0.12500000000E+03 0.  0.
        -11    1    3    3    0    0  0.28614723575E+02 -0.37612017425E+02  0.21993833914E+02  0.52126720504E+02  0.51100000000E-03 0. -1.
         23    2    1    0    0    0 -0.22093002950E+01 -0.79182158696E+01  0.28427627165E+02  0.95407616916E+02  0.90702283483E+02 0.  0.
         11    1    3    3    0    0 -0.30824023870E+02  0.29693801556E+02  0.64337932511E+01  0.43280896412E+02  0.51100000000E-03 0.  1.
         22    1    1    0    0    0  0.22093002950E+01  0.79182158696E+01 -0.28427627165E+02  0.29592383084E+02  0.00000000000E+00 0. -1.
</event>
<event>
 5    1  0.1681104E-003  0.9118800E+02  0.7818608E-02  0.1130116E+00
         25   -1    0    0    0    0  0.00000000000E+00  0.00000000000E+00  0.99999998245E-14  0.12500000000E+03  0.12500000000E+03 0.  0.
        -11    1    3    3    0    0 -0.53197888118E+02  0.21343712401E+02 -0.95587866490E+01  0.58111442606E+02  0.51100000000E-03 0.  1.
         23    2    1    0    0    0 -0.26005128152E+02  0.84433394828E+01  0.12007476517E+02  0.95138048219E+02  0.90330017463E+02 0.  0.
         11    1    3    3    0    0  0.27192759966E+02 -0.12900372919E+02  0.21566263167E+02  0.37026605613E+02  0.51100000000E-03 0. -1.
         22    1    1    0    0    0  0.26005128152E+02 -0.84433394828E+01 -0.12007476517E+02  0.29861951781E+02  0.00000000000E+00 0.  1.
</event>
<event>
 5    1  0.1681104E-003  0.9118800E+02  0.7818608E-02  0.1130116E+00
         25   -1    0    0    0    0  0.00000000000E+00  0.00000000000E+00  0.99999998245E-14  0.12500000000E+03  0.12500000000E+03 0.  0.
        -11    1    3    3    0    0 -0.41429440414E+02 -0.38997269684E+01  0.37183456940E+02  0.55805159920E+02  0.51100000000E-03 0.  1.
         23    2    1    0    0    0 -0.19372510099E+02  0.18562420588E+02  0.15773900014E+02  0.93876479516E+02  0.88567036075E+02 0.  0.
         11    1    3    3    0    0  0.22056930315E+02  0.22462147557E+02 -0.21409556926E+02  0.38071319596E+02  0.51100000000E-03 0. -1.
         22    1    1    0    0    0  0.19372510099E+02 -0.18562420588E+02 -0.15773900014E+02  0.31123520484E+02  0.00000000000E+00 0.  1.
</event>
<event>
 5    1  0.1681104E-003  0.9118800E+02  0.7818608E-02  0.1130116E+00
         25   -1    0    0    0    0  0.00000000000E+00  0.00000000000E+00  0.99999998245E-14  0.12500000000E+03  0.12500000000E+03 0.  0.
        -11    1    3    3    0    0  0.28155176590E+02 -0.76852591479E+00  0.25150246811E+02  0.37760290197E+02  0.51100000000E-03 0.  1.
         23    2    1    0    0    0 -0.97096295368E+01  0.26427019374E+02 -0.88799358981E+01  0.95478524422E+02  0.90799951022E+02 0.  0.
         11    1    3    3    0    0 -0.37864806127E+02  0.27195545289E+02 -0.34030182709E+02  0.57718234225E+02  0.51100000000E-03 0. -1.
         22    1    1    0    0    0  0.97096295368E+01 -0.26427019374E+02  0.88799358981E+01  0.29521475578E+02  0.00000000000E+00 0. -1.
</event>
<event>
 5    1  0.1681104E-003  0.9118800E+02  0.7818608E-02  0.1130116E+00
         25   -1    0    0    0    0  0.00000000000E+00  0.00000000000E+00  0.99999998245E-14  0.12500000000E+03  0.12500000000E+03 0.  0.
        -11    1    3    3    0    0 -0.32345305081E+02  0.12160766935E+02 -0.13792132511E+02  0.37206530780E+02  0.51100000000E-03 0.  1.
         23    2    1    0    0    0  0.13830977165E+02  0.16670090544E+02  0.20715261522E+02  0.95028181436E+02  0.90177854039E+02 0.  0.
         11    1    3    3    0    0  0.46176282246E+02  0.45093236097E+01  0.34507394033E+02  0.57821650657E+02  0.51100000000E-03 0. -1.
         22    1    1    0    0    0 -0.13830977165E+02 -0.16670090544E+02 -0.20715261522E+02  0.29971818564E+02  0.00000000000E+00 0. -1.
</event>
<event>
 5    1  0.1681104E-003  0.9118800E+02  0.7818608E-02  0.1130116E+00
         25   -1    0    0    0    0  0.00000000000E+00  0.00000000000E+00  0.99999998245E-14  0.12500000000E+03  0.12500000000E+03 0.  0.
        -11    1    3    3    0    0 -0.15584731253E+02 -0.82574307459E+01 -0.51324882351E+02  0.54270733912E+02  0.51100000000E-03 0.  1.
         23    2    1    0    0    0  0.38590713490E+01 -0.22871906410E+02 -0.17450255199E+02  0.95973668144E+02  0.91479052444E+02 0.  0.
         11    1    3    3    0    0  0.19443802602E+02 -0.14614475664E+02  0.33874627152E+02  0.41702934232E+02  0.51100000000E-03 0. -1.
         22    1    1    0    0    0 -0.38590713490E+01  0.22871906410E+02  0.17450255199E+02  0.29026331856E+02  0.00000000000E+00 0. -1.
</event>
<event>
 5    1  0.1681104E-003  0.9118800E+02  0.7818608E-02  0.1130116E+00
         25   -1    0    0    0    0  0.00000000000E+00  0.00000000000E+00  0.99999998245E-14  0.12500000000E+03  0.12500000000E+03 0.  0.
        -11    1    3    3    0    0 -0.30631639472E+02  0.59041929818E+01  0.93639829762E+01  0.32570554324E+02  0.51100000000E-03 0.  1.
         23    2    1    0    0    0  0.21894905080E+02  0.26408917913E+02  0.10980792335E+02  0.88980621687E+02  0.81364337530E+02 0.  0.
         11    1    3    3    0    0  0.52526544552E+02  0.20504724931E+02  0.16168093586E+01  0.56410067363E+02  0.51100000000E-03 0. -1.
         22    1    1    0    0    0 -0.21894905080E+02 -0.26408917913E+02 -0.10980792335E+02  0.36019378313E+02  0.00000000000E+00 0. -1.
</event>
<event>
 5    1  0.1681104E-003  0.9118800E+02  0.7818608E-02  0.1130116E+00
         25   -1    0    0    0    0  0.00000000000E+00  0.00000000000E+00  0.99999998245E-14  0.12500000000E+03  0.12500000000E+03 0.  0.
        -11    1    3    3    0    0  0.34428241627E+02 -0.10963798486E+02 -0.47207369768E+01  0.36438908554E+02  0.51100000000E-03 0. -1.
         23    2    1    0    0    0 -0.26290582250E+02 -0.15228001739E+01  0.34962307402E+01  0.98434284033E+02  0.94781701864E+02 0.  0.
         11    1    3    3    0    0 -0.60718823877E+02  0.94409983116E+01  0.82169677170E+01  0.61995375479E+02  0.51100000000E-03 0.  1.
         22    1    1    0    0    0  0.26290582250E+02  0.15228001739E+01 -0.34962307402E+01  0.26565715967E+02  0.00000000000E+00 0.  1.
</event>
<event>
 5    1  0.1681104E-003  0.9118800E+02  0.7818608E-02  0.1130116E+00
         25   -1    0    0    0    0  0.00000000000E+00  0.00000000000E+00  0.99999998245E-14  0.12500000000E+03  0.12500000000E+03 0.  0.
        -11    1    3    3    0    0 -0.22295044675E+02  0.28033526449E+02  0.45485920844E+02  0.57895739200E+02  0.51100000000E-03 0. -1.
         23    2    1    0    0    0 -0.21999147926E+02  0.15931515361E+02  0.89241257248E+01  0.96409517123E+02  0.92072684770E+02 0.  0.
         11    1    3    3    0    0  0.29589674840E+00 -0.12102011088E+02 -0.36561795120E+02  0.38513777923E+02  0.51100000000E-03 0.  1.
         22    1    1    0    0    0  0.21999147926E+02 -0.15931515361E+02 -0.89241257248E+01  0.28590482877E+02  0.00000000000E+00 0. -1.
</event>
<event>
 5    1  0.1681104E-003  0.9118800E+02  0.7818608E-02  0.1130116E+00
         25   -1    0    0    0    0  0.00000000000E+00  0.00000000000E+00  0.99999998245E-14  0.12500000000E+03  0.12500000000E+03 0.  0.
        -11    1    3    3    0    0  0.49458664240E+02  0.98292166307E+01  0.93435100515E+01  0.51284248540E+02  0.51100000000E-03 0.  1.
         23    2    1    0    0    0  0.15878268978E+02  0.16440368139E+02 -0.18650708968E+02  0.95499930927E+02  0.90829415565E+02 0.  0.
         11    1    3    3    0    0 -0.33580395262E+02  0.66111515084E+01 -0.27994219020E+02  0.44215682387E+02  0.51100000000E-03 0. -1.
         22    1    1    0    0    0 -0.15878268978E+02 -0.16440368139E+02  0.18650708968E+02  0.29500069073E+02  0.00000000000E+00 0. -1.
</event>
<event>
 5    1  0.1681104E-003  0.9118800E+02  0.7818608E-02  0.1130116E+00
         25   -1    0    0    0    0  0.00000000000E+00  0.00000000000E+00  0.99999998245E-14  0.12500000000E+03  0.12500000000E+03 0.  0.
        -11    1    3    3    0    0 -0.41394979830E+02  0.99401213374E+01  0.35935382529E+02  0.55710879414E+02  0.51100000000E-03 0. -1.
         23    2    1    0    0    0 -0.25889899196E+02  0.58552989232E+01 -0.34480665139E+01  0.98233218935E+02  0.94516161231E+02 0.  0.
         11    1    3    3    0    0  0.15505080633E+02 -0.40848224142E+01 -0.39383449043E+02  0.42522339521E+02  0.51100000000E-03 0.  1.
         22    1    1    0    0    0  0.25889899196E+02 -0.58552989232E+01  0.34480665139E+01  0.26766781065E+02  0.00000000000E+00 0. -1.
</event>
<event>
 5    1  0.1681104E-003  0.9118800E+02  0.7818608E-02  0.1130116E+00
         25   -1    0    0    0    0  0.00000000000E+00  0.00000000000E+00  0.99999998245E-14  0.12500000000E+03  0.12500000000E+03 0.  0.
        -11    1    3    3    0    0 -0.20876871368E+02 -0.41488763504E+02  0.35953128839E+02  0.58734902134E+02  0.51100000000E-03 0.  1.
         23    2    1    0    0    0 -0.13512840975E+02 -0.60627533037E+01  0.23918911179E+02  0.96866956069E+02  0.92691634020E+02 0.  0.
         11    1    3    3    0    0  0.73640303928E+01  0.35426010200E+02 -0.12034217660E+02  0.38132053935E+02  0.51100000000E-03 0. -1.
         22    1    1    0    0    0  0.13512840975E+02  0.60627533037E+01 -0.23918911179E+02  0.28133043931E+02  0.00000000000E+00 0.  1.
</event>
<event>
 5    1  0.1681104E-003  0.9118800E+02  0.7818608E-02  0.1130116E+00
         25   -1    0    0    0    0  0.00000000000E+00  0.00000000000E+00  0.99999998245E-14  0.12500000000E+03  0.12500000000E+03 0.  0.
        -11    1    3    3    0    0  0.19002559289E+02 -0.29294298351E+02  0.44927110446E+02  0.56900777048E+02  0.51100000000E-03 0. -1.
         23    2    1    0    0    0 -0.78021698799E+01 -0.22003550389E+02  0.18986664117E+02  0.94908082500E+02  0.90011224994E+02 0.  0.
         11    1    3    3    0    0 -0.26804729169E+02  0.72907479621E+01 -0.25940446330E+02  0.38007305452E+02  0.51100000000E-03 0.  1.
         22    1    1    0    0    0  0.78021698799E+01  0.22003550389E+02 -0.18986664117E+02  0.30091917500E+02  0.00000000000E+00 0. -1.
</event>
<event>
 5    1  0.1681104E-003  0.9118800E+02  0.7818608E-02  0.1130116E+00
         25   -1    0    0    0    0  0.00000000000E+00  0.00000000000E+00  0.99999998245E-14  0.12500000000E+03  0.12500000000E+03 0.  0.
        -11    1    3    3    0    0  0.25028466076E+02 -0.26749361204E+02 -0.76159074196E+01  0.37415965643E+02  0.51100000000E-03 0. -1.
         23    2    1    0    0    0 -0.37194604389E+01  0.26469979925E+02 -0.34744610981E+01  0.98045109848E+02  0.94267053958E+02 0.  0.
         11    1    3    3    0    0 -0.28747926515E+02  0.53219341129E+02  0.41414463215E+01  0.60629144205E+02  0.51100000000E-03 0.  1.
         22    1    1    0    0    0  0.37194604389E+01 -0.26469979925E+02  0.34744610981E+01  0.26954890152E+02  0.00000000000E+00 0.  1.
</event>
<event>
 5    1  0.1681104E-003  0.9118800E+02  0.7818608E-02  0.1130116E+00
         25   -1    0    0    0    0  0.00000000000E+00  0.00000000000E+00  0.99999998245E-14  0.12500000000E+03  0.12500000000E+03 0.  0.
        -11    1    3    3    0    0  0.60128060391E+02  0.80185645308E+01 -0.14692011866E+02  0.62414231041E+02  0.51100000000E-03 0. -1.
         23    2    1    0    0    0  0.27724476568E+02  0.19370291381E+01 -0.51691898921E+01  0.96731303408E+02  0.92508517727E+02 0.  0.
         11    1    3    3    0    0 -0.32403583823E+02 -0.60815353926E+01  0.95228219740E+01  0.34317072368E+02  0.51100000000E-03 0.  1.
         22    1    1    0    0    0 -0.27724476568E+02 -0.19370291381E+01  0.51691898921E+01  0.28268696592E+02  0.00000000000E+00 0. -1.
</event>
<event>
 5    1  0.1681104E-003  0.9118800E+02  0.7818608E-02  0.1130116E+00
         25   -1    0    0    0    0  0.00000000000E+00  0.00000000000E+00  0.99999998245E-14  0.12500000000E+03  0.12500000000E+03 0.  0.
        -11    1    3    3    0    0 -0.13346785787E+02  0.49770201759E+02 -0.42281960039E+01  0.51701908240E+02  0.51100000000E-03 0.  1.
         23    2    1    0    0    0  0.19130361189E+02  0.26396037148E+02  0.26112441905E+01  0.92296176178E+02  0.86307844629E+02 0.  0.
         11    1    3    3    0    0  0.32477146976E+02 -0.23374164611E+02  0.68394401944E+01  0.40594267938E+02  0.51100000000E-03 0. -1.
         22    1    1    0    0    0 -0.19130361189E+02 -0.26396037148E+02 -0.26112441905E+01  0.32703823822E+02  0.00000000000E+00 0.  1.
</event>
<event>
 5    1  0.1681104E-003  0.9118800E+02  0.7818608E-02  0.1130116E+00
         25   -1    0    0    0    0  0.00000000000E+00  0.00000000000E+00  0.99999998245E-14  0.12500000000E+03  0.12500000000E+03 0.  0.
        -11    1    3    3    0    0 -0.54534671271E+01  0.35792234576E+02 -0.85950462233E+01  0.37211546319E+02  0.51100000000E-03 0. -1.
         23    2    1    0    0    0  0.27294516450E+02 -0.11524333690E+02 -0.14867107271E+00  0.95371922129E+02  0.90653077897E+02 0.  0.
         11    1    3    3    0    0  0.32747983577E+02 -0.47316568266E+02  0.84463751506E+01  0.58160375809E+02  0.51100000000E-03 0.  1.
         22    1    1    0    0    0 -0.27294516450E+02  0.11524333690E+02  0.14867107271E+00  0.29628077871E+02  0.00000000000E+00 0.  1.
</event>
<event>
 5    1  0.1681104E-003  0.9118800E+02  0.7818608E-02  0.1130116E+00
         25   -1    0    0    0    0  0.00000000000E+00  0.00000000000E+00  0.99999998245E-14  0.12500000000E+03  0.12500000000E+03 0.  0.
        -11    1    3    3    0    0 -0.29720155534E+02  0.39642209678E+02  0.32292248668E+02  0.59140356419E+02  0.51100000000E-03 0. -1.
         23    2    1    0    0    0 -0.12102136546E+02  0.26734586953E+02  0.32558393777E+01  0.95473734768E+02  0.90793357091E+02 0.  0.
         11    1    3    3    0    0  0.17618018987E+02 -0.12907622725E+02 -0.29036409291E+02  0.36333378348E+02  0.51100000000E-03 0.  1.
         22    1    1    0    0    0  0.12102136546E+02 -0.26734586953E+02 -0.32558393777E+01  0.29526265232E+02  0.00000000000E+00 0. -1.
</event>
<event>
 5    1  0.1681104E-003  0.9118800E+02  0.7818608E-02  0.1130116E+00
         25   -1    0    0    0    0  0.00000000000E+00  0.00000000000E+00  0.99999998245E-14  0.12500000000E+03  0.12500000000E+03 0.  0.
        -11    1    3    3    0    0 -0.87035054124E+01 -0.18996873269E+02 -0.35745361468E+02  0.41404867675E+02  0.51100000000E-03 0.  1.
         23    2    1    0    0    0 -0.12468513858E+02 -0.16741144462E+02  0.19267687091E+02  0.96592720623E+02  0.92321071028E+02 0.  0.
         11    1    3    3    0    0 -0.37650084459E+01  0.22557288067E+01  0.55013048559E+02  0.55187852948E+02  0.51100000000E-03 0. -1.
         22    1    1    0    0    0  0.12468513858E+02  0.16741144462E+02 -0.19267687091E+02  0.28407279377E+02  0.00000000000E+00 0. -1.
</event>
<event>
 5    1  0.1681104E-003  0.9118800E+02  0.7818608E-02  0.1130116E+00
         25   -1    0    0    0    0  0.00000000000E+00  0.00000000000E+00  0.99999998245E-14  0.12500000000E+03  0.12500000000E+03 0.  0.
        -11    1    3    3    0    0  0.19567161937E+01 -0.53510832289E+01  0.60197547060E+02  0.60466581699E+02  0.51100000000E-03 0.  1.
         23    2    1    0    0    0  0.23886470051E+00  0.87885868869E+01  0.27413941309E+02  0.96210757323E+02  0.91802447303E+02 0.  0.
         11    1    3    3    0    0 -0.17178514932E+01  0.14139670116E+02 -0.32783605752E+02  0.35744175624E+02  0.51100000000E-03 0. -1.
         22    1    1    0    0    0 -0.23886470051E+00 -0.87885868869E+01 -0.27413941309E+02  0.28789242677E+02  0.00000000000E+00 0.  1.
</event>
<event>
 5    1  0.1681104E-003  0.9118800E+02  0.7818608E-02  0.1130116E+00
         25   -1    0    0    0    0  0.00000000000E+00  0.00000000000E+00  0.99999998245E-14  0.12500000000E+03  0.12500000000E+03 0.  0.
        -11    1    3    3    0    0  0.33948111190E+02 -0.88696735140E+01 -0.50273228217E+02  0.61306955863E+02  0.51100000000E-03 0.  1.
         23    2    1    0    0    0  0.10714562278E+02 -0.13495262380E+01 -0.30228666369E+02  0.92900228407E+02  0.87178306371E+02 0.  0.
         11    1    3    3    0    0 -0.23233548912E+02  0.75201472761E+01  0.20044561848E+02  0.31593272544E+02  0.51100000000E-03 0. -1.
         22    1    1    0    0    0 -0.10714562278E+02  0.13495262380E+01  0.30228666369E+02  0.32099771593E+02  0.00000000000E+00 0.  1.
</event>
<event>
 5    1  0.1681104E-003  0.9118800E+02  0.7818608E-02  0.1130116E+00
         25   -1    0    0    0    0  0.00000000000E+00  0.00000000000E+00  0.99999998245E-14  0.12500000000E+03  0.12500000000E+03 0.  0.
        -11    1    3    3    0    0 -0.12078151490E+01  0.46155628378E+02  0.25359255603E+02  0.52677250245E+02  0.51100000000E-03 0. -1.
         23    2    1    0    0    0 -0.23665266212E+02  0.16923223177E+02  0.30943928904E+01  0.95742256154E+02  0.91162295048E+02 0.  0.
         11    1    3    3    0    0 -0.22457451063E+02 -0.29232405200E+02 -0.22264862713E+02  0.43065005909E+02  0.51100000000E-03 0.  1.
         22    1    1    0    0    0  0.23665266212E+02 -0.16923223177E+02 -0.30943928904E+01  0.29257743846E+02  0.00000000000E+00 0. -1.
</event>
<event>
 5    1  0.1681104E-003  0.9118800E+02  0.7818608E-02  0.1130116E+00
         25   -1    0    0    0    0  0.00000000000E+00  0.00000000000E+00  0.99999998245E-14  0.12500000000E+03  0.12500000000E+03 0.  0.
        -11    1    3    3    0    0  0.18055827077E+01  0.24722249810E+02  0.36321525078E+02  0.43973889398E+02  0.51100000000E-03 0.  1.
         23    2    1    0    0    0 -0.20517082735E+02 -0.15879454250E+02  0.15569891979E+02  0.94742285489E+02  0.89780684850E+02 0.  0.
         11    1    3    3    0    0 -0.22322665443E+02 -0.40601704060E+02 -0.20751633099E+02  0.50768396090E+02  0.51100000000E-03 0. -1.
         22    1    1    0    0    0  0.20517082735E+02  0.15879454250E+02 -0.15569891979E+02  0.30257714511E+02  0.00000000000E+00 0.  1.
</event>
<event>
 5    1  0.1681104E-003  0.9118800E+02  0.7818608E-02  0.1130116E+00
         25   -1    0    0    0    0  0.00000000000E+00  0.00000000000E+00  0.99999998245E-14  0.12500000000E+03  0.12500000000E+03 0.  0.
        -11    1    3    3    0    0  0.46598908603E+02  0.29624228019E+02  0.25719822187E+02  0.60914386004E+02  0.51100000000E-03 0. -1.
         23    2    1    0    0    0  0.25123201243E+02  0.15475742421E+02  0.28047115867E+01  0.95359820323E+02  0.90636389385E+02 0.  0.
         11    1    3    3    0    0 -0.21475707360E+02 -0.14148485598E+02 -0.22915110600E+02  0.34445434318E+02  0.51100000000E-03 0.  1.
         22    1    1    0    0    0 -0.25123201243E+02 -0.15475742421E+02 -0.28047115867E+01  0.29640179677E+02  0.00000000000E+00 0. -1.
</event>
<event>
 5    1  0.1681104E-003  0.9118800E+02  0.7818608E-02  0.1130116E+00
         25   -1    0    0    0    0  0.00000000000E+00  0.00000000000E+00  0.99999998245E-14  0.12500000000E+03  0.12500000000E+03 0.  0.
        -11    1    3    3    0    0 -0.33021670916E+02 -0.18018462798E+02 -0.42088275200E+02  0.56449257402E+02  0.51100000000E-03 0. -1.
         23    2    1    0    0    0 -0.27832121849E+02 -0.64311161415E+01 -0.45526522969E+01  0.96074009881E+02  0.91616060111E+02 0.  0.
         11    1    3    3    0    0  0.51895490668E+01  0.11587346656E+02  0.37535622903E+02  0.39624752479E+02  0.51100000000E-03 0.  1.
         22    1    1    0    0    0  0.27832121849E+02  0.64311161415E+01  0.45526522969E+01  0.28925990119E+02  0.00000000000E+00 0. -1.
</event>
<event>
 5    1  0.1681104E-003  0.9118800E+02  0.7818608E-02  0.1130116E+00
         25   -1    0    0    0    0  0.00000000000E+00  0.00000000000E+00  0.99999998245E-14  0.12500000000E+03  0.12500000000E+03 0.  0.
        -11    1    3    3    0    0 -0.21585070411E+02 -0.37594538386E+02  0.27783255603E+02  0.51489551108E+02  0.51100000000E-03 0.  1.
         23    2    1    0    0    0  0.15187770210E+02 -0.23676814805E+02  0.67848257198E+01  0.96063970844E+02  0.91602361929E+02 0.  0.
         11    1    3    3    0    0  0.36772840621E+02  0.13917723582E+02 -0.20998429883E+02  0.44574419736E+02  0.51100000000E-03 0. -1.
         22    1    1    0    0    0 -0.15187770210E+02  0.23676814805E+02 -0.67848257198E+01  0.28936029156E+02  0.00000000000E+00 0.  1.
</event>
<event>
 5    1  0.1681104E-003  0.9118800E+02  0.7818608E-02  0.1130116E+00
         25   -1    0    0    0    0  0.00000000000E+00  0.00000000000E+00  0.99999998245E-14  0.12500000000E+03  0.12500000000E+03 0.  0.
        -11    1    3    3    0    0 -0.17720804259E+01 -0.22558626189E+02 -0.27609453805E+02  0.35697532467E+02  0.51100000000E-03 0. -1.
         23    2    1    0    0    0 -0.92825460040E+01  0.23373273797E+01  0.27092687453E+02  0.96266004924E+02  0.91877642716E+02 0.  0.
         11    1    3    3    0    0 -0.75104655781E+01  0.24895953568E+02  0.54702141258E+02  0.60568472457E+02  0.51100000000E-03 0.  1.
         22    1    1    0    0    0  0.92825460040E+01 -0.23373273797E+01 -0.27092687453E+02  0.28733995076E+02  0.00000000000E+00 0.  1.
</event>
<event>
 5    1  0.1681104E-003  0.9118800E+02  0.7818608E-02  0.1130116E+00
         25   -1    0    0    0    0  0.00000000000E+00  0.00000000000E+00  0.99999998245E-14  0.12500000000E+03  0.12500000000E+03 0.  0.
        -11    1    3    3    0    0  0.53289863215E+02 -0.27462857812E+02  0.16887303739E+02  0.62283216908E+02  0.51100000000E-03 0. -1.
         23    2    1    0    0    0  0.25893763200E+02 -0.12463432556E+02  0.43659394014E+01  0.95933084949E+02  0.91423581407E+02 0.  0.
         11    1    3    3    0    0 -0.27396100015E+02  0.14999425256E+02 -0.12521364337E+02  0.33649868041E+02  0.51100000000E-03 0.  1.
         22    1    1    0    0    0 -0.25893763200E+02  0.12463432556E+02 -0.43659394014E+01  0.29066915051E+02  0.00000000000E+00 0. -1.
</event>
<event>
 5    1  0.1681104E-003  0.9118800E+02  0.7818608E-02  0.1130116E+00
         25   -1    0    0    0    0  0.00000000000E+00  0.00000000000E+00  0.99999998245E-14  0.12500000000E+03  0.12500000000E+03 0.  0.
        -11    1    3    3    0    0 -0.48193806332E+02 -0.30213983116E+02  0.13289679221E+02  0.58413554236E+02  0.51100000000E-03 0.  1.
         23    2    1    0    0    0 -0.13445257998E+02 -0.27103707460E+02  0.80476264686E+01  0.93692649226E+02  0.88307204160E+02 0.  0.
         11    1    3    3    0    0  0.34748548334E+02  0.31102756557E+01 -0.52420527519E+01  0.35279094990E+02  0.51100000000E-03 0. -1.
         22    1    1    0    0    0  0.13445257998E+02  0.27103707460E+02 -0.80476264686E+01  0.31307350774E+02  0.00000000000E+00 0.  1.
</event>
<event>
 5    1  0.1681104E-003  0.9118800E+02  0.7818608E-02  0.1130116E+00
         25   -1    0    0    0    0  0.00000000000E+00  0.00000000000E+00  0.99999998245E-14  0.12500000000E+03  0.12500000000E+03 0.  0.
        -11    1    3    3    0    0  0.50147007267E+02 -0.39160639780E+01 -0.26632772851E+02  0.56915397609E+02  0.51100000000E-03 0.  1.
         23    2    1    0    0    0  0.11557081485E+02 -0.21683458596E+01 -0.27004277819E+02  0.95546666118E+02  0.90893710066E+02 0.  0.
         11    1    3    3    0    0 -0.38589925782E+02  0.17477181183E+01 -0.37150496763E+00  0.38631268510E+02  0.51100000000E-03 0. -1.
         22    1    1    0    0    0 -0.11557081485E+02  0.21683458596E+01  0.27004277819E+02  0.29453333882E+02  0.00000000000E+00 0.  1.
</event>
<event>
 5    1  0.1681104E-003  0.9118800E+02  0.7818608E-02  0.1130116E+00
         25   -1    0    0    0    0  0.00000000000E+00  0.00000000000E+00  0.99999998245E-14  0.12500000000E+03  0.12500000000E+03 0.  0.
        -11    1    3    3    0    0 -0.43656439971E+02 -0.28364673694E+01 -0.34580690338E+02  0.55765172308E+02  0.51100000000E-03 0. -1.
         23    2    1    0    0    0 -0.27554444237E+01  0.97381666185E-01 -0.27480641212E+02  0.97381390358E+02  0.93382801358E+02 0.  0.
         11    1    3    3    0    0  0.40900995547E+02  0.29338490355E+01  0.71000491269E+01  0.41616218050E+02  0.51100000000E-03 0.  1.
         22    1    1    0    0    0  0.27554444237E+01 -0.97381666185E-01  0.27480641212E+02  0.27618609642E+02  0.00000000000E+00 0. -1.
</event>
<event>
 5    1  0.1681104E-003  0.9118800E+02  0.7818608E-02  0.1130116E+00
         25   -1    0    0    0    0  0.00000000000E+00  0.00000000000E+00  0.99999998245E-14  0.12500000000E+03  0.12500000000E+03 0.  0.
        -11    1    3    3    0    0 -0.57728784004E+01 -0.43692517624E+02 -0.13893915651E+02  0.46210422133E+02  0.51100000000E-03 0.  1.
         23    2    1    0    0    0 -0.22785926151E+02  0.31667120310E+01 -0.17355640374E+02  0.96182561731E+02  0.91764047604E+02 0.  0.
         11    1    3    3    0    0 -0.17013047750E+02  0.46859229655E+02 -0.34617247222E+01  0.49972139597E+02  0.51100000000E-03 0. -1.
         22    1    1    0    0    0  0.22785926151E+02 -0.31667120310E+01  0.17355640374E+02  0.28817438269E+02  0.00000000000E+00 0. -1.
</event>
<event>
 5    1  0.1681104E-003  0.9118800E+02  0.7818608E-02  0.1130116E+00
         25   -1    0    0    0    0  0.00000000000E+00  0.00000000000E+00  0.99999998245E-14  0.12500000000E+03  0.12500000000E+03 0.  0.
        -11    1    3    3    0    0  0.39179132072E+02 -0.24664924806E+02 -0.35721618850E+02  0.58475609950E+02  0.51100000000E-03 0.  1.
         23    2    1    0    0    0  0.24022066391E+02 -0.14971113887E+02 -0.20897220697E+01  0.96617595891E+02  0.92354745264E+02 0.  0.
         11    1    3    3    0    0 -0.15157065681E+02  0.96938109189E+01  0.33631896780E+02  0.38141985940E+02  0.51100000000E-03 0. -1.
         22    1    1    0    0    0 -0.24022066391E+02  0.14971113887E+02  0.20897220697E+01  0.28382404109E+02  0.00000000000E+00 0.  1.
</event>
<event>
 5    1  0.1681104E-003  0.9118800E+02  0.7818608E-02  0.1130116E+00
         25   -1    0    0    0    0  0.00000000000E+00  0.00000000000E+00  0.99999998245E-14  0.12500000000E+03  0.12500000000E+03 0.  0.
        -11    1    3    3    0    0 -0.29539341914E+02 -0.72431930647E+01 -0.18790236745E+02  0.35750658227E+02  0.51100000000E-03 0.  1.
         23    2    1    0    0    0  0.45205884436E+01  0.15345681844E+01  0.29290403397E+02  0.95323100726E+02  0.90585733873E+02 0.  0.
         11    1    3    3    0    0  0.34059930357E+02  0.87777612492E+01  0.48080640142E+02  0.59572442499E+02  0.51100000000E-03 0. -1.
         22    1    1    0    0    0 -0.45205884436E+01 -0.15345681844E+01 -0.29290403397E+02  0.29676899274E+02  0.00000000000E+00 0. -1.
</event>
<event>
 5    1  0.1681104E-003  0.9118800E+02  0.7818608E-02  0.1130116E+00
         25   -1    0    0    0    0  0.00000000000E+00  0.00000000000E+00  0.99999998245E-14  0.12500000000E+03  0.12500000000E+03 0.  0.
        -11    1    3    3    0    0 -0.26183804118E+02 -0.19089945569E+02 -0.23064909267E+02  0.39774459892E+02  0.51100000000E-03 0.  1.
         23    2    1    0    0    0 -0.64306574066E+01 -0.44824712573E+01  0.27721796260E+02  0.96191253219E+02  0.91775886292E+02 0.  0.
         11    1    3    3    0    0  0.19753146711E+02  0.14607474311E+02  0.50786705527E+02  0.56416793327E+02  0.51100000000E-03 0. -1.
         22    1    1    0    0    0  0.64306574066E+01  0.44824712573E+01 -0.27721796260E+02  0.28808746781E+02  0.00000000000E+00 0. -1.
</event>
<event>
 5    1  0.1681104E-003  0.9118800E+02  0.7818608E-02  0.1130116E+00
         25   -1    0    0    0    0  0.00000000000E+00  0.00000000000E+00  0.99999998245E-14  0.12500000000E+03  0.12500000000E+03 0.  0.
        -11    1    3    3    0    0  0.38086928743E+01  0.36623796489E+02  0.26610498362E+02  0.45430465923E+02  0.51100000000E-03 0. -1.
         23    2    1    0    0    0 -0.29698437065E+02  0.75936246555E+01  0.10997298542E+02  0.92433132255E+02  0.86505971261E+02 0.  0.
         11    1    3    3    0    0 -0.33507129939E+02 -0.29030171833E+02 -0.15613199820E+02  0.47002666332E+02  0.51100000000E-03 0.  1.
         22    1    1    0    0    0  0.29698437065E+02 -0.75936246555E+01 -0.10997298542E+02  0.32566867745E+02  0.00000000000E+00 0. -1.
</event>
<event>
 5    1  0.1681104E-003  0.9118800E+02  0.7818608E-02  0.1130116E+00
         25   -1    0    0    0    0  0.00000000000E+00  0.00000000000E+00  0.99999998245E-14  0.12500000000E+03  0.12500000000E+03 0.  0.
        -11    1    3    3    0    0  0.44896814957E+02 -0.57651936554E+01 -0.33909257082E+02  0.56557927537E+02  0.51100000000E-03 0.  1.
         23    2    1    0    0    0  0.73094065481E+01 -0.25256520943E+01 -0.29454979370E+02  0.94546721814E+02  0.89507991004E+02 0.  0.
         11    1    3    3    0    0 -0.37587408409E+02  0.32395415611E+01  0.44542777124E+01  0.37988794277E+02  0.51100000000E-03 0. -1.
         22    1    1    0    0    0 -0.73094065481E+01  0.25256520943E+01  0.29454979370E+02  0.30453278186E+02  0.00000000000E+00 0.  1.
</event>
<event>
 5    1  0.1681104E-003  0.9118800E+02  0.7818608E-02  0.1130116E+00
         25   -1    0    0    0    0  0.00000000000E+00  0.00000000000E+00  0.99999998245E-14  0.12500000000E+03  0.12500000000E+03 0.  0.
        -11    1    3    3    0    0  0.25288532893E+02  0.97350136308E+01 -0.49920415418E+02  0.56800776949E+02  0.51100000000E-03 0.  1.
         23    2    1    0    0    0  0.99817980072E+01 -0.14581533034E+02 -0.20737073930E+02  0.97755117320E+02  0.93881730544E+02 0.  0.
         11    1    3    3    0    0 -0.15306734886E+02 -0.24316546665E+02  0.29183341488E+02  0.40954340371E+02  0.51100000000E-03 0. -1.
         22    1    1    0    0    0 -0.99817980072E+01  0.14581533034E+02  0.20737073930E+02  0.27244882680E+02  0.00000000000E+00 0.  1.
</event>
<event>
 5    1  0.1681104E-003  0.9118800E+02  0.7818608E-02  0.1130116E+00
         25   -1    0    0    0    0  0.00000000000E+00  0.00000000000E+00  0.99999998245E-14  0.12500000000E+03  0.12500000000E+03 0.  0.
        -11    1    3    3    0    0  0.59575571974E+01 -0.25358434372E+02  0.55377893169E+02  0.61198478198E+02  0.51100000000E-03 0.  1.
         23    2    1    0    0    0  0.51872118379E+01 -0.15848780620E+02  0.15393932484E+02  0.10230497475E+03  0.99755920564E+02 0.  0.
         11    1    3    3    0    0 -0.77034535951E+00  0.95096537523E+01 -0.39983960685E+02  0.41106496552E+02  0.51100000000E-03 0. -1.
         22    1    1    0    0    0 -0.51872118379E+01  0.15848780620E+02 -0.15393932484E+02  0.22695025250E+02  0.00000000000E+00 0.  1.
</event>
<event>
 5    1  0.1681104E-003  0.9118800E+02  0.7818608E-02  0.1130116E+00
         25   -1    0    0    0    0  0.00000000000E+00  0.00000000000E+00  0.99999998245E-14  0.12500000000E+03  0.12500000000E+03 0.  0.
        -11    1    3    3    0    0 -0.88747624805E+01  0.41532467409E+02  0.29967772760E+02  0.51978598121E+02  0.51100000000E-03 0.  1.
         23    2    1    0    0    0  0.16925430795E+02  0.24300899033E+02 -0.38654772924E+00  0.95383225690E+02  0.90668662847E+02 0.  0.
         11    1    3    3    0    0  0.25800193275E+02 -0.17231568376E+02 -0.30354320489E+02  0.43404627569E+02  0.51100000000E-03 0. -1.
         22    1    1    0    0    0 -0.16925430795E+02 -0.24300899033E+02  0.38654772924E+00  0.29616774310E+02  0.00000000000E+00 0. -1.
</event>
<event>
 5    1  0.1681104E-003  0.9118800E+02  0.7818608E-02  0.1130116E+00
         25   -1    0    0    0    0  0.00000000000E+00  0.00000000000E+00  0.99999998245E-14  0.12500000000E+03  0.12500000000E+03 0.  0.
        -11    1    3    3    0    0  0.20025919694E+01  0.60257734240E+02  0.33513513351E+01  0.60384074609E+02  0.51100000000E-03 0.  1.
         23    2    1    0    0    0 -0.47270068728E+01  0.24158956871E+02  0.11233129489E+02  0.97941119957E+02  0.94129060280E+02 0.  0.
         11    1    3    3    0    0 -0.67295988422E+01 -0.36098777369E+02  0.78817781537E+01  0.37557045348E+02  0.51100000000E-03 0. -1.
         22    1    1    0    0    0  0.47270068728E+01 -0.24158956871E+02 -0.11233129489E+02  0.27058880043E+02  0.00000000000E+00 0.  1.
</event>
<event>
 5    1  0.1681104E-003  0.9118800E+02  0.7818608E-02  0.1130116E+00
         25   -1    0    0    0    0  0.00000000000E+00  0.00000000000E+00  0.99999998245E-14  0.12500000000E+03  0.12500000000E+03 0.  0.
        -11    1    3    3    0    0 -0.45783814797E+02  0.24908813113E+02 -0.84555204123E+01  0.52802485678E+02  0.51100000000E-03 0.  1.
         23    2    1    0    0    0 -0.24291845970E+02 -0.11021165925E+02 -0.13726737424E+02  0.95000280013E+02  0.90139170195E+02 0.  0.
         11    1    3    3    0    0  0.21491968827E+02 -0.35929979038E+02 -0.52712170115E+01  0.42197794335E+02  0.51100000000E-03 0. -1.
         22    1    1    0    0    0  0.24291845970E+02  0.11021165925E+02  0.13726737424E+02  0.29999719987E+02  0.00000000000E+00 0.  1.
</event>
<event>
 5    1  0.1681104E-003  0.9118800E+02  0.7818608E-02  0.1130116E+00
         25   -1    0    0    0    0  0.00000000000E+00  0.00000000000E+00  0.99999998245E-14  0.12500000000E+03  0.12500000000E+03 0.  0.
        -11    1    3    3    0    0  0.47582993288E+02 -0.85972039770E+01 -0.39306770274E+02  0.62314327053E+02  0.51100000000E-03 0.  1.
         23    2    1    0    0    0  0.22657535804E+02 -0.71932304240E+01 -0.21118591100E+02  0.93202179593E+02  0.87610187183E+02 0.  0.
         11    1    3    3    0    0 -0.24925457485E+02  0.14039735530E+01  0.18188179174E+02  0.30887852539E+02  0.51100000000E-03 0. -1.
         22    1    1    0    0    0 -0.22657535804E+02  0.71932304240E+01  0.21118591100E+02  0.31797820407E+02  0.00000000000E+00 0.  1.
</event>
<event>
 5    1  0.1681104E-003  0.9118800E+02  0.7818608E-02  0.1130116E+00
         25   -1    0    0    0    0  0.00000000000E+00  0.00000000000E+00  0.99999998245E-14  0.12500000000E+03  0.12500000000E+03 0.  0.
        -11    1    3    3    0    0 -0.82249889150E+01 -0.18248416972E+01  0.35606465543E+02  0.36589628019E+02  0.51100000000E-03 0.  1.
         23    2    1    0    0    0  0.32233008967E+01 -0.25589456842E+02 -0.16071650281E+02  0.94610727009E+02  0.89597331167E+02 0.  0.
         11    1    3    3    0    0  0.11448289812E+02 -0.23764615145E+02 -0.51678115824E+02  0.58021098990E+02  0.51100000000E-03 0. -1.
         22    1    1    0    0    0 -0.32233008967E+01  0.25589456842E+02  0.16071650281E+02  0.30389272991E+02  0.00000000000E+00 0. -1.
</event>
<event>
 5    1  0.1681104E-003  0.9118800E+02  0.7818608E-02  0.1130116E+00
         25   -1    0    0    0    0  0.00000000000E+00  0.00000000000E+00  0.99999998245E-14  0.12500000000E+03  0.12500000000E+03 0.  0.
        -11    1    3    3    0    0  0.13397998013E+02  0.36383732683E+02 -0.47422581340E+02  0.61255069798E+02  0.51100000000E-03 0.  1.
         23    2    1    0    0    0  0.26669838835E+01  0.10045810910E+02 -0.26418018987E+02  0.96610867448E+02  0.92345638024E+02 0.  0.
         11    1    3    3    0    0 -0.10731014129E+02 -0.26337921774E+02  0.21004562353E+02  0.35355797650E+02  0.51100000000E-03 0. -1.
         22    1    1    0    0    0 -0.26669838835E+01 -0.10045810910E+02  0.26418018987E+02  0.28389132552E+02  0.00000000000E+00 0.  1.
</event>
<event>
 5    1  0.1681104E-003  0.9118800E+02  0.7818608E-02  0.1130116E+00
         25   -1    0    0    0    0  0.00000000000E+00  0.00000000000E+00  0.99999998245E-14  0.12500000000E+03  0.12500000000E+03 0.  0.
        -11    1    3    3    0    0  0.44768538292E+02 -0.38687017219E+02  0.35876508675E+01  0.59277133543E+02  0.51100000000E-03 0. -1.
         23    2    1    0    0    0  0.28161376532E+02 -0.57828966861E+01  0.80170974324E+00  0.96239823353E+02  0.91842015648E+02 0.  0.
         11    1    3    3    0    0 -0.16607161760E+02  0.32904120533E+02 -0.27859411242E+01  0.36962689810E+02  0.51100000000E-03 0.  1.
         22    1    1    0    0    0 -0.28161376532E+02  0.57828966861E+01 -0.80170974324E+00  0.28760176647E+02  0.00000000000E+00 0. -1.
</event>
<event>
 5    1  0.1681104E-003  0.9118800E+02  0.7818608E-02  0.1130116E+00
         25   -1    0    0    0    0  0.00000000000E+00  0.00000000000E+00  0.99999998245E-14  0.12500000000E+03  0.12500000000E+03 0.  0.
        -11    1    3    3    0    0  0.95807694106E+01 -0.31525918067E+02  0.13476790544E+02  0.35599136732E+02  0.51100000000E-03 0.  1.
         23    2    1    0    0    0  0.98113802867E+01  0.27183181435E+02 -0.10575666189E+01  0.96081027279E+02  0.91625634076E+02 0.  0.
         11    1    3    3    0    0  0.23061087608E+00  0.58709099502E+02 -0.14534357163E+02  0.60481890547E+02  0.51100000000E-03 0. -1.
         22    1    1    0    0    0 -0.98113802867E+01 -0.27183181435E+02  0.10575666189E+01  0.28918972721E+02  0.00000000000E+00 0. -1.
</event>
<event>
 5    1  0.1681104E-003  0.9118800E+02  0.7818608E-02  0.1130116E+00
         25   -1    0    0    0    0  0.00000000000E+00  0.00000000000E+00  0.99999998245E-14  0.12500000000E+03  0.12500000000E+03 0.  0.
        -11    1    3    3    0    0 -0.38580401632E+02 -0.12545986027E+02  0.15106576515E+02  0.43290389346E+02  0.51100000000E-03 0.  1.
         23    2    1    0    0    0 -0.87014903595E+01  0.48266059798E+01 -0.26096961335E+02  0.97070383986E+02  0.92965563498E+02 0.  0.
         11    1    3    3    0    0  0.29878911272E+02  0.17372592007E+02 -0.41203537850E+02  0.53779994640E+02  0.51100000000E-03 0. -1.
         22    1    1    0    0    0  0.87014903595E+01 -0.48266059798E+01  0.26096961335E+02  0.27929616014E+02  0.00000000000E+00 0. -1.
</event>
<event>
 5    1  0.1681104E-003  0.9118800E+02  0.7818608E-02  0.1130116E+00
         25   -1    0    0    0    0  0.00000000000E+00  0.00000000000E+00  0.99999998245E-14  0.12500000000E+03  0.12500000000E+03 0.  0.
        -11    1    3    3    0    0  0.28538412782E+02 -0.42658730069E+02  0.32081777457E+02  0.60526429767E+02  0.51100000000E-03 0. -1.
         23    2    1    0    0    0  0.31795951221E+01 -0.22017464313E+02  0.19002806744E+02  0.95742774840E+02  0.91163006258E+02 0.  0.
         11    1    3    3    0    0 -0.25358817660E+02  0.20641265756E+02 -0.13078970714E+02  0.35216345073E+02  0.51100000000E-03 0.  1.
         22    1    1    0    0    0 -0.31795951221E+01  0.22017464313E+02 -0.19002806744E+02  0.29257225160E+02  0.00000000000E+00 0. -1.
</event>
<event>
 5    1  0.1681104E-003  0.9118800E+02  0.7818608E-02  0.1130116E+00
         25   -1    0    0    0    0  0.00000000000E+00  0.00000000000E+00  0.99999998245E-14  0.12500000000E+03  0.12500000000E+03 0.  0.
        -11    1    3    3    0    0  0.16960848591E+02 -0.29314401352E+02  0.58278906140E+01  0.34365226914E+02  0.51100000000E-03 0.  1.
         23    2    1    0    0    0 -0.23781493685E+02  0.50717170347E+01  0.24139893809E+02  0.90736079782E+02  0.84017973943E+02 0.  0.
         11    1    3    3    0    0 -0.40742342276E+02  0.34386118387E+02  0.18312003195E+02  0.56370852869E+02  0.51100000000E-03 0. -1.
         22    1    1    0    0    0  0.23781493685E+02 -0.50717170347E+01 -0.24139893809E+02  0.34263920218E+02  0.00000000000E+00 0. -1.
</event>
<event>
 5    1  0.1681104E-003  0.9118800E+02  0.7818608E-02  0.1130116E+00
         25   -1    0    0    0    0  0.00000000000E+00  0.00000000000E+00  0.99999998245E-14  0.12500000000E+03  0.12500000000E+03 0.  0.
        -11    1    3    3    0    0 -0.30484386662E+02 -0.35809943159E+01  0.47681988482E+02  0.56707084005E+02  0.51100000000E-03 0.  1.
         23    2    1    0    0    0 -0.24237315123E+02  0.11243010368E+02  0.12274885972E+02  0.95597184623E+02  0.90963158233E+02 0.  0.
         11    1    3    3    0    0  0.62470715398E+01  0.14824004684E+02 -0.35407102510E+02  0.38890100618E+02  0.51100000000E-03 0. -1.
         22    1    1    0    0    0  0.24237315123E+02 -0.11243010368E+02 -0.12274885972E+02  0.29402815377E+02  0.00000000000E+00 0.  1.
</event>
<event>
 5    1  0.1681104E-003  0.9118800E+02  0.7818608E-02  0.1130116E+00
         25   -1    0    0    0    0  0.00000000000E+00  0.00000000000E+00  0.99999998245E-14  0.12500000000E+03  0.12500000000E+03 0.  0.
        -11    1    3    3    0    0 -0.27105490380E+02 -0.19033806886E+02 -0.17703619257E+02  0.37555446321E+02  0.51100000000E-03 0. -1.
         23    2    1    0    0    0 -0.34536942552E+01  0.72721612982E+01  0.28293994615E+02  0.95582956212E+02  0.90943603695E+02 0.  0.
         11    1    3    3    0    0  0.23651796125E+02  0.26305968184E+02  0.45997613872E+02  0.58027509891E+02  0.51100000000E-03 0.  1.
         22    1    1    0    0    0  0.34536942552E+01 -0.72721612982E+01 -0.28293994615E+02  0.29417043788E+02  0.00000000000E+00 0.  1.
</event>
<event>
 5    1  0.1681104E-003  0.9118800E+02  0.7818608E-02  0.1130116E+00
         25   -1    0    0    0    0  0.00000000000E+00  0.00000000000E+00  0.99999998245E-14  0.12500000000E+03  0.12500000000E+03 0.  0.
        -11    1    3    3    0    0 -0.95755599624E+01  0.30895905116E+02 -0.14690020768E+02  0.35525272863E+02  0.51100000000E-03 0.  1.
         23    2    1    0    0    0 -0.39438510645E+02 -0.67675791972E+01 -0.38349403159E+01  0.84801703801E+02  0.74668774934E+02 0.  0.
         11    1    3    3    0    0 -0.29862950683E+02 -0.37663484313E+02  0.10855080452E+02  0.49276430938E+02  0.51100000000E-03 0. -1.
         22    1    1    0    0    0  0.39438510645E+02  0.67675791972E+01  0.38349403159E+01  0.40198296199E+02  0.00000000000E+00 0. -1.
</event>
<event>
 5    1  0.1681104E-003  0.9118800E+02  0.7818608E-02  0.1130116E+00
         25   -1    0    0    0    0  0.00000000000E+00  0.00000000000E+00  0.99999998245E-14  0.12500000000E+03  0.12500000000E+03 0.  0.
        -11    1    3    3    0    0  0.53648930981E+01  0.18126592107E+02 -0.39010336979E+02  0.43349300004E+02  0.51100000000E-03 0. -1.
         23    2    1    0    0    0  0.15253340583E+02  0.19999660202E+02  0.13250693511E+02  0.96570584149E+02  0.92291094029E+02 0.  0.
         11    1    3    3    0    0  0.98884474846E+01  0.18730680948E+01  0.52261030491E+02  0.53221284144E+02  0.51100000000E-03 0.  1.
         22    1    1    0    0    0 -0.15253340583E+02 -0.19999660202E+02 -0.13250693511E+02  0.28429415851E+02  0.00000000000E+00 0.  1.
</event>
<event>
 5    1  0.1681104E-003  0.9118800E+02  0.7818608E-02  0.1130116E+00
         25   -1    0    0    0    0  0.00000000000E+00  0.00000000000E+00  0.99999998245E-14  0.12500000000E+03  0.12500000000E+03 0.  0.
        -11    1    3    3    0    0 -0.47553508876E+02  0.84197963037E+01  0.10005539676E+02  0.49318759116E+02  0.51100000000E-03 0.  1.
         23    2    1    0    0    0 -0.27154242903E+01  0.20618268785E+02 -0.12274159682E+02  0.10085167640E+03  0.97917920220E+02 0.  0.
         11    1    3    3    0    0  0.44838084586E+02  0.12198472481E+02 -0.22279699357E+02  0.51532917285E+02  0.51100000000E-03 0. -1.
         22    1    1    0    0    0  0.27154242903E+01 -0.20618268785E+02  0.12274159682E+02  0.24148323599E+02  0.00000000000E+00 0.  1.
</event>
<event>
 5    1  0.1681104E-003  0.9118800E+02  0.7818608E-02  0.1130116E+00
         25   -1    0    0    0    0  0.00000000000E+00  0.00000000000E+00  0.99999998245E-14  0.12500000000E+03  0.12500000000E+03 0.  0.
        -11    1    3    3    0    0 -0.39218249298E+02  0.25017750737E+02 -0.17664861946E+02  0.49759484299E+02  0.51100000000E-03 0. -1.
         23    2    1    0    0    0 -0.23851524542E+02 -0.15507067155E+02 -0.29199236928E-01  0.96550655415E+02  0.92264098401E+02 0.  0.
         11    1    3    3    0    0  0.15366724756E+02 -0.40524817892E+02  0.17635662709E+02  0.46791171116E+02  0.51100000000E-03 0.  1.
         22    1    1    0    0    0  0.23851524542E+02  0.15507067155E+02  0.29199236928E-01  0.28449344585E+02  0.00000000000E+00 0.  1.
</event>
<event>
 5    1  0.1681104E-003  0.9118800E+02  0.7818608E-02  0.1130116E+00
         25   -1    0    0    0    0  0.00000000000E+00  0.00000000000E+00  0.99999998245E-14  0.12500000000E+03  0.12500000000E+03 0.  0.
        -11    1    3    3    0    0 -0.23857497309E+02 -0.45116701740E+02 -0.18963632124E+01  0.51071451393E+02  0.51100000000E-03 0. -1.
         23    2    1    0    0    0  0.15424765747E+02 -0.25890777518E+02  0.29770054347E+00  0.94861247796E+02  0.89946161391E+02 0.  0.
         11    1    3    3    0    0  0.39282263055E+02  0.19225924222E+02  0.21940637559E+01  0.43789796403E+02  0.51100000000E-03 0.  1.
         22    1    1    0    0    0 -0.15424765747E+02  0.25890777518E+02 -0.29770054347E+00  0.30138752204E+02  0.00000000000E+00 0. -1.
</event>
<event>
 5    1  0.1681104E-003  0.9118800E+02  0.7818608E-02  0.1130116E+00
         25   -1    0    0    0    0  0.00000000000E+00  0.00000000000E+00  0.99999998245E-14  0.12500000000E+03  0.12500000000E+03 0.  0.
        -11    1    3    3    0    0 -0.11515312686E+02 -0.16252557796E+02 -0.26676666382E+02  0.33292530554E+02  0.51100000000E-03 0.  1.
         23    2    1    0    0    0  0.95005125915E+01  0.28083891920E+02  0.90675455884E+01  0.93997014533E+02  0.88736991347E+02 0.  0.
         11    1    3    3    0    0  0.21015825278E+02  0.44336449716E+02  0.35744211970E+02  0.60704483979E+02  0.51100000000E-03 0. -1.
         22    1    1    0    0    0 -0.95005125915E+01 -0.28083891920E+02 -0.90675455884E+01  0.31002985467E+02  0.00000000000E+00 0. -1.
</event>
<event>
 5    1  0.1681104E-003  0.9118800E+02  0.7818608E-02  0.1130116E+00
         25   -1    0    0    0    0  0.00000000000E+00  0.00000000000E+00  0.99999998245E-14  0.12500000000E+03  0.12500000000E+03 0.  0.
        -11    1    3    3    0    0 -0.35172467325E+02 -0.32943053557E+01  0.67070617944E+01  0.35957469094E+02  0.51100000000E-03 0.  1.
         23    2    1    0    0    0  0.14290212000E+02  0.12746893403E+02  0.27104181592E+02  0.91813705988E+02  0.85606229312E+02 0.  0.
         11    1    3    3    0    0  0.49462679325E+02  0.16041198759E+02  0.20397119798E+02  0.55856236894E+02  0.51100000000E-03 0. -1.
         22    1    1    0    0    0 -0.14290212000E+02 -0.12746893403E+02 -0.27104181592E+02  0.33186294012E+02  0.00000000000E+00 0. -1.
</event>
<event>
 5    1  0.1681104E-003  0.9118800E+02  0.7818608E-02  0.1130116E+00
         25   -1    0    0    0    0  0.00000000000E+00  0.00000000000E+00  0.99999998245E-14  0.12500000000E+03  0.12500000000E+03 0.  0.
        -11    1    3    3    0    0  0.50320274785E+02 -0.16838558119E+02  0.31352282394E+02  0.61633048809E+02  0.51100000000E-03 0.  1.
         23    2    1    0    0    0  0.23186875668E+02 -0.54987596503E+01  0.22198631680E+02  0.92432427026E+02  0.86504952208E+02 0.  0.
         11    1    3    3    0    0 -0.27133399117E+02  0.11339798468E+02 -0.91536507138E+01  0.30799378217E+02  0.51100000000E-03 0. -1.
         22    1    1    0    0    0 -0.23186875668E+02  0.54987596503E+01 -0.22198631680E+02  0.32567572974E+02  0.00000000000E+00 0.  1.
</event>
<event>
 5    1  0.1681104E-003  0.9118800E+02  0.7818608E-02  0.1130116E+00
         25   -1    0    0    0    0  0.00000000000E+00  0.00000000000E+00  0.99999998245E-14  0.12500000000E+03  0.12500000000E+03 0.  0.
        -11    1    3    3    0    0  0.14679005153E+02  0.31922662836E+02  0.10881611514E+02  0.36782319995E+02  0.51100000000E-03 0. -1.
         23    2    1    0    0    0 -0.28073006820E+01 -0.95136177812E+01 -0.27410302614E+02  0.95850136368E+02  0.91310098521E+02 0.  0.
         11    1    3    3    0    0 -0.17486305835E+02 -0.41436280617E+02 -0.38291914128E+02  0.59067816372E+02  0.51100000000E-03 0.  1.
         22    1    1    0    0    0  0.28073006820E+01  0.95136177812E+01  0.27410302614E+02  0.29149863632E+02  0.00000000000E+00 0.  1.
</event>
<event>
 5    1  0.1681104E-003  0.9118800E+02  0.7818608E-02  0.1130116E+00
         25   -1    0    0    0    0  0.00000000000E+00  0.00000000000E+00  0.99999998245E-14  0.12500000000E+03  0.12500000000E+03 0.  0.
        -11    1    3    3    0    0  0.33197537768E+01  0.38936602477E+02  0.92034654303E+00  0.39088704451E+02  0.51100000000E-03 0. -1.
         23    2    1    0    0    0  0.26537326258E+02 -0.11058037847E+02  0.91666688799E+01  0.94824882696E+02  0.89895609871E+02 0.  0.
         11    1    3    3    0    0  0.23217572481E+02 -0.49994640324E+02  0.82463223369E+01  0.55736178246E+02  0.51100000000E-03 0.  1.
         22    1    1    0    0    0 -0.26537326258E+02  0.11058037847E+02 -0.91666688799E+01  0.30175117304E+02  0.00000000000E+00 0.  1.
</event>
<event>
 5    1  0.1681104E-003  0.9118800E+02  0.7818608E-02  0.1130116E+00
         25   -1    0    0    0    0  0.00000000000E+00  0.00000000000E+00  0.99999998245E-14  0.12500000000E+03  0.12500000000E+03 0.  0.
        -11    1    3    3    0    0  0.11298102115E+02  0.52293581222E+02  0.23723093548E+02  0.58523934558E+02  0.51100000000E-03 0.  1.
         23    2    1    0    0    0  0.16172443686E+02  0.23070405389E+02 -0.54354929607E+00  0.96820450937E+02  0.92628897943E+02 0.  0.
         11    1    3    3    0    0  0.48743415708E+01 -0.29223175833E+02 -0.24266642844E+02  0.38296516378E+02  0.51100000000E-03 0. -1.
         22    1    1    0    0    0 -0.16172443686E+02 -0.23070405389E+02  0.54354929607E+00  0.28179549063E+02  0.00000000000E+00 0.  1.
</event>
<event>
 5    1  0.1681104E-003  0.9118800E+02  0.7818608E-02  0.1130116E+00
         25   -1    0    0    0    0  0.00000000000E+00  0.00000000000E+00  0.99999998245E-14  0.12500000000E+03  0.12500000000E+03 0.  0.
        -11    1    3    3    0    0  0.31982136892E+01  0.19363672840E+02  0.26945579432E+02  0.33335336324E+02  0.51100000000E-03 0.  1.
         23    2    1    0    0    0 -0.17460793151E+02 -0.18350009380E+02 -0.16743312379E+02  0.94636524390E+02  0.89633314662E+02 0.  0.
         11    1    3    3    0    0 -0.20659006841E+02 -0.37713682220E+02 -0.43688891812E+02  0.61301188065E+02  0.51100000000E-03 0. -1.
         22    1    1    0    0    0  0.17460793151E+02  0.18350009380E+02  0.16743312379E+02  0.30363475610E+02  0.00000000000E+00 0. -1.
</event>
<event>
 5    1  0.1681104E-003  0.9118800E+02  0.7818608E-02  0.1130116E+00
         25   -1    0    0    0    0  0.00000000000E+00  0.00000000000E+00  0.99999998245E-14  0.12500000000E+03  0.12500000000E+03 0.  0.
        -11    1    3    3    0    0 -0.24502086926E+02 -0.17948886831E+02  0.37064520800E+02  0.47919656766E+02  0.51100000000E-03 0.  1.
         23    2    1    0    0    0  0.40240046564E+01 -0.28363991698E+02 -0.65488294755E+00  0.96344502968E+02  0.91984377706E+02 0.  0.
         11    1    3    3    0    0  0.28526091582E+02 -0.10415104867E+02 -0.37719403747E+02  0.48424846202E+02  0.51100000000E-03 0. -1.
         22    1    1    0    0    0 -0.40240046564E+01  0.28363991698E+02  0.65488294755E+00  0.28655497032E+02  0.00000000000E+00 0.  1.
</event>
<event>
 5    1  0.1681104E-003  0.9118800E+02  0.7818608E-02  0.1130116E+00
         25   -1    0    0    0    0  0.00000000000E+00  0.00000000000E+00  0.99999998245E-14  0.12500000000E+03  0.12500000000E+03 0.  0.
        -11    1    3    3    0    0 -0.19861983530E+01  0.13494227517E+02 -0.31375346541E+02  0.34211862431E+02  0.51100000000E-03 0. -1.
         23    2    1    0    0    0  0.78775969740E+01 -0.19575473032E+02  0.19884769374E+02  0.96005867290E+02  0.91523039846E+02 0.  0.
         11    1    3    3    0    0  0.98637953270E+01 -0.33069700549E+02  0.51260115915E+02  0.61794004859E+02  0.51100000000E-03 0.  1.
         22    1    1    0    0    0 -0.78775969740E+01  0.19575473032E+02 -0.19884769374E+02  0.28994132710E+02  0.00000000000E+00 0.  1.
</event>
<event>
 5    1  0.1681104E-003  0.9118800E+02  0.7818608E-02  0.1130116E+00
         25   -1    0    0    0    0  0.00000000000E+00  0.00000000000E+00  0.99999998245E-14  0.12500000000E+03  0.12500000000E+03 0.  0.
        -11    1    3    3    0    0  0.93286032993E+01 -0.11251972824E+02 -0.41984640108E+02  0.44456042752E+02  0.51100000000E-03 0.  1.
         23    2    1    0    0    0 -0.23887151981E+02  0.89786245360E+01 -0.33735779753E+01  0.99259122845E+02  0.95863343940E+02 0.  0.
         11    1    3    3    0    0 -0.33215755281E+02  0.20230597360E+02  0.38611062133E+02  0.54803080093E+02  0.51100000000E-03 0. -1.
         22    1    1    0    0    0  0.23887151981E+02 -0.89786245360E+01  0.33735779753E+01  0.25740877155E+02  0.00000000000E+00 0. -1.
</event>
<event>
 5    1  0.1681104E-003  0.9118800E+02  0.7818608E-02  0.1130116E+00
         25   -1    0    0    0    0  0.00000000000E+00  0.00000000000E+00  0.99999998245E-14  0.12500000000E+03  0.12500000000E+03 0.  0.
        -11    1    3    3    0    0  0.45849490798E+02 -0.32456809704E+02  0.15890813333E+02  0.58379262168E+02  0.51100000000E-03 0.  1.
         23    2    1    0    0    0  0.13166939710E+02 -0.26461753991E+02 -0.52019021183E+00  0.95438820668E+02  0.90745276280E+02 0.  0.
         11    1    3    3    0    0 -0.32682551088E+02  0.59950557125E+01 -0.16411003545E+02  0.37059558501E+02  0.51100000000E-03 0. -1.
         22    1    1    0    0    0 -0.13166939710E+02  0.26461753991E+02  0.52019021183E+00  0.29561179332E+02  0.00000000000E+00 0.  1.
</event>
<event>
 5    1  0.1681104E-003  0.9118800E+02  0.7818608E-02  0.1130116E+00
         25   -1    0    0    0    0  0.00000000000E+00  0.00000000000E+00  0.99999998245E-14  0.12500000000E+03  0.12500000000E+03 0.  0.
        -11    1    3    3    0    0 -0.36591105262E+02 -0.38171994372E+02  0.27811135351E+02  0.59745036517E+02  0.51100000000E-03 0. -1.
         23    2    1    0    0    0 -0.79646094774E+01 -0.15437952933E+02  0.22329178325E+02  0.96709407932E+02  0.92478927237E+02 0.  0.
         11    1    3    3    0    0  0.28626495784E+02  0.22734041439E+02 -0.54819570263E+01  0.36964371415E+02  0.51100000000E-03 0.  1.
         22    1    1    0    0    0  0.79646094774E+01  0.15437952933E+02 -0.22329178325E+02  0.28290592068E+02  0.00000000000E+00 0. -1.
</event>
<event>
 5    1  0.1681104E-003  0.9118800E+02  0.7818608E-02  0.1130116E+00
         25   -1    0    0    0    0  0.00000000000E+00  0.00000000000E+00  0.99999998245E-14  0.12500000000E+03  0.12500000000E+03 0.  0.
        -11    1    3    3    0    0 -0.21699406691E+02 -0.12729710058E+02  0.20606744149E+02  0.32519958081E+02  0.51100000000E-03 0.  1.
         23    2    1    0    0    0  0.18498121408E+02 -0.98902285710E+01 -0.24328052744E+02  0.92877558201E+02  0.87145794794E+02 0.  0.
         11    1    3    3    0    0  0.40197528099E+02  0.28394814872E+01 -0.44934796892E+02  0.60357600121E+02  0.51100000000E-03 0. -1.
         22    1    1    0    0    0 -0.18498121408E+02  0.98902285710E+01  0.24328052744E+02  0.32122441799E+02  0.00000000000E+00 0. -1.
</event>
<event>
 5    1  0.1681104E-003  0.9118800E+02  0.7818608E-02  0.1130116E+00
         25   -1    0    0    0    0  0.00000000000E+00  0.00000000000E+00  0.99999998245E-14  0.12500000000E+03  0.12500000000E+03 0.  0.
        -11    1    3    3    0    0  0.38080649411E+02 -0.61691641117E+01 -0.16031288834E+01  0.38610419162E+02  0.51100000000E-03 0. -1.
         23    2    1    0    0    0 -0.10847260723E+02 -0.16346255475E+02  0.23377848874E+02  0.94481367147E+02  0.89416675104E+02 0.  0.
         11    1    3    3    0    0 -0.48927910134E+02 -0.10177091363E+02  0.24980977757E+02  0.55870947985E+02  0.51100000000E-03 0.  1.
         22    1    1    0    0    0  0.10847260723E+02  0.16346255475E+02 -0.23377848874E+02  0.30518632853E+02  0.00000000000E+00 0.  1.
</event>
<event>
 5    1  0.1681104E-003  0.9118800E+02  0.7818608E-02  0.1130116E+00
         25   -1    0    0    0    0  0.00000000000E+00  0.00000000000E+00  0.99999998245E-14  0.12500000000E+03  0.12500000000E+03 0.  0.
        -11    1    3    3    0    0  0.38328578293E+02  0.97955120211E+01 -0.17138615572E+02  0.43113386711E+02  0.51100000000E-03 0. -1.
         23    2    1    0    0    0  0.19738789128E+02 -0.15329716343E+02  0.20952995202E+02  0.92386383100E+02  0.86438392945E+02 0.  0.
         11    1    3    3    0    0 -0.18589789165E+02 -0.25125228364E+02  0.38091610774E+02  0.49272996389E+02  0.51100000000E-03 0.  1.
         22    1    1    0    0    0 -0.19738789128E+02  0.15329716343E+02 -0.20952995202E+02  0.32613616900E+02  0.00000000000E+00 0.  1.
</event>
<event>
 5    1  0.1681104E-003  0.9118800E+02  0.7818608E-02  0.1130116E+00
         25   -1    0    0    0    0  0.00000000000E+00  0.00000000000E+00  0.99999998245E-14  0.12500000000E+03  0.12500000000E+03 0.  0.
        -11    1    3    3    0    0 -0.72263542831E+01 -0.30540652061E+02  0.17227540533E+02  0.35801393515E+02  0.51100000000E-03 0.  1.
         23    2    1    0    0    0  0.27193852026E+02  0.40990667309E+00 -0.16603237404E+02  0.93135582482E+02  0.87515116525E+02 0.  0.
         11    1    3    3    0    0  0.34420206309E+02  0.30950558734E+02 -0.33830777937E+02  0.57334188966E+02  0.51100000000E-03 0. -1.
         22    1    1    0    0    0 -0.27193852026E+02 -0.40990667309E+00  0.16603237404E+02  0.31864417518E+02  0.00000000000E+00 0. -1.
</event>
<event>
 5    1  0.1681104E-003  0.9118800E+02  0.7818608E-02  0.1130116E+00
         25   -1    0    0    0    0  0.00000000000E+00  0.00000000000E+00  0.99999998245E-14  0.12500000000E+03  0.12500000000E+03 0.  0.
        -11    1    3    3    0    0  0.17724050042E+02  0.31484466942E+02  0.16302967535E+01  0.36167270788E+02  0.51100000000E-03 0. -1.
         23    2    1    0    0    0  0.75950190610E+01 -0.26435401284E+02  0.10356222620E+02  0.95610102033E+02  0.90980907383E+02 0.  0.
         11    1    3    3    0    0 -0.10129030981E+02 -0.57919868226E+02  0.87259258661E+01  0.59442831245E+02  0.51100000000E-03 0.  1.
         22    1    1    0    0    0 -0.75950190610E+01  0.26435401284E+02 -0.10356222620E+02  0.29389897967E+02  0.00000000000E+00 0.  1.
</event>
<event>
 5    1  0.1681104E-003  0.9118800E+02  0.7818608E-02  0.1130116E+00
         25   -1    0    0    0    0  0.00000000000E+00  0.00000000000E+00  0.99999998245E-14  0.12500000000E+03  0.12500000000E+03 0.  0.
        -11    1    3    3    0    0 -0.70034059068E+01 -0.46627601936E+02  0.16315542995E+02  0.49893665932E+02  0.51100000000E-03 0. -1.
         23    2    1    0    0    0  0.17620660896E+02 -0.95769790760E+01  0.22557508579E+02  0.94816438051E+02  0.89883866810E+02 0.  0.
         11    1    3    3    0    0  0.24624066803E+02  0.37050622860E+02  0.62419655844E+01  0.44922772119E+02  0.51100000000E-03 0.  1.
         22    1    1    0    0    0 -0.17620660896E+02  0.95769790760E+01 -0.22557508579E+02  0.30183561949E+02  0.00000000000E+00 0. -1.
</event>
<event>
 5    1  0.1681104E-003  0.9118800E+02  0.7818608E-02  0.1130116E+00
         25   -1    0    0    0    0  0.00000000000E+00  0.00000000000E+00  0.99999998245E-14  0.12500000000E+03  0.12500000000E+03 0.  0.
        -11    1    3    3    0    0  0.47152494702E+02  0.12301152450E+02 -0.17421464582E+02  0.51751169423E+02  0.51100000000E-03 0.  1.
         23    2    1    0    0    0  0.54479112508E+01  0.21812115442E+02 -0.20416048588E+02  0.94631214101E+02  0.89625908783E+02 0.  0.
         11    1    3    3    0    0 -0.41704583451E+02  0.95109629919E+01 -0.29945840060E+01  0.42880044677E+02  0.51100000000E-03 0. -1.
         22    1    1    0    0    0 -0.54479112508E+01 -0.21812115442E+02  0.20416048588E+02  0.30368785899E+02  0.00000000000E+00 0.  1.
</event>
<event>
 5    1  0.1681104E-003  0.9118800E+02  0.7818608E-02  0.1130116E+00
         25   -1    0    0    0    0  0.00000000000E+00  0.00000000000E+00  0.99999998245E-14  0.12500000000E+03  0.12500000000E+03 0.  0.
        -11    1    3    3    0    0  0.38569467933E+02  0.22746338831E+02 -0.29319625910E+02  0.53522334129E+02  0.51100000000E-03 0.  1.
         23    2    1    0    0    0  0.81481683366E+01  0.60946197487E+01 -0.34898220761E+02  0.88648619704E+02  0.80852674204E+02 0.  0.
         11    1    3    3    0    0 -0.30421299597E+02 -0.16651719082E+02 -0.55785948516E+01  0.35126285575E+02  0.51100000000E-03 0. -1.
         22    1    1    0    0    0 -0.81481683366E+01 -0.60946197487E+01  0.34898220761E+02  0.36351380296E+02  0.00000000000E+00 0. -1.
</event>
<event>
 5    1  0.1681104E-003  0.9118800E+02  0.7818608E-02  0.1130116E+00
         25   -1    0    0    0    0  0.00000000000E+00  0.00000000000E+00  0.99999998245E-14  0.12500000000E+03  0.12500000000E+03 0.  0.
        -11    1    3    3    0    0 -0.25039248963E+02  0.28945078292E+02  0.36092666357E+02  0.52606673635E+02  0.51100000000E-03 0. -1.
         23    2    1    0    0    0  0.79317377366E+01  0.27709194346E+02  0.10642767011E+02  0.94275735900E+02  0.89128749431E+02 0.  0.
         11    1    3    3    0    0  0.32970986700E+02 -0.12358839463E+01 -0.25449899346E+02  0.41669062265E+02  0.51100000000E-03 0.  1.
         22    1    1    0    0    0 -0.79317377366E+01 -0.27709194346E+02 -0.10642767011E+02  0.30724264100E+02  0.00000000000E+00 0. -1.
</event>
<event>
 5    1  0.1681104E-003  0.9118800E+02  0.7818608E-02  0.1130116E+00
         25   -1    0    0    0    0  0.00000000000E+00  0.00000000000E+00  0.99999998245E-14  0.12500000000E+03  0.12500000000E+03 0.  0.
        -11    1    3    3    0    0 -0.66520979881E+01  0.27074079844E+02 -0.29890988066E+02  0.40874532106E+02  0.51100000000E-03 0. -1.
         23    2    1    0    0    0 -0.25048858887E+02 -0.85575957071E+01  0.92977267584E+01  0.96944243038E+02  0.92795801411E+02 0.  0.
         11    1    3    3    0    0 -0.18396760899E+02 -0.35631675551E+02  0.39188714825E+02  0.56069710932E+02  0.51100000000E-03 0.  1.
         22    1    1    0    0    0  0.25048858887E+02  0.85575957071E+01 -0.92977267584E+01  0.28055756962E+02  0.00000000000E+00 0.  1.
</event>
<event>
 5    1  0.1681104E-003  0.9118800E+02  0.7818608E-02  0.1130116E+00
         25   -1    0    0    0    0  0.00000000000E+00  0.00000000000E+00  0.99999998245E-14  0.12500000000E+03  0.12500000000E+03 0.  0.
        -11    1    3    3    0    0 -0.55014189201E+02  0.24599736203E+02  0.82402426111E+01  0.60824416424E+02  0.51100000000E-03 0.  1.
         23    2    1    0    0    0 -0.29817929097E+02  0.65774090593E+01 -0.41417837716E+01  0.94185627081E+02  0.89002285197E+02 0.  0.
         11    1    3    3    0    0  0.25196260104E+02 -0.18022327144E+02 -0.12382026383E+02  0.33361210657E+02  0.51100000000E-03 0. -1.
         22    1    1    0    0    0  0.29817929097E+02 -0.65774090593E+01  0.41417837716E+01  0.30814372919E+02  0.00000000000E+00 0.  1.
</event>
<event>
 5    1  0.1681104E-003  0.9118800E+02  0.7818608E-02  0.1130116E+00
         25   -1    0    0    0    0  0.00000000000E+00  0.00000000000E+00  0.99999998245E-14  0.12500000000E+03  0.12500000000E+03 0.  0.
        -11    1    3    3    0    0 -0.22752684363E+02 -0.92361843530E+01  0.28129348125E+02  0.37339683626E+02  0.51100000000E-03 0.  1.
         23    2    1    0    0    0  0.26719496065E+02  0.11416521889E+02  0.13808425916E+02  0.92829500031E+02  0.87076833932E+02 0.  0.
         11    1    3    3    0    0  0.49472180428E+02  0.20652706242E+02 -0.14320922209E+02  0.55489816404E+02  0.51100000000E-03 0. -1.
         22    1    1    0    0    0 -0.26719496065E+02 -0.11416521889E+02 -0.13808425916E+02  0.32170499969E+02  0.00000000000E+00 0. -1.
</event>
<event>
 5    1  0.1681104E-003  0.9118800E+02  0.7818608E-02  0.1130116E+00
         25   -1    0    0    0    0  0.00000000000E+00  0.00000000000E+00  0.99999998245E-14  0.12500000000E+03  0.12500000000E+03 0.  0.
        -11    1    3    3    0    0 -0.27328229103E+02  0.40197203972E+02  0.13145603191E+02  0.50353293800E+02  0.51100000000E-03 0.  1.
         23    2    1    0    0    0  0.87303069338E+00  0.23678403019E+02 -0.17801614599E+02  0.95363427417E+02  0.90641363926E+02 0.  0.
         11    1    3    3    0    0  0.28201259796E+02 -0.16518800953E+02 -0.30947217790E+02  0.45010133617E+02  0.51100000000E-03 0. -1.
         22    1    1    0    0    0 -0.87303069338E+00 -0.23678403019E+02  0.17801614599E+02  0.29636572583E+02  0.00000000000E+00 0.  1.
</event>
<event>
 5    1  0.1681104E-003  0.9118800E+02  0.7818608E-02  0.1130116E+00
         25   -1    0    0    0    0  0.00000000000E+00  0.00000000000E+00  0.99999998245E-14  0.12500000000E+03  0.12500000000E+03 0.  0.
        -11    1    3    3    0    0  0.24680267506E+02  0.41559805193E+01 -0.13927628236E+02  0.28642042643E+02  0.51100000000E-03 0. -1.
         23    2    1    0    0    0 -0.24013486592E+02 -0.13312131822E+02  0.20458208258E+02  0.90759692217E+02  0.84053096637E+02 0.  0.
         11    1    3    3    0    0 -0.48693754098E+02 -0.17468112342E+02  0.34385836494E+02  0.62117649574E+02  0.51100000000E-03 0.  1.
         22    1    1    0    0    0  0.24013486592E+02  0.13312131822E+02 -0.20458208258E+02  0.34240307783E+02  0.00000000000E+00 0.  1.
</event>
<event>
 5    1  0.1681104E-003  0.9118800E+02  0.7818608E-02  0.1130116E+00
         25   -1    0    0    0    0  0.00000000000E+00  0.00000000000E+00  0.99999998245E-14  0.12500000000E+03  0.12500000000E+03 0.  0.
        -11    1    3    3    0    0  0.11176166424E+02 -0.56186357265E+02  0.11574413759E+02  0.58444678908E+02  0.51100000000E-03 0.  1.
         23    2    1    0    0    0  0.40495300273E+01 -0.27173349870E+02 -0.10497678977E+02  0.95589272356E+02  0.90952284683E+02 0.  0.
         11    1    3    3    0    0 -0.71266363967E+01  0.29013007394E+02 -0.22072092736E+02  0.37144593448E+02  0.51100000000E-03 0. -1.
         22    1    1    0    0    0 -0.40495300273E+01  0.27173349870E+02  0.10497678977E+02  0.29410727644E+02  0.00000000000E+00 0.  1.
</event>
<event>
 5    1  0.1681104E-003  0.9118800E+02  0.7818608E-02  0.1130116E+00
         25   -1    0    0    0    0  0.00000000000E+00  0.00000000000E+00  0.99999998245E-14  0.12500000000E+03  0.12500000000E+03 0.  0.
        -11    1    3    3    0    0 -0.32022118989E+02  0.14440297674E+02 -0.60690043867E+01  0.35647876739E+02  0.51100000000E-03 0.  1.
         23    2    1    0    0    0  0.10173934502E+02 -0.26616857219E+02 -0.10363989332E+02  0.94678748273E+02  0.89692179526E+02 0.  0.
         11    1    3    3    0    0  0.42196053491E+02 -0.41057154893E+02 -0.42949849448E+01  0.59030871534E+02  0.51100000000E-03 0. -1.
         22    1    1    0    0    0 -0.10173934502E+02  0.26616857219E+02  0.10363989332E+02  0.30321251727E+02  0.00000000000E+00 0. -1.
</event>
<event>
 5    1  0.1681104E-003  0.9118800E+02  0.7818608E-02  0.1130116E+00
         25   -1    0    0    0    0  0.00000000000E+00  0.00000000000E+00  0.99999998245E-14  0.12500000000E+03  0.12500000000E+03 0.  0.
        -11    1    3    3    0    0 -0.18353865904E+02 -0.28966011431E+01 -0.30942212248E+02  0.36092591911E+02  0.51100000000E-03 0.  1.
         23    2    1    0    0    0 -0.21399592363E+01  0.17283180663E+02  0.23132917773E+02  0.96044523074E+02  0.91575819780E+02 0.  0.
         11    1    3    3    0    0  0.16213906668E+02  0.20179781806E+02  0.54075130020E+02  0.59951931163E+02  0.51100000000E-03 0. -1.
         22    1    1    0    0    0  0.21399592363E+01 -0.17283180663E+02 -0.23132917773E+02  0.28955476926E+02  0.00000000000E+00 0. -1.
</event>
<event>
 5    1  0.1681104E-003  0.9118800E+02  0.7818608E-02  0.1130116E+00
         25   -1    0    0    0    0  0.00000000000E+00  0.00000000000E+00  0.99999998245E-14  0.12500000000E+03  0.12500000000E+03 0.  0.
        -11    1    3    3    0    0  0.24938201646E+02  0.12005066733E+02  0.50984176898E+02  0.58012255799E+02  0.51100000000E-03 0. -1.
         23    2    1    0    0    0 -0.38282450215E+00 -0.53550765975E+01  0.28328336740E+02  0.96167413186E+02  0.91743410098E+02 0.  0.
         11    1    3    3    0    0 -0.25321026148E+02 -0.17360143331E+02 -0.22655840159E+02  0.38155157387E+02  0.51100000000E-03 0.  1.
         22    1    1    0    0    0  0.38282450215E+00  0.53550765975E+01 -0.28328336740E+02  0.28832586814E+02  0.00000000000E+00 0. -1.
</event>
<event>
 5    1  0.1681104E-003  0.9118800E+02  0.7818608E-02  0.1130116E+00
         25   -1    0    0    0    0  0.00000000000E+00  0.00000000000E+00  0.99999998245E-14  0.12500000000E+03  0.12500000000E+03 0.  0.
        -11    1    3    3    0    0 -0.11483045220E+02 -0.91647378517E+01 -0.59454344019E+02  0.61242728306E+02  0.51100000000E-03 0.  1.
         23    2    1    0    0    0 -0.55522400706E+00  0.50541718852E+01 -0.12456267971E+02  0.11154594712E+03  0.11073159793E+03 0.  0.
         11    1    3    3    0    0  0.10927821213E+02  0.14218909737E+02  0.46998076048E+02  0.50303218814E+02  0.51100000000E-03 0. -1.
         22    1    1    0    0    0  0.55522400706E+00 -0.50541718852E+01  0.12456267971E+02  0.13454052880E+02  0.00000000000E+00 0.  1.
</event>
<event>
 5    1  0.1681104E-003  0.9118800E+02  0.7818608E-02  0.1130116E+00
         25   -1    0    0    0    0  0.00000000000E+00  0.00000000000E+00  0.99999998245E-14  0.12500000000E+03  0.12500000000E+03 0.  0.
        -11    1    3    3    0    0  0.17380713134E+02 -0.19742448048E+02 -0.33247298032E+02  0.42393823496E+02  0.51100000000E-03 0.  1.
         23    2    1    0    0    0 -0.26278497775E+02  0.27610904426E+01 -0.13444507380E+02  0.95353114085E+02  0.90627140092E+02 0.  0.
         11    1    3    3    0    0 -0.43659210909E+02  0.22503538491E+02  0.19802790651E+02  0.52959290589E+02  0.51100000000E-03 0. -1.
         22    1    1    0    0    0  0.26278497775E+02 -0.27610904426E+01  0.13444507380E+02  0.29646885915E+02  0.00000000000E+00 0.  1.
</event>
<event>
 5    1  0.1681104E-003  0.9118800E+02  0.7818608E-02  0.1130116E+00
         25   -1    0    0    0    0  0.00000000000E+00  0.00000000000E+00  0.99999998245E-14  0.12500000000E+03  0.12500000000E+03 0.  0.
        -11    1    3    3    0    0 -0.33927139987E+02  0.56890358354E+01 -0.13629193269E+02  0.37002308926E+02  0.51100000000E-03 0. -1.
         23    2    1    0    0    0  0.12422238662E+02 -0.17601970517E+02  0.17277262233E+02  0.97383968973E+02  0.93386252967E+02 0.  0.
         11    1    3    3    0    0  0.46349378649E+02 -0.23291006352E+02  0.30906455502E+02  0.60381660046E+02  0.51100000000E-03 0.  1.
         22    1    1    0    0    0 -0.12422238662E+02  0.17601970517E+02 -0.17277262233E+02  0.27616031027E+02  0.00000000000E+00 0.  1.
</event>
<event>
 5    1  0.1681104E-003  0.9118800E+02  0.7818608E-02  0.1130116E+00
         25   -1    0    0    0    0  0.00000000000E+00  0.00000000000E+00  0.99999998245E-14  0.12500000000E+03  0.12500000000E+03 0.  0.
        -11    1    3    3    0    0  0.25241466245E+02 -0.86746250549E+01 -0.16906564128E+02  0.31594503461E+02  0.51100000000E-03 0.  1.
         23    2    1    0    0    0 -0.28539927568E+02 -0.18116180847E+02 -0.18969016433E+02  0.86237298100E+02  0.77034567079E+02 0.  0.
         11    1    3    3    0    0 -0.53781393813E+02 -0.94415557924E+01 -0.20624523052E+01  0.54642794640E+02  0.51100000000E-03 0. -1.
         22    1    1    0    0    0  0.28539927568E+02  0.18116180847E+02  0.18969016433E+02  0.38762701900E+02  0.00000000000E+00 0. -1.
</event>
<event>
 5    1  0.1681104E-003  0.9118800E+02  0.7818608E-02  0.1130116E+00
         25   -1    0    0    0    0  0.00000000000E+00  0.00000000000E+00  0.99999998245E-14  0.12500000000E+03  0.12500000000E+03 0.  0.
        -11    1    3    3    0    0 -0.26562090022E+02  0.31871259632E+02 -0.38527993342E+02  0.56619149482E+02  0.51100000000E-03 0.  1.
         23    2    1    0    0    0 -0.84893836988E+01 -0.12511979307E+01 -0.27886271646E+02  0.95823309335E+02  0.91273365960E+02 0.  0.
         11    1    3    3    0    0  0.18072706323E+02 -0.33122457563E+02  0.10641721696E+02  0.39204159853E+02  0.51100000000E-03 0. -1.
         22    1    1    0    0    0  0.84893836988E+01  0.12511979307E+01  0.27886271646E+02  0.29176690665E+02  0.00000000000E+00 0. -1.
</event>
<event>
 5    1  0.1681104E-003  0.9118800E+02  0.7818608E-02  0.1130116E+00
         25   -1    0    0    0    0  0.00000000000E+00  0.00000000000E+00  0.99999998245E-14  0.12500000000E+03  0.12500000000E+03 0.  0.
        -11    1    3    3    0    0  0.45758634894E+01  0.41531729662E+02 -0.16664821995E+02  0.44983768048E+02  0.51100000000E-03 0. -1.
         23    2    1    0    0    0  0.80929609782E+01 -0.92552102162E+01 -0.25535043443E+02  0.96659333509E+02  0.92411218892E+02 0.  0.
         11    1    3    3    0    0  0.35170974888E+01 -0.50786939878E+02 -0.88702214479E+01  0.51675565461E+02  0.51100000000E-03 0.  1.
         22    1    1    0    0    0 -0.80929609782E+01  0.92552102162E+01  0.25535043443E+02  0.28340666491E+02  0.00000000000E+00 0.  1.
</event>
<event>
 5    1  0.1681104E-003  0.9118800E+02  0.7818608E-02  0.1130116E+00
         25   -1    0    0    0    0  0.00000000000E+00  0.00000000000E+00  0.99999998245E-14  0.12500000000E+03  0.12500000000E+03 0.  0.
        -11    1    3    3    0    0 -0.66426830436E+01  0.22771319748E+02 -0.31157748582E+02  0.39159462944E+02  0.51100000000E-03 0. -1.
         23    2    1    0    0    0  0.21879512515E+01  0.14386456394E+02  0.24701611395E+02  0.96330733114E+02  0.91965663584E+02 0.  0.
         11    1    3    3    0    0  0.88306342951E+01 -0.83848633542E+01  0.55859359977E+02  0.57171270170E+02  0.51100000000E-03 0.  1.
         22    1    1    0    0    0 -0.21879512515E+01 -0.14386456394E+02 -0.24701611395E+02  0.28669266886E+02  0.00000000000E+00 0.  1.
</event>
<event>
 5    1  0.1681104E-003  0.9118800E+02  0.7818608E-02  0.1130116E+00
         25   -1    0    0    0    0  0.00000000000E+00  0.00000000000E+00  0.99999998245E-14  0.12500000000E+03  0.12500000000E+03 0.  0.
        -11    1    3    3    0    0  0.23524557230E+02  0.31596458303E+02  0.32798449080E+01  0.39528449920E+02  0.51100000000E-03 0. -1.
         23    2    1    0    0    0 -0.84953377856E+00 -0.10305829975E+02  0.28862776685E+02  0.94340715646E+02  0.89219834742E+02 0.  0.
         11    1    3    3    0    0 -0.24374091008E+02 -0.41902288278E+02  0.25582931778E+02  0.54812265726E+02  0.51100000000E-03 0.  1.
         22    1    1    0    0    0  0.84953377856E+00  0.10305829975E+02 -0.28862776685E+02  0.30659284354E+02  0.00000000000E+00 0. -1.
</event>
<event>
 5    1  0.1681104E-003  0.9118800E+02  0.7818608E-02  0.1130116E+00
         25   -1    0    0    0    0  0.00000000000E+00  0.00000000000E+00  0.99999998245E-14  0.12500000000E+03  0.12500000000E+03 0.  0.
        -11    1    3    3    0    0 -0.37060543838E+01 -0.20661477483E+02 -0.22573696983E+02  0.30825367583E+02  0.51100000000E-03 0.  1.
         23    2    1    0    0    0 -0.27506787180E+01  0.33936460417E+02  0.23923965058E+01  0.90868297141E+02  0.84214454135E+02 0.  0.
         11    1    3    3    0    0  0.95537566577E+00  0.54597937900E+02  0.24966093489E+02  0.60042929558E+02  0.51100000000E-03 0. -1.
         22    1    1    0    0    0  0.27506787180E+01 -0.33936460417E+02 -0.23923965058E+01  0.34131702859E+02  0.00000000000E+00 0. -1.
</event>
<event>
 5    1  0.1681104E-003  0.9118800E+02  0.7818608E-02  0.1130116E+00
         25   -1    0    0    0    0  0.00000000000E+00  0.00000000000E+00  0.99999998245E-14  0.12500000000E+03  0.12500000000E+03 0.  0.
        -11    1    3    3    0    0  0.61906085263E+01  0.42689632306E+02  0.25849488175E+02  0.50288411980E+02  0.51100000000E-03 0.  1.
         23    2    1    0    0    0 -0.17091391842E+02  0.24442654542E+02 -0.68663967201E+01  0.94394339738E+02  0.89294932301E+02 0.  0.
         11    1    3    3    0    0 -0.23282000368E+02 -0.18246977765E+02 -0.32715884895E+02  0.44105927758E+02  0.51100000000E-03 0. -1.
         22    1    1    0    0    0  0.17091391842E+02 -0.24442654542E+02  0.68663967201E+01  0.30605660262E+02  0.00000000000E+00 0.  1.
</event>
<event>
 5    1  0.1681104E-003  0.9118800E+02  0.7818608E-02  0.1130116E+00
         25   -1    0    0    0    0  0.00000000000E+00  0.00000000000E+00  0.99999998245E-14  0.12500000000E+03  0.12500000000E+03 0.  0.
        -11    1    3    3    0    0  0.24156085216E+02 -0.33916407849E+02  0.62470521369E+01  0.42105401494E+02  0.51100000000E-03 0. -1.
         23    2    1    0    0    0 -0.17609272005E+02 -0.15117017822E+02 -0.19535080529E+02  0.94664706039E+02  0.89672607355E+02 0.  0.
         11    1    3    3    0    0 -0.41765357221E+02  0.18799390027E+02 -0.25782132666E+02  0.52559304545E+02  0.51100000000E-03 0.  1.
         22    1    1    0    0    0  0.17609272005E+02  0.15117017822E+02  0.19535080529E+02  0.30335293961E+02  0.00000000000E+00 0.  1.
</event>
<event>
 5    1  0.1681104E-003  0.9118800E+02  0.7818608E-02  0.1130116E+00
         25   -1    0    0    0    0  0.00000000000E+00  0.00000000000E+00  0.99999998245E-14  0.12500000000E+03  0.12500000000E+03 0.  0.
        -11    1    3    3    0    0 -0.35855691071E+02 -0.99668140355E+00  0.42766957253E+02  0.55817887715E+02  0.51100000000E-03 0. -1.
         23    2    1    0    0    0 -0.23194552898E+02 -0.17581769989E+02  0.10874086471E+02  0.93929890945E+02  0.88642386793E+02 0.  0.
         11    1    3    3    0    0  0.12661138173E+02 -0.16585088586E+02 -0.31892870782E+02  0.38112003230E+02  0.51100000000E-03 0.  1.
         22    1    1    0    0    0  0.23194552898E+02  0.17581769989E+02 -0.10874086471E+02  0.31070109055E+02  0.00000000000E+00 0. -1.
</event>
<event>
 5    1  0.1681104E-003  0.9118800E+02  0.7818608E-02  0.1130116E+00
         25   -1    0    0    0    0  0.00000000000E+00  0.00000000000E+00  0.99999998245E-14  0.12500000000E+03  0.12500000000E+03 0.  0.
        -11    1    3    3    0    0 -0.41208817290E+02  0.29656609027E+02  0.88046392505E+01  0.51528659540E+02  0.51100000000E-03 0. -1.
         23    2    1    0    0    0  0.36266049157E+00  0.17038951452E+02  0.22219759187E+02  0.96996873611E+02  0.92866670032E+02 0.  0.
         11    1    3    3    0    0  0.41571477781E+02 -0.12617657575E+02  0.13415119937E+02  0.45468214071E+02  0.51100000000E-03 0.  1.
         22    1    1    0    0    0 -0.36266049157E+00 -0.17038951452E+02 -0.22219759187E+02  0.28003126389E+02  0.00000000000E+00 0. -1.
</event>
<event>
 5    1  0.1681104E-003  0.9118800E+02  0.7818608E-02  0.1130116E+00
         25   -1    0    0    0    0  0.00000000000E+00  0.00000000000E+00  0.99999998245E-14  0.12500000000E+03  0.12500000000E+03 0.  0.
        -11    1    3    3    0    0 -0.19491953488E+02  0.14607303889E+02 -0.42915737624E+02  0.49346429595E+02  0.51100000000E-03 0.  1.
         23    2    1    0    0    0 -0.25822627105E+02  0.11082287779E+02  0.38206550950E+01  0.96641181647E+02  0.92386662522E+02 0.  0.
         11    1    3    3    0    0 -0.63306736167E+01 -0.35250161100E+01  0.46736392719E+02  0.47294752052E+02  0.51100000000E-03 0. -1.
         22    1    1    0    0    0  0.25822627105E+02 -0.11082287779E+02 -0.38206550950E+01  0.28358818353E+02  0.00000000000E+00 0. -1.
</event>
<event>
 5    1  0.1681104E-003  0.9118800E+02  0.7818608E-02  0.1130116E+00
         25   -1    0    0    0    0  0.00000000000E+00  0.00000000000E+00  0.99999998245E-14  0.12500000000E+03  0.12500000000E+03 0.  0.
        -11    1    3    3    0    0 -0.31381065780E+01 -0.16719227725E+02  0.10520618787E+02  0.20001592650E+02  0.51100000000E-03 0.  1.
         23    2    1    0    0    0 -0.34992337278E+02  0.22212548595E+02 -0.20146947961E+02  0.78915723989E+02  0.64061930952E+02 0.  0.
         11    1    3    3    0    0 -0.31854230700E+02  0.38931776321E+02 -0.30667566747E+02  0.58914131339E+02  0.51100000000E-03 0. -1.
         22    1    1    0    0    0  0.34992337278E+02 -0.22212548595E+02  0.20146947961E+02  0.46084276011E+02  0.00000000000E+00 0. -1.
</event>
<event>
 5    1  0.1681104E-003  0.9118800E+02  0.7818608E-02  0.1130116E+00
         25   -1    0    0    0    0  0.00000000000E+00  0.00000000000E+00  0.99999998245E-14  0.12500000000E+03  0.12500000000E+03 0.  0.
        -11    1    3    3    0    0 -0.17624772484E+02 -0.26071636148E+02  0.23543730895E+02  0.39302291043E+02  0.51100000000E-03 0.  1.
         23    2    1    0    0    0 -0.11707967302E+01  0.25910946316E+02  0.16449193572E+02  0.94286422007E+02  0.89143735067E+02 0.  0.
         11    1    3    3    0    0  0.16453975754E+02  0.51982582464E+02 -0.70945373230E+01  0.54984130964E+02  0.51100000000E-03 0. -1.
         22    1    1    0    0    0  0.11707967302E+01 -0.25910946316E+02 -0.16449193572E+02  0.30713577993E+02  0.00000000000E+00 0. -1.
</event>
<event>
 5    1  0.1681104E-003  0.9118800E+02  0.7818608E-02  0.1130116E+00
         25   -1    0    0    0    0  0.00000000000E+00  0.00000000000E+00  0.99999998245E-14  0.12500000000E+03  0.12500000000E+03 0.  0.
        -11    1    3    3    0    0  0.48861063482E+02 -0.14563119162E+02  0.21854939734E+02  0.55471851919E+02  0.51100000000E-03 0.  1.
         23    2    1    0    0    0  0.32735242837E+02  0.11688276663E+02  0.15558810031E+02  0.86917346409E+02  0.78130254078E+02 0.  0.
         11    1    3    3    0    0 -0.16125820645E+02  0.26251395825E+02 -0.62961297029E+01  0.31445494490E+02  0.51100000000E-03 0. -1.
         22    1    1    0    0    0 -0.32735242837E+02 -0.11688276663E+02 -0.15558810031E+02  0.38082653591E+02  0.00000000000E+00 0.  1.
</event>
<event>
 5    1  0.1681104E-003  0.9118800E+02  0.7818608E-02  0.1130116E+00
         25   -1    0    0    0    0  0.00000000000E+00  0.00000000000E+00  0.99999998245E-14  0.12500000000E+03  0.12500000000E+03 0.  0.
        -11    1    3    3    0    0 -0.41577581534E+02 -0.22152615331E+02  0.21425211730E+02  0.51753969414E+02  0.51100000000E-03 0. -1.
         23    2    1    0    0    0 -0.20803114140E+02 -0.17087878432E+02 -0.15140635878E+02  0.94113044792E+02  0.88900287952E+02 0.  0.
         11    1    3    3    0    0  0.20774467393E+02  0.50647368982E+01 -0.36565847608E+02  0.42359075378E+02  0.51100000000E-03 0.  1.
         22    1    1    0    0    0  0.20803114140E+02  0.17087878432E+02  0.15140635878E+02  0.30886955208E+02  0.00000000000E+00 0. -1.
</event>
<event>
 5    1  0.1681104E-003  0.9118800E+02  0.7818608E-02  0.1130116E+00
         25   -1    0    0    0    0  0.00000000000E+00  0.00000000000E+00  0.99999998245E-14  0.12500000000E+03  0.12500000000E+03 0.  0.
        -11    1    3    3    0    0 -0.19836856885E+02 -0.30147707550E+02  0.65820299452E+01  0.36683896740E+02  0.51100000000E-03 0. -1.
         23    2    1    0    0    0 -0.12888190403E+02  0.26750783063E+02 -0.42015219135E+01  0.95010624669E+02  0.90153514447E+02 0.  0.
         11    1    3    3    0    0  0.69486664823E+01  0.56898490613E+02 -0.10783551859E+02  0.58326727929E+02  0.51100000000E-03 0.  1.
         22    1    1    0    0    0  0.12888190403E+02 -0.26750783063E+02  0.42015219135E+01  0.29989375331E+02  0.00000000000E+00 0.  1.
</event>
<event>
 5    1  0.1681104E-003  0.9118800E+02  0.7818608E-02  0.1130116E+00
         25   -1    0    0    0    0  0.00000000000E+00  0.00000000000E+00  0.99999998245E-14  0.12500000000E+03  0.12500000000E+03 0.  0.
        -11    1    3    3    0    0  0.39218073358E+02  0.18931727485E+02  0.19047735909E+02  0.47531924293E+02  0.51100000000E-03 0.  1.
         23    2    1    0    0    0 -0.86449797002E+01  0.18631599306E+02  0.21249367692E+02  0.95446526532E+02  0.90755890349E+02 0.  0.
         11    1    3    3    0    0 -0.47863053058E+02 -0.30012817911E+00  0.22016317830E+01  0.47914602239E+02  0.51100000000E-03 0. -1.
         22    1    1    0    0    0  0.86449797002E+01 -0.18631599306E+02 -0.21249367692E+02  0.29553473468E+02  0.00000000000E+00 0. -1.
</event>
<event>
 5    1  0.1681104E-003  0.9118800E+02  0.7818608E-02  0.1130116E+00
         25   -1    0    0    0    0  0.00000000000E+00  0.00000000000E+00  0.99999998245E-14  0.12500000000E+03  0.12500000000E+03 0.  0.
        -11    1    3    3    0    0  0.30237406325E+02  0.34235613265E+02 -0.30542506736E+02  0.54947453761E+02  0.51100000000E-03 0.  1.
         23    2    1    0    0    0  0.71488830108E+01  0.27045868807E+02  0.36088509251E+01  0.96793451951E+02  0.92592456430E+02 0.  0.
         11    1    3    3    0    0 -0.23088523314E+02 -0.71897444577E+01  0.34151357661E+02  0.41845998190E+02  0.51100000000E-03 0. -1.
         22    1    1    0    0    0 -0.71488830108E+01 -0.27045868807E+02 -0.36088509251E+01  0.28206548049E+02  0.00000000000E+00 0.  1.
</event>
<event>
 5    1  0.1681104E-003  0.9118800E+02  0.7818608E-02  0.1130116E+00
         25   -1    0    0    0    0  0.00000000000E+00  0.00000000000E+00  0.99999998245E-14  0.12500000000E+03  0.12500000000E+03 0.  0.
        -11    1    3    3    0    0 -0.49974120310E+02 -0.12602276053E+02 -0.27539518783E+01  0.51612152771E+02  0.51100000000E-03 0. -1.
         23    2    1    0    0    0 -0.97416284335E+01 -0.24329839024E+02 -0.14386129619E+02  0.95103493232E+02  0.90282187103E+02 0.  0.
         11    1    3    3    0    0  0.40232491877E+02 -0.11727562971E+02 -0.11632177741E+02  0.43491340461E+02  0.51100000000E-03 0.  1.
         22    1    1    0    0    0  0.97416284335E+01  0.24329839024E+02  0.14386129619E+02  0.29896506768E+02  0.00000000000E+00 0. -1.
</event>
<event>
 5    1  0.1681104E-003  0.9118800E+02  0.7818608E-02  0.1130116E+00
         25   -1    0    0    0    0  0.00000000000E+00  0.00000000000E+00  0.99999998245E-14  0.12500000000E+03  0.12500000000E+03 0.  0.
        -11    1    3    3    0    0  0.50360892046E+02 -0.23068819353E+01 -0.31440003640E+02  0.59413929184E+02  0.51100000000E-03 0.  1.
         23    2    1    0    0    0  0.10828638705E+02 -0.64195564603E+01 -0.21013436134E+02  0.10050439592E+03  0.97473580927E+02 0.  0.
         11    1    3    3    0    0 -0.39532253341E+02 -0.41126745249E+01  0.10426567506E+02  0.41090466731E+02  0.51100000000E-03 0. -1.
         22    1    1    0    0    0 -0.10828638705E+02  0.64195564603E+01  0.21013436134E+02  0.24495604085E+02  0.00000000000E+00 0.  1.
</event>
<event>
 5    1  0.1681104E-003  0.9118800E+02  0.7818608E-02  0.1130116E+00
         25   -1    0    0    0    0  0.00000000000E+00  0.00000000000E+00  0.99999998245E-14  0.12500000000E+03  0.12500000000E+03 0.  0.
        -11    1    3    3    0    0 -0.13713183548E+02 -0.21006912693E+02 -0.51875468086E+02  0.57622963941E+02  0.51100000000E-03 0. -1.
         23    2    1    0    0    0 -0.18557547294E+02  0.27396959658E+01 -0.22409945258E+02  0.95775110915E+02  0.91207333744E+02 0.  0.
         11    1    3    3    0    0 -0.48443637463E+01  0.23746608659E+02  0.29465522828E+02  0.38152146974E+02  0.51100000000E-03 0.  1.
         22    1    1    0    0    0  0.18557547294E+02 -0.27396959658E+01  0.22409945258E+02  0.29224889085E+02  0.00000000000E+00 0. -1.
</event>
<event>
 5    1  0.1681104E-003  0.9118800E+02  0.7818608E-02  0.1130116E+00
         25   -1    0    0    0    0  0.00000000000E+00  0.00000000000E+00  0.99999998245E-14  0.12500000000E+03  0.12500000000E+03 0.  0.
        -11    1    3    3    0    0  0.45226755755E+02 -0.38257022948E+02  0.15913203765E+01  0.59258683260E+02  0.51100000000E-03 0. -1.
         23    2    1    0    0    0  0.10288768621E+02 -0.27081489340E+02  0.22102928214E+01  0.95945719439E+02  0.91440854434E+02 0.  0.
         11    1    3    3    0    0 -0.34937987134E+02  0.11175533608E+02  0.61897244497E+00  0.36687036178E+02  0.51100000000E-03 0.  1.
         22    1    1    0    0    0 -0.10288768621E+02  0.27081489340E+02 -0.22102928214E+01  0.29054280561E+02  0.00000000000E+00 0. -1.
</event>
<event>
 5    1  0.1681104E-003  0.9118800E+02  0.7818608E-02  0.1130116E+00
         25   -1    0    0    0    0  0.00000000000E+00  0.00000000000E+00  0.99999998245E-14  0.12500000000E+03  0.12500000000E+03 0.  0.
        -11    1    3    3    0    0  0.33706017791E+02 -0.41816961100E+01 -0.36199854537E+00  0.33966354836E+02  0.51100000000E-03 0. -1.
         23    2    1    0    0    0 -0.24634415527E+02 -0.16666365280E+01  0.17158387111E+02  0.94932702916E+02  0.90045409262E+02 0.  0.
         11    1    3    3    0    0 -0.58340433318E+02  0.25150595820E+01  0.17520385657E+02  0.60966348080E+02  0.51100000000E-03 0.  1.
         22    1    1    0    0    0  0.24634415527E+02  0.16666365280E+01 -0.17158387111E+02  0.30067297084E+02  0.00000000000E+00 0.  1.
</event>
<event>
 5    1  0.1681104E-003  0.9118800E+02  0.7818608E-02  0.1130116E+00
         25   -1    0    0    0    0  0.00000000000E+00  0.00000000000E+00  0.99999998245E-14  0.12500000000E+03  0.12500000000E+03 0.  0.
        -11    1    3    3    0    0  0.37637826590E+02  0.34568166501E+02  0.15127275933E+02  0.53295390074E+02  0.51100000000E-03 0. -1.
         23    2    1    0    0    0  0.23933799463E+02  0.13994018611E+02 -0.15957148791E+02  0.93011097062E+02  0.87337129936E+02 0.  0.
         11    1    3    3    0    0 -0.13704027127E+02 -0.20574147890E+02 -0.31084424724E+02  0.39715706988E+02  0.51100000000E-03 0.  1.
         22    1    1    0    0    0 -0.23933799463E+02 -0.13994018611E+02  0.15957148791E+02  0.31988902938E+02  0.00000000000E+00 0.  1.
</event>
<event>
 5    1  0.1681104E-003  0.9118800E+02  0.7818608E-02  0.1130116E+00
         25   -1    0    0    0    0  0.00000000000E+00  0.00000000000E+00  0.99999998245E-14  0.12500000000E+03  0.12500000000E+03 0.  0.
        -11    1    3    3    0    0 -0.16162439268E+02  0.19338976630E+02 -0.28558933296E+02  0.38089803510E+02  0.51100000000E-03 0. -1.
         23    2    1    0    0    0  0.25537213238E+02  0.59040234477E+01  0.10481374344E+02  0.96771185626E+02  0.92562391966E+02 0.  0.
         11    1    3    3    0    0  0.41699652506E+02 -0.13434953182E+02  0.39040307640E+02  0.58681382116E+02  0.51100000000E-03 0.  1.
         22    1    1    0    0    0 -0.25537213238E+02 -0.59040234477E+01 -0.10481374344E+02  0.28228814374E+02  0.00000000000E+00 0.  1.
</event>
<event>
 5    1  0.1681104E-003  0.9118800E+02  0.7818608E-02  0.1130116E+00
         25   -1    0    0    0    0  0.00000000000E+00  0.00000000000E+00  0.99999998245E-14  0.12500000000E+03  0.12500000000E+03 0.  0.
        -11    1    3    3    0    0 -0.21435042457E+02 -0.30302965352E+02  0.71691923399E+01  0.37803810302E+02  0.51100000000E-03 0. -1.
         23    2    1    0    0    0 -0.25259549483E+01  0.26136077144E+02  0.86778240400E+01  0.97345351079E+02  0.93334547569E+02 0.  0.
         11    1    3    3    0    0  0.18909087508E+02  0.56439042496E+02  0.15086317002E+01  0.59541540777E+02  0.51100000000E-03 0.  1.
         22    1    1    0    0    0  0.25259549483E+01 -0.26136077144E+02 -0.86778240400E+01  0.27654648921E+02  0.00000000000E+00 0.  1.
</event>
<event>
 5    1  0.1681104E-003  0.9118800E+02  0.7818608E-02  0.1130116E+00
         25   -1    0    0    0    0  0.00000000000E+00  0.00000000000E+00  0.99999998245E-14  0.12500000000E+03  0.12500000000E+03 0.  0.
        -11    1    3    3    0    0  0.11378012103E+01 -0.28329475956E+02 -0.34450802386E+02  0.44617391059E+02  0.51100000000E-03 0.  1.
         23    2    1    0    0    0 -0.25038851643E+02 -0.28681967907E+00  0.48026502305E+01  0.99503102025E+02  0.96180951889E+02 0.  0.
         11    1    3    3    0    0 -0.26176652853E+02  0.28042656277E+02  0.39253452617E+02  0.54885710966E+02  0.51100000000E-03 0. -1.
         22    1    1    0    0    0  0.25038851643E+02  0.28681967907E+00 -0.48026502305E+01  0.25496897975E+02  0.00000000000E+00 0.  1.
</event>
<event>
 5    1  0.1681104E-003  0.9118800E+02  0.7818608E-02  0.1130116E+00
         25   -1    0    0    0    0  0.00000000000E+00  0.00000000000E+00  0.99999998245E-14  0.12500000000E+03  0.12500000000E+03 0.  0.
        -11    1    3    3    0    0  0.16716586287E+02  0.54304748753E+02 -0.19084677107E+02  0.59938926373E+02  0.51100000000E-03 0.  1.
         23    2    1    0    0    0  0.14251250241E+02  0.18881085286E+02 -0.17664480510E+02  0.95476663693E+02  0.90797389408E+02 0.  0.
         11    1    3    3    0    0 -0.24653360455E+01 -0.35423663467E+02  0.14201965971E+01  0.35537737321E+02  0.51100000000E-03 0. -1.
         22    1    1    0    0    0 -0.14251250241E+02 -0.18881085286E+02  0.17664480510E+02  0.29523336307E+02  0.00000000000E+00 0.  1.
</event>
<event>
 5    1  0.1681104E-003  0.9118800E+02  0.7818608E-02  0.1130116E+00
         25   -1    0    0    0    0  0.00000000000E+00  0.00000000000E+00  0.99999998245E-14  0.12500000000E+03  0.12500000000E+03 0.  0.
        -11    1    3    3    0    0 -0.23080776968E+02 -0.26487610906E+02  0.13407018077E+02  0.37604041418E+02  0.51100000000E-03 0. -1.
         23    2    1    0    0    0 -0.15986186633E+01  0.76491646900E+01 -0.28310250192E+02  0.95631044145E+02  0.91009675509E+02 0.  0.
         11    1    3    3    0    0  0.21482158305E+02  0.34136775596E+02 -0.41717268268E+02  0.58027002728E+02  0.51100000000E-03 0.  1.
         22    1    1    0    0    0  0.15986186633E+01 -0.76491646900E+01  0.28310250192E+02  0.29368955855E+02  0.00000000000E+00 0.  1.
</event>
<event>
 5    1  0.1681104E-003  0.9118800E+02  0.7818608E-02  0.1130116E+00
         25   -1    0    0    0    0  0.00000000000E+00  0.00000000000E+00  0.99999998245E-14  0.12500000000E+03  0.12500000000E+03 0.  0.
        -11    1    3    3    0    0 -0.29548383554E+02 -0.39791344014E+01 -0.19497741826E+02  0.35624463755E+02  0.51100000000E-03 0.  1.
         23    2    1    0    0    0  0.10196585299E+02  0.32115117424E+01  0.26253429129E+02  0.96653453465E+02  0.92403264912E+02 0.  0.
         11    1    3    3    0    0  0.39744968853E+02  0.71906461438E+01  0.45751170954E+02  0.61028989710E+02  0.51100000000E-03 0. -1.
         22    1    1    0    0    0 -0.10196585299E+02 -0.32115117424E+01 -0.26253429129E+02  0.28346546535E+02  0.00000000000E+00 0. -1.
</event>
<event>
 5    1  0.1681104E-003  0.9118800E+02  0.7818608E-02  0.1130116E+00
         25   -1    0    0    0    0  0.00000000000E+00  0.00000000000E+00  0.99999998245E-14  0.12500000000E+03  0.12500000000E+03 0.  0.
        -11    1    3    3    0    0 -0.28390869682E+02  0.20784896464E+02  0.18628550723E+02  0.39813016773E+02  0.51100000000E-03 0.  1.
         23    2    1    0    0    0 -0.12763742618E+02 -0.19960620290E+02 -0.16743983117E+02  0.95987925641E+02  0.91498532285E+02 0.  0.
         11    1    3    3    0    0  0.15627127064E+02 -0.40745516754E+02 -0.35372533840E+02  0.56174908868E+02  0.51100000000E-03 0. -1.
         22    1    1    0    0    0  0.12763742618E+02  0.19960620290E+02  0.16743983117E+02  0.29012074359E+02  0.00000000000E+00 0. -1.
</event>
<event>
 5    1  0.1681104E-003  0.9118800E+02  0.7818608E-02  0.1130116E+00
         25   -1    0    0    0    0  0.00000000000E+00  0.00000000000E+00  0.99999998245E-14  0.12500000000E+03  0.12500000000E+03 0.  0.
        -11    1    3    3    0    0 -0.13443789955E+02  0.29413917003E+02 -0.11707706551E+02  0.34394540188E+02  0.51100000000E-03 0.  1.
         23    2    1    0    0    0  0.13457185099E+02 -0.15044175562E+02  0.21061861036E+02  0.95827666541E+02  0.91279333013E+02 0.  0.
         11    1    3    3    0    0  0.26900975054E+02 -0.44458092565E+02  0.32769567587E+02  0.61433126353E+02  0.51100000000E-03 0. -1.
         22    1    1    0    0    0 -0.13457185099E+02  0.15044175562E+02 -0.21061861036E+02  0.29172333459E+02  0.00000000000E+00 0. -1.
</event>
<event>
 5    1  0.1681104E-003  0.9118800E+02  0.7818608E-02  0.1130116E+00
         25   -1    0    0    0    0  0.00000000000E+00  0.00000000000E+00  0.99999998245E-14  0.12500000000E+03  0.12500000000E+03 0.  0.
        -11    1    3    3    0    0 -0.54720425493E+01 -0.25811339459E+02 -0.17766712814E+02  0.31809190163E+02  0.51100000000E-03 0.  1.
         23    2    1    0    0    0 -0.34686830259E+02  0.67745128003E-01  0.19018735412E+02  0.85441270502E+02  0.75731879849E+02 0.  0.
         11    1    3    3    0    0 -0.29214787710E+02  0.25879084587E+02  0.36785448227E+02  0.53632080339E+02  0.51100000000E-03 0. -1.
         22    1    1    0    0    0  0.34686830259E+02 -0.67745128003E-01 -0.19018735412E+02  0.39558729498E+02  0.00000000000E+00 0. -1.
</event>
<event>
 5    1  0.1681104E-003  0.9118800E+02  0.7818608E-02  0.1130116E+00
         25   -1    0    0    0    0  0.00000000000E+00  0.00000000000E+00  0.99999998245E-14  0.12500000000E+03  0.12500000000E+03 0.  0.
        -11    1    3    3    0    0  0.13607321600E+02  0.57062262779E+01  0.34266844872E+02  0.37308670268E+02  0.51100000000E-03 0.  1.
         23    2    1    0    0    0 -0.22958363267E+02 -0.24171987343E+02  0.11462180264E+02  0.89747298084E+02  0.82533778060E+02 0.  0.
         11    1    3    3    0    0 -0.36565684867E+02 -0.29878213621E+02 -0.22804664608E+02  0.52438627815E+02  0.51100000000E-03 0. -1.
         22    1    1    0    0    0  0.22958363267E+02  0.24171987343E+02 -0.11462180264E+02  0.35252701916E+02  0.00000000000E+00 0. -1.
</event>
<event>
 5    1  0.1681104E-003  0.9118800E+02  0.7818608E-02  0.1130116E+00
         25   -1    0    0    0    0  0.00000000000E+00  0.00000000000E+00  0.99999998245E-14  0.12500000000E+03  0.12500000000E+03 0.  0.
        -11    1    3    3    0    0  0.33195547741E+02  0.35724241834E+00 -0.59774638176E+01  0.33731322031E+02  0.51100000000E-03 0.  1.
         23    2    1    0    0    0 -0.25103864221E+02  0.80741775374E+01  0.13098374251E+02  0.95555751839E+02  0.90906204187E+02 0.  0.
         11    1    3    3    0    0 -0.58299411963E+02  0.77169351190E+01  0.19075838069E+02  0.61824429808E+02  0.51100000000E-03 0. -1.
         22    1    1    0    0    0  0.25103864221E+02 -0.80741775374E+01 -0.13098374251E+02  0.29444248161E+02  0.00000000000E+00 0. -1.
</event>
<event>
 5    1  0.1681104E-003  0.9118800E+02  0.7818608E-02  0.1130116E+00
         25   -1    0    0    0    0  0.00000000000E+00  0.00000000000E+00  0.99999998245E-14  0.12500000000E+03  0.12500000000E+03 0.  0.
        -11    1    3    3    0    0 -0.12203736621E+02 -0.87043816785E+01 -0.54701987251E+02  0.56718646471E+02  0.51100000000E-03 0. -1.
         23    2    1    0    0    0 -0.22945189414E+02 -0.81644272375E+00 -0.17814461790E+02  0.95939660276E+02  0.91432571161E+02 0.  0.
         11    1    3    3    0    0 -0.10741452793E+02  0.78879389547E+01  0.36887525461E+02  0.39221013806E+02  0.51100000000E-03 0.  1.
         22    1    1    0    0    0  0.22945189414E+02  0.81644272375E+00  0.17814461790E+02  0.29060339724E+02  0.00000000000E+00 0. -1.
</event>
<event>
 5    1  0.1681104E-003  0.9118800E+02  0.7818608E-02  0.1130116E+00
         25   -1    0    0    0    0  0.00000000000E+00  0.00000000000E+00  0.99999998245E-14  0.12500000000E+03  0.12500000000E+03 0.  0.
        -11    1    3    3    0    0 -0.25226075995E+02 -0.17339652257E+01 -0.40813632774E+02  0.48011604492E+02  0.51100000000E-03 0.  1.
         23    2    1    0    0    0  0.17978532716E+01  0.25389537013E+02 -0.83428506406E+01  0.98214481096E+02  0.94491376718E+02 0.  0.
         11    1    3    3    0    0  0.27023929266E+02  0.27123502239E+02  0.32470782133E+02  0.50202876604E+02  0.51100000000E-03 0. -1.
         22    1    1    0    0    0 -0.17978532716E+01 -0.25389537013E+02  0.83428506406E+01  0.26785518904E+02  0.00000000000E+00 0. -1.
</event>
<event>
 5    1  0.1681104E-003  0.9118800E+02  0.7818608E-02  0.1130116E+00
         25   -1    0    0    0    0  0.00000000000E+00  0.00000000000E+00  0.99999998245E-14  0.12500000000E+03  0.12500000000E+03 0.  0.
        -11    1    3    3    0    0  0.28586656874E+02  0.39185129299E+01  0.23822330213E+02  0.37417310323E+02  0.51100000000E-03 0.  1.
         23    2    1    0    0    0 -0.26262755196E+02  0.11905680177E+02  0.73101055827E+01  0.95252476161E+02  0.90488225976E+02 0.  0.
         11    1    3    3    0    0 -0.54849412069E+02  0.79871672467E+01 -0.16512224630E+02  0.57835165838E+02  0.51100000000E-03 0. -1.
         22    1    1    0    0    0  0.26262755196E+02 -0.11905680177E+02 -0.73101055827E+01  0.29747523839E+02  0.00000000000E+00 0. -1.
</event>
<event>
 5    1  0.1681104E-003  0.9118800E+02  0.7818608E-02  0.1130116E+00
         25   -1    0    0    0    0  0.00000000000E+00  0.00000000000E+00  0.99999998245E-14  0.12500000000E+03  0.12500000000E+03 0.  0.
        -11    1    3    3    0    0 -0.44802286839E+02 -0.12756442094E+02  0.39172440361E+02  0.60864207914E+02  0.51100000000E-03 0.  1.
         23    2    1    0    0    0 -0.27571565155E+02 -0.61250940320E+01  0.10702794616E+02  0.94796394344E+02  0.89855988037E+02 0.  0.
         11    1    3    3    0    0  0.17230721684E+02  0.66313480624E+01 -0.28469645745E+02  0.33932186431E+02  0.51100000000E-03 0. -1.
         22    1    1    0    0    0  0.27571565155E+02  0.61250940320E+01 -0.10702794616E+02  0.30203605656E+02  0.00000000000E+00 0.  1.
</event>
<event>
 5    1  0.1681104E-003  0.9118800E+02  0.7818608E-02  0.1130116E+00
         25   -1    0    0    0    0  0.00000000000E+00  0.00000000000E+00  0.99999998245E-14  0.12500000000E+03  0.12500000000E+03 0.  0.
        -11    1    3    3    0    0 -0.35404094363E+02  0.44579664914E+02  0.22124539075E+02  0.61076113588E+02  0.51100000000E-03 0. -1.
         23    2    1    0    0    0 -0.10839680073E+02  0.26645022806E+02  0.55845737890E+01  0.95697382902E+02  0.91100744923E+02 0.  0.
         11    1    3    3    0    0  0.24564414290E+02 -0.17934642109E+02 -0.16539965286E+02  0.34621269314E+02  0.51100000000E-03 0.  1.
         22    1    1    0    0    0  0.10839680073E+02 -0.26645022806E+02 -0.55845737890E+01  0.29302617098E+02  0.00000000000E+00 0. -1.
</event>
<event>
 5    1  0.1681104E-003  0.9118800E+02  0.7818608E-02  0.1130116E+00
         25   -1    0    0    0    0  0.00000000000E+00  0.00000000000E+00  0.99999998245E-14  0.12500000000E+03  0.12500000000E+03 0.  0.
        -11    1    3    3    0    0 -0.40596788975E+01 -0.29740898058E+02 -0.29744859454E+02  0.42258237945E+02  0.51100000000E-03 0. -1.
         23    2    1    0    0    0 -0.27587998897E+02 -0.82164397989E+01  0.11162164562E+02  0.94126038742E+02  0.88918556474E+02 0.  0.
         11    1    3    3    0    0 -0.23528319999E+02  0.21524458259E+02  0.40907024016E+02  0.51867800796E+02  0.51100000000E-03 0.  1.
         22    1    1    0    0    0  0.27587998897E+02  0.82164397989E+01 -0.11162164562E+02  0.30873961258E+02  0.00000000000E+00 0.  1.
</event>
<event>
 5    1  0.1681104E-003  0.9118800E+02  0.7818608E-02  0.1130116E+00
         25   -1    0    0    0    0  0.00000000000E+00  0.00000000000E+00  0.99999998245E-14  0.12500000000E+03  0.12500000000E+03 0.  0.
        -11    1    3    3    0    0  0.13734161332E+02  0.39468637993E+02 -0.20632767809E+02  0.46605918940E+02  0.51100000000E-03 0.  1.
         23    2    1    0    0    0 -0.23641834044E+02  0.13942136396E+02  0.25068862774E+01  0.97439086317E+02  0.93459999889E+02 0.  0.
         11    1    3    3    0    0 -0.37375995375E+02 -0.25526501597E+02  0.23139654086E+02  0.50833167377E+02  0.51100000000E-03 0. -1.
         22    1    1    0    0    0  0.23641834044E+02 -0.13942136396E+02 -0.25068862774E+01  0.27560913683E+02  0.00000000000E+00 0.  1.
</event>
<event>
 5    1  0.1681104E-003  0.9118800E+02  0.7818608E-02  0.1130116E+00
         25   -1    0    0    0    0  0.00000000000E+00  0.00000000000E+00  0.99999998245E-14  0.12500000000E+03  0.12500000000E+03 0.  0.
        -11    1    3    3    0    0  0.40403828214E+02 -0.22174243846E+02 -0.12149371071E+02  0.47663126652E+02  0.51100000000E-03 0.  1.
         23    2    1    0    0    0  0.83891045156E+01 -0.21494833883E+02  0.21034081950E+02  0.93777611210E+02  0.88427387175E+02 0.  0.
         11    1    3    3    0    0 -0.32014723699E+02  0.67940996280E+00  0.33183453021E+02  0.46114484558E+02  0.51100000000E-03 0. -1.
         22    1    1    0    0    0 -0.83891045156E+01  0.21494833883E+02 -0.21034081950E+02  0.31222388790E+02  0.00000000000E+00 0.  1.
</event>
<event>
 5    1  0.1681104E-003  0.9118800E+02  0.7818608E-02  0.1130116E+00
         25   -1    0    0    0    0  0.00000000000E+00  0.00000000000E+00  0.99999998245E-14  0.12500000000E+03  0.12500000000E+03 0.  0.
        -11    1    3    3    0    0 -0.42861144859E+02  0.38268855424E+02 -0.14405447911E+02  0.59237656637E+02  0.51100000000E-03 0.  1.
         23    2    1    0    0    0 -0.25185811355E+02  0.46459942906E+01 -0.10112019433E+02  0.97465234819E+02  0.93494966200E+02 0.  0.
         11    1    3    3    0    0  0.17675333504E+02 -0.33622861133E+02  0.42934284783E+01  0.38227578182E+02  0.51100000000E-03 0. -1.
         22    1    1    0    0    0  0.25185811355E+02 -0.46459942906E+01  0.10112019433E+02  0.27534765181E+02  0.00000000000E+00 0.  1.
</event>
<event>
 5    1  0.1681104E-003  0.9118800E+02  0.7818608E-02  0.1130116E+00
         25   -1    0    0    0    0  0.00000000000E+00  0.00000000000E+00  0.99999998245E-14  0.12500000000E+03  0.12500000000E+03 0.  0.
        -11    1    3    3    0    0 -0.28517673881E+02  0.67636127092E+01  0.44727168759E+02  0.53474515481E+02  0.51100000000E-03 0.  1.
         23    2    1    0    0    0 -0.67561202505E+01  0.25298992507E+02  0.14539962592E+02  0.95048460893E+02  0.90205960021E+02 0.  0.
         11    1    3    3    0    0  0.21761553630E+02  0.18535379798E+02 -0.30187206167E+02  0.41573945412E+02  0.51100000000E-03 0. -1.
         22    1    1    0    0    0  0.67561202505E+01 -0.25298992507E+02 -0.14539962592E+02  0.29951539107E+02  0.00000000000E+00 0.  1.
</event>
<event>
 5    1  0.1681104E-003  0.9118800E+02  0.7818608E-02  0.1130116E+00
         25   -1    0    0    0    0  0.00000000000E+00  0.00000000000E+00  0.99999998245E-14  0.12500000000E+03  0.12500000000E+03 0.  0.
        -11    1    3    3    0    0 -0.50613418117E+01 -0.19751073577E+02 -0.48077327575E+02  0.52222136258E+02  0.51100000000E-03 0. -1.
         23    2    1    0    0    0  0.13181770158E+02  0.11203264612E+02 -0.23766340496E+02  0.95604232566E+02  0.90972842879E+02 0.  0.
         11    1    3    3    0    0  0.18243111970E+02  0.30954338189E+02  0.24310987078E+02  0.43382096308E+02  0.51100000000E-03 0.  1.
         22    1    1    0    0    0 -0.13181770158E+02 -0.11203264612E+02  0.23766340496E+02  0.29395767434E+02  0.00000000000E+00 0. -1.
</event>
<event>
 5    1  0.1681104E-003  0.9118800E+02  0.7818608E-02  0.1130116E+00
         25   -1    0    0    0    0  0.00000000000E+00  0.00000000000E+00  0.99999998245E-14  0.12500000000E+03  0.12500000000E+03 0.  0.
        -11    1    3    3    0    0  0.22038287315E+02 -0.42201762635E+02 -0.30237106964E+01  0.47705531167E+02  0.51100000000E-03 0.  1.
         23    2    1    0    0    0  0.30269922828E+02  0.36244570621E+01 -0.38443348178E+01  0.94272425621E+02  0.89124106758E+02 0.  0.
         11    1    3    3    0    0  0.82316355132E+01  0.45826219697E+02 -0.82062412147E+00  0.46566894455E+02  0.51100000000E-03 0. -1.
         22    1    1    0    0    0 -0.30269922828E+02 -0.36244570621E+01  0.38443348178E+01  0.30727574379E+02  0.00000000000E+00 0. -1.
</event>
<event>
 5    1  0.1681104E-003  0.9118800E+02  0.7818608E-02  0.1130116E+00
         25   -1    0    0    0    0  0.00000000000E+00  0.00000000000E+00  0.99999998245E-14  0.12500000000E+03  0.12500000000E+03 0.  0.
        -11    1    3    3    0    0 -0.18290696552E+02  0.21933302109E+01 -0.58578261623E+01  0.19330659724E+02  0.51100000000E-03 0.  1.
         23    2    1    0    0    0  0.16131337021E+02 -0.81702118416E+00  0.42939597959E+02  0.79123027230E+02  0.64465159640E+02 0.  0.
         11    1    3    3    0    0  0.34422033573E+02 -0.30103513950E+01  0.48797424121E+02  0.59792367506E+02  0.51100000000E-03 0. -1.
         22    1    1    0    0    0 -0.16131337021E+02  0.81702118416E+00 -0.42939597959E+02  0.45876972770E+02  0.00000000000E+00 0. -1.
</event>
<event>
 5    1  0.1681104E-003  0.9118800E+02  0.7818608E-02  0.1130116E+00
         25   -1    0    0    0    0  0.00000000000E+00  0.00000000000E+00  0.99999998245E-14  0.12500000000E+03  0.12500000000E+03 0.  0.
        -11    1    3    3    0    0 -0.33232378188E+02  0.29503753278E+02 -0.38696598911E+02  0.58926133295E+02  0.51100000000E-03 0.  1.
         23    2    1    0    0    0 -0.38494309158E+01  0.10697441720E+02 -0.26972265761E+02  0.95729596894E+02  0.91144935260E+02 0.  0.
         11    1    3    3    0    0  0.29382947272E+02 -0.18806311558E+02  0.11724333150E+02  0.36803463599E+02  0.51100000000E-03 0. -1.
         22    1    1    0    0    0  0.38494309158E+01 -0.10697441720E+02  0.26972265761E+02  0.29270403106E+02  0.00000000000E+00 0.  1.
</event>
<event>
 5    1  0.1681104E-003  0.9118800E+02  0.7818608E-02  0.1130116E+00
         25   -1    0    0    0    0  0.00000000000E+00  0.00000000000E+00  0.99999998245E-14  0.12500000000E+03  0.12500000000E+03 0.  0.
        -11    1    3    3    0    0 -0.84274498789E+01  0.32664445855E+02 -0.41812705623E+02  0.53724205776E+02  0.51100000000E-03 0.  1.
         23    2    1    0    0    0 -0.22269678482E+02  0.38669402343E+00 -0.19985240398E+02  0.95075128309E+02  0.90242905967E+02 0.  0.
         11    1    3    3    0    0 -0.13842228603E+02 -0.32277751831E+02  0.21827465225E+02  0.41350922534E+02  0.51100000000E-03 0. -1.
         22    1    1    0    0    0  0.22269678482E+02 -0.38669402343E+00  0.19985240398E+02  0.29924871691E+02  0.00000000000E+00 0.  1.
</event>
<event>
 5    1  0.1681104E-003  0.9118800E+02  0.7818608E-02  0.1130116E+00
         25   -1    0    0    0    0  0.00000000000E+00  0.00000000000E+00  0.99999998245E-14  0.12500000000E+03  0.12500000000E+03 0.  0.
        -11    1    3    3    0    0  0.54711316165E+02  0.13548027505E+02  0.13791596535E+02  0.58026591327E+02  0.51100000000E-03 0. -1.
         23    2    1    0    0    0  0.17282235159E+02  0.77306228153E+01 -0.10815398454E+02  0.10319607776E+03  0.10086634444E+03 0.  0.
         11    1    3    3    0    0 -0.37429081006E+02 -0.58174046898E+01 -0.24606994989E+02  0.45169486436E+02  0.51100000000E-03 0.  1.
         22    1    1    0    0    0 -0.17282235159E+02 -0.77306228153E+01  0.10815398454E+02  0.21803922237E+02  0.00000000000E+00 0. -1.
</event>
<event>
 5    1  0.1681104E-003  0.9118800E+02  0.7818608E-02  0.1130116E+00
         25   -1    0    0    0    0  0.00000000000E+00  0.00000000000E+00  0.99999998245E-14  0.12500000000E+03  0.12500000000E+03 0.  0.
        -11    1    3    3    0    0  0.16332864030E+02  0.56138688036E+02  0.13274212379E+02  0.59954311408E+02  0.51100000000E-03 0.  1.
         23    2    1    0    0    0  0.11348660587E+02  0.16955722364E+02 -0.57590606198E+01  0.10379963686E+03  0.10161156044E+03 0.  0.
         11    1    3    3    0    0 -0.49842034434E+01 -0.39182965672E+02 -0.19033272998E+02  0.43845325453E+02  0.51100000000E-03 0. -1.
         22    1    1    0    0    0 -0.11348660587E+02 -0.16955722364E+02  0.57590606198E+01  0.21200363139E+02  0.00000000000E+00 0.  1.
</event>
<event>
 5    1  0.1681104E-003  0.9118800E+02  0.7818608E-02  0.1130116E+00
         25   -1    0    0    0    0  0.00000000000E+00  0.00000000000E+00  0.99999998245E-14  0.12500000000E+03  0.12500000000E+03 0.  0.
        -11    1    3    3    0    0  0.14169180067E+02 -0.25521316772E+02  0.24181711438E+02  0.37905915658E+02  0.51100000000E-03 0. -1.
         23    2    1    0    0    0  0.17508128715E+02  0.23086752525E+02 -0.62601337147E+01  0.95356754777E+02  0.90632161478E+02 0.  0.
         11    1    3    3    0    0  0.33389486479E+01  0.48608069297E+02 -0.30441845153E+02  0.57450839119E+02  0.51100000000E-03 0.  1.
         22    1    1    0    0    0 -0.17508128715E+02 -0.23086752525E+02  0.62601337147E+01  0.29643245223E+02  0.00000000000E+00 0.  1.
</event>
<event>
 5    1  0.1681104E-003  0.9118800E+02  0.7818608E-02  0.1130116E+00
         25   -1    0    0    0    0  0.00000000000E+00  0.00000000000E+00  0.99999998245E-14  0.12500000000E+03  0.12500000000E+03 0.  0.
        -11    1    3    3    0    0  0.45227549549E+01  0.34064170192E+02  0.45275198216E+01  0.34660084236E+02  0.51100000000E-03 0. -1.
         23    2    1    0    0    0 -0.11921081209E+02 -0.24743828994E+02 -0.66553738162E+01  0.96739369237E+02  0.92519415851E+02 0.  0.
         11    1    3    3    0    0 -0.16443836164E+02 -0.58807999185E+02 -0.11182893638E+02  0.62079285002E+02  0.51100000000E-03 0.  1.
         22    1    1    0    0    0  0.11921081209E+02  0.24743828994E+02  0.66553738162E+01  0.28260630763E+02  0.00000000000E+00 0.  1.
</event>
<event>
 5    1  0.1681104E-003  0.9118800E+02  0.7818608E-02  0.1130116E+00
         25   -1    0    0    0    0  0.00000000000E+00  0.00000000000E+00  0.99999998245E-14  0.12500000000E+03  0.12500000000E+03 0.  0.
        -11    1    3    3    0    0 -0.53329202271E+02 -0.19348468815E+02 -0.11666873292E+01  0.56742649038E+02  0.51100000000E-03 0.  1.
         23    2    1    0    0    0 -0.16267522653E+02 -0.21793262285E+02 -0.11767481446E+02  0.95368054504E+02  0.90647744737E+02 0.  0.
         11    1    3    3    0    0  0.37061679618E+02 -0.24447934703E+01 -0.10600794117E+02  0.38625405466E+02  0.51100000000E-03 0. -1.
         22    1    1    0    0    0  0.16267522653E+02  0.21793262285E+02  0.11767481446E+02  0.29631945496E+02  0.00000000000E+00 0.  1.
</event>
<event>
 5    1  0.1681104E-003  0.9118800E+02  0.7818608E-02  0.1130116E+00
         25   -1    0    0    0    0  0.00000000000E+00  0.00000000000E+00  0.99999998245E-14  0.12500000000E+03  0.12500000000E+03 0.  0.
        -11    1    3    3    0    0  0.23415501741E+02 -0.34349494263E+02  0.71356681473E+01  0.42179274983E+02  0.51100000000E-03 0. -1.
         23    2    1    0    0    0 -0.24771343822E+02 -0.18667870762E+02 -0.29315068610E+01  0.93843899377E+02  0.88521041817E+02 0.  0.
         11    1    3    3    0    0 -0.48186845563E+02  0.15681623500E+02 -0.10067175008E+02  0.51664624395E+02  0.51100000000E-03 0.  1.
         22    1    1    0    0    0  0.24771343822E+02  0.18667870762E+02  0.29315068610E+01  0.31156100623E+02  0.00000000000E+00 0.  1.
</event>
<event>
 5    1  0.1681104E-003  0.9118800E+02  0.7818608E-02  0.1130116E+00
         25   -1    0    0    0    0  0.00000000000E+00  0.00000000000E+00  0.99999998245E-14  0.12500000000E+03  0.12500000000E+03 0.  0.
        -11    1    3    3    0    0 -0.15721708748E+02 -0.34805471355E+02 -0.26095015324E+02  0.46255192002E+02  0.51100000000E-03 0.  1.
         23    2    1    0    0    0 -0.11943354808E+01  0.11327987957E+02 -0.28116101507E+02  0.94664131587E+02  0.89671806588E+02 0.  0.
         11    1    3    3    0    0  0.14527373267E+02  0.46133459312E+02 -0.20210861834E+01  0.48408939585E+02  0.51100000000E-03 0. -1.
         22    1    1    0    0    0  0.11943354808E+01 -0.11327987957E+02  0.28116101507E+02  0.30335868413E+02  0.00000000000E+00 0. -1.
</event>
<event>
 5    1  0.1681104E-003  0.9118800E+02  0.7818608E-02  0.1130116E+00
         25   -1    0    0    0    0  0.00000000000E+00  0.00000000000E+00  0.99999998245E-14  0.12500000000E+03  0.12500000000E+03 0.  0.
        -11    1    3    3    0    0 -0.26167232433E+02 -0.30583765989E+02  0.41874391928E+02  0.58082316542E+02  0.51100000000E-03 0.  1.
         23    2    1    0    0    0  0.35202415176E+01 -0.20376335969E+02  0.18917989899E+02  0.96973628317E+02  0.92835376228E+02 0.  0.
         11    1    3    3    0    0  0.29687473951E+02  0.10207430020E+02 -0.22956402029E+02  0.38891311775E+02  0.51100000000E-03 0. -1.
         22    1    1    0    0    0 -0.35202415176E+01  0.20376335969E+02 -0.18917989899E+02  0.28026371683E+02  0.00000000000E+00 0.  1.
</event>
<event>
 5    1  0.1681104E-003  0.9118800E+02  0.7818608E-02  0.1130116E+00
         25   -1    0    0    0    0  0.00000000000E+00  0.00000000000E+00  0.99999998245E-14  0.12500000000E+03  0.12500000000E+03 0.  0.
        -11    1    3    3    0    0  0.25104130778E+02 -0.14912781613E+02 -0.51000548332E+02  0.58767885515E+02  0.51100000000E-03 0.  1.
         23    2    1    0    0    0 -0.68299903919E+00  0.15843808787E+00 -0.29310848662E+02  0.95680766729E+02  0.91077942897E+02 0.  0.
         11    1    3    3    0    0 -0.25787129817E+02  0.15071219701E+02  0.21689699670E+02  0.36912881214E+02  0.51100000000E-03 0. -1.
         22    1    1    0    0    0  0.68299903919E+00 -0.15843808787E+00  0.29310848662E+02  0.29319233271E+02  0.00000000000E+00 0.  1.
</event>
<event>
 5    1  0.1681104E-003  0.9118800E+02  0.7818608E-02  0.1130116E+00
         25   -1    0    0    0    0  0.00000000000E+00  0.00000000000E+00  0.99999998245E-14  0.12500000000E+03  0.12500000000E+03 0.  0.
        -11    1    3    3    0    0  0.10535570281E+02  0.55595645465E+02  0.17667540805E+02  0.59279136584E+02  0.51100000000E-03 0.  1.
         23    2    1    0    0    0 -0.22606824537E+01  0.22367406264E+02  0.19927881931E+02  0.94957829200E+02  0.90080282526E+02 0.  0.
         11    1    3    3    0    0 -0.12796252734E+02 -0.33228239202E+02  0.22603411263E+01  0.35678692616E+02  0.51100000000E-03 0. -1.
         22    1    1    0    0    0  0.22606824537E+01 -0.22367406264E+02 -0.19927881931E+02  0.30042170800E+02  0.00000000000E+00 0.  1.
</event>
<event>
 5    1  0.1681104E-003  0.9118800E+02  0.7818608E-02  0.1130116E+00
         25   -1    0    0    0    0  0.00000000000E+00  0.00000000000E+00  0.99999998245E-14  0.12500000000E+03  0.12500000000E+03 0.  0.
        -11    1    3    3    0    0  0.94418720408E+01  0.28999158854E+02  0.26477377691E+02  0.40387519007E+02  0.51100000000E-03 0.  1.
         23    2    1    0    0    0 -0.25228735271E+01 -0.24840281413E+02  0.52399810181E+01  0.99488005320E+02  0.96161329701E+02 0.  0.
         11    1    3    3    0    0 -0.11964745568E+02 -0.53839440267E+02 -0.21237396673E+02  0.59100486313E+02  0.51100000000E-03 0. -1.
         22    1    1    0    0    0  0.25228735271E+01  0.24840281413E+02 -0.52399810181E+01  0.25511994680E+02  0.00000000000E+00 0. -1.
</event>
<event>
 5    1  0.1681104E-003  0.9118800E+02  0.7818608E-02  0.1130116E+00
         25   -1    0    0    0    0  0.00000000000E+00  0.00000000000E+00  0.99999998245E-14  0.12500000000E+03  0.12500000000E+03 0.  0.
        -11    1    3    3    0    0  0.36848039486E+02 -0.17986293712E+02  0.34563222094E+02  0.53627428591E+02  0.51100000000E-03 0.  1.
         23    2    1    0    0    0  0.20497687929E+02  0.15058548379E+02  0.11757816556E+02  0.96979269462E+02  0.92842971546E+02 0.  0.
         11    1    3    3    0    0 -0.16350351557E+02  0.33044842091E+02 -0.22805405538E+02  0.43351840871E+02  0.51100000000E-03 0. -1.
         22    1    1    0    0    0 -0.20497687929E+02 -0.15058548379E+02 -0.11757816556E+02  0.28020730538E+02  0.00000000000E+00 0.  1.
</event>
<event>
 5    1  0.1681104E-003  0.9118800E+02  0.7818608E-02  0.1130116E+00
         25   -1    0    0    0    0  0.00000000000E+00  0.00000000000E+00  0.99999998245E-14  0.12500000000E+03  0.12500000000E+03 0.  0.
        -11    1    3    3    0    0 -0.26117350768E+02 -0.41088256643E+02  0.30351818732E+02  0.57372412758E+02  0.51100000000E-03 0.  1.
         23    2    1    0    0    0 -0.24998965843E+02 -0.65349502989E+01  0.13917140364E+02  0.95651394164E+02  0.91037621569E+02 0.  0.
         11    1    3    3    0    0  0.11183849255E+01  0.34553306344E+02 -0.16434678368E+02  0.38278981406E+02  0.51100000000E-03 0. -1.
         22    1    1    0    0    0  0.24998965843E+02  0.65349502989E+01 -0.13917140364E+02  0.29348605836E+02  0.00000000000E+00 0.  1.
</event>
<event>
 5    1  0.1681104E-003  0.9118800E+02  0.7818608E-02  0.1130116E+00
         25   -1    0    0    0    0  0.00000000000E+00  0.00000000000E+00  0.99999998245E-14  0.12500000000E+03  0.12500000000E+03 0.  0.
        -11    1    3    3    0    0  0.33246838937E+02 -0.18973759102E+02 -0.64562001890E+01  0.38820591892E+02  0.51100000000E-03 0. -1.
         23    2    1    0    0    0 -0.22809533644E+02 -0.15416319388E+02 -0.11390442472E+02  0.95206042421E+02  0.90424059880E+02 0.  0.
         11    1    3    3    0    0 -0.56056372580E+02  0.35574397131E+01 -0.49342422828E+01  0.56385450529E+02  0.51100000000E-03 0.  1.
         22    1    1    0    0    0  0.22809533644E+02  0.15416319388E+02  0.11390442472E+02  0.29793957579E+02  0.00000000000E+00 0.  1.
</event>
<event>
 5    1  0.1681104E-003  0.9118800E+02  0.7818608E-02  0.1130116E+00
         25   -1    0    0    0    0  0.00000000000E+00  0.00000000000E+00  0.99999998245E-14  0.12500000000E+03  0.12500000000E+03 0.  0.
        -11    1    3    3    0    0  0.64965845306E+01 -0.37698956330E+02 -0.53086362482E+01  0.38621218753E+02  0.51100000000E-03 0.  1.
         23    2    1    0    0    0 -0.23710163324E+02  0.13090997039E+02 -0.28555495792E+01  0.97765826399E+02  0.93895988198E+02 0.  0.
         11    1    3    3    0    0 -0.30206747855E+02  0.50789953368E+02  0.24530866690E+01  0.59144607646E+02  0.51100000000E-03 0. -1.
         22    1    1    0    0    0  0.23710163324E+02 -0.13090997039E+02  0.28555495792E+01  0.27234173601E+02  0.00000000000E+00 0. -1.
</event>
<event>
 5    1  0.1681104E-003  0.9118800E+02  0.7818608E-02  0.1130116E+00
         25   -1    0    0    0    0  0.00000000000E+00  0.00000000000E+00  0.99999998245E-14  0.12500000000E+03  0.12500000000E+03 0.  0.
        -11    1    3    3    0    0 -0.22637516213E+02  0.33536270063E+02 -0.41228215703E+01  0.40671073356E+02  0.51100000000E-03 0. -1.
         23    2    1    0    0    0 -0.64029710720E+01 -0.14864220508E+02 -0.24498807675E+02  0.95637870183E+02  0.91019050456E+02 0.  0.
         11    1    3    3    0    0  0.16234545141E+02 -0.48400490571E+02 -0.20375986105E+02  0.54966796827E+02  0.51100000000E-03 0.  1.
         22    1    1    0    0    0  0.64029710720E+01  0.14864220508E+02  0.24498807675E+02  0.29362129817E+02  0.00000000000E+00 0.  1.
</event>
<event>
 5    1  0.1681104E-003  0.9118800E+02  0.7818608E-02  0.1130116E+00
         25   -1    0    0    0    0  0.00000000000E+00  0.00000000000E+00  0.99999998245E-14  0.12500000000E+03  0.12500000000E+03 0.  0.
        -11    1    3    3    0    0  0.43884491502E+02 -0.41861785594E+01  0.54725584822E+01  0.44422084394E+02  0.51100000000E-03 0. -1.
         23    2    1    0    0    0  0.50800247766E+01  0.24185640063E+02 -0.14353930885E+02  0.96420511396E+02  0.92087609639E+02 0.  0.
         11    1    3    3    0    0 -0.38804466725E+02  0.28371818622E+02 -0.19826489368E+02  0.51998427002E+02  0.51100000000E-03 0.  1.
         22    1    1    0    0    0 -0.50800247766E+01 -0.24185640063E+02  0.14353930885E+02  0.28579488604E+02  0.00000000000E+00 0.  1.
</event>
<event>
 5    1  0.1681104E-003  0.9118800E+02  0.7818608E-02  0.1130116E+00
         25   -1    0    0    0    0  0.00000000000E+00  0.00000000000E+00  0.99999998245E-14  0.12500000000E+03  0.12500000000E+03 0.  0.
        -11    1    3    3    0    0 -0.31117733109E+02 -0.13987931238E+02 -0.41760552447E+01  0.34371717616E+02  0.51100000000E-03 0.  1.
         23    2    1    0    0    0  0.23677982922E+02  0.13546887004E+02 -0.99382395744E+01  0.95966680717E+02  0.91469504094E+02 0.  0.
         11    1    3    3    0    0  0.54795716031E+02  0.27534818241E+02 -0.57621843297E+01  0.61594963102E+02  0.51100000000E-03 0. -1.
         22    1    1    0    0    0 -0.23677982922E+02 -0.13546887004E+02  0.99382395744E+01  0.29033319283E+02  0.00000000000E+00 0. -1.
</event>
<event>
 5    1  0.1681104E-003  0.9118800E+02  0.7818608E-02  0.1130116E+00
         25   -1    0    0    0    0  0.00000000000E+00  0.00000000000E+00  0.99999998245E-14  0.12500000000E+03  0.12500000000E+03 0.  0.
        -11    1    3    3    0    0  0.37948252662E+02  0.53142031009E+01 -0.27100430514E+02  0.46933399291E+02  0.51100000000E-03 0.  1.
         23    2    1    0    0    0  0.16074120199E+02  0.21071859209E+02  0.13178333977E+02  0.95401535899E+02  0.90693902633E+02 0.  0.
         11    1    3    3    0    0 -0.21874132463E+02  0.15757656109E+02  0.40278764491E+02  0.48468136608E+02  0.51100000000E-03 0. -1.
         22    1    1    0    0    0 -0.16074120199E+02 -0.21071859209E+02 -0.13178333977E+02  0.29598464101E+02  0.00000000000E+00 0.  1.
</event>
<event>
 5    1  0.1681104E-003  0.9118800E+02  0.7818608E-02  0.1130116E+00
         25   -1    0    0    0    0  0.00000000000E+00  0.00000000000E+00  0.99999998245E-14  0.12500000000E+03  0.12500000000E+03 0.  0.
        -11    1    3    3    0    0 -0.26447041556E+02  0.39060784438E+02 -0.11032322503E+02  0.48444845216E+02  0.51100000000E-03 0.  1.
         23    2    1    0    0    0  0.17485708899E+02  0.21045645321E+02 -0.97752793932E+01  0.95944444767E+02  0.91439111937E+02 0.  0.
         11    1    3    3    0    0  0.43932750454E+02 -0.18015139117E+02  0.12570431098E+01  0.47499599551E+02  0.51100000000E-03 0. -1.
         22    1    1    0    0    0 -0.17485708899E+02 -0.21045645321E+02  0.97752793932E+01  0.29055555233E+02  0.00000000000E+00 0. -1.
</event>
<event>
 5    1  0.1681104E-003  0.9118800E+02  0.7818608E-02  0.1130116E+00
         25   -1    0    0    0    0  0.00000000000E+00  0.00000000000E+00  0.99999998245E-14  0.12500000000E+03  0.12500000000E+03 0.  0.
        -11    1    3    3    0    0  0.20284980185E+02  0.52635831935E+02  0.23302948228E+02  0.61033094473E+02  0.51100000000E-03 0.  1.
         23    2    1    0    0    0  0.96183445337E+01  0.26406156001E+02  0.13458707487E+01  0.96864453188E+02  0.92688258680E+02 0.  0.
         11    1    3    3    0    0 -0.10666635651E+02 -0.26229675934E+02 -0.21957077479E+02  0.35831358715E+02  0.51100000000E-03 0. -1.
         22    1    1    0    0    0 -0.96183445337E+01 -0.26406156001E+02 -0.13458707487E+01  0.28135546812E+02  0.00000000000E+00 0.  1.
</event>
<event>
 5    1  0.1681104E-003  0.9118800E+02  0.7818608E-02  0.1130116E+00
         25   -1    0    0    0    0  0.00000000000E+00  0.00000000000E+00  0.99999998245E-14  0.12500000000E+03  0.12500000000E+03 0.  0.
        -11    1    3    3    0    0  0.97026518598E+01  0.12191145478E+02  0.45486731250E+02  0.48081266635E+02  0.51100000000E-03 0.  1.
         23    2    1    0    0    0  0.20900469959E+02  0.15589392630E+02 -0.37213805994E+01  0.98661672782E+02  0.95081113768E+02 0.  0.
         11    1    3    3    0    0  0.11197818099E+02  0.33982471521E+01 -0.49208111849E+02  0.50580406146E+02  0.51100000000E-03 0. -1.
         22    1    1    0    0    0 -0.20900469959E+02 -0.15589392630E+02  0.37213805994E+01  0.26338327218E+02  0.00000000000E+00 0. -1.
</event>
<event>
 5    1  0.1681104E-003  0.9118800E+02  0.7818608E-02  0.1130116E+00
         25   -1    0    0    0    0  0.00000000000E+00  0.00000000000E+00  0.99999998245E-14  0.12500000000E+03  0.12500000000E+03 0.  0.
        -11    1    3    3    0    0 -0.25596792347E+02 -0.20773437058E+02  0.19058135464E+02  0.38078130118E+02  0.51100000000E-03 0. -1.
         23    2    1    0    0    0  0.26260520218E+02  0.29517366782E+01  0.13359771974E+02  0.95389002402E+02  0.90676626540E+02 0.  0.
         11    1    3    3    0    0  0.51857312565E+02  0.23725173737E+02 -0.56983634903E+01  0.57310872284E+02  0.51100000000E-03 0.  1.
         22    1    1    0    0    0 -0.26260520218E+02 -0.29517366782E+01 -0.13359771974E+02  0.29610997598E+02  0.00000000000E+00 0.  1.
</event>
<event>
 5    1  0.1681104E-003  0.9118800E+02  0.7818608E-02  0.1130116E+00
         25   -1    0    0    0    0  0.00000000000E+00  0.00000000000E+00  0.99999998245E-14  0.12500000000E+03  0.12500000000E+03 0.  0.
        -11    1    3    3    0    0 -0.32334722037E+02  0.83741314908E+01 -0.37563903141E+02  0.50266361982E+02  0.51100000000E-03 0. -1.
         23    2    1    0    0    0 -0.37379272978E+01 -0.21996306966E+02 -0.17958629583E+02  0.96358736112E+02  0.92003717468E+02 0.  0.
         11    1    3    3    0    0  0.28596794739E+02 -0.30370438457E+02  0.19605273558E+02  0.46092374130E+02  0.51100000000E-03 0.  1.
         22    1    1    0    0    0  0.37379272978E+01  0.21996306966E+02  0.17958629583E+02  0.28641263888E+02  0.00000000000E+00 0. -1.
</event>
<event>
 5    1  0.1681104E-003  0.9118800E+02  0.7818608E-02  0.1130116E+00
         25   -1    0    0    0    0  0.00000000000E+00  0.00000000000E+00  0.99999998245E-14  0.12500000000E+03  0.12500000000E+03 0.  0.
        -11    1    3    3    0    0  0.19609589223E+02  0.50362361725E+02  0.22918472761E+02  0.58704002095E+02  0.51100000000E-03 0.  1.
         23    2    1    0    0    0 -0.59230769960E+00  0.29699628505E+02  0.47935865730E+00  0.95290598348E+02  0.90540872467E+02 0.  0.
         11    1    3    3    0    0 -0.20201896922E+02 -0.20662733220E+02 -0.22439114104E+02  0.36586596253E+02  0.51100000000E-03 0. -1.
         22    1    1    0    0    0  0.59230769960E+00 -0.29699628505E+02 -0.47935865730E+00  0.29709401652E+02  0.00000000000E+00 0.  1.
</event>
<event>
 5    1  0.1681104E-003  0.9118800E+02  0.7818608E-02  0.1130116E+00
         25   -1    0    0    0    0  0.00000000000E+00  0.00000000000E+00  0.99999998245E-14  0.12500000000E+03  0.12500000000E+03 0.  0.
        -11    1    3    3    0    0 -0.38315906182E+02  0.15819584141E+02  0.19304668325E+02  0.45727870367E+02  0.51100000000E-03 0.  1.
         23    2    1    0    0    0 -0.18519656066E+02 -0.63733473039E+01 -0.21303718902E+02  0.96061346685E+02  0.91598780948E+02 0.  0.
         11    1    3    3    0    0  0.19796250116E+02 -0.22192931445E+02 -0.40608387227E+02  0.50333476318E+02  0.51100000000E-03 0. -1.
         22    1    1    0    0    0  0.18519656066E+02  0.63733473039E+01  0.21303718902E+02  0.28938653315E+02  0.00000000000E+00 0. -1.
</event>
<event>
 5    1  0.1681104E-003  0.9118800E+02  0.7818608E-02  0.1130116E+00
         25   -1    0    0    0    0  0.00000000000E+00  0.00000000000E+00  0.99999998245E-14  0.12500000000E+03  0.12500000000E+03 0.  0.
        -11    1    3    3    0    0  0.32682787444E+02 -0.24428488236E+02 -0.39279119202E+02  0.56637133033E+02  0.51100000000E-03 0.  1.
         23    2    1    0    0    0  0.33985734514E+00 -0.69149286932E+01 -0.29504500943E+02  0.94694104242E+02  0.89713577904E+02 0.  0.
         11    1    3    3    0    0 -0.32342930099E+02  0.17513559542E+02  0.97746182595E+01  0.38056971209E+02  0.51100000000E-03 0. -1.
         22    1    1    0    0    0 -0.33985734514E+00  0.69149286932E+01  0.29504500943E+02  0.30305895758E+02  0.00000000000E+00 0.  1.
</event>
<event>
 5    1  0.1681104E-003  0.9118800E+02  0.7818608E-02  0.1130116E+00
         25   -1    0    0    0    0  0.00000000000E+00  0.00000000000E+00  0.99999998245E-14  0.12500000000E+03  0.12500000000E+03 0.  0.
        -11    1    3    3    0    0  0.29452704968E+02 -0.30634152668E+02 -0.13513813679E+02  0.44593007299E+02  0.51100000000E-03 0. -1.
         23    2    1    0    0    0  0.17398725436E+02  0.18915109521E+02 -0.14291786088E+02  0.95593331291E+02  0.90957862897E+02 0.  0.
         11    1    3    3    0    0 -0.12053979531E+02  0.49549262188E+02 -0.77797240906E+00  0.51000323992E+02  0.51100000000E-03 0.  1.
         22    1    1    0    0    0 -0.17398725436E+02 -0.18915109521E+02  0.14291786088E+02  0.29406668709E+02  0.00000000000E+00 0.  1.
</event>
<event>
 5    1  0.1681104E-003  0.9118800E+02  0.7818608E-02  0.1130116E+00
         25   -1    0    0    0    0  0.00000000000E+00  0.00000000000E+00  0.99999998245E-14  0.12500000000E+03  0.12500000000E+03 0.  0.
        -11    1    3    3    0    0  0.12231507699E+02  0.27740615262E+02  0.46112312384E+02  0.55186020597E+02  0.51100000000E-03 0. -1.
         23    2    1    0    0    0 -0.52448254330E+01  0.26951987055E+01 -0.66267579743E+01  0.11612947515E+03  0.11579019297E+03 0.  0.
         11    1    3    3    0    0 -0.17476333132E+02 -0.25045416556E+02 -0.52739070358E+02  0.60943454552E+02  0.51100000000E-03 0.  1.
         22    1    1    0    0    0  0.52448254330E+01 -0.26951987055E+01  0.66267579743E+01  0.88705248512E+01  0.00000000000E+00 0.  1.
</event>
<event>
 5    1  0.1681104E-003  0.9118800E+02  0.7818608E-02  0.1130116E+00
         25   -1    0    0    0    0  0.00000000000E+00  0.00000000000E+00  0.99999998245E-14  0.12500000000E+03  0.12500000000E+03 0.  0.
        -11    1    3    3    0    0 -0.71058857531E+00  0.44722515678E+02  0.29827398175E+02  0.53761343239E+02  0.51100000000E-03 0. -1.
         23    2    1    0    0    0 -0.12829938943E+02  0.47319322121E+01  0.25874019495E+02  0.95734604043E+02  0.91151802016E+02 0.  0.
         11    1    3    3    0    0 -0.12119350367E+02 -0.39990583466E+02 -0.39533786806E+01  0.41973260804E+02  0.51100000000E-03 0.  1.
         22    1    1    0    0    0  0.12829938943E+02 -0.47319322121E+01 -0.25874019495E+02  0.29265395957E+02  0.00000000000E+00 0. -1.
</event>
<event>
 5    1  0.1681104E-003  0.9118800E+02  0.7818608E-02  0.1130116E+00
         25   -1    0    0    0    0  0.00000000000E+00  0.00000000000E+00  0.99999998245E-14  0.12500000000E+03  0.12500000000E+03 0.  0.
        -11    1    3    3    0    0 -0.21330301159E+02  0.18698747381E+02  0.28524523278E+02  0.40227768141E+02  0.51100000000E-03 0.  1.
         23    2    1    0    0    0  0.21584926867E+02  0.18894963167E+02 -0.64583708038E+01  0.95595251159E+02  0.90960501262E+02 0.  0.
         11    1    3    3    0    0  0.42915228026E+02  0.19621578549E+00 -0.34982894082E+02  0.55367483018E+02  0.51100000000E-03 0. -1.
         22    1    1    0    0    0 -0.21584926867E+02 -0.18894963167E+02  0.64583708038E+01  0.29404748841E+02  0.00000000000E+00 0. -1.
</event>
<event>
 5    1  0.1681104E-003  0.9118800E+02  0.7818608E-02  0.1130116E+00
         25   -1    0    0    0    0  0.00000000000E+00  0.00000000000E+00  0.99999998245E-14  0.12500000000E+03  0.12500000000E+03 0.  0.
        -11    1    3    3    0    0 -0.13974329859E+02  0.75956489390E+01 -0.51956193803E+02  0.54336192842E+02  0.51100000000E-03 0.  1.
         23    2    1    0    0    0 -0.16936655399E+02 -0.15925689812E+02 -0.18770069992E+02  0.95120351080E+02  0.90305524582E+02 0.  0.
         11    1    3    3    0    0 -0.29623255400E+01 -0.23521338751E+02  0.33186123812E+02  0.40784158238E+02  0.51100000000E-03 0. -1.
         22    1    1    0    0    0  0.16936655399E+02  0.15925689812E+02  0.18770069992E+02  0.29879648920E+02  0.00000000000E+00 0.  1.
</event>
<event>
 5    1  0.1681104E-003  0.9118800E+02  0.7818608E-02  0.1130116E+00
         25   -1    0    0    0    0  0.00000000000E+00  0.00000000000E+00  0.99999998245E-14  0.12500000000E+03  0.12500000000E+03 0.  0.
        -11    1    3    3    0    0  0.12116009437E+02  0.10054449023E+02 -0.44501956778E+02  0.47205018665E+02  0.51100000000E-03 0. -1.
         23    2    1    0    0    0 -0.16586572975E+02  0.22903025701E+02 -0.75415257980E+01  0.95733336360E+02  0.91150063576E+02 0.  0.
         11    1    3    3    0    0 -0.28702582412E+02  0.12848576677E+02  0.36960430980E+02  0.48528317694E+02  0.51100000000E-03 0.  1.
         22    1    1    0    0    0  0.16586572975E+02 -0.22903025701E+02  0.75415257980E+01  0.29266663640E+02  0.00000000000E+00 0.  1.
</event>
<event>
 5    1  0.1681104E-003  0.9118800E+02  0.7818608E-02  0.1130116E+00
         25   -1    0    0    0    0  0.00000000000E+00  0.00000000000E+00  0.99999998245E-14  0.12500000000E+03  0.12500000000E+03 0.  0.
        -11    1    3    3    0    0 -0.47624093919E+02  0.34190293583E+01  0.39996627131E+01  0.47913895536E+02  0.51100000000E-03 0.  1.
         23    2    1    0    0    0 -0.81410975533E+01 -0.28955287198E+01 -0.25806333405E+02  0.97785511216E+02  0.93922190158E+02 0.  0.
         11    1    3    3    0    0  0.39482996365E+02 -0.63145580781E+01 -0.29805996118E+02  0.49871615681E+02  0.51100000000E-03 0. -1.
         22    1    1    0    0    0  0.81410975533E+01  0.28955287198E+01  0.25806333405E+02  0.27214488784E+02  0.00000000000E+00 0.  1.
</event>
<event>
 5    1  0.1681104E-003  0.9118800E+02  0.7818608E-02  0.1130116E+00
         25   -1    0    0    0    0  0.00000000000E+00  0.00000000000E+00  0.99999998245E-14  0.12500000000E+03  0.12500000000E+03 0.  0.
        -11    1    3    3    0    0  0.12908597453E+02 -0.42003226376E+02  0.40123636683E+02  0.59504698429E+02  0.51100000000E-03 0.  1.
         23    2    1    0    0    0  0.14434446430E+02 -0.93331055939E+01  0.22590110302E+02  0.96613855718E+02  0.92349682888E+02 0.  0.
         11    1    3    3    0    0  0.15258489774E+01  0.32670120782E+02 -0.17533526382E+02  0.37109157288E+02  0.51100000000E-03 0. -1.
         22    1    1    0    0    0 -0.14434446430E+02  0.93331055939E+01 -0.22590110302E+02  0.28386144282E+02  0.00000000000E+00 0.  1.
</event>
<event>
 5    1  0.1681104E-003  0.9118800E+02  0.7818608E-02  0.1130116E+00
         25   -1    0    0    0    0  0.00000000000E+00  0.00000000000E+00  0.99999998245E-14  0.12500000000E+03  0.12500000000E+03 0.  0.
        -11    1    3    3    0    0 -0.45661920241E+02 -0.23475382505E+02 -0.91352718076E+01  0.52149379049E+02  0.51100000000E-03 0.  1.
         23    2    1    0    0    0 -0.11034594923E+02 -0.12040828013E+02  0.20251773253E+02  0.98983118092E+02  0.95502772331E+02 0.  0.
         11    1    3    3    0    0  0.34627325318E+02  0.11434554492E+02  0.29387045060E+02  0.46833739043E+02  0.51100000000E-03 0. -1.
         22    1    1    0    0    0  0.11034594923E+02  0.12040828013E+02 -0.20251773253E+02  0.26016881908E+02  0.00000000000E+00 0.  1.
</event>
<event>
 5    1  0.1681104E-003  0.9118800E+02  0.7818608E-02  0.1130116E+00
         25   -1    0    0    0    0  0.00000000000E+00  0.00000000000E+00  0.99999998245E-14  0.12500000000E+03  0.12500000000E+03 0.  0.
        -11    1    3    3    0    0  0.12933278448E+02 -0.44083314452E+02  0.19747918165E+02  0.50005885420E+02  0.51100000000E-03 0.  1.
         23    2    1    0    0    0  0.43860189516E+01 -0.20676527279E+02 -0.19333096008E+02  0.96355200406E+02  0.91998913588E+02 0.  0.
         11    1    3    3    0    0 -0.85472594959E+01  0.23406787173E+02 -0.39081014173E+02  0.46349314986E+02  0.51100000000E-03 0. -1.
         22    1    1    0    0    0 -0.43860189516E+01  0.20676527279E+02  0.19333096008E+02  0.28644799594E+02  0.00000000000E+00 0.  1.
</event>
<event>
 5    1  0.1681104E-003  0.9118800E+02  0.7818608E-02  0.1130116E+00
         25   -1    0    0    0    0  0.00000000000E+00  0.00000000000E+00  0.99999998245E-14  0.12500000000E+03  0.12500000000E+03 0.  0.
        -11    1    3    3    0    0  0.15612156906E+02  0.31775547739E+02 -0.16816857806E+02  0.39194790268E+02  0.51100000000E-03 0. -1.
         23    2    1    0    0    0  0.14482032291E+02 -0.54380247174E+01  0.25260789320E+02  0.95378912086E+02  0.90662715719E+02 0.  0.
         11    1    3    3    0    0 -0.11301246154E+01 -0.37213572456E+02  0.42077647126E+02  0.56184121819E+02  0.51100000000E-03 0.  1.
         22    1    1    0    0    0 -0.14482032291E+02  0.54380247174E+01 -0.25260789320E+02  0.29621087914E+02  0.00000000000E+00 0.  1.
</event>
<event>
 5    1  0.1681104E-003  0.9118800E+02  0.7818608E-02  0.1130116E+00
         25   -1    0    0    0    0  0.00000000000E+00  0.00000000000E+00  0.99999998245E-14  0.12500000000E+03  0.12500000000E+03 0.  0.
        -11    1    3    3    0    0  0.36112130143E+02  0.27413716300E+01  0.10132168837E+02  0.37606673710E+02  0.51100000000E-03 0.  1.
         23    2    1    0    0    0 -0.20133650089E+02  0.16555657110E+02  0.13544952663E+02  0.95624510372E+02  0.91000701057E+02 0.  0.
         11    1    3    3    0    0 -0.56245780232E+02  0.13814285480E+02  0.34127838262E+01  0.58017836662E+02  0.51100000000E-03 0. -1.
         22    1    1    0    0    0  0.20133650089E+02 -0.16555657110E+02 -0.13544952663E+02  0.29375489628E+02  0.00000000000E+00 0. -1.
</event>
<event>
 5    1  0.1681104E-003  0.9118800E+02  0.7818608E-02  0.1130116E+00
         25   -1    0    0    0    0  0.00000000000E+00  0.00000000000E+00  0.99999998245E-14  0.12500000000E+03  0.12500000000E+03 0.  0.
        -11    1    3    3    0    0 -0.29328311848E+02  0.49730017873E+02  0.19340326851E+02  0.60887377973E+02  0.51100000000E-03 0. -1.
         23    2    1    0    0    0 -0.13417662200E+02  0.25559170504E+02 -0.76346304434E+00  0.96122885678E+02  0.91682721488E+02 0.  0.
         11    1    3    3    0    0  0.15910649648E+02 -0.24170847369E+02 -0.20103789895E+02  0.35235507704E+02  0.51100000000E-03 0.  1.
         22    1    1    0    0    0  0.13417662200E+02 -0.25559170504E+02  0.76346304434E+00  0.28877114322E+02  0.00000000000E+00 0. -1.
</event>
<event>
 5    1  0.1681104E-003  0.9118800E+02  0.7818608E-02  0.1130116E+00
         25   -1    0    0    0    0  0.00000000000E+00  0.00000000000E+00  0.99999998245E-14  0.12500000000E+03  0.12500000000E+03 0.  0.
        -11    1    3    3    0    0  0.89329835121E+00  0.46019473786E+01 -0.37629336985E+02  0.37920217613E+02  0.51100000000E-03 0. -1.
         23    2    1    0    0    0  0.23961591375E+02  0.89278800921E+01  0.14864927756E+02  0.95422458159E+02  0.90722734415E+02 0.  0.
         11    1    3    3    0    0  0.23068293024E+02  0.43259327135E+01  0.52494264741E+02  0.57502240546E+02  0.51100000000E-03 0.  1.
         22    1    1    0    0    0 -0.23961591375E+02 -0.89278800921E+01 -0.14864927756E+02  0.29577541841E+02  0.00000000000E+00 0.  1.
</event>
<event>
 5    1  0.1681104E-003  0.9118800E+02  0.7818608E-02  0.1130116E+00
         25   -1    0    0    0    0  0.00000000000E+00  0.00000000000E+00  0.99999998245E-14  0.12500000000E+03  0.12500000000E+03 0.  0.
        -11    1    3    3    0    0 -0.34847751655E+02  0.72971641837E+01 -0.92554195232E+01  0.36786916035E+02  0.51100000000E-03 0. -1.
         23    2    1    0    0    0  0.10991967851E+02 -0.27864245054E+02 -0.30636683054E+01  0.94889776269E+02  0.89985799253E+02 0.  0.
         11    1    3    3    0    0  0.45839719506E+02 -0.35161409237E+02  0.61917512178E+01  0.58102860234E+02  0.51100000000E-03 0.  1.
         22    1    1    0    0    0 -0.10991967851E+02  0.27864245054E+02  0.30636683054E+01  0.30110223731E+02  0.00000000000E+00 0.  1.
</event>
<event>
 5    1  0.1681104E-003  0.9118800E+02  0.7818608E-02  0.1130116E+00
         25   -1    0    0    0    0  0.00000000000E+00  0.00000000000E+00  0.99999998245E-14  0.12500000000E+03  0.12500000000E+03 0.  0.
        -11    1    3    3    0    0 -0.38239009422E+02 -0.15143495053E+02  0.23055361748E+02  0.47149729476E+02  0.51100000000E-03 0.  1.
         23    2    1    0    0    0 -0.22197390040E+02  0.75122290368E+01 -0.17116853538E+02  0.95980275937E+02  0.91488081104E+02 0.  0.
         11    1    3    3    0    0  0.16041619382E+02  0.22655724090E+02 -0.40172215286E+02  0.48830546461E+02  0.51100000000E-03 0. -1.
         22    1    1    0    0    0  0.22197390040E+02 -0.75122290368E+01  0.17116853538E+02  0.29019724063E+02  0.00000000000E+00 0. -1.
</event>
<event>
 5    1  0.1681104E-003  0.9118800E+02  0.7818608E-02  0.1130116E+00
         25   -1    0    0    0    0  0.00000000000E+00  0.00000000000E+00  0.99999998245E-14  0.12500000000E+03  0.12500000000E+03 0.  0.
        -11    1    3    3    0    0 -0.95157166484E+01 -0.45142451071E+02 -0.40796524255E+02  0.61585275380E+02  0.51100000000E-03 0.  1.
         23    2    1    0    0    0 -0.63319936119E+01 -0.17815719292E+02 -0.26084817109E+02  0.92783363295E+02  0.87010578803E+02 0.  0.
         11    1    3    3    0    0  0.31837230365E+01  0.27326731779E+02  0.14711707146E+02  0.31198087915E+02  0.51100000000E-03 0. -1.
         22    1    1    0    0    0  0.63319936119E+01  0.17815719292E+02  0.26084817109E+02  0.32216636705E+02  0.00000000000E+00 0.  1.
</event>
<event>
 5    1  0.1681104E-003  0.9118800E+02  0.7818608E-02  0.1130116E+00
         25   -1    0    0    0    0  0.00000000000E+00  0.00000000000E+00  0.99999998245E-14  0.12500000000E+03  0.12500000000E+03 0.  0.
        -11    1    3    3    0    0 -0.15297921625E+02 -0.25149426029E+01  0.56420166263E+02  0.58511421994E+02  0.51100000000E-03 0.  1.
         23    2    1    0    0    0 -0.78585074265E+01 -0.16775566905E+02  0.24196985833E+02  0.94525914167E+02  0.89478927920E+02 0.  0.
         11    1    3    3    0    0  0.74394141987E+01 -0.14260624303E+02 -0.32223180431E+02  0.36014492173E+02  0.51100000000E-03 0. -1.
         22    1    1    0    0    0  0.78585074265E+01  0.16775566905E+02 -0.24196985833E+02  0.30474085833E+02  0.00000000000E+00 0.  1.
</event>
<event>
 5    1  0.1681104E-003  0.9118800E+02  0.7818608E-02  0.1130116E+00
         25   -1    0    0    0    0  0.00000000000E+00  0.00000000000E+00  0.99999998245E-14  0.12500000000E+03  0.12500000000E+03 0.  0.
        -11    1    3    3    0    0 -0.49639082894E+02  0.82333034622E+01  0.34973322906E+02  0.61277721496E+02  0.51100000000E-03 0.  1.
         23    2    1    0    0    0 -0.27543182207E+02  0.10978318493E+01  0.92651737235E+01  0.95919498543E+02  0.91405003341E+02 0.  0.
         11    1    3    3    0    0  0.22095900687E+02 -0.71354716129E+01 -0.25708149183E+02  0.34641777047E+02  0.51100000000E-03 0. -1.
         22    1    1    0    0    0  0.27543182207E+02 -0.10978318493E+01 -0.92651737235E+01  0.29080501457E+02  0.00000000000E+00 0.  1.
</event>
<event>
 5    1  0.1681104E-003  0.9118800E+02  0.7818608E-02  0.1130116E+00
         25   -1    0    0    0    0  0.00000000000E+00  0.00000000000E+00  0.99999998245E-14  0.12500000000E+03  0.12500000000E+03 0.  0.
        -11    1    3    3    0    0  0.49609631930E+02 -0.22943623969E+02 -0.30299560278E+02  0.62494710291E+02  0.51100000000E-03 0.  1.
         23    2    1    0    0    0  0.22856505878E+02 -0.11151376662E+02 -0.14354313506E+02  0.95796928610E+02  0.91237230079E+02 0.  0.
         11    1    3    3    0    0 -0.26753126052E+02  0.11792247307E+02  0.15945246772E+02  0.33302218319E+02  0.51100000000E-03 0. -1.
         22    1    1    0    0    0 -0.22856505878E+02  0.11151376662E+02  0.14354313506E+02  0.29203071390E+02  0.00000000000E+00 0.  1.
</event>
<event>
 5    1  0.1681104E-003  0.9118800E+02  0.7818608E-02  0.1130116E+00
         25   -1    0    0    0    0  0.00000000000E+00  0.00000000000E+00  0.99999998245E-14  0.12500000000E+03  0.12500000000E+03 0.  0.
        -11    1    3    3    0    0  0.12704206558E+02 -0.20749362444E+02 -0.34171293193E+02  0.41947707742E+02  0.51100000000E-03 0.  1.
         23    2    1    0    0    0 -0.25950813793E+02  0.22208740942E+01  0.84784012532E+00  0.98940532409E+02  0.95447017252E+02 0.  0.
         11    1    3    3    0    0 -0.38655020350E+02  0.22970236539E+02  0.35019133318E+02  0.56992824667E+02  0.51100000000E-03 0. -1.
         22    1    1    0    0    0  0.25950813793E+02 -0.22208740942E+01 -0.84784012532E+00  0.26059467591E+02  0.00000000000E+00 0. -1.
</event>
<event>
 5    1  0.1681104E-003  0.9118800E+02  0.7818608E-02  0.1130116E+00
         25   -1    0    0    0    0  0.00000000000E+00  0.00000000000E+00  0.99999998245E-14  0.12500000000E+03  0.12500000000E+03 0.  0.
        -11    1    3    3    0    0 -0.34416146548E+02  0.41684984420E+02  0.29997805286E+02  0.61822143214E+02  0.51100000000E-03 0.  1.
         23    2    1    0    0    0 -0.11208142713E+02  0.19810597347E+02  0.18308824192E+02  0.95788781716E+02  0.91226067706E+02 0.  0.
         11    1    3    3    0    0  0.23208003835E+02 -0.21874387073E+02 -0.11688981093E+02  0.33966638502E+02  0.51100000000E-03 0. -1.
         22    1    1    0    0    0  0.11208142713E+02 -0.19810597347E+02 -0.18308824192E+02  0.29211218284E+02  0.00000000000E+00 0.  1.
</event>
<event>
 5    1  0.1681104E-003  0.9118800E+02  0.7818608E-02  0.1130116E+00
         25   -1    0    0    0    0  0.00000000000E+00  0.00000000000E+00  0.99999998245E-14  0.12500000000E+03  0.12500000000E+03 0.  0.
        -11    1    3    3    0    0 -0.24163210862E+02  0.80092419696E+01  0.19590224511E+02  0.32121419843E+02  0.51100000000E-03 0. -1.
         23    2    1    0    0    0  0.17385120894E+02 -0.11570173169E+02 -0.22415714267E+02  0.94363819073E+02  0.89252197554E+02 0.  0.
         11    1    3    3    0    0  0.41548331757E+02 -0.19579415139E+02 -0.42005938778E+02  0.62242399230E+02  0.51100000000E-03 0.  1.
         22    1    1    0    0    0 -0.17385120894E+02  0.11570173169E+02  0.22415714267E+02  0.30636180927E+02  0.00000000000E+00 0.  1.
</event>
<event>
 5    1  0.1681104E-003  0.9118800E+02  0.7818608E-02  0.1130116E+00
         25   -1    0    0    0    0  0.00000000000E+00  0.00000000000E+00  0.99999998245E-14  0.12500000000E+03  0.12500000000E+03 0.  0.
        -11    1    3    3    0    0 -0.37030438124E+01  0.14700081931E+02 -0.51274858447E+02  0.53468832522E+02  0.51100000000E-03 0.  1.
         23    2    1    0    0    0 -0.22744007194E+02  0.13696147725E+02 -0.14857217132E+02  0.94576140504E+02  0.89549065467E+02 0.  0.
         11    1    3    3    0    0 -0.19040963381E+02 -0.10039342063E+01  0.36417641315E+02  0.41107307982E+02  0.51100000000E-03 0. -1.
         22    1    1    0    0    0  0.22744007194E+02 -0.13696147725E+02  0.14857217132E+02  0.30423859496E+02  0.00000000000E+00 0.  1.
</event>
<event>
 5    1  0.1681104E-003  0.9118800E+02  0.7818608E-02  0.1130116E+00
         25   -1    0    0    0    0  0.00000000000E+00  0.00000000000E+00  0.99999998245E-14  0.12500000000E+03  0.12500000000E+03 0.  0.
        -11    1    3    3    0    0  0.21018278758E+01 -0.17301563553E+02  0.25396393261E+02  0.30801600165E+02  0.51100000000E-03 0.  1.
         23    2    1    0    0    0 -0.35995619167E+02  0.15152914534E+02  0.24222346304E+01  0.85869926671E+02  0.76436128027E+02 0.  0.
         11    1    3    3    0    0 -0.38097447043E+02  0.32454478087E+02 -0.22974158631E+02  0.55068326506E+02  0.51100000000E-03 0. -1.
         22    1    1    0    0    0  0.35995619167E+02 -0.15152914534E+02 -0.24222346304E+01  0.39130073329E+02  0.00000000000E+00 0. -1.
</event>
<event>
 5    1  0.1681104E-003  0.9118800E+02  0.7818608E-02  0.1130116E+00
         25   -1    0    0    0    0  0.00000000000E+00  0.00000000000E+00  0.99999998245E-14  0.12500000000E+03  0.12500000000E+03 0.  0.
        -11    1    3    3    0    0  0.38042598074E+00  0.60224053614E+02  0.16186327600E+02  0.62362477172E+02  0.51100000000E-03 0.  1.
         23    2    1    0    0    0 -0.27336675365E+01  0.26937515363E+02  0.69739994669E+01  0.97040398059E+02  0.92925236156E+02 0.  0.
         11    1    3    3    0    0 -0.31140935172E+01 -0.33286538251E+02 -0.92123281328E+01  0.34677920887E+02  0.51100000000E-03 0. -1.
         22    1    1    0    0    0  0.27336675365E+01 -0.26937515363E+02 -0.69739994669E+01  0.27959601941E+02  0.00000000000E+00 0.  1.
</event>
<event>
 5    1  0.1681104E-003  0.9118800E+02  0.7818608E-02  0.1130116E+00
         25   -1    0    0    0    0  0.00000000000E+00  0.00000000000E+00  0.99999998245E-14  0.12500000000E+03  0.12500000000E+03 0.  0.
        -11    1    3    3    0    0 -0.34858771843E+02  0.45916979860E+02 -0.55038141647E+01  0.57911958908E+02  0.51100000000E-03 0. -1.
         23    2    1    0    0    0 -0.19060305995E+02  0.45274147718E+02 -0.11016798859E+02  0.74657040479E+02  0.55129485031E+02 0.  0.
         11    1    3    3    0    0  0.15798465848E+02 -0.64283214192E+00 -0.55129846941E+01  0.16745081571E+02  0.51100000000E-03 0.  1.
         22    1    1    0    0    0  0.19060305995E+02 -0.45274147718E+02  0.11016798859E+02  0.50342959521E+02  0.00000000000E+00 0. -1.
</event>
<event>
 5    1  0.1681104E-003  0.9118800E+02  0.7818608E-02  0.1130116E+00
         25   -1    0    0    0    0  0.00000000000E+00  0.00000000000E+00  0.99999998245E-14  0.12500000000E+03  0.12500000000E+03 0.  0.
        -11    1    3    3    0    0 -0.20625332793E+02 -0.15829532350E+02  0.46269356978E+02  0.53073833880E+02  0.51100000000E-03 0.  1.
         23    2    1    0    0    0 -0.29463789965E+02 -0.12131298545E+01  0.88427352449E+01  0.94213954951E+02  0.89042061621E+02 0.  0.
         11    1    3    3    0    0 -0.88384571721E+01  0.14616402496E+02 -0.37426621733E+02  0.41140121071E+02  0.51100000000E-03 0. -1.
         22    1    1    0    0    0  0.29463789965E+02  0.12131298545E+01 -0.88427352449E+01  0.30786045049E+02  0.00000000000E+00 0.  1.
</event>
<event>
 5    1  0.1681104E-003  0.9118800E+02  0.7818608E-02  0.1130116E+00
         25   -1    0    0    0    0  0.00000000000E+00  0.00000000000E+00  0.99999998245E-14  0.12500000000E+03  0.12500000000E+03 0.  0.
        -11    1    3    3    0    0  0.19916947726E+02 -0.68482714648E+01 -0.49368641818E+02  0.53673516971E+02  0.51100000000E-03 0.  1.
         23    2    1    0    0    0 -0.12954086181E+02  0.32897306387E+01 -0.27469382689E+02  0.94451715895E+02  0.89375214538E+02 0.  0.
         11    1    3    3    0    0 -0.32871033907E+02  0.10138002104E+02  0.21899259129E+02  0.40778198924E+02  0.51100000000E-03 0. -1.
         22    1    1    0    0    0  0.12954086181E+02 -0.32897306387E+01  0.27469382689E+02  0.30548284105E+02  0.00000000000E+00 0.  1.
</event>
<event>
 5    1  0.1681104E-003  0.9118800E+02  0.7818608E-02  0.1130116E+00
         25   -1    0    0    0    0  0.00000000000E+00  0.00000000000E+00  0.99999998245E-14  0.12500000000E+03  0.12500000000E+03 0.  0.
        -11    1    3    3    0    0  0.54873487568E+02  0.22808650963E+02 -0.12444970871E+02  0.60714178714E+02  0.51100000000E-03 0.  1.
         23    2    1    0    0    0  0.42975386104E+02  0.12602563711E+02 -0.85936718101E+00  0.80206619520E+02  0.66533111155E+02 0.  0.
         11    1    3    3    0    0 -0.11898101464E+02 -0.10206087252E+02  0.11585603690E+02  0.19492440806E+02  0.51100000000E-03 0. -1.
         22    1    1    0    0    0 -0.42975386104E+02 -0.12602563711E+02  0.85936718101E+00  0.44793380480E+02  0.00000000000E+00 0.  1.
</event>
<event>
 5    1  0.1681104E-003  0.9118800E+02  0.7818608E-02  0.1130116E+00
         25   -1    0    0    0    0  0.00000000000E+00  0.00000000000E+00  0.99999998245E-14  0.12500000000E+03  0.12500000000E+03 0.  0.
        -11    1    3    3    0    0  0.72226072619E+01  0.79841674852E+01 -0.34111313269E+02  0.35770024871E+02  0.51100000000E-03 0.  1.
         23    2    1    0    0    0 -0.21094651139E+02  0.17053166908E-02  0.19080517000E+02  0.96556188044E+02  0.92271593738E+02 0.  0.
         11    1    3    3    0    0 -0.28317258401E+02 -0.79824621685E+01  0.53191830269E+02  0.60786163173E+02  0.51100000000E-03 0. -1.
         22    1    1    0    0    0  0.21094651139E+02 -0.17053166908E-02 -0.19080517000E+02  0.28443811956E+02  0.00000000000E+00 0. -1.
</event>
<event>
 5    1  0.1681104E-003  0.9118800E+02  0.7818608E-02  0.1130116E+00
         25   -1    0    0    0    0  0.00000000000E+00  0.00000000000E+00  0.99999998245E-14  0.12500000000E+03  0.12500000000E+03 0.  0.
        -11    1    3    3    0    0  0.22120294922E+02 -0.17335803076E+02  0.17017931053E+02  0.32854946253E+02  0.51100000000E-03 0.  1.
         23    2    1    0    0    0 -0.23131785138E+02  0.56486463236E+01 -0.18536604805E+02  0.94823976295E+02  0.89894349509E+02 0.  0.
         11    1    3    3    0    0 -0.45252080060E+02  0.22984449399E+02 -0.35554535858E+02  0.61969030042E+02  0.51100000000E-03 0. -1.
         22    1    1    0    0    0  0.23131785138E+02 -0.56486463236E+01  0.18536604805E+02  0.30176023705E+02  0.00000000000E+00 0. -1.
</event>
<event>
 5    1  0.1681104E-003  0.9118800E+02  0.7818608E-02  0.1130116E+00
         25   -1    0    0    0    0  0.00000000000E+00  0.00000000000E+00  0.99999998245E-14  0.12500000000E+03  0.12500000000E+03 0.  0.
        -11    1    3    3    0    0  0.16683516436E+02 -0.35555273727E+02  0.98510728914E+01  0.40491491055E+02  0.51100000000E-03 0.  1.
         23    2    1    0    0    0 -0.22011961023E+02 -0.10201095641E+01  0.22108259917E+02  0.93785544884E+02  0.88438601420E+02 0.  0.
         11    1    3    3    0    0 -0.38695477459E+02  0.34535164163E+02  0.12257187026E+02  0.53294053830E+02  0.51100000000E-03 0. -1.
         22    1    1    0    0    0  0.22011961023E+02  0.10201095641E+01 -0.22108259917E+02  0.31214455116E+02  0.00000000000E+00 0.  1.
</event>
<event>
 5    1  0.1681104E-003  0.9118800E+02  0.7818608E-02  0.1130116E+00
         25   -1    0    0    0    0  0.00000000000E+00  0.00000000000E+00  0.99999998245E-14  0.12500000000E+03  0.12500000000E+03 0.  0.
        -11    1    3    3    0    0 -0.40007065303E+02  0.10098255939E+02  0.39813457774E+02  0.57338045549E+02  0.51100000000E-03 0. -1.
         23    2    1    0    0    0 -0.31428148147E+02  0.14993765828E+02  0.99616540223E+01  0.88781550826E+02  0.81057928092E+02 0.  0.
         11    1    3    3    0    0  0.85789171556E+01  0.48955098884E+01 -0.29851803752E+02  0.31443505277E+02  0.51100000000E-03 0.  1.
         22    1    1    0    0    0  0.31428148147E+02 -0.14993765828E+02 -0.99616540223E+01  0.36218449174E+02  0.00000000000E+00 0. -1.
</event>
<event>
 5    1  0.1681104E-003  0.9118800E+02  0.7818608E-02  0.1130116E+00
         25   -1    0    0    0    0  0.00000000000E+00  0.00000000000E+00  0.99999998245E-14  0.12500000000E+03  0.12500000000E+03 0.  0.
        -11    1    3    3    0    0 -0.25240589611E+02 -0.26299806908E+02  0.22030170381E+01  0.36518769032E+02  0.51100000000E-03 0.  1.
         23    2    1    0    0    0  0.24286932174E+01  0.20878337282E+02 -0.20409547173E+02  0.95702335687E+02  0.91107540422E+02 0.  0.
         11    1    3    3    0    0  0.27669282829E+02  0.47178144190E+02 -0.22612564211E+02  0.59183566654E+02  0.51100000000E-03 0. -1.
         22    1    1    0    0    0 -0.24286932174E+01 -0.20878337282E+02  0.20409547173E+02  0.29297664313E+02  0.00000000000E+00 0. -1.
</event>
<event>
 5    1  0.1681104E-003  0.9118800E+02  0.7818608E-02  0.1130116E+00
         25   -1    0    0    0    0  0.00000000000E+00  0.00000000000E+00  0.99999998245E-14  0.12500000000E+03  0.12500000000E+03 0.  0.
        -11    1    3    3    0    0  0.26631771888E+02 -0.23330728893E+02  0.10248037419E+02  0.36859143449E+02  0.51100000000E-03 0.  1.
         23    2    1    0    0    0 -0.33977771197E+01  0.25664779714E+02  0.15925961359E+02  0.94604900850E+02  0.89589202544E+02 0.  0.
         11    1    3    3    0    0 -0.30029549008E+02  0.48995508607E+02  0.56779239400E+01  0.57745757401E+02  0.51100000000E-03 0. -1.
         22    1    1    0    0    0  0.33977771197E+01 -0.25664779714E+02 -0.15925961359E+02  0.30395099150E+02  0.00000000000E+00 0. -1.
</event>
<event>
 5    1  0.1681104E-003  0.9118800E+02  0.7818608E-02  0.1130116E+00
         25   -1    0    0    0    0  0.00000000000E+00  0.00000000000E+00  0.99999998245E-14  0.12500000000E+03  0.12500000000E+03 0.  0.
        -11    1    3    3    0    0  0.38689177500E+02  0.26913466244E+02  0.15110627230E+02  0.49492607291E+02  0.51100000000E-03 0. -1.
         23    2    1    0    0    0  0.65032587758E+01 -0.29193545427E+01  0.28695322841E+02  0.95432508415E+02  0.90736580847E+02 0.  0.
         11    1    3    3    0    0 -0.32185918724E+02 -0.29832820787E+02  0.13584695611E+02  0.45939901125E+02  0.51100000000E-03 0.  1.
         22    1    1    0    0    0 -0.65032587758E+01  0.29193545427E+01 -0.28695322841E+02  0.29567491585E+02  0.00000000000E+00 0.  1.
</event>
<event>
 5    1  0.1681104E-003  0.9118800E+02  0.7818608E-02  0.1130116E+00
         25   -1    0    0    0    0  0.00000000000E+00  0.00000000000E+00  0.99999998245E-14  0.12500000000E+03  0.12500000000E+03 0.  0.
        -11    1    3    3    0    0  0.39763046508E+02 -0.38333020074E+02  0.18068778890E+02  0.58111970079E+02  0.51100000000E-03 0.  1.
         23    2    1    0    0    0  0.15515435267E+02 -0.25547487397E+02 -0.59097115357E+01  0.94531532131E+02  0.89486775743E+02 0.  0.
         11    1    3    3    0    0 -0.24247611242E+02  0.12785532677E+02 -0.23978490425E+02  0.36419562053E+02  0.51100000000E-03 0. -1.
         22    1    1    0    0    0 -0.15515435267E+02  0.25547487397E+02  0.59097115357E+01  0.30468467869E+02  0.00000000000E+00 0.  1.
</event>
<event>
 5    1  0.1681104E-003  0.9118800E+02  0.7818608E-02  0.1130116E+00
         25   -1    0    0    0    0  0.00000000000E+00  0.00000000000E+00  0.99999998245E-14  0.12500000000E+03  0.12500000000E+03 0.  0.
        -11    1    3    3    0    0  0.17889510595E+02  0.15618797409E+02 -0.32934549729E+02  0.40603768150E+02  0.51100000000E-03 0. -1.
         23    2    1    0    0    0  0.10153260057E+02  0.13957493820E+02  0.22523699546E+02  0.96623647790E+02  0.92362936005E+02 0.  0.
         11    1    3    3    0    0 -0.77362505375E+01 -0.16613035894E+01  0.55458249275E+02  0.56019879640E+02  0.51100000000E-03 0.  1.
         22    1    1    0    0    0 -0.10153260057E+02 -0.13957493820E+02 -0.22523699546E+02  0.28376352210E+02  0.00000000000E+00 0.  1.
</event>
<event>
 5    1  0.1681104E-003  0.9118800E+02  0.7818608E-02  0.1130116E+00
         25   -1    0    0    0    0  0.00000000000E+00  0.00000000000E+00  0.99999998245E-14  0.12500000000E+03  0.12500000000E+03 0.  0.
        -11    1    3    3    0    0  0.37668560569E+02 -0.15359719477E+02 -0.16843112620E+02  0.44028761971E+02  0.51100000000E-03 0. -1.
         23    2    1    0    0    0  0.18593226053E+02 -0.49461139486E+00  0.25884727047E+02  0.93125687619E+02  0.87500982307E+02 0.  0.
         11    1    3    3    0    0 -0.19075334516E+02  0.14865108082E+02  0.42727839667E+02  0.49096925647E+02  0.51100000000E-03 0.  1.
         22    1    1    0    0    0 -0.18593226053E+02  0.49461139486E+00 -0.25884727047E+02  0.31874312381E+02  0.00000000000E+00 0. -1.
</event>
<event>
 5    1  0.1681104E-003  0.9118800E+02  0.7818608E-02  0.1130116E+00
         25   -1    0    0    0    0  0.00000000000E+00  0.00000000000E+00  0.99999998245E-14  0.12500000000E+03  0.12500000000E+03 0.  0.
        -11    1    3    3    0    0  0.54294354468E+02  0.18079760163E+02 -0.21844235467E+02  0.61252961382E+02  0.51100000000E-03 0.  1.
         23    2    1    0    0    0  0.26546873611E+02  0.10910916826E+02 -0.17680272127E+01  0.96243948033E+02  0.91847629302E+02 0.  0.
         11    1    3    3    0    0 -0.27747480857E+02 -0.71688433376E+01  0.20076208254E+02  0.34990986651E+02  0.51100000000E-03 0. -1.
         22    1    1    0    0    0 -0.26546873611E+02 -0.10910916826E+02  0.17680272127E+01  0.28756051967E+02  0.00000000000E+00 0.  1.
</event>
<event>
 5    1  0.1681104E-003  0.9118800E+02  0.7818608E-02  0.1130116E+00
         25   -1    0    0    0    0  0.00000000000E+00  0.00000000000E+00  0.99999998245E-14  0.12500000000E+03  0.12500000000E+03 0.  0.
        -11    1    3    3    0    0  0.88579837828E+01 -0.53347548482E+02 -0.82310945568E+01  0.54700783574E+02  0.51100000000E-03 0. -1.
         23    2    1    0    0    0  0.24496175054E+02 -0.16053593912E+02 -0.17192667986E+01  0.95661691458E+02  0.91051759261E+02 0.  0.
         11    1    3    3    0    0  0.15638191271E+02  0.37293954570E+02  0.65118277583E+01  0.40960907884E+02  0.51100000000E-03 0.  1.
         22    1    1    0    0    0 -0.24496175054E+02  0.16053593912E+02  0.17192667986E+01  0.29338308542E+02  0.00000000000E+00 0. -1.
</event>
<event>
 5    1  0.1681104E-003  0.9118800E+02  0.7818608E-02  0.1130116E+00
         25   -1    0    0    0    0  0.00000000000E+00  0.00000000000E+00  0.99999998245E-14  0.12500000000E+03  0.12500000000E+03 0.  0.
        -11    1    3    3    0    0 -0.19931214736E+02  0.27688098314E+02  0.51997110324E+02  0.62189899432E+02  0.51100000000E-03 0. -1.
         23    2    1    0    0    0 -0.16887525944E+02  0.21992669911E+02  0.35167957071E+02  0.80215501935E+02  0.66549797023E+02 0.  0.
         11    1    3    3    0    0  0.30436887913E+01 -0.56954284028E+01 -0.16829153252E+02  0.18025602503E+02  0.51100000000E-03 0.  1.
         22    1    1    0    0    0  0.16887525944E+02 -0.21992669911E+02 -0.35167957071E+02  0.44784498065E+02  0.00000000000E+00 0. -1.
</event>
<event>
 5    1  0.1681104E-003  0.9118800E+02  0.7818608E-02  0.1130116E+00
         25   -1    0    0    0    0  0.00000000000E+00  0.00000000000E+00  0.99999998245E-14  0.12500000000E+03  0.12500000000E+03 0.  0.
        -11    1    3    3    0    0 -0.76241091107E+01  0.87543849249E+01  0.26139577415E+02  0.28601465047E+02  0.51100000000E-03 0.  1.
         23    2    1    0    0    0 -0.26985667181E+01 -0.23930355701E+02 -0.25507711598E+02  0.89920268854E+02  0.82795333283E+02 0.  0.
         11    1    3    3    0    0  0.49255423926E+01 -0.32684740626E+02 -0.51647289013E+02  0.61318803807E+02  0.51100000000E-03 0. -1.
         22    1    1    0    0    0  0.26985667181E+01  0.23930355701E+02  0.25507711598E+02  0.35079731146E+02  0.00000000000E+00 0. -1.
</event>
<event>
 5    1  0.1681104E-003  0.9118800E+02  0.7818608E-02  0.1130116E+00
         25   -1    0    0    0    0  0.00000000000E+00  0.00000000000E+00  0.99999998245E-14  0.12500000000E+03  0.12500000000E+03 0.  0.
        -11    1    3    3    0    0 -0.21896111877E+02 -0.54063418300E+02  0.20546481620E+02  0.61842144374E+02  0.51100000000E-03 0. -1.
         23    2    1    0    0    0 -0.89424849267E+01 -0.37346007330E+02  0.10940404568E+02  0.85070252289E+02  0.75116995895E+02 0.  0.
         11    1    3    3    0    0  0.12953626950E+02  0.16717410970E+02 -0.96060770527E+01  0.23228107915E+02  0.51100000000E-03 0.  1.
         22    1    1    0    0    0  0.89424849267E+01  0.37346007330E+02 -0.10940404568E+02  0.39929747711E+02  0.00000000000E+00 0. -1.
</event>
<event>
 5    1  0.1681104E-003  0.9118800E+02  0.7818608E-02  0.1130116E+00
         25   -1    0    0    0    0  0.00000000000E+00  0.00000000000E+00  0.99999998245E-14  0.12500000000E+03  0.12500000000E+03 0.  0.
        -11    1    3    3    0    0  0.45579458358E+02  0.42912664240E+01 -0.11525238846E+02  0.47209460095E+02  0.51100000000E-03 0.  1.
         23    2    1    0    0    0  0.14199203917E+02 -0.82772002630E+01  0.23782969220E+02  0.96090502236E+02  0.91638559345E+02 0.  0.
         11    1    3    3    0    0 -0.31380254441E+02 -0.12568466687E+02  0.35308208066E+02  0.48881042140E+02  0.51100000000E-03 0. -1.
         22    1    1    0    0    0 -0.14199203917E+02  0.82772002630E+01 -0.23782969220E+02  0.28909497764E+02  0.00000000000E+00 0.  1.
</event>
<event>
 5    1  0.1681104E-003  0.9118800E+02  0.7818608E-02  0.1130116E+00
         25   -1    0    0    0    0  0.00000000000E+00  0.00000000000E+00  0.99999998245E-14  0.12500000000E+03  0.12500000000E+03 0.  0.
        -11    1    3    3    0    0 -0.32357743843E+02  0.42411901764E+02  0.15762372014E+02  0.55625941517E+02  0.51100000000E-03 0.  1.
         23    2    1    0    0    0 -0.26492631512E+02  0.21628577366E+01  0.94630979852E+01  0.96784973835E+02  0.92581010249E+02 0.  0.
         11    1    3    3    0    0  0.58651123315E+01 -0.40249044028E+02 -0.62992740292E+01  0.41159032318E+02  0.51100000000E-03 0. -1.
         22    1    1    0    0    0  0.26492631512E+02 -0.21628577366E+01 -0.94630979852E+01  0.28215026165E+02  0.00000000000E+00 0.  1.
</event>
<event>
 5    1  0.1681104E-003  0.9118800E+02  0.7818608E-02  0.1130116E+00
         25   -1    0    0    0    0  0.00000000000E+00  0.00000000000E+00  0.99999998245E-14  0.12500000000E+03  0.12500000000E+03 0.  0.
        -11    1    3    3    0    0 -0.40296180751E+01  0.11736706720E+02  0.26301382885E+02  0.29081795825E+02  0.51100000000E-03 0.  1.
         23    2    1    0    0    0  0.23134757315E+02 -0.25917911504E+02 -0.10912574960E+02  0.88585175752E+02  0.80754528901E+02 0.  0.
         11    1    3    3    0    0  0.27164375390E+02 -0.37654618224E+02 -0.37213957846E+02  0.59503379927E+02  0.51100000000E-03 0. -1.
         22    1    1    0    0    0 -0.23134757315E+02  0.25917911504E+02  0.10912574960E+02  0.36414824248E+02  0.00000000000E+00 0. -1.
</event>
<event>
 5    1  0.1681104E-003  0.9118800E+02  0.7818608E-02  0.1130116E+00
         25   -1    0    0    0    0  0.00000000000E+00  0.00000000000E+00  0.99999998245E-14  0.12500000000E+03  0.12500000000E+03 0.  0.
        -11    1    3    3    0    0 -0.31028161701E+02 -0.75690749001E+00  0.23725418477E+02  0.39066804446E+02  0.51100000000E-03 0. -1.
         23    2    1    0    0    0  0.22092992247E+02  0.13406303941E+02  0.16055740315E+02  0.94576060596E+02  0.89548953924E+02 0.  0.
         11    1    3    3    0    0  0.53121153949E+02  0.14163211431E+02 -0.76696781614E+01  0.55509256149E+02  0.51100000000E-03 0.  1.
         22    1    1    0    0    0 -0.22092992247E+02 -0.13406303941E+02 -0.16055740315E+02  0.30423939404E+02  0.00000000000E+00 0.  1.
</event>
<event>
 5    1  0.1681104E-003  0.9118800E+02  0.7818608E-02  0.1130116E+00
         25   -1    0    0    0    0  0.00000000000E+00  0.00000000000E+00  0.99999998245E-14  0.12500000000E+03  0.12500000000E+03 0.  0.
        -11    1    3    3    0    0  0.34800014207E+02  0.18156373420E+02 -0.33025038135E+02  0.51296666838E+02  0.51100000000E-03 0.  1.
         23    2    1    0    0    0 -0.82579011356E+01  0.13431360788E+02 -0.25139967272E+02  0.95324886888E+02  0.90588198580E+02 0.  0.
         11    1    3    3    0    0 -0.43057915342E+02 -0.47250126326E+01  0.78850708629E+01  0.44028220050E+02  0.51100000000E-03 0. -1.
         22    1    1    0    0    0  0.82579011356E+01 -0.13431360788E+02  0.25139967272E+02  0.29675113112E+02  0.00000000000E+00 0. -1.
</event>
<event>
 5    1  0.1681104E-003  0.9118800E+02  0.7818608E-02  0.1130116E+00
         25   -1    0    0    0    0  0.00000000000E+00  0.00000000000E+00  0.99999998245E-14  0.12500000000E+03  0.12500000000E+03 0.  0.
        -11    1    3    3    0    0  0.30029776633E+02  0.22979990780E+02 -0.12218272888E+02  0.39738566324E+02  0.51100000000E-03 0. -1.
         23    2    1    0    0    0  0.14192353752E+02 -0.25820350323E+02  0.73228552480E+01  0.94639868169E+02  0.89637977679E+02 0.  0.
         11    1    3    3    0    0 -0.15837422881E+02 -0.48800341103E+02  0.19541128136E+02  0.54901301845E+02  0.51100000000E-03 0.  1.
         22    1    1    0    0    0 -0.14192353752E+02  0.25820350323E+02 -0.73228552480E+01  0.30360131831E+02  0.00000000000E+00 0.  1.
</event>
<event>
 5    1  0.1681104E-003  0.9118800E+02  0.7818608E-02  0.1130116E+00
         25   -1    0    0    0    0  0.00000000000E+00  0.00000000000E+00  0.99999998245E-14  0.12500000000E+03  0.12500000000E+03 0.  0.
        -11    1    3    3    0    0 -0.24196361261E+02  0.14065919753E+02 -0.38128507790E+02  0.47297960879E+02  0.51100000000E-03 0. -1.
         23    2    1    0    0    0  0.18175288663E+02 -0.29813884947E+01 -0.23262637246E+02  0.95328800379E+02  0.90593598530E+02 0.  0.
         11    1    3    3    0    0  0.42371649924E+02 -0.17047308248E+02  0.14865870544E+02  0.48030839500E+02  0.51100000000E-03 0.  1.
         22    1    1    0    0    0 -0.18175288663E+02  0.29813884947E+01  0.23262637246E+02  0.29671199621E+02  0.00000000000E+00 0. -1.
</event>
<event>
 5    1  0.1681104E-003  0.9118800E+02  0.7818608E-02  0.1130116E+00
         25   -1    0    0    0    0  0.00000000000E+00  0.00000000000E+00  0.99999998245E-14  0.12500000000E+03  0.12500000000E+03 0.  0.
        -11    1    3    3    0    0  0.19825826710E+02 -0.28689228259E+02  0.18590836970E+01  0.34922649030E+02  0.51100000000E-03 0.  1.
         23    2    1    0    0    0 -0.85882758923E+01  0.20492115942E+02 -0.19333831409E+02  0.95546946923E+02  0.90894096238E+02 0.  0.
         11    1    3    3    0    0 -0.28414102602E+02  0.49181344201E+02 -0.21192915106E+02  0.60624297893E+02  0.51100000000E-03 0. -1.
         22    1    1    0    0    0  0.85882758923E+01 -0.20492115942E+02  0.19333831409E+02  0.29453053077E+02  0.00000000000E+00 0. -1.
</event>
<event>
 5    1  0.1681104E-003  0.9118800E+02  0.7818608E-02  0.1130116E+00
         25   -1    0    0    0    0  0.00000000000E+00  0.00000000000E+00  0.99999998245E-14  0.12500000000E+03  0.12500000000E+03 0.  0.
        -11    1    3    3    0    0  0.15432390419E+00  0.40991680763E+01 -0.35548523730E+02  0.35784417481E+02  0.51100000000E-03 0.  1.
         23    2    1    0    0    0 -0.63283716921E+01  0.16237276166E+02  0.23121482053E+02  0.96046582967E+02  0.91578631469E+02 0.  0.
         11    1    3    3    0    0 -0.64826955963E+01  0.12138108090E+02  0.58670005783E+02  0.60262165486E+02  0.51100000000E-03 0. -1.
         22    1    1    0    0    0  0.63283716921E+01 -0.16237276166E+02 -0.23121482053E+02  0.28953417033E+02  0.00000000000E+00 0. -1.
</event>
<event>
 5    1  0.1681104E-003  0.9118800E+02  0.7818608E-02  0.1130116E+00
         25   -1    0    0    0    0  0.00000000000E+00  0.00000000000E+00  0.99999998245E-14  0.12500000000E+03  0.12500000000E+03 0.  0.
        -11    1    3    3    0    0  0.26589543664E+02  0.10254806618E+02 -0.20593483127E+02  0.35160438544E+02  0.51100000000E-03 0.  1.
         23    2    1    0    0    0 -0.19426617491E+02 -0.19958210444E+02  0.63268153746E+01  0.96438623562E+02  0.92112191867E+02 0.  0.
         11    1    3    3    0    0 -0.46016161155E+02 -0.30213017062E+02  0.26920298502E+02  0.61278185018E+02  0.51100000000E-03 0. -1.
         22    1    1    0    0    0  0.19426617491E+02  0.19958210444E+02 -0.63268153746E+01  0.28561376438E+02  0.00000000000E+00 0. -1.
</event>
<event>
 5    1  0.1681104E-003  0.9118800E+02  0.7818608E-02  0.1130116E+00
         25   -1    0    0    0    0  0.00000000000E+00  0.00000000000E+00  0.99999998245E-14  0.12500000000E+03  0.12500000000E+03 0.  0.
        -11    1    3    3    0    0 -0.15282860408E+02  0.29117270973E+02 -0.14238058841E+02  0.35834391456E+02  0.51100000000E-03 0.  1.
         23    2    1    0    0    0 -0.84718732502E+01 -0.23240605295E+02  0.14882534088E+02  0.96131536381E+02  0.91694515077E+02 0.  0.
         11    1    3    3    0    0  0.68109871576E+01 -0.52357876268E+02  0.29120592929E+02  0.60297144925E+02  0.51100000000E-03 0. -1.
         22    1    1    0    0    0  0.84718732502E+01  0.23240605295E+02 -0.14882534088E+02  0.28868463619E+02  0.00000000000E+00 0. -1.
</event>
<event>
 5    1  0.1681104E-003  0.9118800E+02  0.7818608E-02  0.1130116E+00
         25   -1    0    0    0    0  0.00000000000E+00  0.00000000000E+00  0.99999998245E-14  0.12500000000E+03  0.12500000000E+03 0.  0.
        -11    1    3    3    0    0  0.30922662384E+02  0.15317712406E+02  0.32303877240E+02  0.47269269586E+02  0.51100000000E-03 0. -1.
         23    2    1    0    0    0 -0.10209010269E+02  0.26203292059E+02  0.13978776592E+02  0.93595500316E+02  0.88169581370E+02 0.  0.
         11    1    3    3    0    0 -0.41131672653E+02  0.10885579653E+02 -0.18325100647E+02  0.46326230729E+02  0.51100000000E-03 0.  1.
         22    1    1    0    0    0  0.10209010269E+02 -0.26203292059E+02 -0.13978776592E+02  0.31404499684E+02  0.00000000000E+00 0. -1.
</event>
<event>
 5    1  0.1681104E-003  0.9118800E+02  0.7818608E-02  0.1130116E+00
         25   -1    0    0    0    0  0.00000000000E+00  0.00000000000E+00  0.99999998245E-14  0.12500000000E+03  0.12500000000E+03 0.  0.
        -11    1    3    3    0    0 -0.16775898517E+02 -0.23407304584E+02  0.16617158600E+02  0.33248498298E+02  0.51100000000E-03 0.  1.
         23    2    1    0    0    0  0.10289618675E+02  0.22080898244E+02 -0.16400099440E+02  0.95633257222E+02  0.91012715077E+02 0.  0.
         11    1    3    3    0    0  0.27065517192E+02  0.45488202827E+02 -0.33017258040E+02  0.62384758924E+02  0.51100000000E-03 0. -1.
         22    1    1    0    0    0 -0.10289618675E+02 -0.22080898244E+02  0.16400099440E+02  0.29366742778E+02  0.00000000000E+00 0. -1.
</event>
<event>
 5    1  0.1681104E-003  0.9118800E+02  0.7818608E-02  0.1130116E+00
         25   -1    0    0    0    0  0.00000000000E+00  0.00000000000E+00  0.99999998245E-14  0.12500000000E+03  0.12500000000E+03 0.  0.
        -11    1    3    3    0    0 -0.24894671289E+02 -0.55929420579E+02  0.33882115808E+01  0.61313332342E+02  0.51100000000E-03 0.  1.
         23    2    1    0    0    0 -0.17352468602E+02 -0.23250091939E+02  0.73137656136E+01  0.95080673316E+02  0.90250586309E+02 0.  0.
         11    1    3    3    0    0  0.75422026869E+01  0.32679328640E+02  0.39255540329E+01  0.33767340974E+02  0.51100000000E-03 0. -1.
         22    1    1    0    0    0  0.17352468602E+02  0.23250091939E+02 -0.73137656136E+01  0.29919326684E+02  0.00000000000E+00 0.  1.
</event>
<event>
 5    1  0.1681104E-003  0.9118800E+02  0.7818608E-02  0.1130116E+00
         25   -1    0    0    0    0  0.00000000000E+00  0.00000000000E+00  0.99999998245E-14  0.12500000000E+03  0.12500000000E+03 0.  0.
        -11    1    3    3    0    0  0.25493520771E+02  0.38714968932E+02  0.69894259296E+01  0.46878785136E+02  0.51100000000E-03 0.  1.
         23    2    1    0    0    0  0.28593154067E+02 -0.49467040119E+01 -0.10675785832E+02  0.94080576603E+02  0.88854623688E+02 0.  0.
         11    1    3    3    0    0  0.30996332953E+01 -0.43661672944E+02 -0.17665211762E+02  0.47201791467E+02  0.51100000000E-03 0. -1.
         22    1    1    0    0    0 -0.28593154067E+02  0.49467040119E+01  0.10675785832E+02  0.30919423397E+02  0.00000000000E+00 0.  1.
</event>
<event>
 5    1  0.1681104E-003  0.9118800E+02  0.7818608E-02  0.1130116E+00
         25   -1    0    0    0    0  0.00000000000E+00  0.00000000000E+00  0.99999998245E-14  0.12500000000E+03  0.12500000000E+03 0.  0.
        -11    1    3    3    0    0 -0.13998491388E+02 -0.28645610795E+02 -0.20211857031E+02  0.37749807203E+02  0.51100000000E-03 0.  1.
         23    2    1    0    0    0 -0.66348588204E+01  0.47996826594E+01  0.27402100206E+02  0.96400465023E+02  0.92060394611E+02 0.  0.
         11    1    3    3    0    0  0.73636325673E+01  0.33445293455E+02  0.47613957236E+02  0.58650657821E+02  0.51100000000E-03 0. -1.
         22    1    1    0    0    0  0.66348588204E+01 -0.47996826594E+01 -0.27402100206E+02  0.28599534977E+02  0.00000000000E+00 0.  1.
</event>
<event>
 5    1  0.1681104E-003  0.9118800E+02  0.7818608E-02  0.1130116E+00
         25   -1    0    0    0    0  0.00000000000E+00  0.00000000000E+00  0.99999998245E-14  0.12500000000E+03  0.12500000000E+03 0.  0.
        -11    1    3    3    0    0 -0.29670371137E+02 -0.27715432645E+02 -0.15708403807E+02  0.43534240324E+02  0.51100000000E-03 0. -1.
         23    2    1    0    0    0 -0.98988856762E+01 -0.60093864806E+01  0.27149005972E+02  0.95484424641E+02  0.90808073211E+02 0.  0.
         11    1    3    3    0    0  0.19771485461E+02  0.21706046164E+02  0.42857409779E+02  0.51950184318E+02  0.51100000000E-03 0.  1.
         22    1    1    0    0    0  0.98988856762E+01  0.60093864806E+01 -0.27149005972E+02  0.29515575359E+02  0.00000000000E+00 0.  1.
</event>
<event>
 5    1  0.1681104E-003  0.9118800E+02  0.7818608E-02  0.1130116E+00
         25   -1    0    0    0    0  0.00000000000E+00  0.00000000000E+00  0.99999998245E-14  0.12500000000E+03  0.12500000000E+03 0.  0.
        -11    1    3    3    0    0  0.26851784441E+02  0.23552638018E+02 -0.51006813255E+02  0.62269094131E+02  0.51100000000E-03 0.  1.
         23    2    1    0    0    0  0.13771599140E+02  0.14310722822E+02 -0.22327183052E+02  0.95117616668E+02  0.90301739557E+02 0.  0.
         11    1    3    3    0    0 -0.13080185301E+02 -0.92419151952E+01  0.28679630203E+02  0.32848522536E+02  0.51100000000E-03 0. -1.
         22    1    1    0    0    0 -0.13771599140E+02 -0.14310722822E+02  0.22327183052E+02  0.29882383332E+02  0.00000000000E+00 0.  1.
</event>
<event>
 5    1  0.1681104E-003  0.9118800E+02  0.7818608E-02  0.1130116E+00
         25   -1    0    0    0    0  0.00000000000E+00  0.00000000000E+00  0.99999998245E-14  0.12500000000E+03  0.12500000000E+03 0.  0.
        -11    1    3    3    0    0  0.41314983818E+02 -0.13568293616E+02 -0.24764370641E+02  0.50042986852E+02  0.51100000000E-03 0. -1.
         23    2    1    0    0    0  0.83778491676E+01 -0.31930393166E+02 -0.10524918528E+02  0.90351590593E+02  0.83443979102E+02 0.  0.
         11    1    3    3    0    0 -0.32937134651E+02 -0.18362099550E+02  0.14239452112E+02  0.40308603742E+02  0.51100000000E-03 0.  1.
         22    1    1    0    0    0 -0.83778491676E+01  0.31930393166E+02  0.10524918528E+02  0.34648409407E+02  0.00000000000E+00 0. -1.
</event>
<event>
 5    1  0.1681104E-003  0.9118800E+02  0.7818608E-02  0.1130116E+00
         25   -1    0    0    0    0  0.00000000000E+00  0.00000000000E+00  0.99999998245E-14  0.12500000000E+03  0.12500000000E+03 0.  0.
        -11    1    3    3    0    0  0.35720159459E+02  0.30600891596E+02  0.10019795521E+02  0.48090962361E+02  0.51100000000E-03 0.  1.
         23    2    1    0    0    0  0.19834307107E+02  0.60623466763E+00 -0.22432414932E+02  0.95050367305E+02  0.90208601731E+02 0.  0.
         11    1    3    3    0    0 -0.15885852352E+02 -0.29994656928E+02 -0.32452210453E+02  0.46959404944E+02  0.51100000000E-03 0. -1.
         22    1    1    0    0    0 -0.19834307107E+02 -0.60623466763E+00  0.22432414932E+02  0.29949632695E+02  0.00000000000E+00 0.  1.
</event>
<event>
 5    1  0.1681104E-003  0.9118800E+02  0.7818608E-02  0.1130116E+00
         25   -1    0    0    0    0  0.00000000000E+00  0.00000000000E+00  0.99999998245E-14  0.12500000000E+03  0.12500000000E+03 0.  0.
        -11    1    3    3    0    0 -0.13766278951E+01  0.59758299715E+02 -0.48631274081E+01  0.59971655785E+02  0.51100000000E-03 0. -1.
         23    2    1    0    0    0  0.11113912167E+02  0.26182171655E+02 -0.64633185132E+01  0.95831529996E+02  0.91284623562E+02 0.  0.
         11    1    3    3    0    0  0.12490540062E+02 -0.33576128060E+02 -0.16001911051E+01  0.35859874210E+02  0.51100000000E-03 0.  1.
         22    1    1    0    0    0 -0.11113912167E+02 -0.26182171655E+02  0.64633185132E+01  0.29168470004E+02  0.00000000000E+00 0. -1.
</event>
<event>
 5    1  0.1681104E-003  0.9118800E+02  0.7818608E-02  0.1130116E+00
         25   -1    0    0    0    0  0.00000000000E+00  0.00000000000E+00  0.99999998245E-14  0.12500000000E+03  0.12500000000E+03 0.  0.
        -11    1    3    3    0    0 -0.37887851827E+02 -0.33113808123E+02 -0.29159237830E+02  0.58157327617E+02  0.51100000000E-03 0. -1.
         23    2    1    0    0    0 -0.24412687228E+02 -0.10931576642E+01 -0.18010588806E+02  0.94642865739E+02  0.89642157687E+02 0.  0.
         11    1    3    3    0    0  0.13475164599E+02  0.32020650458E+02  0.11148649024E+02  0.36485538122E+02  0.51100000000E-03 0.  1.
         22    1    1    0    0    0  0.24412687228E+02  0.10931576642E+01  0.18010588806E+02  0.30357134261E+02  0.00000000000E+00 0. -1.
</event>
<event>
 5    1  0.1681104E-003  0.9118800E+02  0.7818608E-02  0.1130116E+00
         25   -1    0    0    0    0  0.00000000000E+00  0.00000000000E+00  0.99999998245E-14  0.12500000000E+03  0.12500000000E+03 0.  0.
        -11    1    3    3    0    0 -0.11646320907E+01  0.22956510391E+02  0.30673669372E+02  0.38330558700E+02  0.51100000000E-03 0. -1.
         23    2    1    0    0    0 -0.17218324351E+02  0.19300778591E+02 -0.20441911473E+02  0.92032402388E+02  0.85924970742E+02 0.  0.
         11    1    3    3    0    0 -0.16053692260E+02 -0.36557317996E+01 -0.51115580844E+02  0.53701843688E+02  0.51100000000E-03 0.  1.
         22    1    1    0    0    0  0.17218324351E+02 -0.19300778591E+02  0.20441911473E+02  0.32967597612E+02  0.00000000000E+00 0.  1.
</event>
<event>
 5    1  0.1681104E-003  0.9118800E+02  0.7818608E-02  0.1130116E+00
         25   -1    0    0    0    0  0.00000000000E+00  0.00000000000E+00  0.99999998245E-14  0.12500000000E+03  0.12500000000E+03 0.  0.
        -11    1    3    3    0    0  0.23529611955E+02 -0.91575720990E+01  0.24971343731E+02  0.35511572389E+02  0.51100000000E-03 0.  1.
         23    2    1    0    0    0 -0.43513547004E+01 -0.60491694821E+01 -0.28309250353E+02  0.95726455720E+02  0.91140627220E+02 0.  0.
         11    1    3    3    0    0 -0.27880966656E+02  0.31084026169E+01 -0.53280594084E+02  0.60214883332E+02  0.51100000000E-03 0. -1.
         22    1    1    0    0    0  0.43513547004E+01  0.60491694821E+01  0.28309250353E+02  0.29273544280E+02  0.00000000000E+00 0. -1.
</event>
<event>
 5    1  0.1681104E-003  0.9118800E+02  0.7818608E-02  0.1130116E+00
         25   -1    0    0    0    0  0.00000000000E+00  0.00000000000E+00  0.99999998245E-14  0.12500000000E+03  0.12500000000E+03 0.  0.
        -11    1    3    3    0    0  0.13613854207E+02  0.50203682871E+02  0.10654478856E+02  0.53096748678E+02  0.51100000000E-03 0. -1.
         23    2    1    0    0    0 -0.80366061187E+01  0.21310486518E+02  0.24300910534E+02  0.91694473036E+02  0.85431951044E+02 0.  0.
         11    1    3    3    0    0 -0.21650460326E+02 -0.28893196354E+02  0.13646431678E+02  0.38597724358E+02  0.51100000000E-03 0.  1.
         22    1    1    0    0    0  0.80366061187E+01 -0.21310486518E+02 -0.24300910534E+02  0.33305526964E+02  0.00000000000E+00 0. -1.
</event>
<event>
 5    1  0.1681104E-003  0.9118800E+02  0.7818608E-02  0.1130116E+00
         25   -1    0    0    0    0  0.00000000000E+00  0.00000000000E+00  0.99999998245E-14  0.12500000000E+03  0.12500000000E+03 0.  0.
        -11    1    3    3    0    0 -0.32011214759E+02 -0.47393278813E+02 -0.18593183947E+02  0.60137735545E+02  0.51100000000E-03 0.  1.
         23    2    1    0    0    0 -0.62810373985E+01 -0.28993463727E+02 -0.36883070909E+01  0.95105586159E+02  0.90285084814E+02 0.  0.
         11    1    3    3    0    0  0.25730177360E+02  0.18399815086E+02  0.14904876856E+02  0.34967850614E+02  0.51100000000E-03 0. -1.
         22    1    1    0    0    0  0.62810373985E+01  0.28993463727E+02  0.36883070909E+01  0.29894413841E+02  0.00000000000E+00 0.  1.
</event>
<event>
 5    1  0.1681104E-003  0.9118800E+02  0.7818608E-02  0.1130116E+00
         25   -1    0    0    0    0  0.00000000000E+00  0.00000000000E+00  0.99999998245E-14  0.12500000000E+03  0.12500000000E+03 0.  0.
        -11    1    3    3    0    0 -0.54965251669E+01 -0.77437601206E+01  0.38966584456E+02  0.40107010786E+02  0.51100000000E-03 0.  1.
         23    2    1    0    0    0 -0.95153503790E+01  0.25828468826E+02 -0.64511012458E+01  0.96728664658E+02  0.92504952108E+02 0.  0.
         11    1    3    3    0    0 -0.40188252121E+01  0.33572228946E+02 -0.45417685702E+02  0.56621653873E+02  0.51100000000E-03 0. -1.
         22    1    1    0    0    0  0.95153503790E+01 -0.25828468826E+02  0.64511012458E+01  0.28271335342E+02  0.00000000000E+00 0. -1.
</event>
<event>
 5    1  0.1681104E-003  0.9118800E+02  0.7818608E-02  0.1130116E+00
         25   -1    0    0    0    0  0.00000000000E+00  0.00000000000E+00  0.99999998245E-14  0.12500000000E+03  0.12500000000E+03 0.  0.
        -11    1    3    3    0    0  0.14000934339E+02  0.63844547382E+01 -0.38117783667E+02  0.41106603565E+02  0.51100000000E-03 0.  1.
         23    2    1    0    0    0  0.18467581134E+01  0.28382352941E+02  0.95526373561E+01  0.94996310986E+02  0.90133665999E+02 0.  0.
         11    1    3    3    0    0 -0.12154176225E+02  0.21997898203E+02  0.47670421024E+02  0.53889707421E+02  0.51100000000E-03 0. -1.
         22    1    1    0    0    0 -0.18467581134E+01 -0.28382352941E+02 -0.95526373561E+01  0.30003689014E+02  0.00000000000E+00 0. -1.
</event>
<event>
 5    1  0.1681104E-003  0.9118800E+02  0.7818608E-02  0.1130116E+00
         25   -1    0    0    0    0  0.00000000000E+00  0.00000000000E+00  0.99999998245E-14  0.12500000000E+03  0.12500000000E+03 0.  0.
        -11    1    3    3    0    0  0.10489455677E+02 -0.59796851357E+02 -0.13618449070E+02  0.62218600658E+02  0.51100000000E-03 0. -1.
         23    2    1    0    0    0  0.62162501225E+01 -0.29441958556E+02 -0.25844560020E+01  0.94798177174E+02  0.89858468124E+02 0.  0.
         11    1    3    3    0    0 -0.42732055548E+01  0.30354892801E+02  0.11033993068E+02  0.32579576516E+02  0.51100000000E-03 0.  1.
         22    1    1    0    0    0 -0.62162501225E+01  0.29441958556E+02  0.25844560020E+01  0.30201822826E+02  0.00000000000E+00 0. -1.
</event>
<event>
 5    1  0.1681104E-003  0.9118800E+02  0.7818608E-02  0.1130116E+00
         25   -1    0    0    0    0  0.00000000000E+00  0.00000000000E+00  0.99999998245E-14  0.12500000000E+03  0.12500000000E+03 0.  0.
        -11    1    3    3    0    0 -0.22539334581E+02 -0.35785713717E+02  0.91824305702E+01  0.43277660993E+02  0.51100000000E-03 0. -1.
         23    2    1    0    0    0  0.19474097234E+02 -0.59108689048E+01  0.20560438763E+02  0.96070594952E+02  0.91611400699E+02 0.  0.
         11    1    3    3    0    0  0.42013431815E+02  0.29874844812E+02  0.11378008192E+02  0.52792933960E+02  0.51100000000E-03 0.  1.
         22    1    1    0    0    0 -0.19474097234E+02  0.59108689048E+01 -0.20560438763E+02  0.28929405048E+02  0.00000000000E+00 0. -1.
</event>
<event>
 5    1  0.1681104E-003  0.9118800E+02  0.7818608E-02  0.1130116E+00
         25   -1    0    0    0    0  0.00000000000E+00  0.00000000000E+00  0.99999998245E-14  0.12500000000E+03  0.12500000000E+03 0.  0.
        -11    1    3    3    0    0  0.15919192743E+02  0.18050540242E+02 -0.28114820626E+02  0.37009266944E+02  0.51100000000E-03 0.  1.
         23    2    1    0    0    0  0.87856298916E+01  0.14503125654E+01  0.27819896841E+02  0.95789773034E+02  0.91227426022E+02 0.  0.
         11    1    3    3    0    0 -0.71335628519E+01 -0.16600227677E+02  0.55934717467E+02  0.58780506091E+02  0.51100000000E-03 0. -1.
         22    1    1    0    0    0 -0.87856298916E+01 -0.14503125654E+01 -0.27819896841E+02  0.29210226966E+02  0.00000000000E+00 0. -1.
</event>
<event>
 5    1  0.1681104E-003  0.9118800E+02  0.7818608E-02  0.1130116E+00
         25   -1    0    0    0    0  0.00000000000E+00  0.00000000000E+00  0.99999998245E-14  0.12500000000E+03  0.12500000000E+03 0.  0.
        -11    1    3    3    0    0  0.24856676087E+02  0.27274157224E+02  0.34859716478E+02  0.50763508858E+02  0.51100000000E-03 0. -1.
         23    2    1    0    0    0  0.16864504285E+02  0.11315433496E+02 -0.12347537440E+02  0.10123211787E+03  0.98402385480E+02 0.  0.
         11    1    3    3    0    0 -0.79921718020E+01 -0.15958723728E+02 -0.47207253918E+02  0.50468609014E+02  0.51100000000E-03 0.  1.
         22    1    1    0    0    0 -0.16864504285E+02 -0.11315433496E+02  0.12347537440E+02  0.23767882128E+02  0.00000000000E+00 0.  1.
</event>
<event>
 5    1  0.1681104E-003  0.9118800E+02  0.7818608E-02  0.1130116E+00
         25   -1    0    0    0    0  0.00000000000E+00  0.00000000000E+00  0.99999998245E-14  0.12500000000E+03  0.12500000000E+03 0.  0.
        -11    1    3    3    0    0 -0.49980662402E+02  0.11178202217E+02 -0.19844466420E+02  0.54925601196E+02  0.51100000000E-03 0.  1.
         23    2    1    0    0    0 -0.23530828181E+02  0.27123102467E+02 -0.67876214855E+01  0.88456404560E+02  0.80554957265E+02 0.  0.
         11    1    3    3    0    0  0.26449834221E+02  0.15944900250E+02  0.13056844935E+02  0.33530803364E+02  0.51100000000E-03 0. -1.
         22    1    1    0    0    0  0.23530828181E+02 -0.27123102467E+02  0.67876214855E+01  0.36543595440E+02  0.00000000000E+00 0.  1.
</event>
<event>
 5    1  0.1681104E-003  0.9118800E+02  0.7818608E-02  0.1130116E+00
         25   -1    0    0    0    0  0.00000000000E+00  0.00000000000E+00  0.99999998245E-14  0.12500000000E+03  0.12500000000E+03 0.  0.
        -11    1    3    3    0    0 -0.72418955710E+01 -0.45821094712E+02  0.24878970502E+02  0.52640107766E+02  0.51100000000E-03 0. -1.
         23    2    1    0    0    0 -0.37045936707E+01 -0.23575710214E+02 -0.13823787602E+02  0.97420383795E+02  0.93434982467E+02 0.  0.
         11    1    3    3    0    0  0.35373019004E+01  0.22245384498E+02 -0.38702758103E+02  0.44780276029E+02  0.51100000000E-03 0.  1.
         22    1    1    0    0    0  0.37045936707E+01  0.23575710214E+02  0.13823787602E+02  0.27579616205E+02  0.00000000000E+00 0. -1.
</event>
<event>
 5    1  0.1681104E-003  0.9118800E+02  0.7818608E-02  0.1130116E+00
         25   -1    0    0    0    0  0.00000000000E+00  0.00000000000E+00  0.99999998245E-14  0.12500000000E+03  0.12500000000E+03 0.  0.
        -11    1    3    3    0    0 -0.46865468613E+02  0.11758561926E+02 -0.14597479703E+02  0.50474967467E+02  0.51100000000E-03 0. -1.
         23    2    1    0    0    0 -0.98974754243E+01  0.75754287316E+01 -0.31339976073E+02  0.91272544708E+02  0.84812358633E+02 0.  0.
         11    1    3    3    0    0  0.36967993189E+02 -0.41831331947E+01 -0.16742496370E+02  0.40797577241E+02  0.51100000000E-03 0.  1.
         22    1    1    0    0    0  0.98974754243E+01 -0.75754287316E+01  0.31339976073E+02  0.33727455292E+02  0.00000000000E+00 0. -1.
</event>
<event>
 5    1  0.1681104E-003  0.9118800E+02  0.7818608E-02  0.1130116E+00
         25   -1    0    0    0    0  0.00000000000E+00  0.00000000000E+00  0.99999998245E-14  0.12500000000E+03  0.12500000000E+03 0.  0.
        -11    1    3    3    0    0  0.27637323027E+02 -0.38198600820E+02 -0.33028531262E+02  0.57565950060E+02  0.51100000000E-03 0.  1.
         23    2    1    0    0    0  0.18446110480E+02 -0.27650751939E+01 -0.22736819679E+02  0.95591368584E+02  0.90955165581E+02 0.  0.
         11    1    3    3    0    0 -0.91912125470E+01  0.35433525626E+02  0.10291711583E+02  0.38025418524E+02  0.51100000000E-03 0. -1.
         22    1    1    0    0    0 -0.18446110480E+02  0.27650751939E+01  0.22736819679E+02  0.29408631416E+02  0.00000000000E+00 0.  1.
</event>
<event>
 5    1  0.1681104E-003  0.9118800E+02  0.7818608E-02  0.1130116E+00
         25   -1    0    0    0    0  0.00000000000E+00  0.00000000000E+00  0.99999998245E-14  0.12500000000E+03  0.12500000000E+03 0.  0.
        -11    1    3    3    0    0 -0.31555962076E+02  0.24703170052E+02 -0.15268777910E+02  0.42885439630E+02  0.51100000000E-03 0.  1.
         23    2    1    0    0    0  0.12043853160E+02 -0.46817047830E+01 -0.25466321863E+02  0.96442928935E+02  0.92118034248E+02 0.  0.
         11    1    3    3    0    0  0.43599815236E+02 -0.29384874835E+02 -0.10197543952E+02  0.53557489304E+02  0.51100000000E-03 0. -1.
         22    1    1    0    0    0 -0.12043853160E+02  0.46817047830E+01  0.25466321863E+02  0.28557071065E+02  0.00000000000E+00 0. -1.
</event>
<event>
 5    1  0.1681104E-003  0.9118800E+02  0.7818608E-02  0.1130116E+00
         25   -1    0    0    0    0  0.00000000000E+00  0.00000000000E+00  0.99999998245E-14  0.12500000000E+03  0.12500000000E+03 0.  0.
        -11    1    3    3    0    0 -0.99895597534E+00 -0.24246300108E+02 -0.24512667794E+02  0.34492779891E+02  0.51100000000E-03 0.  1.
         23    2    1    0    0    0 -0.45396793078E+01  0.41005440444E+01  0.29112095764E+02  0.95252104789E+02  0.90487712963E+02 0.  0.
         11    1    3    3    0    0 -0.35407233324E+01  0.28346844153E+02  0.53624763558E+02  0.60759324898E+02  0.51100000000E-03 0. -1.
         22    1    1    0    0    0  0.45396793078E+01 -0.41005440444E+01 -0.29112095764E+02  0.29747895211E+02  0.00000000000E+00 0. -1.
</event>
<event>
 5    1  0.1681104E-003  0.9118800E+02  0.7818608E-02  0.1130116E+00
         25   -1    0    0    0    0  0.00000000000E+00  0.00000000000E+00  0.99999998245E-14  0.12500000000E+03  0.12500000000E+03 0.  0.
        -11    1    3    3    0    0  0.19523292352E+02 -0.27010847922E+02 -0.19883915259E+02  0.38808696655E+02  0.51100000000E-03 0.  1.
         23    2    1    0    0    0 -0.29013377501E+02 -0.19862885870E+01 -0.42561373842E+01  0.95608910844E+02  0.90979270776E+02 0.  0.
         11    1    3    3    0    0 -0.48536669853E+02  0.25024559335E+02  0.15627777875E+02  0.56800214189E+02  0.51100000000E-03 0. -1.
         22    1    1    0    0    0  0.29013377501E+02  0.19862885870E+01  0.42561373842E+01  0.29391089156E+02  0.00000000000E+00 0. -1.
</event>
<event>
 5    1  0.1681104E-003  0.9118800E+02  0.7818608E-02  0.1130116E+00
         25   -1    0    0    0    0  0.00000000000E+00  0.00000000000E+00  0.99999998245E-14  0.12500000000E+03  0.12500000000E+03 0.  0.
        -11    1    3    3    0    0  0.35478362956E+02 -0.24643763176E+02  0.26057672250E+02  0.50448306065E+02  0.51100000000E-03 0. -1.
         23    2    1    0    0    0  0.20014289249E+02  0.15066374523E+02  0.18804899868E+02  0.93676020776E+02  0.88283663234E+02 0.  0.
         11    1    3    3    0    0 -0.15464073707E+02  0.39710137698E+02 -0.72527723818E+01  0.43227714711E+02  0.51100000000E-03 0.  1.
         22    1    1    0    0    0 -0.20014289249E+02 -0.15066374523E+02 -0.18804899868E+02  0.31323979224E+02  0.00000000000E+00 0. -1.
</event>
<event>
 5    1  0.1681104E-003  0.9118800E+02  0.7818608E-02  0.1130116E+00
         25   -1    0    0    0    0  0.00000000000E+00  0.00000000000E+00  0.99999998245E-14  0.12500000000E+03  0.12500000000E+03 0.  0.
        -11    1    3    3    0    0 -0.34440565430E+01  0.21760067839E+02  0.35427300792E+02  0.41718769391E+02  0.51100000000E-03 0. -1.
         23    2    1    0    0    0  0.24238251058E+02 -0.13654519730E+02  0.32666425291E+01  0.96989115030E+02  0.92856226272E+02 0.  0.
         11    1    3    3    0    0  0.27682307601E+02 -0.35414587569E+02 -0.32160658263E+02  0.55270345638E+02  0.51100000000E-03 0.  1.
         22    1    1    0    0    0 -0.24238251058E+02  0.13654519730E+02 -0.32666425291E+01  0.28010884970E+02  0.00000000000E+00 0.  1.
</event>
<event>
 5    1  0.1681104E-003  0.9118800E+02  0.7818608E-02  0.1130116E+00
         25   -1    0    0    0    0  0.00000000000E+00  0.00000000000E+00  0.99999998245E-14  0.12500000000E+03  0.12500000000E+03 0.  0.
        -11    1    3    3    0    0  0.27541430435E+02  0.40637451179E+02 -0.27287178103E+02  0.56165139702E+02  0.51100000000E-03 0. -1.
         23    2    1    0    0    0  0.18623807027E+01  0.33685333197E+02 -0.49512899446E+01  0.90901826932E+02  0.84264207900E+02 0.  0.
         11    1    3    3    0    0 -0.25679049733E+02 -0.69521179819E+01  0.22335888158E+02  0.34736687230E+02  0.51100000000E-03 0.  1.
         22    1    1    0    0    0 -0.18623807027E+01 -0.33685333197E+02  0.49512899446E+01  0.34098173068E+02  0.00000000000E+00 0. -1.
</event>
<event>
 5    1  0.1681104E-003  0.9118800E+02  0.7818608E-02  0.1130116E+00
         25   -1    0    0    0    0  0.00000000000E+00  0.00000000000E+00  0.99999998245E-14  0.12500000000E+03  0.12500000000E+03 0.  0.
        -11    1    3    3    0    0  0.25430527646E+02  0.47478422200E+02  0.19116202802E+02  0.57151916160E+02  0.51100000000E-03 0.  1.
         23    2    1    0    0    0 -0.37847109018E+01  0.20803693820E+02  0.18787365469E+02  0.96714264824E+02  0.92485491868E+02 0.  0.
         11    1    3    3    0    0 -0.29215238548E+02 -0.26674728380E+02 -0.32883733355E+00  0.39562348664E+02  0.51100000000E-03 0. -1.
         22    1    1    0    0    0  0.37847109018E+01 -0.20803693820E+02 -0.18787365469E+02  0.28285735176E+02  0.00000000000E+00 0.  1.
</event>
<event>
 5    1  0.1681104E-003  0.9118800E+02  0.7818608E-02  0.1130116E+00
         25   -1    0    0    0    0  0.00000000000E+00  0.00000000000E+00  0.99999998245E-14  0.12500000000E+03  0.12500000000E+03 0.  0.
        -11    1    3    3    0    0 -0.32075508466E+02  0.95892502128E+00 -0.51026083460E+02  0.60277848121E+02  0.51100000000E-03 0.  1.
         23    2    1    0    0    0 -0.21143693054E+02  0.98198732511E+01 -0.20242332626E+02  0.94125452282E+02  0.88917732037E+02 0.  0.
         11    1    3    3    0    0  0.10931815413E+02  0.88609482299E+01  0.30783750834E+02  0.33847604161E+02  0.51100000000E-03 0. -1.
         22    1    1    0    0    0  0.21143693054E+02 -0.98198732511E+01  0.20242332626E+02  0.30874547718E+02  0.00000000000E+00 0.  1.
</event>
<event>
 5    1  0.1681104E-003  0.9118800E+02  0.7818608E-02  0.1130116E+00
         25   -1    0    0    0    0  0.00000000000E+00  0.00000000000E+00  0.99999998245E-14  0.12500000000E+03  0.12500000000E+03 0.  0.
        -11    1    3    3    0    0  0.46364684973E+02  0.12377061547E+02  0.22465238906E+02  0.52986438119E+02  0.51100000000E-03 0. -1.
         23    2    1    0    0    0  0.25250559430E+02  0.86908467383E+01 -0.13670024984E+02  0.95000147474E+02  0.90138986396E+02 0.  0.
         11    1    3    3    0    0 -0.21114125543E+02 -0.36862148091E+01 -0.36135263890E+02  0.42013709355E+02  0.51100000000E-03 0.  1.
         22    1    1    0    0    0 -0.25250559430E+02 -0.86908467383E+01  0.13670024984E+02  0.29999852526E+02  0.00000000000E+00 0. -1.
</event>
<event>
 5    1  0.1681104E-003  0.9118800E+02  0.7818608E-02  0.1130116E+00
         25   -1    0    0    0    0  0.00000000000E+00  0.00000000000E+00  0.99999998245E-14  0.12500000000E+03  0.12500000000E+03 0.  0.
        -11    1    3    3    0    0  0.47633359020E+01 -0.27616701775E+02  0.45728660137E+02  0.53632843893E+02  0.51100000000E-03 0. -1.
         23    2    1    0    0    0 -0.10616967492E+02 -0.28865182072E+02  0.98234471799E+01  0.92713488121E+02  0.86910137673E+02 0.  0.
         11    1    3    3    0    0 -0.15380303394E+02 -0.12484802975E+01 -0.35905212957E+02  0.39080644228E+02  0.51100000000E-03 0.  1.
         22    1    1    0    0    0  0.10616967492E+02  0.28865182072E+02 -0.98234471799E+01  0.32286511879E+02  0.00000000000E+00 0. -1.
</event>
<event>
 5    1  0.1681104E-003  0.9118800E+02  0.7818608E-02  0.1130116E+00
         25   -1    0    0    0    0  0.00000000000E+00  0.00000000000E+00  0.99999998245E-14  0.12500000000E+03  0.12500000000E+03 0.  0.
        -11    1    3    3    0    0  0.30518179807E+02  0.38263835980E+01  0.14443558298E+02  0.33979654012E+02  0.51100000000E-03 0.  1.
         23    2    1    0    0    0 -0.13447630915E+02 -0.62198101260E+01 -0.26336374438E+02  0.94781968400E+02  0.89835917650E+02 0.  0.
         11    1    3    3    0    0 -0.43965810722E+02 -0.10046193724E+02 -0.40779932736E+02  0.60802314389E+02  0.51100000000E-03 0. -1.
         22    1    1    0    0    0  0.13447630915E+02  0.62198101260E+01  0.26336374438E+02  0.30218031600E+02  0.00000000000E+00 0. -1.
</event>
<event>
 5    1  0.1681104E-003  0.9118800E+02  0.7818608E-02  0.1130116E+00
         25   -1    0    0    0    0  0.00000000000E+00  0.00000000000E+00  0.99999998245E-14  0.12500000000E+03  0.12500000000E+03 0.  0.
        -11    1    3    3    0    0  0.23891394063E+02 -0.58839043719E+01  0.11743898300E+01  0.24633274908E+02  0.51100000000E-03 0. -1.
         23    2    1    0    0    0 -0.37603456302E+02  0.49779057085E+00  0.70542815465E+01  0.86737347067E+02  0.77841741802E+02 0.  0.
         11    1    3    3    0    0 -0.61494850366E+02  0.63816949428E+01  0.58798917166E+01  0.62104072159E+02  0.51100000000E-03 0.  1.
         22    1    1    0    0    0  0.37603456302E+02 -0.49779057085E+00 -0.70542815465E+01  0.38262652933E+02  0.00000000000E+00 0.  1.
</event>
<event>
 5    1  0.1681104E-003  0.9118800E+02  0.7818608E-02  0.1130116E+00
         25   -1    0    0    0    0  0.00000000000E+00  0.00000000000E+00  0.99999998245E-14  0.12500000000E+03  0.12500000000E+03 0.  0.
        -11    1    3    3    0    0  0.18859060875E-01 -0.38715159095E+02 -0.31946060724E+02  0.50193771480E+02  0.51100000000E-03 0.  1.
         23    2    1    0    0    0 -0.23704847865E+02 -0.22722230452E+02 -0.12732724626E+01  0.92139068915E+02  0.86080004814E+02 0.  0.
         11    1    3    3    0    0 -0.23723706926E+02  0.15992928643E+02  0.30672788261E+02  0.41945297435E+02  0.51100000000E-03 0. -1.
         22    1    1    0    0    0  0.23704847865E+02  0.22722230452E+02  0.12732724626E+01  0.32860931085E+02  0.00000000000E+00 0.  1.
</event>
<event>
 5    1  0.1681104E-003  0.9118800E+02  0.7818608E-02  0.1130116E+00
         25   -1    0    0    0    0  0.00000000000E+00  0.00000000000E+00  0.99999998245E-14  0.12500000000E+03  0.12500000000E+03 0.  0.
        -11    1    3    3    0    0 -0.65141132157E+01 -0.27244985215E+02  0.17933749730E+02  0.33261723797E+02  0.51100000000E-03 0. -1.
         23    2    1    0    0    0  0.16894256988E+02  0.23458425012E+02 -0.82439610463E+01  0.94938787168E+02  0.90053854953E+02 0.  0.
         11    1    3    3    0    0  0.23408370204E+02  0.50703410227E+02 -0.26177710776E+02  0.61677063370E+02  0.51100000000E-03 0.  1.
         22    1    1    0    0    0 -0.16894256988E+02 -0.23458425012E+02  0.82439610463E+01  0.30061212832E+02  0.00000000000E+00 0.  1.
</event>
<event>
 5    1  0.1681104E-003  0.9118800E+02  0.7818608E-02  0.1130116E+00
         25   -1    0    0    0    0  0.00000000000E+00  0.00000000000E+00  0.99999998245E-14  0.12500000000E+03  0.12500000000E+03 0.  0.
        -11    1    3    3    0    0 -0.10286905322E+02  0.34191071449E+02  0.33441962111E+02  0.48920492823E+02  0.51100000000E-03 0.  1.
         23    2    1    0    0    0 -0.25962438132E+02 -0.47055728907E+01  0.12181406294E+02  0.95938388391E+02  0.91430832315E+02 0.  0.
         11    1    3    3    0    0 -0.15675532810E+02 -0.38896644339E+02 -0.21260555817E+02  0.47017895568E+02  0.51100000000E-03 0. -1.
         22    1    1    0    0    0  0.25962438132E+02  0.47055728907E+01 -0.12181406294E+02  0.29061611609E+02  0.00000000000E+00 0. -1.
</event>
<event>
 5    1  0.1681104E-003  0.9118800E+02  0.7818608E-02  0.1130116E+00
         25   -1    0    0    0    0  0.00000000000E+00  0.00000000000E+00  0.99999998245E-14  0.12500000000E+03  0.12500000000E+03 0.  0.
        -11    1    3    3    0    0  0.36502254433E+02 -0.24972727216E+02 -0.14856469258E+02  0.46655828815E+02  0.51100000000E-03 0. -1.
         23    2    1    0    0    0  0.20910019934E+02  0.51585339438E+01  0.20222568951E+02  0.95456951730E+02  0.90770248058E+02 0.  0.
         11    1    3    3    0    0 -0.15592234499E+02  0.30131261160E+02  0.35079038209E+02  0.48801122915E+02  0.51100000000E-03 0.  1.
         22    1    1    0    0    0 -0.20910019934E+02 -0.51585339438E+01 -0.20222568951E+02  0.29543048270E+02  0.00000000000E+00 0.  1.
</event>
<event>
 5    1  0.1681104E-003  0.9118800E+02  0.7818608E-02  0.1130116E+00
         25   -1    0    0    0    0  0.00000000000E+00  0.00000000000E+00  0.99999998245E-14  0.12500000000E+03  0.12500000000E+03 0.  0.
        -11    1    3    3    0    0 -0.45318641802E+01 -0.36406302448E+02  0.32958933487E+02  0.49317825862E+02  0.51100000000E-03 0.  1.
         23    2    1    0    0    0 -0.24318487943E+02 -0.15337262556E+02 -0.37122361656E+01  0.96010326392E+02  0.91529129779E+02 0.  0.
         11    1    3    3    0    0 -0.19786623762E+02  0.21069039892E+02 -0.36671169652E+02  0.46692500531E+02  0.51100000000E-03 0. -1.
         22    1    1    0    0    0  0.24318487943E+02  0.15337262556E+02  0.37122361656E+01  0.28989673608E+02  0.00000000000E+00 0. -1.
</event>
<event>
 5    1  0.1681104E-003  0.9118800E+02  0.7818608E-02  0.1130116E+00
         25   -1    0    0    0    0  0.00000000000E+00  0.00000000000E+00  0.99999998245E-14  0.12500000000E+03  0.12500000000E+03 0.  0.
        -11    1    3    3    0    0  0.26340223982E+02  0.27535152142E+02 -0.66412474764E+01  0.38679428268E+02  0.51100000000E-03 0. -1.
         23    2    1    0    0    0 -0.20108253605E+02 -0.58956297729E+01  0.14313288068E+02  0.99623425591E+02  0.96337201525E+02 0.  0.
         11    1    3    3    0    0 -0.46448477586E+02 -0.33430781914E+02  0.20954535544E+02  0.60943997322E+02  0.51100000000E-03 0.  1.
         22    1    1    0    0    0  0.20108253605E+02  0.58956297729E+01 -0.14313288068E+02  0.25376574409E+02  0.00000000000E+00 0.  1.
</event>
<event>
 5    1  0.1681104E-003  0.9118800E+02  0.7818608E-02  0.1130116E+00
         25   -1    0    0    0    0  0.00000000000E+00  0.00000000000E+00  0.99999998245E-14  0.12500000000E+03  0.12500000000E+03 0.  0.
        -11    1    3    3    0    0 -0.84911469282E+01 -0.49797811983E+02  0.17687398185E+02  0.53523506138E+02  0.51100000000E-03 0. -1.
         23    2    1    0    0    0 -0.16495516578E+02 -0.20637503569E+02 -0.12074392523E+02  0.95951771559E+02  0.91449127332E+02 0.  0.
         11    1    3    3    0    0 -0.80043696501E+01  0.29160308414E+02 -0.29761790708E+02  0.42428265421E+02  0.51100000000E-03 0.  1.
         22    1    1    0    0    0  0.16495516578E+02  0.20637503569E+02  0.12074392523E+02  0.29048228441E+02  0.00000000000E+00 0.  1.
</event>
<event>
 5    1  0.1681104E-003  0.9118800E+02  0.7818608E-02  0.1130116E+00
         25   -1    0    0    0    0  0.00000000000E+00  0.00000000000E+00  0.99999998245E-14  0.12500000000E+03  0.12500000000E+03 0.  0.
        -11    1    3    3    0    0  0.23961675784E+02  0.28262543757E+02  0.24701546568E+02  0.44532007467E+02  0.51100000000E-03 0.  1.
         23    2    1    0    0    0 -0.22954406110E+02  0.98064713369E+01  0.15017285310E+02  0.95869423314E+02  0.91336497790E+02 0.  0.
         11    1    3    3    0    0 -0.46916081894E+02 -0.18456072420E+02 -0.96842612579E+01  0.51337415847E+02  0.51100000000E-03 0. -1.
         22    1    1    0    0    0  0.22954406110E+02 -0.98064713369E+01 -0.15017285310E+02  0.29130576686E+02  0.00000000000E+00 0. -1.
</event>
<event>
 5    1  0.1681104E-003  0.9118800E+02  0.7818608E-02  0.1130116E+00
         25   -1    0    0    0    0  0.00000000000E+00  0.00000000000E+00  0.99999998245E-14  0.12500000000E+03  0.12500000000E+03 0.  0.
        -11    1    3    3    0    0 -0.79397606686E+01  0.24361560352E+02  0.28755126780E+02  0.38514708082E+02  0.51100000000E-03 0. -1.
         23    2    1    0    0    0  0.28042724562E+02 -0.10103814811E+02  0.18628897421E+01  0.95134437344E+02  0.90325020542E+02 0.  0.
         11    1    3    3    0    0  0.35982485230E+02 -0.34465375163E+02 -0.26892237038E+02  0.56619729262E+02  0.51100000000E-03 0.  1.
         22    1    1    0    0    0 -0.28042724562E+02  0.10103814811E+02 -0.18628897421E+01  0.29865562656E+02  0.00000000000E+00 0.  1.
</event>
<event>
 5    1  0.1681104E-003  0.9118800E+02  0.7818608E-02  0.1130116E+00
         25   -1    0    0    0    0  0.00000000000E+00  0.00000000000E+00  0.99999998245E-14  0.12500000000E+03  0.12500000000E+03 0.  0.
        -11    1    3    3    0    0 -0.94238458888E+01 -0.54876698046E+02  0.10916083606E+02  0.56739948373E+02  0.51100000000E-03 0. -1.
         23    2    1    0    0    0 -0.15347470528E+02 -0.17768846830E+02  0.18540116163E+02  0.95083237531E+02  0.90254137760E+02 0.  0.
         11    1    3    3    0    0 -0.59236246395E+01  0.37107851217E+02  0.76240325572E+01  0.38343289158E+02  0.51100000000E-03 0.  1.
         22    1    1    0    0    0  0.15347470528E+02  0.17768846830E+02 -0.18540116163E+02  0.29916762469E+02  0.00000000000E+00 0. -1.
</event>
<event>
 5    1  0.1681104E-003  0.9118800E+02  0.7818608E-02  0.1130116E+00
         25   -1    0    0    0    0  0.00000000000E+00  0.00000000000E+00  0.99999998245E-14  0.12500000000E+03  0.12500000000E+03 0.  0.
        -11    1    3    3    0    0  0.38887046624E+02 -0.36029981950E+02 -0.13895667032E+02  0.54803754953E+02  0.51100000000E-03 0.  1.
         23    2    1    0    0    0  0.20260982631E+02 -0.26504652105E+02  0.13274050079E+02  0.89094507302E+02  0.81539112244E+02 0.  0.
         11    1    3    3    0    0 -0.18626063992E+02  0.95253298453E+01  0.27169717111E+02  0.34290752349E+02  0.51100000000E-03 0. -1.
         22    1    1    0    0    0 -0.20260982631E+02  0.26504652105E+02 -0.13274050079E+02  0.35905492698E+02  0.00000000000E+00 0.  1.
</event>
<event>
 5    1  0.1681104E-003  0.9118800E+02  0.7818608E-02  0.1130116E+00
         25   -1    0    0    0    0  0.00000000000E+00  0.00000000000E+00  0.99999998245E-14  0.12500000000E+03  0.12500000000E+03 0.  0.
        -11    1    3    3    0    0 -0.52962453048E+02 -0.13275345174E+02 -0.29516164440E+02  0.62068189806E+02  0.51100000000E-03 0.  1.
         23    2    1    0    0    0 -0.20908880235E+02 -0.92127124002E+01 -0.16079039470E+02  0.97060943954E+02  0.92952869717E+02 0.  0.
         11    1    3    3    0    0  0.32053572813E+02  0.40626327740E+01  0.13437124970E+02  0.34992754148E+02  0.51100000000E-03 0. -1.
         22    1    1    0    0    0  0.20908880235E+02  0.92127124002E+01  0.16079039470E+02  0.27939056046E+02  0.00000000000E+00 0.  1.
</event>
<event>
 5    1  0.1681104E-003  0.9118800E+02  0.7818608E-02  0.1130116E+00
         25   -1    0    0    0    0  0.00000000000E+00  0.00000000000E+00  0.99999998245E-14  0.12500000000E+03  0.12500000000E+03 0.  0.
        -11    1    3    3    0    0 -0.23017244664E+02 -0.74924147731E+01  0.30645999949E+02  0.39052620196E+02  0.51100000000E-03 0. -1.
         23    2    1    0    0    0  0.10573551963E+02 -0.22019850901E+02 -0.14050161037E+02  0.96820559623E+02  0.92629044612E+02 0.  0.
         11    1    3    3    0    0  0.33590796626E+02 -0.14527436128E+02 -0.44696160986E+02  0.57767939427E+02  0.51100000000E-03 0.  1.
         22    1    1    0    0    0 -0.10573551963E+02  0.22019850901E+02  0.14050161037E+02  0.28179440377E+02  0.00000000000E+00 0.  1.
</event>
<event>
 5    1  0.1681104E-003  0.9118800E+02  0.7818608E-02  0.1130116E+00
         25   -1    0    0    0    0  0.00000000000E+00  0.00000000000E+00  0.99999998245E-14  0.12500000000E+03  0.12500000000E+03 0.  0.
        -11    1    3    3    0    0 -0.18295843669E+02 -0.22181243830E+02  0.36006836747E+02  0.46078604213E+02  0.51100000000E-03 0.  1.
         23    2    1    0    0    0  0.21526762469E+02  0.14327881788E+01  0.21366603149E+02  0.94635775746E+02  0.89632270621E+02 0.  0.
         11    1    3    3    0    0  0.39822606138E+02  0.23614032009E+02 -0.14640233598E+02  0.48557171534E+02  0.51100000000E-03 0. -1.
         22    1    1    0    0    0 -0.21526762469E+02 -0.14327881788E+01 -0.21366603149E+02  0.30364224254E+02  0.00000000000E+00 0. -1.
</event>
<event>
 5    1  0.1681104E-003  0.9118800E+02  0.7818608E-02  0.1130116E+00
         25   -1    0    0    0    0  0.00000000000E+00  0.00000000000E+00  0.99999998245E-14  0.12500000000E+03  0.12500000000E+03 0.  0.
        -11    1    3    3    0    0 -0.54397555072E+01 -0.97816144175E+01  0.37442041543E+02  0.39079117131E+02  0.51100000000E-03 0.  1.
         23    2    1    0    0    0  0.26731053349E+02  0.83044884191E+01 -0.62979120752E+01  0.96308931049E+02  0.91936025378E+02 0.  0.
         11    1    3    3    0    0  0.32170808856E+02  0.18086102837E+02 -0.43739953618E+02  0.57229813918E+02  0.51100000000E-03 0. -1.
         22    1    1    0    0    0 -0.26731053349E+02 -0.83044884191E+01  0.62979120752E+01  0.28691068951E+02  0.00000000000E+00 0. -1.
</event>
<event>
 5    1  0.1681104E-003  0.9118800E+02  0.7818608E-02  0.1130116E+00
         25   -1    0    0    0    0  0.00000000000E+00  0.00000000000E+00  0.99999998245E-14  0.12500000000E+03  0.12500000000E+03 0.  0.
        -11    1    3    3    0    0  0.23021045330E+02  0.27561500688E+02  0.21796199369E+02  0.42008084406E+02  0.51100000000E-03 0. -1.
         23    2    1    0    0    0  0.21307634657E+02 -0.10506083534E+00 -0.22340432031E+02  0.94127338375E+02  0.88920383455E+02 0.  0.
         11    1    3    3    0    0 -0.17134106725E+01 -0.27666561523E+02 -0.44136631400E+02  0.52119253969E+02  0.51100000000E-03 0.  1.
         22    1    1    0    0    0 -0.21307634657E+02  0.10506083534E+00  0.22340432031E+02  0.30872661625E+02  0.00000000000E+00 0.  1.
</event>
<event>
 5    1  0.1681104E-003  0.9118800E+02  0.7818608E-02  0.1130116E+00
         25   -1    0    0    0    0  0.00000000000E+00  0.00000000000E+00  0.99999998245E-14  0.12500000000E+03  0.12500000000E+03 0.  0.
        -11    1    3    3    0    0 -0.55620146936E+01 -0.32416975781E+02  0.49086702020E+02  0.59087229091E+02  0.51100000000E-03 0.  1.
         23    2    1    0    0    0 -0.15288575767E+02 -0.71539743112E+01  0.20197848655E+02  0.98677519347E+02  0.95101944443E+02 0.  0.
         11    1    3    3    0    0 -0.97265610731E+01  0.25263001470E+02 -0.28888853364E+02  0.39590290256E+02  0.51100000000E-03 0. -1.
         22    1    1    0    0    0  0.15288575767E+02  0.71539743112E+01 -0.20197848655E+02  0.26322480653E+02  0.00000000000E+00 0.  1.
</event>
<event>
 5    1  0.1681104E-003  0.9118800E+02  0.7818608E-02  0.1130116E+00
         25   -1    0    0    0    0  0.00000000000E+00  0.00000000000E+00  0.99999998245E-14  0.12500000000E+03  0.12500000000E+03 0.  0.
        -11    1    3    3    0    0  0.18850797354E+02 -0.40628035254E+02  0.26688777732E+02  0.52137133279E+02  0.51100000000E-03 0. -1.
         23    2    1    0    0    0  0.10744649681E+02 -0.26671435590E+02 -0.11835020435E+02  0.93905294954E+02  0.88607695707E+02 0.  0.
         11    1    3    3    0    0 -0.81061476730E+01  0.13956599664E+02 -0.38523798167E+02  0.41768161675E+02  0.51100000000E-03 0.  1.
         22    1    1    0    0    0 -0.10744649681E+02  0.26671435590E+02  0.11835020435E+02  0.31094705046E+02  0.00000000000E+00 0. -1.
</event>
<event>
 5    1  0.1681104E-003  0.9118800E+02  0.7818608E-02  0.1130116E+00
         25   -1    0    0    0    0  0.00000000000E+00  0.00000000000E+00  0.99999998245E-14  0.12500000000E+03  0.12500000000E+03 0.  0.
        -11    1    3    3    0    0  0.38009781408E+02 -0.39460314463E+01 -0.85952968866E+01  0.39168785732E+02  0.51100000000E-03 0.  1.
         23    2    1    0    0    0 -0.19767159819E+01  0.18356948946E+02  0.23522911722E+02  0.95096616302E+02  0.90272665163E+02 0.  0.
         11    1    3    3    0    0 -0.39986497390E+02  0.22302980392E+02  0.32118208609E+02  0.55927830571E+02  0.51100000000E-03 0. -1.
         22    1    1    0    0    0  0.19767159819E+01 -0.18356948946E+02 -0.23522911722E+02  0.29903383698E+02  0.00000000000E+00 0. -1.
</event>
<event>
 5    1  0.1681104E-003  0.9118800E+02  0.7818608E-02  0.1130116E+00
         25   -1    0    0    0    0  0.00000000000E+00  0.00000000000E+00  0.99999998245E-14  0.12500000000E+03  0.12500000000E+03 0.  0.
        -11    1    3    3    0    0  0.20745783482E+02  0.17214801486E+02 -0.24982278857E+02  0.36753927405E+02  0.51100000000E-03 0.  1.
         23    2    1    0    0    0 -0.24871951836E+02  0.96611953388E+01  0.11786781587E+02  0.95830137064E+02  0.91282716140E+02 0.  0.
         11    1    3    3    0    0 -0.45617735319E+02 -0.75536061477E+01  0.36769060445E+02  0.59076209659E+02  0.51100000000E-03 0. -1.
         22    1    1    0    0    0  0.24871951836E+02 -0.96611953388E+01 -0.11786781587E+02  0.29169862936E+02  0.00000000000E+00 0. -1.
</event>
<event>
 5    1  0.1681104E-003  0.9118800E+02  0.7818608E-02  0.1130116E+00
         25   -1    0    0    0    0  0.00000000000E+00  0.00000000000E+00  0.99999998245E-14  0.12500000000E+03  0.12500000000E+03 0.  0.
        -11    1    3    3    0    0 -0.12520404177E+02  0.32643976707E+02 -0.38402255215E+02  0.51933832343E+02  0.51100000000E-03 0.  1.
         23    2    1    0    0    0 -0.17309871126E+02  0.24946710514E+02  0.31588271220E+01  0.94472173470E+02  0.89403821884E+02 0.  0.
         11    1    3    3    0    0 -0.47894669490E+01 -0.76972661923E+01  0.41561082337E+02  0.42538341126E+02  0.51100000000E-03 0. -1.
         22    1    1    0    0    0  0.17309871126E+02 -0.24946710514E+02 -0.31588271220E+01  0.30527826530E+02  0.00000000000E+00 0.  1.
</event>
<event>
 5    1  0.1681104E-003  0.9118800E+02  0.7818608E-02  0.1130116E+00
         25   -1    0    0    0    0  0.00000000000E+00  0.00000000000E+00  0.99999998245E-14  0.12500000000E+03  0.12500000000E+03 0.  0.
        -11    1    3    3    0    0  0.11003690218E+02 -0.51766246942E+02  0.23916317016E+01  0.52976838556E+02  0.51100000000E-03 0. -1.
         23    2    1    0    0    0  0.61373741053E+01 -0.15495892237E+02  0.24228612367E+02  0.95592251117E+02  0.90956378442E+02 0.  0.
         11    1    3    3    0    0 -0.48663161126E+01  0.36270354705E+02  0.21836980665E+02  0.42615412562E+02  0.51100000000E-03 0.  1.
         22    1    1    0    0    0 -0.61373741053E+01  0.15495892237E+02 -0.24228612367E+02  0.29407748883E+02  0.00000000000E+00 0.  1.
</event>
<event>
 5    1  0.1681104E-003  0.9118800E+02  0.7818608E-02  0.1130116E+00
         25   -1    0    0    0    0  0.00000000000E+00  0.00000000000E+00  0.99999998245E-14  0.12500000000E+03  0.12500000000E+03 0.  0.
        -11    1    3    3    0    0 -0.52879108033E+02 -0.26140340044E+01  0.96067362314E+01  0.53808202176E+02  0.51100000000E-03 0.  1.
         23    2    1    0    0    0 -0.17887702226E+02  0.20160555021E+02  0.11715689208E+02  0.95611647830E+02  0.90983031151E+02 0.  0.
         11    1    3    3    0    0  0.34991405807E+02  0.22774589025E+02  0.21089529768E+01  0.41803445654E+02  0.51100000000E-03 0. -1.
         22    1    1    0    0    0  0.17887702226E+02 -0.20160555021E+02 -0.11715689208E+02  0.29388352170E+02  0.00000000000E+00 0.  1.
</event>
<event>
 5    1  0.1681104E-003  0.9118800E+02  0.7818608E-02  0.1130116E+00
         25   -1    0    0    0    0  0.00000000000E+00  0.00000000000E+00  0.99999998245E-14  0.12500000000E+03  0.12500000000E+03 0.  0.
        -11    1    3    3    0    0 -0.30332841059E+02 -0.19900371076E+02  0.22903865250E+02  0.42903298933E+02  0.51100000000E-03 0.  1.
         23    2    1    0    0    0  0.81415632250E+01  0.97871185832E+01  0.30369598152E+02  0.92069994931E+02  0.85979641385E+02 0.  0.
         11    1    3    3    0    0  0.38474404284E+02  0.29687489659E+02  0.74657329019E+01  0.49166695998E+02  0.51100000000E-03 0. -1.
         22    1    1    0    0    0 -0.81415632250E+01 -0.97871185832E+01 -0.30369598152E+02  0.32930005069E+02  0.00000000000E+00 0. -1.
</event>
<event>
 5    1  0.1681104E-003  0.9118800E+02  0.7818608E-02  0.1130116E+00
         25   -1    0    0    0    0  0.00000000000E+00  0.00000000000E+00  0.99999998245E-14  0.12500000000E+03  0.12500000000E+03 0.  0.
        -11    1    3    3    0    0 -0.12572311947E+02 -0.43680817810E+02 -0.38901304626E+02  0.59827989889E+02  0.51100000000E-03 0.  1.
         23    2    1    0    0    0  0.16410497592E+01 -0.78566057918E+01 -0.21377109680E+02  0.10216581254E+03  0.99581389496E+02 0.  0.
         11    1    3    3    0    0  0.14213361707E+02  0.35824212018E+02  0.17524194946E+02  0.42337822647E+02  0.51100000000E-03 0. -1.
         22    1    1    0    0    0 -0.16410497592E+01  0.78566057918E+01  0.21377109680E+02  0.22834187464E+02  0.00000000000E+00 0.  1.
</event>
<event>
 5    1  0.1681104E-003  0.9118800E+02  0.7818608E-02  0.1130116E+00
         25   -1    0    0    0    0  0.00000000000E+00  0.00000000000E+00  0.99999998245E-14  0.12500000000E+03  0.12500000000E+03 0.  0.
        -11    1    3    3    0    0 -0.30838586863E+02  0.91722890185E+01  0.78208545075E+01  0.33110649209E+02  0.51100000000E-03 0. -1.
         23    2    1    0    0    0  0.66445866100E+01 -0.59510640219E+01 -0.33154482589E+02  0.90666555519E+02  0.83914473601E+02 0.  0.
         11    1    3    3    0    0  0.37483173473E+02 -0.15123353040E+02 -0.40975337096E+02  0.57555906310E+02  0.51100000000E-03 0.  1.
         22    1    1    0    0    0 -0.66445866100E+01  0.59510640219E+01  0.33154482589E+02  0.34333444481E+02  0.00000000000E+00 0.  1.
</event>
<event>
 5    1  0.1681104E-003  0.9118800E+02  0.7818608E-02  0.1130116E+00
         25   -1    0    0    0    0  0.00000000000E+00  0.00000000000E+00  0.99999998245E-14  0.12500000000E+03  0.12500000000E+03 0.  0.
        -11    1    3    3    0    0  0.12467643622E+02  0.20339235090E+02  0.38371030603E+02  0.45182547641E+02  0.51100000000E-03 0. -1.
         23    2    1    0    0    0 -0.25508038790E+02  0.17132305971E+01  0.52592109447E+01  0.98899147490E+02  0.95392803044E+02 0.  0.
         11    1    3    3    0    0 -0.37975682412E+02 -0.18626004493E+02 -0.33111819658E+02  0.53716599849E+02  0.51100000000E-03 0.  1.
         22    1    1    0    0    0  0.25508038790E+02 -0.17132305971E+01 -0.52592109447E+01  0.26100852510E+02  0.00000000000E+00 0. -1.
</event>
<event>
 5    1  0.1681104E-003  0.9118800E+02  0.7818608E-02  0.1130116E+00
         25   -1    0    0    0    0  0.00000000000E+00  0.00000000000E+00  0.99999998245E-14  0.12500000000E+03  0.12500000000E+03 0.  0.
        -11    1    3    3    0    0  0.32922872574E+02  0.14212105838E+02  0.17623229086E+02  0.39955946924E+02  0.51100000000E-03 0. -1.
         23    2    1    0    0    0 -0.11794274681E+02  0.20471784755E+02 -0.16183508364E+02  0.96362527534E+02  0.92008868504E+02 0.  0.
         11    1    3    3    0    0 -0.44717147256E+02  0.62596789173E+01 -0.33806737450E+02  0.56406580610E+02  0.51100000000E-03 0.  1.
         22    1    1    0    0    0  0.11794274681E+02 -0.20471784755E+02  0.16183508364E+02  0.28637472466E+02  0.00000000000E+00 0.  1.
</event>
<event>
 5    1  0.1681104E-003  0.9118800E+02  0.7818608E-02  0.1130116E+00
         25   -1    0    0    0    0  0.00000000000E+00  0.00000000000E+00  0.99999998245E-14  0.12500000000E+03  0.12500000000E+03 0.  0.
        -11    1    3    3    0    0 -0.13360168303E+02  0.32345317740E+02 -0.16175293247E+02  0.38553259118E+02  0.51100000000E-03 0.  1.
         23    2    1    0    0    0 -0.94744179252E+01 -0.23846152034E+02 -0.15773054256E+02  0.94880358528E+02  0.89972716042E+02 0.  0.
         11    1    3    3    0    0  0.38857503773E+01 -0.56191469774E+02  0.40223899083E+00  0.56327099409E+02  0.51100000000E-03 0. -1.
         22    1    1    0    0    0  0.94744179252E+01  0.23846152034E+02  0.15773054256E+02  0.30119641472E+02  0.00000000000E+00 0. -1.
</event>
<event>
 5    1  0.1681104E-003  0.9118800E+02  0.7818608E-02  0.1130116E+00
         25   -1    0    0    0    0  0.00000000000E+00  0.00000000000E+00  0.99999998245E-14  0.12500000000E+03  0.12500000000E+03 0.  0.
        -11    1    3    3    0    0 -0.29087180199E+02  0.26400692171E+02  0.23736136578E+02  0.45896239268E+02  0.51100000000E-03 0. -1.
         23    2    1    0    0    0  0.25316663149E+01  0.24298865340E+02 -0.15299020551E+02  0.96174590706E+02  0.91753188917E+02 0.  0.
         11    1    3    3    0    0  0.31618846513E+02 -0.21018268311E+01 -0.39035157130E+02  0.50278351438E+02  0.51100000000E-03 0.  1.
         22    1    1    0    0    0 -0.25316663149E+01 -0.24298865340E+02  0.15299020551E+02  0.28825409294E+02  0.00000000000E+00 0.  1.
</event>
<event>
 5    1  0.1681104E-003  0.9118800E+02  0.7818608E-02  0.1130116E+00
         25   -1    0    0    0    0  0.00000000000E+00  0.00000000000E+00  0.99999998245E-14  0.12500000000E+03  0.12500000000E+03 0.  0.
        -11    1    3    3    0    0  0.15866415919E+02  0.38172962315E+02  0.45079876622E+01  0.41584133501E+02  0.51100000000E-03 0. -1.
         23    2    1    0    0    0  0.20267257769E+02 -0.14335966932E+02 -0.12829071933E+02  0.97056006513E+02  0.92946229769E+02 0.  0.
         11    1    3    3    0    0  0.44008418503E+01 -0.52508929248E+02 -0.17337059595E+02  0.55471873011E+02  0.51100000000E-03 0.  1.
         22    1    1    0    0    0 -0.20267257769E+02  0.14335966932E+02  0.12829071933E+02  0.27943993487E+02  0.00000000000E+00 0.  1.
</event>
<event>
 5    1  0.1681104E-003  0.9118800E+02  0.7818608E-02  0.1130116E+00
         25   -1    0    0    0    0  0.00000000000E+00  0.00000000000E+00  0.99999998245E-14  0.12500000000E+03  0.12500000000E+03 0.  0.
        -11    1    3    3    0    0  0.17066936504E+02  0.24082525313E+02  0.12432045645E+02  0.32028176755E+02  0.51100000000E-03 0. -1.
         23    2    1    0    0    0 -0.23289037234E+02 -0.20763741191E+02  0.93094556692E+01  0.92439622723E+02  0.86515349394E+02 0.  0.
         11    1    3    3    0    0 -0.40355973738E+02 -0.44846266504E+02 -0.31225899755E+01  0.60411445969E+02  0.51100000000E-03 0.  1.
         22    1    1    0    0    0  0.23289037234E+02  0.20763741191E+02 -0.93094556692E+01  0.32560377277E+02  0.00000000000E+00 0.  1.
</event>
<event>
 5    1  0.1681104E-003  0.9118800E+02  0.7818608E-02  0.1130116E+00
         25   -1    0    0    0    0  0.00000000000E+00  0.00000000000E+00  0.99999998245E-14  0.12500000000E+03  0.12500000000E+03 0.  0.
        -11    1    3    3    0    0  0.26257145236E+02 -0.44424657455E+01  0.27207996982E+02  0.38071620374E+02  0.51100000000E-03 0.  1.
         23    2    1    0    0    0 -0.25487381457E+02 -0.73054030979E+01  0.22709492372E+02  0.90090165114E+02  0.83051437547E+02 0.  0.
         11    1    3    3    0    0 -0.51744526693E+02 -0.28629373524E+01 -0.44985046103E+01  0.52018544740E+02  0.51100000000E-03 0. -1.
         22    1    1    0    0    0  0.25487381457E+02  0.73054030979E+01 -0.22709492372E+02  0.34909834886E+02  0.00000000000E+00 0. -1.
</event>
<event>
 5    1  0.1681104E-003  0.9118800E+02  0.7818608E-02  0.1130116E+00
         25   -1    0    0    0    0  0.00000000000E+00  0.00000000000E+00  0.99999998245E-14  0.12500000000E+03  0.12500000000E+03 0.  0.
        -11    1    3    3    0    0  0.36263679847E+02  0.44984964811E+01 -0.35298680065E+02  0.50806375203E+02  0.51100000000E-03 0.  1.
         23    2    1    0    0    0  0.25796688824E+02 -0.13501824221E+02  0.43211649801E+01  0.95564632185E+02  0.90918414231E+02 0.  0.
         11    1    3    3    0    0 -0.10466991022E+02 -0.18000320702E+02  0.39619845045E+02  0.44758256983E+02  0.51100000000E-03 0. -1.
         22    1    1    0    0    0 -0.25796688824E+02  0.13501824221E+02 -0.43211649801E+01  0.29435367815E+02  0.00000000000E+00 0.  1.
</event>
<event>
 5    1  0.1681104E-003  0.9118800E+02  0.7818608E-02  0.1130116E+00
         25   -1    0    0    0    0  0.00000000000E+00  0.00000000000E+00  0.99999998245E-14  0.12500000000E+03  0.12500000000E+03 0.  0.
        -11    1    3    3    0    0  0.19127474683E+02 -0.31485003931E+02  0.41054748916E+02  0.55160295224E+02  0.51100000000E-03 0.  1.
         23    2    1    0    0    0  0.23345589178E+02 -0.18575118094E+02  0.36629636844E+01  0.94942241447E+02  0.90058649566E+02 0.  0.
         11    1    3    3    0    0  0.42181144949E+01  0.12909885837E+02 -0.37391785232E+02  0.39781946223E+02  0.51100000000E-03 0. -1.
         22    1    1    0    0    0 -0.23345589178E+02  0.18575118094E+02 -0.36629636844E+01  0.30057758553E+02  0.00000000000E+00 0.  1.
</event>
<event>
 5    1  0.1681104E-003  0.9118800E+02  0.7818608E-02  0.1130116E+00
         25   -1    0    0    0    0  0.00000000000E+00  0.00000000000E+00  0.99999998245E-14  0.12500000000E+03  0.12500000000E+03 0.  0.
        -11    1    3    3    0    0 -0.43475725924E+02  0.27080118915E+02 -0.15232962217E+02  0.53437016414E+02  0.51100000000E-03 0. -1.
         23    2    1    0    0    0 -0.22178192482E+02 -0.69706433574E+01  0.86857942304E+01  0.10018256435E+03  0.97059987063E+02 0.  0.
         11    1    3    3    0    0  0.21297533442E+02 -0.34050762272E+02  0.23918756448E+02  0.46745547941E+02  0.51100000000E-03 0.  1.
         22    1    1    0    0    0  0.22178192482E+02  0.69706433574E+01 -0.86857942304E+01  0.24817435645E+02  0.00000000000E+00 0. -1.
</event>
<event>
 5    1  0.1681104E-003  0.9118800E+02  0.7818608E-02  0.1130116E+00
         25   -1    0    0    0    0  0.00000000000E+00  0.00000000000E+00  0.99999998245E-14  0.12500000000E+03  0.12500000000E+03 0.  0.
        -11    1    3    3    0    0 -0.26630226736E+01  0.36921830797E+02 -0.36615569281E+02  0.52067390882E+02  0.51100000000E-03 0.  1.
         23    2    1    0    0    0 -0.25176990592E+02  0.11668433427E+02 -0.87323954382E+01  0.95908971761E+02  0.91390606412E+02 0.  0.
         11    1    3    3    0    0 -0.22513967918E+02 -0.25253397370E+02  0.27883173843E+02  0.43841580879E+02  0.51100000000E-03 0. -1.
         22    1    1    0    0    0  0.25176990592E+02 -0.11668433427E+02  0.87323954382E+01  0.29091028239E+02  0.00000000000E+00 0. -1.
</event>
<event>
 5    1  0.1681104E-003  0.9118800E+02  0.7818608E-02  0.1130116E+00
         25   -1    0    0    0    0  0.00000000000E+00  0.00000000000E+00  0.99999998245E-14  0.12500000000E+03  0.12500000000E+03 0.  0.
        -11    1    3    3    0    0  0.57504628789E+02 -0.15386872926E+02  0.17297947089E+01  0.59552752922E+02  0.51100000000E-03 0.  1.
         23    2    1    0    0    0  0.25804808827E+02 -0.91602722192E+00  0.12886693664E+02  0.96141827187E+02  0.91708542660E+02 0.  0.
         11    1    3    3    0    0 -0.31699819962E+02  0.14470845704E+02  0.11156898956E+02  0.36589074265E+02  0.51100000000E-03 0. -1.
         22    1    1    0    0    0 -0.25804808827E+02  0.91602722192E+00 -0.12886693664E+02  0.28858172813E+02  0.00000000000E+00 0.  1.
</event>
<event>
 5    1  0.1681104E-003  0.9118800E+02  0.7818608E-02  0.1130116E+00
         25   -1    0    0    0    0  0.00000000000E+00  0.00000000000E+00  0.99999998245E-14  0.12500000000E+03  0.12500000000E+03 0.  0.
        -11    1    3    3    0    0 -0.17412787298E+02  0.44790185585E+02 -0.22752727571E+02  0.53170033839E+02  0.51100000000E-03 0.  1.
         23    2    1    0    0    0  0.13345847864E+02  0.25934938643E+02  0.17576420983E-01  0.95832672276E+02  0.91286187723E+02 0.  0.
         11    1    3    3    0    0  0.30758635162E+02 -0.18855246943E+02  0.22770303992E+02  0.42662638437E+02  0.51100000000E-03 0. -1.
         22    1    1    0    0    0 -0.13345847864E+02 -0.25934938643E+02 -0.17576420983E-01  0.29167327724E+02  0.00000000000E+00 0.  1.
</event>
<event>
 5    1  0.1681104E-003  0.9118800E+02  0.7818608E-02  0.1130116E+00
         25   -1    0    0    0    0  0.00000000000E+00  0.00000000000E+00  0.99999998245E-14  0.12500000000E+03  0.12500000000E+03 0.  0.
        -11    1    3    3    0    0  0.59265720680E+02 -0.13053742251E+01  0.99332843882E+01  0.60106570261E+02  0.51100000000E-03 0. -1.
         23    2    1    0    0    0  0.26418338669E+02  0.10928930137E+02  0.49836073484E+00  0.96405970983E+02  0.92067870323E+02 0.  0.
         11    1    3    3    0    0 -0.32847382011E+02  0.12234304362E+02 -0.94349236533E+01  0.36299400722E+02  0.51100000000E-03 0.  1.
         22    1    1    0    0    0 -0.26418338669E+02 -0.10928930137E+02 -0.49836073484E+00  0.28594029017E+02  0.00000000000E+00 0. -1.
</event>
<event>
 5    1  0.1681104E-003  0.9118800E+02  0.7818608E-02  0.1130116E+00
         25   -1    0    0    0    0  0.00000000000E+00  0.00000000000E+00  0.99999998245E-14  0.12500000000E+03  0.12500000000E+03 0.  0.
        -11    1    3    3    0    0 -0.14003890395E+02  0.24788961042E+02 -0.24606892450E+02  0.37631113351E+02  0.51100000000E-03 0. -1.
         23    2    1    0    0    0  0.52019471363E+01  0.69267833825E+01  0.27608862893E+02  0.96064038079E+02  0.91602453678E+02 0.  0.
         11    1    3    3    0    0  0.19205837531E+02 -0.17862177659E+02  0.52215755343E+02  0.58432924728E+02  0.51100000000E-03 0.  1.
         22    1    1    0    0    0 -0.52019471363E+01 -0.69267833825E+01 -0.27608862893E+02  0.28935961921E+02  0.00000000000E+00 0.  1.
</event>
<event>
 5    1  0.1681104E-003  0.9118800E+02  0.7818608E-02  0.1130116E+00
         25   -1    0    0    0    0  0.00000000000E+00  0.00000000000E+00  0.99999998245E-14  0.12500000000E+03  0.12500000000E+03 0.  0.
        -11    1    3    3    0    0  0.99001976053E+01  0.37210027132E+02  0.30791258217E+02  0.49302146146E+02  0.51100000000E-03 0. -1.
         23    2    1    0    0    0 -0.21178503829E+02  0.30652065371E+01  0.17523006759E+02  0.97341723094E+02  0.93329688596E+02 0.  0.
         11    1    3    3    0    0 -0.31078701435E+02 -0.34144820595E+02 -0.13268251458E+02  0.48039576948E+02  0.51100000000E-03 0.  1.
         22    1    1    0    0    0  0.21178503829E+02 -0.30652065371E+01 -0.17523006759E+02  0.27658276906E+02  0.00000000000E+00 0. -1.
</event>
<event>
 5    1  0.1681104E-003  0.9118800E+02  0.7818608E-02  0.1130116E+00
         25   -1    0    0    0    0  0.00000000000E+00  0.00000000000E+00  0.99999998245E-14  0.12500000000E+03  0.12500000000E+03 0.  0.
        -11    1    3    3    0    0 -0.32139527002E+02  0.27003891982E+02  0.13707408318E+02  0.44159397880E+02  0.51100000000E-03 0.  1.
         23    2    1    0    0    0  0.11979146727E+02  0.50867301011E+00  0.25380623250E+02  0.96929824704E+02  0.92776377252E+02 0.  0.
         11    1    3    3    0    0  0.44118673730E+02 -0.26495218972E+02  0.11673214933E+02  0.52770426824E+02  0.51100000000E-03 0. -1.
         22    1    1    0    0    0 -0.11979146727E+02 -0.50867301011E+00 -0.25380623250E+02  0.28070175296E+02  0.00000000000E+00 0. -1.
</event>
<event>
 5    1  0.1681104E-003  0.9118800E+02  0.7818608E-02  0.1130116E+00
         25   -1    0    0    0    0  0.00000000000E+00  0.00000000000E+00  0.99999998245E-14  0.12500000000E+03  0.12500000000E+03 0.  0.
        -11    1    3    3    0    0 -0.39122235674E+01  0.55881165133E+02  0.27512009303E+02  0.62409300317E+02  0.51100000000E-03 0. -1.
         23    2    1    0    0    0  0.30301879638E+00  0.27059497799E+02  0.12220574520E+02  0.95307396828E+02  0.90564061344E+02 0.  0.
         11    1    3    3    0    0  0.42152423638E+01 -0.28821667334E+02 -0.15291434782E+02  0.32898096511E+02  0.51100000000E-03 0.  1.
         22    1    1    0    0    0 -0.30301879638E+00 -0.27059497799E+02 -0.12220574520E+02  0.29692603172E+02  0.00000000000E+00 0. -1.
</event>
<event>
 5    1  0.1681104E-003  0.9118800E+02  0.7818608E-02  0.1130116E+00
         25   -1    0    0    0    0  0.00000000000E+00  0.00000000000E+00  0.99999998245E-14  0.12500000000E+03  0.12500000000E+03 0.  0.
        -11    1    3    3    0    0 -0.81814524828E+01  0.39800587046E+02  0.47893688279E+01  0.40914067849E+02  0.51100000000E-03 0.  1.
         23    2    1    0    0    0  0.29387259887E+02  0.98443047394E+00  0.61903633680E+01  0.94951693132E+02  0.90071767402E+02 0.  0.
         11    1    3    3    0    0  0.37568712370E+02 -0.38816156572E+02  0.14009945401E+01  0.54037625282E+02  0.51100000000E-03 0. -1.
         22    1    1    0    0    0 -0.29387259887E+02 -0.98443047394E+00 -0.61903633680E+01  0.30048306868E+02  0.00000000000E+00 0. -1.
</event>
<event>
 5    1  0.1681104E-003  0.9118800E+02  0.7818608E-02  0.1130116E+00
         25   -1    0    0    0    0  0.00000000000E+00  0.00000000000E+00  0.99999998245E-14  0.12500000000E+03  0.12500000000E+03 0.  0.
        -11    1    3    3    0    0  0.14310103325E+02 -0.30407948213E+02 -0.39401553873E+01  0.33837068379E+02  0.51100000000E-03 0. -1.
         23    2    1    0    0    0 -0.12344663783E+02  0.25904495260E+02  0.53127267534E+00  0.96299549668E+02  0.91923269181E+02 0.  0.
         11    1    3    3    0    0 -0.26654767109E+02  0.56312443474E+02  0.44714280626E+01  0.62462481289E+02  0.51100000000E-03 0.  1.
         22    1    1    0    0    0  0.12344663783E+02 -0.25904495260E+02 -0.53127267534E+00  0.28700450332E+02  0.00000000000E+00 0.  1.
</event>
<event>
 5    1  0.1681104E-003  0.9118800E+02  0.7818608E-02  0.1130116E+00
         25   -1    0    0    0    0  0.00000000000E+00  0.00000000000E+00  0.99999998245E-14  0.12500000000E+03  0.12500000000E+03 0.  0.
        -11    1    3    3    0    0  0.24266222662E+02 -0.13359040223E+02  0.19987225336E+02  0.34158493744E+02  0.51100000000E-03 0. -1.
         23    2    1    0    0    0 -0.20437668224E+02  0.21425200598E+02 -0.28963802004E+01  0.95248924030E+02  0.90483318946E+02 0.  0.
         11    1    3    3    0    0 -0.44703890886E+02  0.34784240821E+02 -0.22883605536E+02  0.61090430286E+02  0.51100000000E-03 0.  1.
         22    1    1    0    0    0  0.20437668224E+02 -0.21425200598E+02  0.28963802004E+01  0.29751075970E+02  0.00000000000E+00 0.  1.
</event>
<event>
 5    1  0.1681104E-003  0.9118800E+02  0.7818608E-02  0.1130116E+00
         25   -1    0    0    0    0  0.00000000000E+00  0.00000000000E+00  0.99999998245E-14  0.12500000000E+03  0.12500000000E+03 0.  0.
        -11    1    3    3    0    0 -0.31831138933E+01 -0.13234625545E+02 -0.38793746697E+02  0.41112556603E+02  0.51100000000E-03 0.  1.
         23    2    1    0    0    0 -0.24824681981E+02 -0.11819175505E+02  0.10970578068E+02  0.95397443890E+02  0.90688262596E+02 0.  0.
         11    1    3    3    0    0 -0.21641568088E+02  0.14154500403E+01  0.49764324766E+02  0.54284887287E+02  0.51100000000E-03 0. -1.
         22    1    1    0    0    0  0.24824681981E+02  0.11819175505E+02 -0.10970578068E+02  0.29602556110E+02  0.00000000000E+00 0. -1.
</event>
<event>
 5    1  0.1681104E-003  0.9118800E+02  0.7818608E-02  0.1130116E+00
         25   -1    0    0    0    0  0.00000000000E+00  0.00000000000E+00  0.99999998245E-14  0.12500000000E+03  0.12500000000E+03 0.  0.
        -11    1    3    3    0    0  0.58793060033E+02 -0.45151995192E+01 -0.16643697941E+02  0.61270087450E+02  0.51100000000E-03 0. -1.
         23    2    1    0    0    0  0.25116583375E+02 -0.93397410723E+01 -0.12119383494E+02  0.95589917035E+02  0.90953170691E+02 0.  0.
         11    1    3    3    0    0 -0.33676476658E+02 -0.48245415531E+01  0.45243144474E+01  0.34319829585E+02  0.51100000000E-03 0.  1.
         22    1    1    0    0    0 -0.25116583375E+02  0.93397410723E+01  0.12119383494E+02  0.29410082965E+02  0.00000000000E+00 0. -1.
</event>
<event>
 5    1  0.1681104E-003  0.9118800E+02  0.7818608E-02  0.1130116E+00
         25   -1    0    0    0    0  0.00000000000E+00  0.00000000000E+00  0.99999998245E-14  0.12500000000E+03  0.12500000000E+03 0.  0.
        -11    1    3    3    0    0  0.17739844795E+02 -0.20139549936E+02 -0.47440330498E+02  0.54505857694E+02  0.51100000000E-03 0.  1.
         23    2    1    0    0    0 -0.13953922967E+02 -0.13214518068E+02 -0.22389778434E+02  0.95493430693E+02  0.90820469461E+02 0.  0.
         11    1    3    3    0    0 -0.31693767762E+02  0.69250318674E+01  0.25050552064E+02  0.40987572998E+02  0.51100000000E-03 0. -1.
         22    1    1    0    0    0  0.13953922967E+02  0.13214518068E+02  0.22389778434E+02  0.29506569307E+02  0.00000000000E+00 0.  1.
</event>
<event>
 5    1  0.1681104E-003  0.9118800E+02  0.7818608E-02  0.1130116E+00
         25   -1    0    0    0    0  0.00000000000E+00  0.00000000000E+00  0.99999998245E-14  0.12500000000E+03  0.12500000000E+03 0.  0.
        -11    1    3    3    0    0  0.38751042612E+02 -0.43617009961E+02 -0.63339312628E+01  0.58687354234E+02  0.51100000000E-03 0.  1.
         23    2    1    0    0    0  0.18410693947E+02 -0.13937102020E+02 -0.17125145763E+02  0.96251659496E+02  0.91858123615E+02 0.  0.
         11    1    3    3    0    0 -0.20340348665E+02  0.29679907941E+02 -0.10791214500E+02  0.37564305262E+02  0.51100000000E-03 0. -1.
         22    1    1    0    0    0 -0.18410693947E+02  0.13937102020E+02  0.17125145763E+02  0.28748340504E+02  0.00000000000E+00 0. -1.
</event>
<event>
 5    1  0.1681104E-003  0.9118800E+02  0.7818608E-02  0.1130116E+00
         25   -1    0    0    0    0  0.00000000000E+00  0.00000000000E+00  0.99999998245E-14  0.12500000000E+03  0.12500000000E+03 0.  0.
        -11    1    3    3    0    0 -0.88968769584E+01 -0.43052823564E+02  0.38956804001E+02  0.58739531959E+02  0.51100000000E-03 0.  1.
         23    2    1    0    0    0 -0.10723058612E+02 -0.80229626327E+01  0.25285374304E+02  0.96387029705E+02  0.92042150270E+02 0.  0.
         11    1    3    3    0    0 -0.18261816535E+01  0.35029860932E+02 -0.13671429698E+02  0.37647497746E+02  0.51100000000E-03 0. -1.
         22    1    1    0    0    0  0.10723058612E+02  0.80229626327E+01 -0.25285374304E+02  0.28612970295E+02  0.00000000000E+00 0.  1.
</event>
<event>
 5    1  0.1681104E-003  0.9118800E+02  0.7818608E-02  0.1130116E+00
         25   -1    0    0    0    0  0.00000000000E+00  0.00000000000E+00  0.99999998245E-14  0.12500000000E+03  0.12500000000E+03 0.  0.
        -11    1    3    3    0    0 -0.22586518438E+01  0.17807730167E+02 -0.57212624489E+02  0.59962497972E+02  0.51100000000E-03 0. -1.
         23    2    1    0    0    0  0.84631174742E+01  0.16145900910E+02 -0.24266997782E+02  0.94648695993E+02  0.89650287218E+02 0.  0.
         11    1    3    3    0    0  0.10721769318E+02 -0.16618292575E+01  0.32945626707E+02  0.34686198021E+02  0.51100000000E-03 0.  1.
         22    1    1    0    0    0 -0.84631174742E+01 -0.16145900910E+02  0.24266997782E+02  0.30351304007E+02  0.00000000000E+00 0. -1.
</event>
<event>
 5    1  0.1681104E-003  0.9118800E+02  0.7818608E-02  0.1130116E+00
         25   -1    0    0    0    0  0.00000000000E+00  0.00000000000E+00  0.99999998245E-14  0.12500000000E+03  0.12500000000E+03 0.  0.
        -11    1    3    3    0    0  0.18033680207E+01  0.21310674427E+01  0.33567336755E+02  0.33683225525E+02  0.51100000000E-03 0. -1.
         23    2    1    0    0    0 -0.20959088694E+02  0.10197286239E+02 -0.21171166656E+02  0.93512123871E+02  0.88051297366E+02 0.  0.
         11    1    3    3    0    0 -0.22762456715E+02  0.80662187959E+01 -0.54738503411E+02  0.59828898346E+02  0.51100000000E-03 0.  1.
         22    1    1    0    0    0  0.20959088694E+02 -0.10197286239E+02  0.21171166656E+02  0.31487876129E+02  0.00000000000E+00 0.  1.
</event>
<event>
 5    1  0.1681104E-003  0.9118800E+02  0.7818608E-02  0.1130116E+00
         25   -1    0    0    0    0  0.00000000000E+00  0.00000000000E+00  0.99999998245E-14  0.12500000000E+03  0.12500000000E+03 0.  0.
        -11    1    3    3    0    0  0.95953911267E+01 -0.30787994463E+02  0.46787769978E+02  0.56824884986E+02  0.51100000000E-03 0.  1.
         23    2    1    0    0    0  0.22233189336E+02 -0.81905757344E+01  0.22183058591E+02  0.92542515079E+02  0.86663883883E+02 0.  0.
         11    1    3    3    0    0  0.12637798209E+02  0.22597418729E+02 -0.24604711386E+02  0.35717630093E+02  0.51100000000E-03 0. -1.
         22    1    1    0    0    0 -0.22233189336E+02  0.81905757344E+01 -0.22183058591E+02  0.32457484921E+02  0.00000000000E+00 0.  1.
</event>
<event>
 5    1  0.1681104E-003  0.9118800E+02  0.7818608E-02  0.1130116E+00
         25   -1    0    0    0    0  0.00000000000E+00  0.00000000000E+00  0.99999998245E-14  0.12500000000E+03  0.12500000000E+03 0.  0.
        -11    1    3    3    0    0  0.16014402849E+02 -0.11167156876E+02  0.58116190442E+02  0.61307895765E+02  0.51100000000E-03 0. -1.
         23    2    1    0    0    0  0.79401949352E+01 -0.13544959219E+02  0.24987007544E+02  0.95489609256E+02  0.90815209706E+02 0.  0.
         11    1    3    3    0    0 -0.80742079142E+01 -0.23778023435E+01 -0.33129182898E+02  0.34181713491E+02  0.51100000000E-03 0.  1.
         22    1    1    0    0    0 -0.79401949352E+01  0.13544959219E+02 -0.24987007544E+02  0.29510390744E+02  0.00000000000E+00 0. -1.
</event>
<event>
 5    1  0.1681104E-003  0.9118800E+02  0.7818608E-02  0.1130116E+00
         25   -1    0    0    0    0  0.00000000000E+00  0.00000000000E+00  0.99999998245E-14  0.12500000000E+03  0.12500000000E+03 0.  0.
        -11    1    3    3    0    0 -0.13588729228E+02 -0.72312683752E+01  0.29588732382E+02  0.33353229058E+02  0.51100000000E-03 0.  1.
         23    2    1    0    0    0  0.18558426326E+02 -0.27996628773E+01 -0.23101804223E+02  0.95235143907E+02  0.90464280115E+02 0.  0.
         11    1    3    3    0    0  0.32147155554E+02  0.44316054979E+01 -0.52690536604E+02  0.61881914849E+02  0.51100000000E-03 0. -1.
         22    1    1    0    0    0 -0.18558426326E+02  0.27996628773E+01  0.23101804223E+02  0.29764856093E+02  0.00000000000E+00 0. -1.
</event>
<event>
 5    1  0.1681104E-003  0.9118800E+02  0.7818608E-02  0.1130116E+00
         25   -1    0    0    0    0  0.00000000000E+00  0.00000000000E+00  0.99999998245E-14  0.12500000000E+03  0.12500000000E+03 0.  0.
        -11    1    3    3    0    0 -0.23117116556E+02  0.43199518382E+02 -0.30908889029E+02  0.57930638591E+02  0.51100000000E-03 0.  1.
         23    2    1    0    0    0 -0.22672525809E+02  0.20271679332E+02 -0.24374079145E+01  0.94488930422E+02  0.89427247556E+02 0.  0.
         11    1    3    3    0    0  0.44459074763E+00 -0.22927839050E+02  0.28471481115E+02  0.36558291831E+02  0.51100000000E-03 0. -1.
         22    1    1    0    0    0  0.22672525809E+02 -0.20271679332E+02  0.24374079145E+01  0.30511069578E+02  0.00000000000E+00 0.  1.
</event>
<event>
 5    1  0.1681104E-003  0.9118800E+02  0.7818608E-02  0.1130116E+00
         25   -1    0    0    0    0  0.00000000000E+00  0.00000000000E+00  0.99999998245E-14  0.12500000000E+03  0.12500000000E+03 0.  0.
        -11    1    3    3    0    0  0.16442243361E+02 -0.41532505910E+02  0.12433182180E+02  0.46366803139E+02  0.51100000000E-03 0.  1.
         23    2    1    0    0    0 -0.12185823582E+02 -0.45322192050E+01 -0.18454183974E+02  0.10242585077E+03  0.99907270469E+02 0.  0.
         11    1    3    3    0    0 -0.28628066943E+02  0.37000286705E+02 -0.30887366155E+02  0.56059047632E+02  0.51100000000E-03 0. -1.
         22    1    1    0    0    0  0.12185823582E+02  0.45322192050E+01  0.18454183974E+02  0.22574149230E+02  0.00000000000E+00 0. -1.
</event>
<event>
 5    1  0.1681104E-003  0.9118800E+02  0.7818608E-02  0.1130116E+00
         25   -1    0    0    0    0  0.00000000000E+00  0.00000000000E+00  0.99999998245E-14  0.12500000000E+03  0.12500000000E+03 0.  0.
        -11    1    3    3    0    0  0.18407235250E+02 -0.44591181262E+02 -0.35978214125E+02  0.60179993750E+02  0.51100000000E-03 0. -1.
         23    2    1    0    0    0  0.55609610891E+00 -0.25392267517E+02 -0.83553152456E+01  0.98262614462E+02  0.94555029563E+02 0.  0.
         11    1    3    3    0    0 -0.17851139141E+02  0.19198913745E+02  0.27622898879E+02  0.38082620713E+02  0.51100000000E-03 0.  1.
         22    1    1    0    0    0 -0.55609610891E+00  0.25392267517E+02  0.83553152456E+01  0.26737385538E+02  0.00000000000E+00 0. -1.
</event>
<event>
 5    1  0.1681104E-003  0.9118800E+02  0.7818608E-02  0.1130116E+00
         25   -1    0    0    0    0  0.00000000000E+00  0.00000000000E+00  0.99999998245E-14  0.12500000000E+03  0.12500000000E+03 0.  0.
        -11    1    3    3    0    0  0.39713180742E+02  0.28208031298E+02  0.34002156534E+02  0.59405188356E+02  0.51100000000E-03 0.  1.
         23    2    1    0    0    0  0.81161844303E+01  0.12477755689E+02  0.25118910063E+02  0.95801943909E+02  0.91244101054E+02 0.  0.
         11    1    3    3    0    0 -0.31596996312E+02 -0.15730275609E+02 -0.88832464706E+01  0.36396755553E+02  0.51100000000E-03 0. -1.
         22    1    1    0    0    0 -0.81161844303E+01 -0.12477755689E+02 -0.25118910063E+02  0.29198056091E+02  0.00000000000E+00 0.  1.
</event>
<event>
 5    1  0.1681104E-003  0.9118800E+02  0.7818608E-02  0.1130116E+00
         25   -1    0    0    0    0  0.00000000000E+00  0.00000000000E+00  0.99999998245E-14  0.12500000000E+03  0.12500000000E+03 0.  0.
        -11    1    3    3    0    0  0.40047055533E+02 -0.33598759962E+02  0.15087710808E+02  0.54408476780E+02  0.51100000000E-03 0.  1.
         23    2    1    0    0    0  0.20444168553E+02  0.68871190357E+01  0.13764268397E+02  0.99409933159E+02  0.96059790181E+02 0.  0.
         11    1    3    3    0    0 -0.19602886980E+02  0.40485878997E+02 -0.13234424107E+01  0.45001456379E+02  0.51100000000E-03 0. -1.
         22    1    1    0    0    0 -0.20444168553E+02 -0.68871190357E+01 -0.13764268397E+02  0.25590066841E+02  0.00000000000E+00 0.  1.
</event>
<event>
 5    1  0.1681104E-003  0.9118800E+02  0.7818608E-02  0.1130116E+00
         25   -1    0    0    0    0  0.00000000000E+00  0.00000000000E+00  0.99999998245E-14  0.12500000000E+03  0.12500000000E+03 0.  0.
        -11    1    3    3    0    0  0.25595295346E+01 -0.12018938301E+02 -0.54684203547E+02  0.56047909748E+02  0.51100000000E-03 0. -1.
         23    2    1    0    0    0 -0.10141580121E+02 -0.20767409107E+02 -0.18451208371E+02  0.95426633288E+02  0.90728486827E+02 0.  0.
         11    1    3    3    0    0 -0.12701109656E+02 -0.87484708054E+01  0.36232995176E+02  0.39378723540E+02  0.51100000000E-03 0.  1.
         22    1    1    0    0    0  0.10141580121E+02  0.20767409107E+02  0.18451208371E+02  0.29573366712E+02  0.00000000000E+00 0. -1.
</event>
<event>
 5    1  0.1681104E-003  0.9118800E+02  0.7818608E-02  0.1130116E+00
         25   -1    0    0    0    0  0.00000000000E+00  0.00000000000E+00  0.99999998245E-14  0.12500000000E+03  0.12500000000E+03 0.  0.
        -11    1    3    3    0    0 -0.29990572980E+02 -0.28838995312E+02 -0.45553831422E+02  0.61695005274E+02  0.51100000000E-03 0. -1.
         23    2    1    0    0    0 -0.11873689967E+02 -0.19728690795E+02 -0.18750420619E+02  0.95305151503E+02  0.90560962206E+02 0.  0.
         11    1    3    3    0    0  0.18116883013E+02  0.91103045178E+01  0.26803410804E+02  0.33610146228E+02  0.51100000000E-03 0.  1.
         22    1    1    0    0    0  0.11873689967E+02  0.19728690795E+02  0.18750420619E+02  0.29694848497E+02  0.00000000000E+00 0. -1.
</event>
<event>
 5    1  0.1681104E-003  0.9118800E+02  0.7818608E-02  0.1130116E+00
         25   -1    0    0    0    0  0.00000000000E+00  0.00000000000E+00  0.99999998245E-14  0.12500000000E+03  0.12500000000E+03 0.  0.
        -11    1    3    3    0    0  0.15288208882E+02 -0.30519243042E+02  0.23226084367E+02  0.41286856528E+02  0.51100000000E-03 0.  1.
         23    2    1    0    0    0 -0.27075474373E+02 -0.83942702728E+01 -0.41274808846E+01  0.96354211751E+02  0.91997570282E+02 0.  0.
         11    1    3    3    0    0 -0.42363683255E+02  0.22124972769E+02 -0.27353565252E+02  0.55067355223E+02  0.51100000000E-03 0. -1.
         22    1    1    0    0    0  0.27075474373E+02  0.83942702728E+01  0.41274808846E+01  0.28645788249E+02  0.00000000000E+00 0. -1.
</event>
<event>
 5    1  0.1681104E-003  0.9118800E+02  0.7818608E-02  0.1130116E+00
         25   -1    0    0    0    0  0.00000000000E+00  0.00000000000E+00  0.99999998245E-14  0.12500000000E+03  0.12500000000E+03 0.  0.
        -11    1    3    3    0    0 -0.24608272038E+02  0.27189679775E+02 -0.35497052304E+00  0.36673856400E+02  0.51100000000E-03 0. -1.
         23    2    1    0    0    0  0.19403257931E+02  0.11159992879E+02  0.26218218274E+02  0.90526432896E+02  0.83705485030E+02 0.  0.
         11    1    3    3    0    0  0.44011529969E+02 -0.16029686895E+02  0.26573188797E+02  0.53852576496E+02  0.51100000000E-03 0.  1.
         22    1    1    0    0    0 -0.19403257931E+02 -0.11159992879E+02 -0.26218218274E+02  0.34473567104E+02  0.00000000000E+00 0.  1.
</event>
<event>
 5    1  0.1681104E-003  0.9118800E+02  0.7818608E-02  0.1130116E+00
         25   -1    0    0    0    0  0.00000000000E+00  0.00000000000E+00  0.99999998245E-14  0.12500000000E+03  0.12500000000E+03 0.  0.
        -11    1    3    3    0    0 -0.32256195966E+02  0.22664733918E+02  0.14948383451E+02  0.42161671099E+02  0.51100000000E-03 0.  1.
         23    2    1    0    0    0 -0.48132353282E+02 -0.58768072821E+01  0.12566257274E+02  0.74908372774E+02  0.55696437888E+02 0.  0.
         11    1    3    3    0    0 -0.15876157316E+02 -0.28541541200E+02 -0.23821261766E+01  0.32746701675E+02  0.51100000000E-03 0. -1.
         22    1    1    0    0    0  0.48132353282E+02  0.58768072821E+01 -0.12566257274E+02  0.50091627226E+02  0.00000000000E+00 0.  1.
</event>
<event>
 5    1  0.1681104E-003  0.9118800E+02  0.7818608E-02  0.1130116E+00
         25   -1    0    0    0    0  0.00000000000E+00  0.00000000000E+00  0.99999998245E-14  0.12500000000E+03  0.12500000000E+03 0.  0.
        -11    1    3    3    0    0 -0.14456200698E+02 -0.26741539056E+02 -0.45606788178E+02  0.54809404101E+02  0.51100000000E-03 0. -1.
         23    2    1    0    0    0 -0.26340122628E+02 -0.16774071183E+02 -0.12511365735E+02  0.91359164745E+02  0.84939926926E+02 0.  0.
         11    1    3    3    0    0 -0.11883921930E+02  0.99674678726E+01  0.33095422443E+02  0.36549760644E+02  0.51100000000E-03 0.  1.
         22    1    1    0    0    0  0.26340122628E+02  0.16774071183E+02  0.12511365735E+02  0.33640835255E+02  0.00000000000E+00 0.  1.
</event>
<event>
 5    1  0.1681104E-003  0.9118800E+02  0.7818608E-02  0.1130116E+00
         25   -1    0    0    0    0  0.00000000000E+00  0.00000000000E+00  0.99999998245E-14  0.12500000000E+03  0.12500000000E+03 0.  0.
        -11    1    3    3    0    0  0.31949278486E+02 -0.70133181084E+00  0.78315800285E+01  0.32902612481E+02  0.51100000000E-03 0. -1.
         23    2    1    0    0    0 -0.28727672449E+02 -0.42856517616E+01 -0.62372053876E+01  0.95292278674E+02  0.90543192281E+02 0.  0.
         11    1    3    3    0    0 -0.60676950935E+02 -0.35843199507E+01 -0.14068785416E+02  0.62389666193E+02  0.51100000000E-03 0.  1.
         22    1    1    0    0    0  0.28727672449E+02  0.42856517616E+01  0.62372053876E+01  0.29707721326E+02  0.00000000000E+00 0.  1.
</event>
<event>
 5    1  0.1681104E-003  0.9118800E+02  0.7818608E-02  0.1130116E+00
         25   -1    0    0    0    0  0.00000000000E+00  0.00000000000E+00  0.99999998245E-14  0.12500000000E+03  0.12500000000E+03 0.  0.
        -11    1    3    3    0    0  0.26853381233E+02  0.45096678602E+02 -0.20396503978E+02  0.56310140112E+02  0.51100000000E-03 0.  1.
         23    2    1    0    0    0 -0.64513292004E+01  0.26489208531E+02 -0.11003788868E+02  0.95599639688E+02  0.90966531878E+02 0.  0.
         11    1    3    3    0    0 -0.33304710433E+02 -0.18607470072E+02  0.93927151101E+01  0.39289499576E+02  0.51100000000E-03 0. -1.
         22    1    1    0    0    0  0.64513292004E+01 -0.26489208531E+02  0.11003788868E+02  0.29400360312E+02  0.00000000000E+00 0.  1.
</event>
<event>
 5    1  0.1681104E-003  0.9118800E+02  0.7818608E-02  0.1130116E+00
         25   -1    0    0    0    0  0.00000000000E+00  0.00000000000E+00  0.99999998245E-14  0.12500000000E+03  0.12500000000E+03 0.  0.
        -11    1    3    3    0    0  0.32605015498E+02  0.68928667093E+01  0.13042977174E+02  0.35787119204E+02  0.51100000000E-03 0.  1.
         23    2    1    0    0    0 -0.17944543163E+02 -0.22046525153E+02 -0.35528268514E+01  0.96352513561E+02  0.91995262868E+02 0.  0.
         11    1    3    3    0    0 -0.50549558661E+02 -0.28939391862E+02 -0.16595804025E+02  0.60565394357E+02  0.51100000000E-03 0. -1.
         22    1    1    0    0    0  0.17944543163E+02  0.22046525153E+02  0.35528268514E+01  0.28647486439E+02  0.00000000000E+00 0. -1.
</event>
<event>
 5    1  0.1681104E-003  0.9118800E+02  0.7818608E-02  0.1130116E+00
         25   -1    0    0    0    0  0.00000000000E+00  0.00000000000E+00  0.99999998245E-14  0.12500000000E+03  0.12500000000E+03 0.  0.
        -11    1    3    3    0    0 -0.10785958928E+02  0.45657355090E+02 -0.24203997442E+02  0.52789814133E+02  0.51100000000E-03 0. -1.
         23    2    1    0    0    0  0.11125717236E+02  0.86876482362E+01 -0.25576136946E+02  0.95787064560E+02  0.91223714790E+02 0.  0.
         11    1    3    3    0    0  0.21911676164E+02 -0.36969706854E+02 -0.13721395048E+01  0.42997250427E+02  0.51100000000E-03 0.  1.
         22    1    1    0    0    0 -0.11125717236E+02 -0.86876482362E+01  0.25576136946E+02  0.29212935440E+02  0.00000000000E+00 0. -1.
</event>
<event>
 5    1  0.1681104E-003  0.9118800E+02  0.7818608E-02  0.1130116E+00
         25   -1    0    0    0    0  0.00000000000E+00  0.00000000000E+00  0.99999998245E-14  0.12500000000E+03  0.12500000000E+03 0.  0.
        -11    1    3    3    0    0  0.25541544442E+02  0.26586930303E+02  0.50643426839E+01  0.37214015136E+02  0.51100000000E-03 0.  1.
         23    2    1    0    0    0 -0.47348707500E+01 -0.15097711318E+02 -0.23914812563E+02  0.96324607275E+02  0.91957336948E+02 0.  0.
         11    1    3    3    0    0 -0.30276415192E+02 -0.41684641621E+02 -0.28979155247E+02  0.59110592139E+02  0.51100000000E-03 0. -1.
         22    1    1    0    0    0  0.47348707500E+01  0.15097711318E+02  0.23914812563E+02  0.28675392725E+02  0.00000000000E+00 0. -1.
</event>
<event>
 5    1  0.1681104E-003  0.9118800E+02  0.7818608E-02  0.1130116E+00
         25   -1    0    0    0    0  0.00000000000E+00  0.00000000000E+00  0.99999998245E-14  0.12500000000E+03  0.12500000000E+03 0.  0.
        -11    1    3    3    0    0 -0.21877756733E+02 -0.15126286924E+02  0.27754019219E+02  0.38441206782E+02  0.51100000000E-03 0. -1.
         23    2    1    0    0    0  0.27407216203E+02 -0.88967649848E+01 -0.15960075644E+01  0.96140769807E+02  0.91707101425E+02 0.  0.
         11    1    3    3    0    0  0.49284972935E+02  0.62295219397E+01 -0.29350026783E+02  0.57699563025E+02  0.51100000000E-03 0.  1.
         22    1    1    0    0    0 -0.27407216203E+02  0.88967649848E+01  0.15960075644E+01  0.28859230193E+02  0.00000000000E+00 0.  1.
</event>
<event>
 5    1  0.1681104E-003  0.9118800E+02  0.7818608E-02  0.1130116E+00
         25   -1    0    0    0    0  0.00000000000E+00  0.00000000000E+00  0.99999998245E-14  0.12500000000E+03  0.12500000000E+03 0.  0.
        -11    1    3    3    0    0  0.52370505760E+02 -0.12587523648E+02  0.23308998650E+02  0.58689224254E+02  0.51100000000E-03 0. -1.
         23    2    1    0    0    0  0.19777155956E+02 -0.20093703666E+02  0.67547473405E+01  0.96008286764E+02  0.91526344245E+02 0.  0.
         11    1    3    3    0    0 -0.32593349804E+02 -0.75061800184E+01 -0.16554251310E+02  0.37319062510E+02  0.51100000000E-03 0.  1.
         22    1    1    0    0    0 -0.19777155956E+02  0.20093703666E+02 -0.67547473405E+01  0.28991713236E+02  0.00000000000E+00 0. -1.
</event>
<event>
 5    1  0.1681104E-003  0.9118800E+02  0.7818608E-02  0.1130116E+00
         25   -1    0    0    0    0  0.00000000000E+00  0.00000000000E+00  0.99999998245E-14  0.12500000000E+03  0.12500000000E+03 0.  0.
        -11    1    3    3    0    0 -0.39363040383E+02 -0.49980434539E+01  0.37114624192E+02  0.54331618011E+02  0.51100000000E-03 0. -1.
         23    2    1    0    0    0 -0.27267639060E+02 -0.22865107528E+01 -0.40649577963E+01  0.97336374908E+02  0.93322525293E+02 0.  0.
         11    1    3    3    0    0  0.12095401323E+02  0.27115327011E+01 -0.41179581988E+02  0.43004756897E+02  0.51100000000E-03 0.  1.
         22    1    1    0    0    0  0.27267639060E+02  0.22865107528E+01  0.40649577963E+01  0.27663625092E+02  0.00000000000E+00 0. -1.
</event>
<event>
 5    1  0.1681104E-003  0.9118800E+02  0.7818608E-02  0.1130116E+00
         25   -1    0    0    0    0  0.00000000000E+00  0.00000000000E+00  0.99999998245E-14  0.12500000000E+03  0.12500000000E+03 0.  0.
        -11    1    3    3    0    0  0.16489188706E+02 -0.28316317661E+01  0.41034689760E+02  0.44314300701E+02  0.51100000000E-03 0.  1.
         23    2    1    0    0    0 -0.78492699596E+01  0.21673819068E+02 -0.45482842015E+01  0.10150420546E+03  0.98747411940E+02 0.  0.
         11    1    3    3    0    0 -0.24338458666E+02  0.24505450835E+02 -0.45582973962E+02  0.57189904758E+02  0.51100000000E-03 0. -1.
         22    1    1    0    0    0  0.78492699596E+01 -0.21673819068E+02  0.45482842015E+01  0.23495794540E+02  0.00000000000E+00 0. -1.
</event>
<event>
 5    1  0.1681104E-003  0.9118800E+02  0.7818608E-02  0.1130116E+00
         25   -1    0    0    0    0  0.00000000000E+00  0.00000000000E+00  0.99999998245E-14  0.12500000000E+03  0.12500000000E+03 0.  0.
        -11    1    3    3    0    0  0.30269015000E+02 -0.32952822123E+01 -0.13959366737E+01  0.30479842411E+02  0.51100000000E-03 0.  1.
         23    2    1    0    0    0 -0.31621648215E+02  0.48281948235E+01 -0.25333558792E+01  0.92911715641E+02  0.87194775705E+02 0.  0.
         11    1    3    3    0    0 -0.61890663215E+02  0.81234770358E+01 -0.11374192055E+01  0.62431873230E+02  0.51100000000E-03 0. -1.
         22    1    1    0    0    0  0.31621648215E+02 -0.48281948235E+01  0.25333558792E+01  0.32088284359E+02  0.00000000000E+00 0. -1.
</event>
<event>
 5    1  0.1681104E-003  0.9118800E+02  0.7818608E-02  0.1130116E+00
         25   -1    0    0    0    0  0.00000000000E+00  0.00000000000E+00  0.99999998245E-14  0.12500000000E+03  0.12500000000E+03 0.  0.
        -11    1    3    3    0    0 -0.37102545282E+01  0.28937204389E+02  0.24715172744E+02  0.38235684257E+02  0.51100000000E-03 0. -1.
         23    2    1    0    0    0  0.23251511051E+02 -0.13203415248E+02 -0.68610088669E+01  0.97394993515E+02  0.93401008446E+02 0.  0.
         11    1    3    3    0    0  0.26961765579E+02 -0.42140619637E+02 -0.31576181611E+02  0.59159309258E+02  0.51100000000E-03 0.  1.
         22    1    1    0    0    0 -0.23251511051E+02  0.13203415248E+02  0.68610088669E+01  0.27605006485E+02  0.00000000000E+00 0.  1.
</event>
<event>
 5    1  0.1681104E-003  0.9118800E+02  0.7818608E-02  0.1130116E+00
         25   -1    0    0    0    0  0.00000000000E+00  0.00000000000E+00  0.99999998245E-14  0.12500000000E+03  0.12500000000E+03 0.  0.
        -11    1    3    3    0    0  0.80398825505E+00  0.33987081930E+02  0.36127443304E+02  0.49608066836E+02  0.51100000000E-03 0.  1.
         23    2    1    0    0    0  0.23568533109E+02  0.18417068340E+02 -0.37029466202E-01  0.95089039963E+02  0.90262173643E+02 0.  0.
         11    1    3    3    0    0  0.22764544854E+02 -0.15570013590E+02 -0.36164472770E+02  0.45480973127E+02  0.51100000000E-03 0. -1.
         22    1    1    0    0    0 -0.23568533109E+02 -0.18417068340E+02  0.37029466202E-01  0.29910960037E+02  0.00000000000E+00 0. -1.
</event>
<event>
 5    1  0.1681104E-003  0.9118800E+02  0.7818608E-02  0.1130116E+00
         25   -1    0    0    0    0  0.00000000000E+00  0.00000000000E+00  0.99999998245E-14  0.12500000000E+03  0.12500000000E+03 0.  0.
        -11    1    3    3    0    0  0.24409103186E+02  0.41079078396E+02 -0.54749208444E+00  0.47786972576E+02  0.51100000000E-03 0.  1.
         23    2    1    0    0    0 -0.18450784762E+02  0.19987382985E+02  0.86972551706E+01  0.96441828062E+02  0.92116540401E+02 0.  0.
         11    1    3    3    0    0 -0.42859887949E+02 -0.21091695411E+02  0.92447472550E+01  0.48654855486E+02  0.51100000000E-03 0. -1.
         22    1    1    0    0    0  0.18450784762E+02 -0.19987382985E+02 -0.86972551706E+01  0.28558171938E+02  0.00000000000E+00 0. -1.
</event>
<event>
 5    1  0.1681104E-003  0.9118800E+02  0.7818608E-02  0.1130116E+00
         25   -1    0    0    0    0  0.00000000000E+00  0.00000000000E+00  0.99999998245E-14  0.12500000000E+03  0.12500000000E+03 0.  0.
        -11    1    3    3    0    0 -0.38445491146E+02 -0.45038746938E+02 -0.88137391939E+01  0.59868409984E+02  0.51100000000E-03 0.  1.
         23    2    1    0    0    0 -0.20249004851E+02 -0.17126747952E+02 -0.16099405939E+02  0.93975194369E+02  0.88706248890E+02 0.  0.
         11    1    3    3    0    0  0.18196486295E+02  0.27911998986E+02 -0.72856667454E+01  0.34106784385E+02  0.51100000000E-03 0. -1.
         22    1    1    0    0    0  0.20249004851E+02  0.17126747952E+02  0.16099405939E+02  0.31024805631E+02  0.00000000000E+00 0.  1.
</event>
<event>
 5    1  0.1681104E-003  0.9118800E+02  0.7818608E-02  0.1130116E+00
         25   -1    0    0    0    0  0.00000000000E+00  0.00000000000E+00  0.99999998245E-14  0.12500000000E+03  0.12500000000E+03 0.  0.
        -11    1    3    3    0    0  0.23565797912E+02 -0.24942611590E+02 -0.41810682616E+01  0.34568222926E+02  0.51100000000E-03 0. -1.
         23    2    1    0    0    0 -0.29912008855E+02  0.28669048019E+01 -0.20116820635E+01  0.94883654246E+02  0.89977294699E+02 0.  0.
         11    1    3    3    0    0 -0.53477806767E+02  0.27809516392E+02  0.21693861981E+01  0.60315431320E+02  0.51100000000E-03 0.  1.
         22    1    1    0    0    0  0.29912008855E+02 -0.28669048019E+01  0.20116820635E+01  0.30116345754E+02  0.00000000000E+00 0.  1.
</event>
<event>
 5    1  0.1681104E-003  0.9118800E+02  0.7818608E-02  0.1130116E+00
         25   -1    0    0    0    0  0.00000000000E+00  0.00000000000E+00  0.99999998245E-14  0.12500000000E+03  0.12500000000E+03 0.  0.
        -11    1    3    3    0    0 -0.24645637915E+02  0.21670386664E+02  0.29028218360E+02  0.43813817316E+02  0.51100000000E-03 0.  1.
         23    2    1    0    0    0 -0.16067618786E+01  0.24365056773E+02 -0.16925213272E+02  0.95289723670E+02  0.90539664886E+02 0.  0.
         11    1    3    3    0    0  0.23038876036E+02  0.26946701086E+01 -0.45953431632E+02  0.51475906354E+02  0.51100000000E-03 0. -1.
         22    1    1    0    0    0  0.16067618786E+01 -0.24365056773E+02  0.16925213272E+02  0.29710276330E+02  0.00000000000E+00 0.  1.
</event>
<event>
 5    1  0.1681104E-003  0.9118800E+02  0.7818608E-02  0.1130116E+00
         25   -1    0    0    0    0  0.00000000000E+00  0.00000000000E+00  0.99999998245E-14  0.12500000000E+03  0.12500000000E+03 0.  0.
        -11    1    3    3    0    0 -0.35401750982E+02 -0.73231814373E+00  0.33218438426E+01  0.35564798737E+02  0.51100000000E-03 0.  1.
         23    2    1    0    0    0  0.22215519739E+02 -0.17730922454E+02 -0.47662361940E+01  0.96179314100E+02  0.91759623609E+02 0.  0.
         11    1    3    3    0    0  0.57617270720E+02 -0.16998604310E+02 -0.80880800366E+01  0.60614515363E+02  0.51100000000E-03 0. -1.
         22    1    1    0    0    0 -0.22215519739E+02  0.17730922454E+02  0.47662361940E+01  0.28820685900E+02  0.00000000000E+00 0. -1.
</event>
<event>
 5    1  0.1681104E-003  0.9118800E+02  0.7818608E-02  0.1130116E+00
         25   -1    0    0    0    0  0.00000000000E+00  0.00000000000E+00  0.99999998245E-14  0.12500000000E+03  0.12500000000E+03 0.  0.
        -11    1    3    3    0    0  0.20072416217E+02 -0.12073294049E+02  0.32319217905E+02  0.39914886549E+02  0.51100000000E-03 0.  1.
         23    2    1    0    0    0  0.19404800252E+01  0.28267658438E+02 -0.29892200105E+01  0.96508572999E+02  0.92207067244E+02 0.  0.
         11    1    3    3    0    0 -0.18131936192E+02  0.40340952487E+02 -0.35308437916E+02  0.56593686449E+02  0.51100000000E-03 0. -1.
         22    1    1    0    0    0 -0.19404800252E+01 -0.28267658438E+02  0.29892200105E+01  0.28491427001E+02  0.00000000000E+00 0. -1.
</event>
<event>
 5    1  0.1681104E-003  0.9118800E+02  0.7818608E-02  0.1130116E+00
         25   -1    0    0    0    0  0.00000000000E+00  0.00000000000E+00  0.99999998245E-14  0.12500000000E+03  0.12500000000E+03 0.  0.
        -11    1    3    3    0    0  0.33682897006E+02 -0.36063099206E+02  0.36744237003E+02  0.61524171089E+02  0.51100000000E-03 0. -1.
         23    2    1    0    0    0  0.12351037747E+02 -0.23272902141E+02  0.14320200853E+02  0.95012598312E+02  0.90156250909E+02 0.  0.
         11    1    3    3    0    0 -0.21331859259E+02  0.12790197065E+02 -0.22424036149E+02  0.33488427223E+02  0.51100000000E-03 0.  1.
         22    1    1    0    0    0 -0.12351037747E+02  0.23272902141E+02 -0.14320200853E+02  0.29987401688E+02  0.00000000000E+00 0. -1.
</event>
<event>
 5    1  0.1681104E-003  0.9118800E+02  0.7818608E-02  0.1130116E+00
         25   -1    0    0    0    0  0.00000000000E+00  0.00000000000E+00  0.99999998245E-14  0.12500000000E+03  0.12500000000E+03 0.  0.
        -11    1    3    3    0    0 -0.12312552290E+02  0.40101106932E+02 -0.17389601525E+02  0.45410306788E+02  0.51100000000E-03 0.  1.
         23    2    1    0    0    0 -0.27539124942E+02  0.29029953261E-01  0.93300912328E+01  0.95923293727E+02  0.91410193259E+02 0.  0.
         11    1    3    3    0    0 -0.15226572652E+02 -0.40072076979E+02  0.26719692758E+02  0.50512986939E+02  0.51100000000E-03 0. -1.
         22    1    1    0    0    0  0.27539124942E+02 -0.29029953261E-01 -0.93300912328E+01  0.29076706273E+02  0.00000000000E+00 0.  1.
</event>
<event>
 5    1  0.1681104E-003  0.9118800E+02  0.7818608E-02  0.1130116E+00
         25   -1    0    0    0    0  0.00000000000E+00  0.00000000000E+00  0.99999998245E-14  0.12500000000E+03  0.12500000000E+03 0.  0.
        -11    1    3    3    0    0 -0.42593989310E+02  0.17457597910E+01  0.18503284826E+02  0.46472219145E+02  0.51100000000E-03 0.  1.
         23    2    1    0    0    0 -0.14148515289E+02 -0.37024572761E+01 -0.23397062487E+02  0.97408131492E+02  0.93418589548E+02 0.  0.
         11    1    3    3    0    0  0.28445474022E+02 -0.54482170671E+01 -0.41900347312E+02  0.50935912348E+02  0.51100000000E-03 0. -1.
         22    1    1    0    0    0  0.14148515289E+02  0.37024572761E+01  0.23397062487E+02  0.27591868508E+02  0.00000000000E+00 0. -1.
</event>
<event>
 5    1  0.1681104E-003  0.9118800E+02  0.7818608E-02  0.1130116E+00
         25   -1    0    0    0    0  0.00000000000E+00  0.00000000000E+00  0.99999998245E-14  0.12500000000E+03  0.12500000000E+03 0.  0.
        -11    1    3    3    0    0  0.38092002682E+02  0.18450901342E+02  0.18806299268E+01  0.42367124021E+02  0.51100000000E-03 0.  1.
         23    2    1    0    0    0 -0.24288233387E+01  0.19448886007E+01 -0.28944429889E+02  0.95888802909E+02  0.91363016189E+02 0.  0.
         11    1    3    3    0    0 -0.40520826021E+02 -0.16506012742E+02 -0.30825059816E+02  0.53521678887E+02  0.51100000000E-03 0. -1.
         22    1    1    0    0    0  0.24288233387E+01 -0.19448886007E+01  0.28944429889E+02  0.29111197091E+02  0.00000000000E+00 0. -1.
</event>
<event>
 5    1  0.1681104E-003  0.9118800E+02  0.7818608E-02  0.1130116E+00
         25   -1    0    0    0    0  0.00000000000E+00  0.00000000000E+00  0.99999998245E-14  0.12500000000E+03  0.12500000000E+03 0.  0.
        -11    1    3    3    0    0 -0.44861943317E+02 -0.41447684955E+02  0.77793647303E+01  0.61571284396E+02  0.51100000000E-03 0. -1.
         23    2    1    0    0    0 -0.17811322012E+02 -0.25839610251E+02  0.71700518248E+01  0.92807791425E+02  0.87045665350E+02 0.  0.
         11    1    3    3    0    0  0.27050621304E+02  0.15608074704E+02 -0.60931290547E+00  0.31236507029E+02  0.51100000000E-03 0.  1.
         22    1    1    0    0    0  0.17811322012E+02  0.25839610251E+02 -0.71700518248E+01  0.32192208575E+02  0.00000000000E+00 0. -1.
</event>
<event>
 5    1  0.1681104E-003  0.9118800E+02  0.7818608E-02  0.1130116E+00
         25   -1    0    0    0    0  0.00000000000E+00  0.00000000000E+00  0.99999998245E-14  0.12500000000E+03  0.12500000000E+03 0.  0.
        -11    1    3    3    0    0  0.83290366860E+01  0.41210871065E+02  0.14764380719E+02  0.44561145456E+02  0.51100000000E-03 0.  1.
         23    2    1    0    0    0  0.66602362971E+01 -0.89331097793E+01  0.26643772633E+02  0.96120079329E+02  0.91678895239E+02 0.  0.
         11    1    3    3    0    0 -0.16688003888E+01 -0.50143980844E+02  0.11879391913E+02  0.51558933873E+02  0.51100000000E-03 0. -1.
         22    1    1    0    0    0 -0.66602362971E+01  0.89331097793E+01 -0.26643772633E+02  0.28879920671E+02  0.00000000000E+00 0. -1.
</event>
<event>
 5    1  0.1681104E-003  0.9118800E+02  0.7818608E-02  0.1130116E+00
         25   -1    0    0    0    0  0.00000000000E+00  0.00000000000E+00  0.99999998245E-14  0.12500000000E+03  0.12500000000E+03 0.  0.
        -11    1    3    3    0    0 -0.30708330475E+02  0.41126557755E+02  0.15135496743E+02  0.53511480780E+02  0.51100000000E-03 0.  1.
         23    2    1    0    0    0 -0.14208183366E+02  0.19362520512E+02 -0.16918347862E+02  0.95622965270E+02  0.90998578656E+02 0.  0.
         11    1    3    3    0    0  0.16500147109E+02 -0.21764037243E+02 -0.32053844605E+02  0.42111484490E+02  0.51100000000E-03 0. -1.
         22    1    1    0    0    0  0.14208183366E+02 -0.19362520512E+02  0.16918347862E+02  0.29377034730E+02  0.00000000000E+00 0.  1.
</event>
<event>
 5    1  0.1681104E-003  0.9118800E+02  0.7818608E-02  0.1130116E+00
         25   -1    0    0    0    0  0.00000000000E+00  0.00000000000E+00  0.99999998245E-14  0.12500000000E+03  0.12500000000E+03 0.  0.
        -11    1    3    3    0    0 -0.21559185004E+02 -0.39910543804E+02 -0.32155726043E+01  0.45475156649E+02  0.51100000000E-03 0. -1.
         23    2    1    0    0    0 -0.20804647240E+02  0.50968674146E+01  0.19622326869E+02  0.95950953269E+02  0.91448008821E+02 0.  0.
         11    1    3    3    0    0  0.75453776366E+00  0.45007411219E+02  0.22837899473E+02  0.50475796620E+02  0.51100000000E-03 0.  1.
         22    1    1    0    0    0  0.20804647240E+02 -0.50968674146E+01 -0.19622326869E+02  0.29049046731E+02  0.00000000000E+00 0. -1.
</event>
<event>
 5    1  0.1681104E-003  0.9118800E+02  0.7818608E-02  0.1130116E+00
         25   -1    0    0    0    0  0.00000000000E+00  0.00000000000E+00  0.99999998245E-14  0.12500000000E+03  0.12500000000E+03 0.  0.
        -11    1    3    3    0    0  0.42940448958E+02 -0.22618282995E+02  0.32585811133E+02  0.58457710952E+02  0.51100000000E-03 0. -1.
         23    2    1    0    0    0  0.12986726187E+02 -0.24083671167E+02  0.10541632417E+02  0.95677580455E+02  0.91073569787E+02 0.  0.
         11    1    3    3    0    0 -0.29953722771E+02 -0.14653881721E+01 -0.22044178716E+02  0.37219869503E+02  0.51100000000E-03 0.  1.
         22    1    1    0    0    0 -0.12986726187E+02  0.24083671167E+02 -0.10541632417E+02  0.29322419545E+02  0.00000000000E+00 0. -1.
</event>
<event>
 5    1  0.1681104E-003  0.9118800E+02  0.7818608E-02  0.1130116E+00
         25   -1    0    0    0    0  0.00000000000E+00  0.00000000000E+00  0.99999998245E-14  0.12500000000E+03  0.12500000000E+03 0.  0.
        -11    1    3    3    0    0 -0.18347810738E+02  0.97999529086E+01  0.31286593331E+02  0.37570362767E+02  0.51100000000E-03 0.  1.
         23    2    1    0    0    0 -0.65704837372E+01  0.16919369051E+02 -0.24206575221E+02  0.94744511415E+02  0.89783783913E+02 0.  0.
         11    1    3    3    0    0  0.11777327000E+02  0.71194161421E+01 -0.55493168552E+02  0.57174148648E+02  0.51100000000E-03 0. -1.
         22    1    1    0    0    0  0.65704837372E+01 -0.16919369051E+02  0.24206575221E+02  0.30255488585E+02  0.00000000000E+00 0. -1.
</event>
<event>
 5    1  0.1681104E-003  0.9118800E+02  0.7818608E-02  0.1130116E+00
         25   -1    0    0    0    0  0.00000000000E+00  0.00000000000E+00  0.99999998245E-14  0.12500000000E+03  0.12500000000E+03 0.  0.
        -11    1    3    3    0    0  0.22969717934E+02 -0.34253509627E+01 -0.37779593191E+02  0.44346799582E+02  0.51100000000E-03 0. -1.
         23    2    1    0    0    0 -0.15086328260E+02  0.19866639671E+02 -0.22199475853E+02  0.91606925863E+02  0.85303759974E+02 0.  0.
         11    1    3    3    0    0 -0.38056046194E+02  0.23291990633E+02  0.15580117338E+02  0.47260126281E+02  0.51100000000E-03 0.  1.
         22    1    1    0    0    0  0.15086328260E+02 -0.19866639671E+02  0.22199475853E+02  0.33393074137E+02  0.00000000000E+00 0. -1.
</event>
<event>
 5    1  0.1681104E-003  0.9118800E+02  0.7818608E-02  0.1130116E+00
         25   -1    0    0    0    0  0.00000000000E+00  0.00000000000E+00  0.99999998245E-14  0.12500000000E+03  0.12500000000E+03 0.  0.
        -11    1    3    3    0    0  0.54585549142E+01  0.50953365488E+02 -0.28329445350E+02  0.58554237681E+02  0.51100000000E-03 0. -1.
         23    2    1    0    0    0 -0.56890720082E+01  0.28855705919E+02 -0.79418722382E+00  0.95578102751E+02  0.90936932474E+02 0.  0.
         11    1    3    3    0    0 -0.11147626922E+02 -0.22097659569E+02  0.27535258126E+02  0.37023865070E+02  0.51100000000E-03 0.  1.
         22    1    1    0    0    0  0.56890720082E+01 -0.28855705919E+02  0.79418722382E+00  0.29421897249E+02  0.00000000000E+00 0. -1.
</event>
<event>
 5    1  0.1681104E-003  0.9118800E+02  0.7818608E-02  0.1130116E+00
         25   -1    0    0    0    0  0.00000000000E+00  0.00000000000E+00  0.99999998245E-14  0.12500000000E+03  0.12500000000E+03 0.  0.
        -11    1    3    3    0    0  0.20789859480E-01 -0.52627266552E+02 -0.94704771945E+01  0.53472605654E+02  0.51100000000E-03 0. -1.
         23    2    1    0    0    0 -0.21761524714E+02 -0.19351623242E+02  0.43058789032E+01  0.95562101416E+02  0.90914934713E+02 0.  0.
         11    1    3    3    0    0 -0.21782314573E+02  0.33275643310E+02  0.13776356098E+02  0.42089495761E+02  0.51100000000E-03 0.  1.
         22    1    1    0    0    0  0.21761524714E+02  0.19351623242E+02 -0.43058789032E+01  0.29437898584E+02  0.00000000000E+00 0. -1.
</event>
<event>
 5    1  0.1681104E-003  0.9118800E+02  0.7818608E-02  0.1130116E+00
         25   -1    0    0    0    0  0.00000000000E+00  0.00000000000E+00  0.99999998245E-14  0.12500000000E+03  0.12500000000E+03 0.  0.
        -11    1    3    3    0    0 -0.37217228033E+02  0.44789474781E+02 -0.17294487424E+02  0.60747990989E+02  0.51100000000E-03 0. -1.
         23    2    1    0    0    0 -0.84880715653E+01  0.26411597522E+02 -0.66952958516E+01  0.96461485163E+02  0.92143210769E+02 0.  0.
         11    1    3    3    0    0  0.28729156468E+02 -0.18377877259E+02  0.10599191572E+02  0.35713494174E+02  0.51100000000E-03 0.  1.
         22    1    1    0    0    0  0.84880715653E+01 -0.26411597522E+02  0.66952958516E+01  0.28538514837E+02  0.00000000000E+00 0. -1.
</event>
<event>
 5    1  0.1681104E-003  0.9118800E+02  0.7818608E-02  0.1130116E+00
         25   -1    0    0    0    0  0.00000000000E+00  0.00000000000E+00  0.99999998245E-14  0.12500000000E+03  0.12500000000E+03 0.  0.
        -11    1    3    3    0    0 -0.28660406569E+02 -0.18766628712E+02  0.20254518364E+02  0.39797622697E+02  0.51100000000E-03 0. -1.
         23    2    1    0    0    0  0.20201945166E+02  0.75720535930E+01  0.20401642191E+02  0.95306876415E+02  0.90563343047E+02 0.  0.
         11    1    3    3    0    0  0.48862351735E+02  0.26338682305E+02  0.14712382715E+00  0.55509253718E+02  0.51100000000E-03 0.  1.
         22    1    1    0    0    0 -0.20201945166E+02 -0.75720535930E+01 -0.20401642191E+02  0.29693123585E+02  0.00000000000E+00 0.  1.
</event>
<event>
 5    1  0.1681104E-003  0.9118800E+02  0.7818608E-02  0.1130116E+00
         25   -1    0    0    0    0  0.00000000000E+00  0.00000000000E+00  0.99999998245E-14  0.12500000000E+03  0.12500000000E+03 0.  0.
        -11    1    3    3    0    0 -0.22021932502E+02 -0.38440848934E+02  0.16594034267E+02  0.47307783201E+02  0.51100000000E-03 0. -1.
         23    2    1    0    0    0 -0.59331643431E+01  0.10668844220E+02 -0.13249533792E+02  0.10698398430E+03  0.10545613341E+03 0.  0.
         11    1    3    3    0    0  0.16088768159E+02  0.49109693154E+02 -0.29843568059E+02  0.59676201096E+02  0.51100000000E-03 0.  1.
         22    1    1    0    0    0  0.59331643431E+01 -0.10668844220E+02  0.13249533792E+02  0.18016015703E+02  0.00000000000E+00 0.  1.
</event>
<event>
 5    1  0.1681104E-003  0.9118800E+02  0.7818608E-02  0.1130116E+00
         25   -1    0    0    0    0  0.00000000000E+00  0.00000000000E+00  0.99999998245E-14  0.12500000000E+03  0.12500000000E+03 0.  0.
        -11    1    3    3    0    0  0.11673683617E+02  0.57950223930E+02  0.56010961612E+01  0.59379084038E+02  0.51100000000E-03 0.  1.
         23    2    1    0    0    0  0.15628406022E+02  0.25458492593E+02 -0.67686886283E+01  0.94369997296E+02  0.89260849895E+02 0.  0.
         11    1    3    3    0    0  0.39547224050E+01 -0.32491731337E+02 -0.12369784789E+02  0.34990913257E+02  0.51100000000E-03 0. -1.
         22    1    1    0    0    0 -0.15628406022E+02 -0.25458492593E+02  0.67686886283E+01  0.30630002704E+02  0.00000000000E+00 0.  1.
</event>
<event>
 5    1  0.1681104E-003  0.9118800E+02  0.7818608E-02  0.1130116E+00
         25   -1    0    0    0    0  0.00000000000E+00  0.00000000000E+00  0.99999998245E-14  0.12500000000E+03  0.12500000000E+03 0.  0.
        -11    1    3    3    0    0 -0.40973491583E+02  0.39860380330E+02  0.24690931464E+02  0.62268122096E+02  0.51100000000E-03 0. -1.
         23    2    1    0    0    0 -0.16824549748E+02  0.21448666020E+02  0.12864919589E+02  0.94856727047E+02  0.89939878596E+02 0.  0.
         11    1    3    3    0    0  0.24148941835E+02 -0.18411714310E+02 -0.11826011875E+02  0.32588604951E+02  0.51100000000E-03 0.  1.
         22    1    1    0    0    0  0.16824549748E+02 -0.21448666020E+02 -0.12864919589E+02  0.30143272953E+02  0.00000000000E+00 0. -1.
</event>
<event>
 5    1  0.1681104E-003  0.9118800E+02  0.7818608E-02  0.1130116E+00
         25   -1    0    0    0    0  0.00000000000E+00  0.00000000000E+00  0.99999998245E-14  0.12500000000E+03  0.12500000000E+03 0.  0.
        -11    1    3    3    0    0 -0.54852446320E+01 -0.40646686719E+02 -0.41981856346E+01  0.41229428965E+02  0.51100000000E-03 0.  1.
         23    2    1    0    0    0 -0.21869648661E+02  0.14428919259E+02 -0.95461203931E+00  0.98781942717E+02  0.95239097430E+02 0.  0.
         11    1    3    3    0    0 -0.16384404029E+02  0.55075605978E+02  0.32435735953E+01  0.57552513752E+02  0.51100000000E-03 0. -1.
         22    1    1    0    0    0  0.21869648661E+02 -0.14428919259E+02  0.95461203931E+00  0.26218057283E+02  0.00000000000E+00 0. -1.
</event>
<event>
 5    1  0.1681104E-003  0.9118800E+02  0.7818608E-02  0.1130116E+00
         25   -1    0    0    0    0  0.00000000000E+00  0.00000000000E+00  0.99999998245E-14  0.12500000000E+03  0.12500000000E+03 0.  0.
        -11    1    3    3    0    0 -0.13629400957E+02 -0.76649293589E+01 -0.56816439304E+02  0.58928935915E+02  0.51100000000E-03 0.  1.
         23    2    1    0    0    0 -0.20631623113E+02 -0.10469460334E+02 -0.28194891834E+02  0.88527744826E+02  0.80665582540E+02 0.  0.
         11    1    3    3    0    0 -0.70022221554E+01 -0.28045309751E+01  0.28621547471E+02  0.29598808912E+02  0.51100000000E-03 0. -1.
         22    1    1    0    0    0  0.20631623113E+02  0.10469460334E+02  0.28194891834E+02  0.36472255174E+02  0.00000000000E+00 0.  1.
</event>
<event>
 5    1  0.1681104E-003  0.9118800E+02  0.7818608E-02  0.1130116E+00
         25   -1    0    0    0    0  0.00000000000E+00  0.00000000000E+00  0.99999998245E-14  0.12500000000E+03  0.12500000000E+03 0.  0.
        -11    1    3    3    0    0  0.12311910584E+02 -0.30264947906E+02 -0.22590246376E+02  0.39722404831E+02  0.51100000000E-03 0.  1.
         23    2    1    0    0    0  0.16739074666E+02 -0.85427644754E+01  0.25876907357E+02  0.93018915279E+02  0.87348318930E+02 0.  0.
         11    1    3    3    0    0  0.44271640814E+01  0.21722183431E+02  0.48467153732E+02  0.53296510448E+02  0.51100000000E-03 0. -1.
         22    1    1    0    0    0 -0.16739074666E+02  0.85427644754E+01 -0.25876907357E+02  0.31981084721E+02  0.00000000000E+00 0. -1.
</event>
<event>
 5    1  0.1681104E-003  0.9118800E+02  0.7818608E-02  0.1130116E+00
         25   -1    0    0    0    0  0.00000000000E+00  0.00000000000E+00  0.99999998245E-14  0.12500000000E+03  0.12500000000E+03 0.  0.
        -11    1    3    3    0    0  0.38303832858E+02 -0.18454337488E+02 -0.18530524431E+02  0.46380238461E+02  0.51100000000E-03 0.  1.
         23    2    1    0    0    0 -0.11992142300E+02 -0.21925211352E+02 -0.12196194567E+02  0.97192203760E+02  0.93129216362E+02 0.  0.
         11    1    3    3    0    0 -0.50295975158E+02 -0.34708738642E+01  0.63343298639E+01  0.50811965299E+02  0.51100000000E-03 0. -1.
         22    1    1    0    0    0  0.11992142300E+02  0.21925211352E+02  0.12196194567E+02  0.27807796240E+02  0.00000000000E+00 0. -1.
</event>
<event>
 5    1  0.1681104E-003  0.9118800E+02  0.7818608E-02  0.1130116E+00
         25   -1    0    0    0    0  0.00000000000E+00  0.00000000000E+00  0.99999998245E-14  0.12500000000E+03  0.12500000000E+03 0.  0.
        -11    1    3    3    0    0  0.11156661722E+02  0.20219627732E+02  0.28165767242E+02  0.36422724926E+02  0.51100000000E-03 0.  1.
         23    2    1    0    0    0 -0.21730277307E+01 -0.24523633874E+02 -0.11632554762E+02  0.97770475615E+02  0.93902177311E+02 0.  0.
         11    1    3    3    0    0 -0.13329689453E+02 -0.44743261606E+02 -0.39798322004E+02  0.61347750690E+02  0.51100000000E-03 0. -1.
         22    1    1    0    0    0  0.21730277307E+01  0.24523633874E+02  0.11632554762E+02  0.27229524385E+02  0.00000000000E+00 0. -1.
</event>
<event>
 5    1  0.1681104E-003  0.9118800E+02  0.7818608E-02  0.1130116E+00
         25   -1    0    0    0    0  0.00000000000E+00  0.00000000000E+00  0.99999998245E-14  0.12500000000E+03  0.12500000000E+03 0.  0.
        -11    1    3    3    0    0  0.26659424953E+02 -0.35690322859E+02  0.22391087413E+02  0.49858649003E+02  0.51100000000E-03 0.  1.
         23    2    1    0    0    0  0.21897556255E+02  0.98340633501E+01  0.16181913953E+02  0.96050628486E+02  0.91584153222E+02 0.  0.
         11    1    3    3    0    0 -0.47618686986E+01  0.45524386209E+02 -0.62091734600E+01  0.46191979483E+02  0.51100000000E-03 0. -1.
         22    1    1    0    0    0 -0.21897556255E+02 -0.98340633501E+01 -0.16181913953E+02  0.28949371514E+02  0.00000000000E+00 0. -1.
</event>
<event>
 5    1  0.1681104E-003  0.9118800E+02  0.7818608E-02  0.1130116E+00
         25   -1    0    0    0    0  0.00000000000E+00  0.00000000000E+00  0.99999998245E-14  0.12500000000E+03  0.12500000000E+03 0.  0.
        -11    1    3    3    0    0  0.28815636721E+02  0.40363099766E+01 -0.23733203665E+02  0.37548604159E+02  0.51100000000E-03 0.  1.
         23    2    1    0    0    0  0.79846361756E+01 -0.31362019571E+01  0.29031259114E+02  0.94727831539E+02  0.89760558626E+02 0.  0.
         11    1    3    3    0    0 -0.20831000545E+02 -0.71725119337E+01  0.52764462779E+02  0.57179227380E+02  0.51100000000E-03 0. -1.
         22    1    1    0    0    0 -0.79846361756E+01  0.31362019571E+01 -0.29031259114E+02  0.30272168461E+02  0.00000000000E+00 0. -1.
</event>
<event>
 5    1  0.1681104E-003  0.9118800E+02  0.7818608E-02  0.1130116E+00
         25   -1    0    0    0    0  0.00000000000E+00  0.00000000000E+00  0.99999998245E-14  0.12500000000E+03  0.12500000000E+03 0.  0.
        -11    1    3    3    0    0  0.30030655888E+02 -0.34057012832E+02  0.81860807659E+01  0.46138187379E+02  0.51100000000E-03 0.  1.
         23    2    1    0    0    0  0.11854193130E+02  0.84796047025E+01  0.25581145894E+02  0.95558182531E+02  0.90909546433E+02 0.  0.
         11    1    3    3    0    0 -0.18176462759E+02  0.42536617534E+02  0.17395065128E+02  0.49419995151E+02  0.51100000000E-03 0. -1.
         22    1    1    0    0    0 -0.11854193130E+02 -0.84796047025E+01 -0.25581145894E+02  0.29441817469E+02  0.00000000000E+00 0. -1.
</event>
<event>
 5    1  0.1681104E-003  0.9118800E+02  0.7818608E-02  0.1130116E+00
         25   -1    0    0    0    0  0.00000000000E+00  0.00000000000E+00  0.99999998245E-14  0.12500000000E+03  0.12500000000E+03 0.  0.
        -11    1    3    3    0    0  0.19572986321E+02  0.45447116554E+01  0.49240477603E+02  0.53182523749E+02  0.51100000000E-03 0. -1.
         23    2    1    0    0    0  0.53038262786E+01 -0.21726268975E+02  0.20117348779E+02  0.94918958484E+02  0.90026327377E+02 0.  0.
         11    1    3    3    0    0 -0.14269160042E+02 -0.26270980631E+02 -0.29123128824E+02  0.41736434735E+02  0.51100000000E-03 0.  1.
         22    1    1    0    0    0 -0.53038262786E+01  0.21726268975E+02 -0.20117348779E+02  0.30081041516E+02  0.00000000000E+00 0. -1.
</event>
<event>
 5    1  0.1681104E-003  0.9118800E+02  0.7818608E-02  0.1130116E+00
         25   -1    0    0    0    0  0.00000000000E+00  0.00000000000E+00  0.99999998245E-14  0.12500000000E+03  0.12500000000E+03 0.  0.
        -11    1    3    3    0    0 -0.82209898495E+00 -0.26173055876E+02 -0.22373397959E+02  0.34442323341E+02  0.51100000000E-03 0.  1.
         23    2    1    0    0    0 -0.20761538657E+01  0.29830357481E+02 -0.16709901351E+02  0.90745344178E+02  0.84031756167E+02 0.  0.
         11    1    3    3    0    0 -0.12540548808E+01  0.56003413357E+02  0.56634966079E+01  0.56303020837E+02  0.51100000000E-03 0. -1.
         22    1    1    0    0    0  0.20761538657E+01 -0.29830357481E+02  0.16709901351E+02  0.34254655822E+02  0.00000000000E+00 0. -1.
</event>
<event>
 5    1  0.1681104E-003  0.9118800E+02  0.7818608E-02  0.1130116E+00
         25   -1    0    0    0    0  0.00000000000E+00  0.00000000000E+00  0.99999998245E-14  0.12500000000E+03  0.12500000000E+03 0.  0.
        -11    1    3    3    0    0  0.23286777338E+01  0.15640859408E+01  0.28642264733E+02  0.28779305657E+02  0.51100000000E-03 0. -1.
         23    2    1    0    0    0 -0.61813949158E+01 -0.16420562802E+02 -0.29746275599E+02  0.90464721836E+02  0.83613279203E+02 0.  0.
         11    1    3    3    0    0 -0.85100726495E+01 -0.17984648743E+02 -0.58388540332E+02  0.61685416179E+02  0.51100000000E-03 0.  1.
         22    1    1    0    0    0  0.61813949158E+01  0.16420562802E+02  0.29746275599E+02  0.34535278164E+02  0.00000000000E+00 0.  1.
</event>
<event>
 5    1  0.1681104E-003  0.9118800E+02  0.7818608E-02  0.1130116E+00
         25   -1    0    0    0    0  0.00000000000E+00  0.00000000000E+00  0.99999998245E-14  0.12500000000E+03  0.12500000000E+03 0.  0.
        -11    1    3    3    0    0 -0.15638815892E+02  0.25447805090E+02  0.12056425336E+02  0.32210568740E+02  0.51100000000E-03 0.  1.
         23    2    1    0    0    0  0.25881377955E+02 -0.18288029786E+02  0.46857710610E+01  0.92964797351E+02  0.87270838988E+02 0.  0.
         11    1    3    3    0    0  0.41520193848E+02 -0.43735834876E+02 -0.73706542748E+01  0.60754228611E+02  0.51100000000E-03 0. -1.
         22    1    1    0    0    0 -0.25881377955E+02  0.18288029786E+02 -0.46857710610E+01  0.32035202649E+02  0.00000000000E+00 0. -1.
</event>
<event>
 5    1  0.1681104E-003  0.9118800E+02  0.7818608E-02  0.1130116E+00
         25   -1    0    0    0    0  0.00000000000E+00  0.00000000000E+00  0.99999998245E-14  0.12500000000E+03  0.12500000000E+03 0.  0.
        -11    1    3    3    0    0 -0.10630973792E+02 -0.48848788901E+02  0.29264748264E+01  0.50077799833E+02  0.51100000000E-03 0. -1.
         23    2    1    0    0    0 -0.12822081225E+02 -0.78294565725E+01  0.24336105654E+02  0.96400136442E+02  0.92059948460E+02 0.  0.
         11    1    3    3    0    0 -0.21911074334E+01  0.41019332329E+02  0.21409630827E+02  0.46322336609E+02  0.51100000000E-03 0.  1.
         22    1    1    0    0    0  0.12822081225E+02  0.78294565725E+01 -0.24336105654E+02  0.28599863558E+02  0.00000000000E+00 0. -1.
</event>
<event>
 5    1  0.1681104E-003  0.9118800E+02  0.7818608E-02  0.1130116E+00
         25   -1    0    0    0    0  0.00000000000E+00  0.00000000000E+00  0.99999998245E-14  0.12500000000E+03  0.12500000000E+03 0.  0.
        -11    1    3    3    0    0 -0.46982189705E+02 -0.24925114270E+02 -0.27727956253E+02  0.59978554743E+02  0.51100000000E-03 0. -1.
         23    2    1    0    0    0 -0.14088686525E+02 -0.21283904703E+02 -0.14701811611E+02  0.95544288295E+02  0.90890439947E+02 0.  0.
         11    1    3    3    0    0  0.32893503180E+02  0.36412095672E+01  0.13026144642E+02  0.35565733552E+02  0.51100000000E-03 0.  1.
         22    1    1    0    0    0  0.14088686525E+02  0.21283904703E+02  0.14701811611E+02  0.29455711705E+02  0.00000000000E+00 0. -1.
</event>
<event>
 5    1  0.1681104E-003  0.9118800E+02  0.7818608E-02  0.1130116E+00
         25   -1    0    0    0    0  0.00000000000E+00  0.00000000000E+00  0.99999998245E-14  0.12500000000E+03  0.12500000000E+03 0.  0.
        -11    1    3    3    0    0 -0.35438210943E+02  0.73342093711E+01  0.27807992261E+02  0.45639257836E+02  0.51100000000E-03 0.  1.
         23    2    1    0    0    0 -0.29222878291E+02 -0.14578907504E+02 -0.10916715642E+02  0.90566065575E+02  0.83764648830E+02 0.  0.
         11    1    3    3    0    0  0.62153326518E+01 -0.21913116875E+02 -0.38724707903E+02  0.44926807739E+02  0.51100000000E-03 0. -1.
         22    1    1    0    0    0  0.29222878291E+02  0.14578907504E+02  0.10916715642E+02  0.34433934425E+02  0.00000000000E+00 0.  1.
</event>
<event>
 5    1  0.1681104E-003  0.9118800E+02  0.7818608E-02  0.1130116E+00
         25   -1    0    0    0    0  0.00000000000E+00  0.00000000000E+00  0.99999998245E-14  0.12500000000E+03  0.12500000000E+03 0.  0.
        -11    1    3    3    0    0 -0.35789611180E+02 -0.24714492444E+02 -0.19817812138E+01  0.43538831659E+02  0.51100000000E-03 0. -1.
         23    2    1    0    0    0  0.15455692029E+02 -0.24233151416E+02  0.66247065206E+01  0.95504054853E+02  0.90835090759E+02 0.  0.
         11    1    3    3    0    0  0.51245303209E+02  0.48134102822E+00  0.86064877344E+01  0.51965223194E+02  0.51100000000E-03 0.  1.
         22    1    1    0    0    0 -0.15455692029E+02  0.24233151416E+02 -0.66247065206E+01  0.29495945147E+02  0.00000000000E+00 0.  1.
</event>
<event>
 5    1  0.1681104E-003  0.9118800E+02  0.7818608E-02  0.1130116E+00
         25   -1    0    0    0    0  0.00000000000E+00  0.00000000000E+00  0.99999998245E-14  0.12500000000E+03  0.12500000000E+03 0.  0.
        -11    1    3    3    0    0 -0.12723979781E+02 -0.31365594340E+02  0.25358807619E+02  0.42293844634E+02  0.51100000000E-03 0. -1.
         23    2    1    0    0    0 -0.26792302921E+02  0.10955425263E+02 -0.41324967684E+01  0.95760876073E+02  0.91187822752E+02 0.  0.
         11    1    3    3    0    0 -0.14068323139E+02  0.42321019603E+02 -0.29491304387E+02  0.53467031439E+02  0.51100000000E-03 0.  1.
         22    1    1    0    0    0  0.26792302921E+02 -0.10955425263E+02  0.41324967684E+01  0.29239123927E+02  0.00000000000E+00 0.  1.
</event>
<event>
 5    1  0.1681104E-003  0.9118800E+02  0.7818608E-02  0.1130116E+00
         25   -1    0    0    0    0  0.00000000000E+00  0.00000000000E+00  0.99999998245E-14  0.12500000000E+03  0.12500000000E+03 0.  0.
        -11    1    3    3    0    0  0.13553677043E+02 -0.28809224814E+02  0.15403028383E+02  0.35368444685E+02  0.51100000000E-03 0. -1.
         23    2    1    0    0    0 -0.25289348867E+02  0.11682150081E+02 -0.77764314717E+01  0.96077747614E+02  0.91621159693E+02 0.  0.
         11    1    3    3    0    0 -0.38843025910E+02  0.40491374895E+02 -0.23179459855E+02  0.60709302929E+02  0.51100000000E-03 0.  1.
         22    1    1    0    0    0  0.25289348867E+02 -0.11682150081E+02  0.77764314717E+01  0.28922252386E+02  0.00000000000E+00 0.  1.
</event>
<event>
 5    1  0.1681104E-003  0.9118800E+02  0.7818608E-02  0.1130116E+00
         25   -1    0    0    0    0  0.00000000000E+00  0.00000000000E+00  0.99999998245E-14  0.12500000000E+03  0.12500000000E+03 0.  0.
        -11    1    3    3    0    0  0.12364126635E+02  0.37652816809E+02 -0.40258337552E+02  0.56491946185E+02  0.51100000000E-03 0.  1.
         23    2    1    0    0    0  0.11424449713E+02  0.14221629687E+02 -0.41180346989E+02  0.79960086808E+02  0.66068310877E+02 0.  0.
         11    1    3    3    0    0 -0.93967692182E+00 -0.23431187122E+02 -0.92200943708E+00  0.23468140624E+02  0.51100000000E-03 0. -1.
         22    1    1    0    0    0 -0.11424449713E+02 -0.14221629687E+02  0.41180346989E+02  0.45039913192E+02  0.00000000000E+00 0.  1.
</event>
<event>
 5    1  0.1681104E-003  0.9118800E+02  0.7818608E-02  0.1130116E+00
         25   -1    0    0    0    0  0.00000000000E+00  0.00000000000E+00  0.99999998245E-14  0.12500000000E+03  0.12500000000E+03 0.  0.
        -11    1    3    3    0    0 -0.32375018415E+02  0.41521110231E+02  0.16840541542E+02  0.55278822815E+02  0.51100000000E-03 0.  1.
         23    2    1    0    0    0 -0.26249313690E+02  0.20618234024E+01  0.13660316595E+02  0.95337197799E+02  0.90605184453E+02 0.  0.
         11    1    3    3    0    0  0.61257047255E+01 -0.39459286828E+02 -0.31802249464E+01  0.40058374984E+02  0.51100000000E-03 0. -1.
         22    1    1    0    0    0  0.26249313690E+02 -0.20618234024E+01 -0.13660316595E+02  0.29662802201E+02  0.00000000000E+00 0.  1.
</event>
<event>
 5    1  0.1681104E-003  0.9118800E+02  0.7818608E-02  0.1130116E+00
         25   -1    0    0    0    0  0.00000000000E+00  0.00000000000E+00  0.99999998245E-14  0.12500000000E+03  0.12500000000E+03 0.  0.
        -11    1    3    3    0    0  0.16234338258E+02  0.29908068973E+01  0.40383625218E+02  0.43627237485E+02  0.51100000000E-03 0. -1.
         23    2    1    0    0    0 -0.53717766373E+01 -0.27546813163E+02  0.25715437276E+01  0.96816747228E+02  0.92623899762E+02 0.  0.
         11    1    3    3    0    0 -0.21606114895E+02 -0.30537620060E+02 -0.37812081491E+02  0.53189509743E+02  0.51100000000E-03 0.  1.
         22    1    1    0    0    0  0.53717766373E+01  0.27546813163E+02 -0.25715437276E+01  0.28183252772E+02  0.00000000000E+00 0.  1.
</event>
<event>
 5    1  0.1681104E-003  0.9118800E+02  0.7818608E-02  0.1130116E+00
         25   -1    0    0    0    0  0.00000000000E+00  0.00000000000E+00  0.99999998245E-14  0.12500000000E+03  0.12500000000E+03 0.  0.
        -11    1    3    3    0    0 -0.38008408739E+02 -0.23500596011E+02  0.11773352927E+02  0.46211784072E+02  0.51100000000E-03 0. -1.
         23    2    1    0    0    0 -0.17539730098E+02  0.21745930387E+02  0.75942292911E+01  0.96048317168E+02  0.91580998531E+02 0.  0.
         11    1    3    3    0    0  0.20468678641E+02  0.45246526398E+02 -0.41791236360E+01  0.49836533096E+02  0.51100000000E-03 0.  1.
         22    1    1    0    0    0  0.17539730098E+02 -0.21745930387E+02 -0.75942292911E+01  0.28951682832E+02  0.00000000000E+00 0. -1.
</event>
<event>
 5    1  0.1681104E-003  0.9118800E+02  0.7818608E-02  0.1130116E+00
         25   -1    0    0    0    0  0.00000000000E+00  0.00000000000E+00  0.99999998245E-14  0.12500000000E+03  0.12500000000E+03 0.  0.
        -11    1    3    3    0    0 -0.22269799883E+02 -0.46632274543E+02 -0.20714012442E+02  0.55673901674E+02  0.51100000000E-03 0. -1.
         23    2    1    0    0    0  0.82332197355E+01 -0.26071186076E+02 -0.17363597138E+02  0.92611928798E+02  0.86763945274E+02 0.  0.
         11    1    3    3    0    0  0.30503019619E+02  0.20561088467E+02  0.33504153040E+01  0.36938027124E+02  0.51100000000E-03 0.  1.
         22    1    1    0    0    0 -0.82332197355E+01  0.26071186076E+02  0.17363597138E+02  0.32388071202E+02  0.00000000000E+00 0. -1.
</event>
<event>
 5    1  0.1681104E-003  0.9118800E+02  0.7818608E-02  0.1130116E+00
         25   -1    0    0    0    0  0.00000000000E+00  0.00000000000E+00  0.99999998245E-14  0.12500000000E+03  0.12500000000E+03 0.  0.
        -11    1    3    3    0    0  0.62536541414E+01 -0.22573619112E+02  0.67994871612E+01  0.24390766611E+02  0.51100000000E-03 0.  1.
         23    2    1    0    0    0 -0.57911283980E+01  0.35297840424E+02 -0.13317210576E+02  0.86831651801E+02  0.77993031421E+02 0.  0.
         11    1    3    3    0    0 -0.12044782539E+02  0.57871459536E+02 -0.20116697737E+02  0.62440885190E+02  0.51100000000E-03 0. -1.
         22    1    1    0    0    0  0.57911283980E+01 -0.35297840424E+02  0.13317210576E+02  0.38168348199E+02  0.00000000000E+00 0. -1.
</event>
<event>
 5    1  0.1681104E-003  0.9118800E+02  0.7818608E-02  0.1130116E+00
         25   -1    0    0    0    0  0.00000000000E+00  0.00000000000E+00  0.99999998245E-14  0.12500000000E+03  0.12500000000E+03 0.  0.
        -11    1    3    3    0    0  0.37751679358E+02  0.22382772984E+02 -0.64976632315E+01  0.44366625390E+02  0.51100000000E-03 0. -1.
         23    2    1    0    0    0 -0.12269188014E+02  0.18699561269E+02  0.14070908538E+02  0.98576581726E+02  0.94969181483E+02 0.  0.
         11    1    3    3    0    0 -0.50020867371E+02 -0.36832117147E+01  0.20568571770E+02  0.54209956337E+02  0.51100000000E-03 0.  1.
         22    1    1    0    0    0  0.12269188014E+02 -0.18699561269E+02 -0.14070908538E+02  0.26423418274E+02  0.00000000000E+00 0.  1.
</event>
<event>
 5    1  0.1681104E-003  0.9118800E+02  0.7818608E-02  0.1130116E+00
         25   -1    0    0    0    0  0.00000000000E+00  0.00000000000E+00  0.99999998245E-14  0.12500000000E+03  0.12500000000E+03 0.  0.
        -11    1    3    3    0    0 -0.69192807425E+01  0.34416478632E+02  0.11510961684E+02  0.36944183393E+02  0.51100000000E-03 0.  1.
         23    2    1    0    0    0 -0.20229434986E+02 -0.21468142885E+02  0.16394887714E+00  0.95501897044E+02  0.90832121306E+02 0.  0.
         11    1    3    3    0    0 -0.13310154243E+02 -0.55884621517E+02 -0.11347012807E+02  0.58557713651E+02  0.51100000000E-03 0. -1.
         22    1    1    0    0    0  0.20229434986E+02  0.21468142885E+02 -0.16394887714E+00  0.29498102956E+02  0.00000000000E+00 0. -1.
</event>
<event>
 5    1  0.1681104E-003  0.9118800E+02  0.7818608E-02  0.1130116E+00
         25   -1    0    0    0    0  0.00000000000E+00  0.00000000000E+00  0.99999998245E-14  0.12500000000E+03  0.12500000000E+03 0.  0.
        -11    1    3    3    0    0 -0.30324470156E+01 -0.25762128356E+02  0.56190240619E+02  0.61888820746E+02  0.51100000000E-03 0. -1.
         23    2    1    0    0    0 -0.73782985954E+01 -0.10461603244E+02  0.26426123173E+02  0.95636341873E+02  0.91016951544E+02 0.  0.
         11    1    3    3    0    0 -0.43458515798E+01  0.15300525112E+02 -0.29764117446E+02  0.33747521127E+02  0.51100000000E-03 0.  1.
         22    1    1    0    0    0  0.73782985954E+01  0.10461603244E+02 -0.26426123173E+02  0.29363658127E+02  0.00000000000E+00 0. -1.
</event>
<event>
 5    1  0.1681104E-003  0.9118800E+02  0.7818608E-02  0.1130116E+00
         25   -1    0    0    0    0  0.00000000000E+00  0.00000000000E+00  0.99999998245E-14  0.12500000000E+03  0.12500000000E+03 0.  0.
        -11    1    3    3    0    0  0.32882983733E+02  0.69279253716E+01 -0.12840291634E+02  0.35974433403E+02  0.51100000000E-03 0.  1.
         23    2    1    0    0    0 -0.12116436309E+02 -0.28165447115E+02 -0.62651777339E+00  0.94332542255E+02  0.89208382811E+02 0.  0.
         11    1    3    3    0    0 -0.44999420043E+02 -0.35093372486E+02  0.12213773860E+02  0.58358108852E+02  0.51100000000E-03 0. -1.
         22    1    1    0    0    0  0.12116436309E+02  0.28165447115E+02  0.62651777339E+00  0.30667457745E+02  0.00000000000E+00 0. -1.
</event>
<event>
 5    1  0.1681104E-003  0.9118800E+02  0.7818608E-02  0.1130116E+00
         25   -1    0    0    0    0  0.00000000000E+00  0.00000000000E+00  0.99999998245E-14  0.12500000000E+03  0.12500000000E+03 0.  0.
        -11    1    3    3    0    0  0.55507413350E+02  0.17150595173E+02  0.17763890577E+02  0.60751721459E+02  0.51100000000E-03 0.  1.
         23    2    1    0    0    0  0.23142052004E+02  0.18048100058E+02  0.76674571026E+01  0.94667206111E+02  0.89676092287E+02 0.  0.
         11    1    3    3    0    0 -0.32365361345E+02  0.89750488517E+00 -0.10096433475E+02  0.33915484652E+02  0.51100000000E-03 0. -1.
         22    1    1    0    0    0 -0.23142052004E+02 -0.18048100058E+02 -0.76674571026E+01  0.30332793889E+02  0.00000000000E+00 0.  1.
</event>
<event>
 5    1  0.1681104E-003  0.9118800E+02  0.7818608E-02  0.1130116E+00
         25   -1    0    0    0    0  0.00000000000E+00  0.00000000000E+00  0.99999998245E-14  0.12500000000E+03  0.12500000000E+03 0.  0.
        -11    1    3    3    0    0  0.36450385813E+02  0.15430006403E+02  0.44184476025E+02  0.59321021952E+02  0.51100000000E-03 0. -1.
         23    2    1    0    0    0  0.65926502464E+01  0.14456190157E+02  0.26685856073E+02  0.93942321634E+02  0.88659914328E+02 0.  0.
         11    1    3    3    0    0 -0.29857735566E+02 -0.97381624612E+00 -0.17498619953E+02  0.34621299683E+02  0.51100000000E-03 0.  1.
         22    1    1    0    0    0 -0.65926502464E+01 -0.14456190157E+02 -0.26685856073E+02  0.31057678366E+02  0.00000000000E+00 0. -1.
</event>
<event>
 5    1  0.1681104E-003  0.9118800E+02  0.7818608E-02  0.1130116E+00
         25   -1    0    0    0    0  0.00000000000E+00  0.00000000000E+00  0.99999998245E-14  0.12500000000E+03  0.12500000000E+03 0.  0.
        -11    1    3    3    0    0 -0.16321959534E+01  0.26705079529E+02  0.25054401018E+02  0.36654445118E+02  0.51100000000E-03 0. -1.
         23    2    1    0    0    0 -0.16296376080E+02 -0.41160498358E+01 -0.23562830287E+02  0.96056594693E+02  0.91592295928E+02 0.  0.
         11    1    3    3    0    0 -0.14664180127E+02 -0.30821129365E+02 -0.48617231305E+02  0.59402149575E+02  0.51100000000E-03 0.  1.
         22    1    1    0    0    0  0.16296376080E+02  0.41160498358E+01  0.23562830287E+02  0.28943405307E+02  0.00000000000E+00 0.  1.
</event>
<event>
 5    1  0.1681104E-003  0.9118800E+02  0.7818608E-02  0.1130116E+00
         25   -1    0    0    0    0  0.00000000000E+00  0.00000000000E+00  0.99999998245E-14  0.12500000000E+03  0.12500000000E+03 0.  0.
        -11    1    3    3    0    0 -0.22262401715E+02 -0.49179340966E+01 -0.38825476783E+02  0.45024640516E+02  0.51100000000E-03 0. -1.
         23    2    1    0    0    0  0.64135917061E+01  0.26337170414E+02 -0.11044107512E+02  0.95729656396E+02  0.91145016863E+02 0.  0.
         11    1    3    3    0    0  0.28675993421E+02  0.31255104510E+02  0.27781369270E+02  0.50705015880E+02  0.51100000000E-03 0.  1.
         22    1    1    0    0    0 -0.64135917061E+01 -0.26337170414E+02  0.11044107512E+02  0.29270343604E+02  0.00000000000E+00 0.  1.
</event>
<event>
 5    1  0.1681104E-003  0.9118800E+02  0.7818608E-02  0.1130116E+00
         25   -1    0    0    0    0  0.00000000000E+00  0.00000000000E+00  0.99999998245E-14  0.12500000000E+03  0.12500000000E+03 0.  0.
        -11    1    3    3    0    0  0.32943158819E+02  0.28385895815E+02 -0.35720783057E+02  0.56275972996E+02  0.51100000000E-03 0.  1.
         23    2    1    0    0    0  0.12193231868E+02  0.15666850691E+02  0.57242024394E+01  0.10433864459E+03  0.10227248480E+03 0.  0.
         11    1    3    3    0    0 -0.20749926950E+02 -0.12719045123E+02  0.41444985497E+02  0.48062671590E+02  0.51100000000E-03 0. -1.
         22    1    1    0    0    0 -0.12193231868E+02 -0.15666850691E+02 -0.57242024394E+01  0.20661355414E+02  0.00000000000E+00 0.  1.
</event>
<event>
 5    1  0.1681104E-003  0.9118800E+02  0.7818608E-02  0.1130116E+00
         25   -1    0    0    0    0  0.00000000000E+00  0.00000000000E+00  0.99999998245E-14  0.12500000000E+03  0.12500000000E+03 0.  0.
        -11    1    3    3    0    0  0.33922839369E+02  0.23430213304E+02  0.20998414421E+02  0.46267346313E+02  0.51100000000E-03 0. -1.
         23    2    1    0    0    0 -0.25917260118E+01 -0.10626448209E+02  0.26335470545E+02  0.96483417911E+02  0.92172959579E+02 0.  0.
         11    1    3    3    0    0 -0.36514565381E+02 -0.34056661513E+02  0.53370561234E+01  0.50216071598E+02  0.51100000000E-03 0.  1.
         22    1    1    0    0    0  0.25917260118E+01  0.10626448209E+02 -0.26335470545E+02  0.28516582089E+02  0.00000000000E+00 0.  1.
</event>
<event>
 5    1  0.1681104E-003  0.9118800E+02  0.7818608E-02  0.1130116E+00
         25   -1    0    0    0    0  0.00000000000E+00  0.00000000000E+00  0.99999998245E-14  0.12500000000E+03  0.12500000000E+03 0.  0.
        -11    1    3    3    0    0  0.23757919936E+02 -0.19676710026E+02 -0.21164763333E+02  0.37410678747E+02  0.51100000000E-03 0.  1.
         23    2    1    0    0    0 -0.17015487859E+02  0.20721652241E+02 -0.12344705270E+02  0.95482116490E+02  0.90804895917E+02 0.  0.
         11    1    3    3    0    0 -0.40773407795E+02  0.40398362267E+02  0.88200580623E+01  0.58071437743E+02  0.51100000000E-03 0. -1.
         22    1    1    0    0    0  0.17015487859E+02 -0.20721652241E+02  0.12344705270E+02  0.29517883510E+02  0.00000000000E+00 0. -1.
</event>
<event>
 5    1  0.1681104E-003  0.9118800E+02  0.7818608E-02  0.1130116E+00
         25   -1    0    0    0    0  0.00000000000E+00  0.00000000000E+00  0.99999998245E-14  0.12500000000E+03  0.12500000000E+03 0.  0.
        -11    1    3    3    0    0  0.20532237520E+02  0.44765917048E+02 -0.21659944655E+02  0.53802539991E+02  0.51100000000E-03 0.  1.
         23    2    1    0    0    0  0.16582824710E+02  0.20393959882E+02  0.12454082808E+02  0.95913785849E+02  0.91397190669E+02 0.  0.
         11    1    3    3    0    0 -0.39494128106E+01 -0.24371957166E+02  0.34114027463E+02  0.42111245858E+02  0.51100000000E-03 0. -1.
         22    1    1    0    0    0 -0.16582824710E+02 -0.20393959882E+02 -0.12454082808E+02  0.29086214151E+02  0.00000000000E+00 0.  1.
</event>
<event>
 5    1  0.1681104E-003  0.9118800E+02  0.7818608E-02  0.1130116E+00
         25   -1    0    0    0    0  0.00000000000E+00  0.00000000000E+00  0.99999998245E-14  0.12500000000E+03  0.12500000000E+03 0.  0.
        -11    1    3    3    0    0  0.67487190795E+01 -0.58412627001E+02  0.18684156697E+02  0.61698281290E+02  0.51100000000E-03 0. -1.
         23    2    1    0    0    0 -0.20833510696E+01 -0.26973756816E+02  0.13505422867E+02  0.94762269343E+02  0.89808503694E+02 0.  0.
         11    1    3    3    0    0 -0.88320701491E+01  0.31438870185E+02 -0.51787338297E+01  0.33063988053E+02  0.51100000000E-03 0.  1.
         22    1    1    0    0    0  0.20833510696E+01  0.26973756816E+02 -0.13505422867E+02  0.30237730657E+02  0.00000000000E+00 0. -1.
</event>
<event>
 5    1  0.1681104E-003  0.9118800E+02  0.7818608E-02  0.1130116E+00
         25   -1    0    0    0    0  0.00000000000E+00  0.00000000000E+00  0.99999998245E-14  0.12500000000E+03  0.12500000000E+03 0.  0.
        -11    1    3    3    0    0 -0.19909489150E+02  0.54391716763E+02 -0.16936392641E+02  0.60346400113E+02  0.51100000000E-03 0. -1.
         23    2    1    0    0    0  0.22254390009E+01  0.26974669405E+02 -0.56162750127E+01  0.97357136304E+02  0.93350329812E+02 0.  0.
         11    1    3    3    0    0  0.22134928151E+02 -0.27417047358E+02  0.11320117628E+02  0.37010736191E+02  0.51100000000E-03 0.  1.
         22    1    1    0    0    0 -0.22254390009E+01 -0.26974669405E+02  0.56162750127E+01  0.27642863696E+02  0.00000000000E+00 0. -1.
</event>
<event>
 5    1  0.1681104E-003  0.9118800E+02  0.7818608E-02  0.1130116E+00
         25   -1    0    0    0    0  0.00000000000E+00  0.00000000000E+00  0.99999998245E-14  0.12500000000E+03  0.12500000000E+03 0.  0.
        -11    1    3    3    0    0 -0.13024829550E+02  0.65772212828E+01  0.60573213399E+02  0.62305860128E+02  0.51100000000E-03 0. -1.
         23    2    1    0    0    0 -0.97564754227E+01  0.39504545697E+01  0.29146375021E+02  0.94011194266E+02  0.88756963481E+02 0.  0.
         11    1    3    3    0    0  0.32683541277E+01 -0.26267667132E+01 -0.31426838378E+02  0.31705334137E+02  0.51100000000E-03 0.  1.
         22    1    1    0    0    0  0.97564754227E+01 -0.39504545697E+01 -0.29146375021E+02  0.30988805734E+02  0.00000000000E+00 0. -1.
</event>
<event>
 5    1  0.1681104E-003  0.9118800E+02  0.7818608E-02  0.1130116E+00
         25   -1    0    0    0    0  0.00000000000E+00  0.00000000000E+00  0.99999998245E-14  0.12500000000E+03  0.12500000000E+03 0.  0.
        -11    1    3    3    0    0 -0.43879235109E+02 -0.34445787352E+02  0.13427419751E+02  0.57377653676E+02  0.51100000000E-03 0.  1.
         23    2    1    0    0    0 -0.57834656222E+01 -0.23778073349E+02 -0.32564868088E+01  0.10031295981E+03  0.97227773571E+02 0.  0.
         11    1    3    3    0    0  0.38095769486E+02  0.10667714002E+02 -0.16683906559E+02  0.42935306138E+02  0.51100000000E-03 0. -1.
         22    1    1    0    0    0  0.57834656222E+01  0.23778073349E+02  0.32564868088E+01  0.24687040186E+02  0.00000000000E+00 0.  1.
</event>
<event>
 5    1  0.1681104E-003  0.9118800E+02  0.7818608E-02  0.1130116E+00
         25   -1    0    0    0    0  0.00000000000E+00  0.00000000000E+00  0.99999998245E-14  0.12500000000E+03  0.12500000000E+03 0.  0.
        -11    1    3    3    0    0  0.34246363077E+02 -0.44231874149E+02  0.24864722927E+02  0.61217044369E+02  0.51100000000E-03 0.  1.
         23    2    1    0    0    0  0.10705489344E+02 -0.24757384243E+02  0.52575822160E+01  0.97519502417E+02  0.93567492241E+02 0.  0.
         11    1    3    3    0    0 -0.23540873733E+02  0.19474489907E+02 -0.19607140711E+02  0.36302458048E+02  0.51100000000E-03 0. -1.
         22    1    1    0    0    0 -0.10705489344E+02  0.24757384243E+02 -0.52575822160E+01  0.27480497583E+02  0.00000000000E+00 0.  1.
</event>
<event>
 5    1  0.1681104E-003  0.9118800E+02  0.7818608E-02  0.1130116E+00
         25   -1    0    0    0    0  0.00000000000E+00  0.00000000000E+00  0.99999998245E-14  0.12500000000E+03  0.12500000000E+03 0.  0.
        -11    1    3    3    0    0 -0.51037062728E+01  0.47089183935E+02  0.24802699320E+01  0.47429851365E+02  0.51100000000E-03 0.  1.
         23    2    1    0    0    0  0.20110475260E+02  0.10019036912E+02  0.19366827658E+02  0.95337122032E+02  0.90605079924E+02 0.  0.
         11    1    3    3    0    0  0.25214181533E+02 -0.37070147022E+02  0.16886557726E+02  0.47907270666E+02  0.51100000000E-03 0. -1.
         22    1    1    0    0    0 -0.20110475260E+02 -0.10019036912E+02 -0.19366827658E+02  0.29662877968E+02  0.00000000000E+00 0. -1.
</event>
<event>
 5    1  0.1681104E-003  0.9118800E+02  0.7818608E-02  0.1130116E+00
         25   -1    0    0    0    0  0.00000000000E+00  0.00000000000E+00  0.99999998245E-14  0.12500000000E+03  0.12500000000E+03 0.  0.
        -11    1    3    3    0    0 -0.17683468624E+02  0.18393666300E+02  0.39601757609E+02  0.47109778481E+02  0.51100000000E-03 0.  1.
         23    2    1    0    0    0 -0.18441454951E+02  0.25666599831E+02 -0.56032347914E+01  0.92902370060E+02  0.87181377112E+02 0.  0.
         11    1    3    3    0    0 -0.75798632790E+00  0.72729335307E+01 -0.45204992400E+02  0.45792591580E+02  0.51100000000E-03 0. -1.
         22    1    1    0    0    0  0.18441454951E+02 -0.25666599831E+02  0.56032347914E+01  0.32097629940E+02  0.00000000000E+00 0.  1.
</event>
<event>
 5    1  0.1681104E-003  0.9118800E+02  0.7818608E-02  0.1130116E+00
         25   -1    0    0    0    0  0.00000000000E+00  0.00000000000E+00  0.99999998245E-14  0.12500000000E+03  0.12500000000E+03 0.  0.
        -11    1    3    3    0    0  0.42460837594E+02 -0.39468816695E+02 -0.67262435303E+01  0.58360539517E+02  0.51100000000E-03 0. -1.
         23    2    1    0    0    0  0.26392928524E+02 -0.13659699248E+02  0.10713568136E+02  0.93409580537E+02  0.87905603544E+02 0.  0.
         11    1    3    3    0    0 -0.16067909070E+02  0.25809117446E+02  0.17439811667E+02  0.35049041021E+02  0.51100000000E-03 0.  1.
         22    1    1    0    0    0 -0.26392928524E+02  0.13659699248E+02 -0.10713568136E+02  0.31590419463E+02  0.00000000000E+00 0. -1.
</event>
<event>
 5    1  0.1681104E-003  0.9118800E+02  0.7818608E-02  0.1130116E+00
         25   -1    0    0    0    0  0.00000000000E+00  0.00000000000E+00  0.99999998245E-14  0.12500000000E+03  0.12500000000E+03 0.  0.
        -11    1    3    3    0    0  0.80799380039E+01  0.70712829651E+01  0.36464186231E+02  0.38012173296E+02  0.51100000000E-03 0. -1.
         23    2    1    0    0    0  0.18825616448E+02 -0.89446743347E+01 -0.19038883514E+02  0.96770757731E+02  0.92561814118E+02 0.  0.
         11    1    3    3    0    0  0.10745678445E+02 -0.16015957300E+02 -0.55503069745E+02  0.58758584435E+02  0.51100000000E-03 0.  1.
         22    1    1    0    0    0 -0.18825616448E+02  0.89446743347E+01  0.19038883514E+02  0.28229242269E+02  0.00000000000E+00 0.  1.
</event>
<event>
 5    1  0.1681104E-003  0.9118800E+02  0.7818608E-02  0.1130116E+00
         25   -1    0    0    0    0  0.00000000000E+00  0.00000000000E+00  0.99999998245E-14  0.12500000000E+03  0.12500000000E+03 0.  0.
        -11    1    3    3    0    0 -0.37617310310E+02 -0.18238727580E+02 -0.26548840051E+02  0.49523268541E+02  0.51100000000E-03 0. -1.
         23    2    1    0    0    0 -0.13247252901E+02  0.19600582898E+02 -0.17849623545E+02  0.95364183493E+02  0.90642406594E+02 0.  0.
         11    1    3    3    0    0  0.24370057409E+02  0.37839310478E+02  0.86992165054E+01  0.45840914952E+02  0.51100000000E-03 0.  1.
         22    1    1    0    0    0  0.13247252901E+02 -0.19600582898E+02  0.17849623545E+02  0.29635816507E+02  0.00000000000E+00 0. -1.
</event>
<event>
 5    1  0.1681104E-003  0.9118800E+02  0.7818608E-02  0.1130116E+00
         25   -1    0    0    0    0  0.00000000000E+00  0.00000000000E+00  0.99999998245E-14  0.12500000000E+03  0.12500000000E+03 0.  0.
        -11    1    3    3    0    0  0.22386677964E+02 -0.34850734834E+02  0.29723192370E+02  0.50982401215E+02  0.51100000000E-03 0. -1.
         23    2    1    0    0    0  0.40205816327E+01 -0.26420838881E+02 -0.10729314763E+02  0.96201666731E+02  0.91790068540E+02 0.  0.
         11    1    3    3    0    0 -0.18366096332E+02  0.84298959532E+01 -0.40452507132E+02  0.45219265516E+02  0.51100000000E-03 0.  1.
         22    1    1    0    0    0 -0.40205816327E+01  0.26420838881E+02  0.10729314763E+02  0.28798333269E+02  0.00000000000E+00 0. -1.
</event>
<event>
 5    1  0.1681104E-003  0.9118800E+02  0.7818608E-02  0.1130116E+00
         25   -1    0    0    0    0  0.00000000000E+00  0.00000000000E+00  0.99999998245E-14  0.12500000000E+03  0.12500000000E+03 0.  0.
        -11    1    3    3    0    0  0.10626219180E+02  0.47898188438E+02 -0.25003560257E+02  0.55066605265E+02  0.51100000000E-03 0. -1.
         23    2    1    0    0    0  0.13859358182E+02  0.29435872625E+02  0.65921354375E+01  0.91803484279E+02  0.85591302535E+02 0.  0.
         11    1    3    3    0    0  0.32331390022E+01 -0.18462315813E+02  0.31595695694E+02  0.36736879013E+02  0.51100000000E-03 0.  1.
         22    1    1    0    0    0 -0.13859358182E+02 -0.29435872625E+02 -0.65921354375E+01  0.33196515721E+02  0.00000000000E+00 0. -1.
</event>
<event>
 5    1  0.1681104E-003  0.9118800E+02  0.7818608E-02  0.1130116E+00
         25   -1    0    0    0    0  0.00000000000E+00  0.00000000000E+00  0.99999998245E-14  0.12500000000E+03  0.12500000000E+03 0.  0.
        -11    1    3    3    0    0 -0.23149648066E+02 -0.37737767965E+02 -0.40180324594E+02  0.59787154317E+02  0.51100000000E-03 0. -1.
         23    2    1    0    0    0 -0.32478838884E+01 -0.95423805444E+01 -0.26028670623E+02  0.97087682457E+02  0.92988819835E+02 0.  0.
         11    1    3    3    0    0  0.19901764177E+02  0.28195387421E+02  0.14151653970E+02  0.37300528140E+02  0.51100000000E-03 0.  1.
         22    1    1    0    0    0  0.32478838884E+01  0.95423805444E+01  0.26028670623E+02  0.27912317543E+02  0.00000000000E+00 0. -1.
</event>
<event>
 5    1  0.1681104E-003  0.9118800E+02  0.7818608E-02  0.1130116E+00
         25   -1    0    0    0    0  0.00000000000E+00  0.00000000000E+00  0.99999998245E-14  0.12500000000E+03  0.12500000000E+03 0.  0.
        -11    1    3    3    0    0 -0.82586464844E+01 -0.59246380983E+01  0.54776200698E+02  0.55711208401E+02  0.51100000000E-03 0.  1.
         23    2    1    0    0    0 -0.22002316021E+02  0.49354518007E+01  0.19127136856E+02  0.95431301025E+02  0.90734917514E+02 0.  0.
         11    1    3    3    0    0 -0.13743669537E+02  0.10860089899E+02 -0.35649063842E+02  0.39720092624E+02  0.51100000000E-03 0. -1.
         22    1    1    0    0    0  0.22002316021E+02 -0.49354518007E+01 -0.19127136856E+02  0.29568698975E+02  0.00000000000E+00 0.  1.
</event>
<event>
 5    1  0.1681104E-003  0.9118800E+02  0.7818608E-02  0.1130116E+00
         25   -1    0    0    0    0  0.00000000000E+00  0.00000000000E+00  0.99999998245E-14  0.12500000000E+03  0.12500000000E+03 0.  0.
        -11    1    3    3    0    0  0.37347337020E+02 -0.22774916205E+02  0.67745342922E+01  0.44265276524E+02  0.51100000000E-03 0. -1.
         23    2    1    0    0    0  0.21231258962E+01  0.68068711164E+01  0.28846826894E+02  0.95285010856E+02  0.90533158092E+02 0.  0.
         11    1    3    3    0    0 -0.35224211124E+02  0.29581787321E+02  0.22072292601E+02  0.51019734332E+02  0.51100000000E-03 0.  1.
         22    1    1    0    0    0 -0.21231258962E+01 -0.68068711164E+01 -0.28846826894E+02  0.29714989144E+02  0.00000000000E+00 0.  1.
</event>
<event>
 5    1  0.1681104E-003  0.9118800E+02  0.7818608E-02  0.1130116E+00
         25   -1    0    0    0    0  0.00000000000E+00  0.00000000000E+00  0.99999998245E-14  0.12500000000E+03  0.12500000000E+03 0.  0.
        -11    1    3    3    0    0 -0.38047509225E+00 -0.17152175875E+02 -0.27052310292E+02  0.32033878799E+02  0.51100000000E-03 0.  1.
         23    2    1    0    0    0  0.21415151131E+02  0.10954263969E+01  0.25439815176E+02  0.91728497883E+02  0.85481720097E+02 0.  0.
         11    1    3    3    0    0  0.21795626223E+02  0.18247602272E+02  0.52492125468E+02  0.59694619083E+02  0.51100000000E-03 0. -1.
         22    1    1    0    0    0 -0.21415151131E+02 -0.10954263969E+01 -0.25439815176E+02  0.33271502117E+02  0.00000000000E+00 0. -1.
</event>
<event>
 5    1  0.1681104E-003  0.9118800E+02  0.7818608E-02  0.1130116E+00
         25   -1    0    0    0    0  0.00000000000E+00  0.00000000000E+00  0.99999998245E-14  0.12500000000E+03  0.12500000000E+03 0.  0.
        -11    1    3    3    0    0  0.27496904516E+02  0.29881178237E+01  0.52230831596E+02  0.59102185878E+02  0.51100000000E-03 0. -1.
         23    2    1    0    0    0  0.18851130891E+01  0.32266420240E+01  0.34604938569E+02  0.90193870605E+02  0.83207377385E+02 0.  0.
         11    1    3    3    0    0 -0.25611791427E+02  0.23852420027E+00 -0.17625893027E+02  0.31091684727E+02  0.51100000000E-03 0.  1.
         22    1    1    0    0    0 -0.18851130891E+01 -0.32266420240E+01 -0.34604938569E+02  0.34806129395E+02  0.00000000000E+00 0. -1.
</event>
<event>
 5    1  0.1681104E-003  0.9118800E+02  0.7818608E-02  0.1130116E+00
         25   -1    0    0    0    0  0.00000000000E+00  0.00000000000E+00  0.99999998245E-14  0.12500000000E+03  0.12500000000E+03 0.  0.
        -11    1    3    3    0    0  0.38023895519E+02  0.18239342839E+02 -0.45152859178E+02  0.61784067120E+02  0.51100000000E-03 0.  1.
         23    2    1    0    0    0  0.25028286406E+02  0.86436928264E+01 -0.19436727761E+02  0.92153159480E+02  0.86100463820E+02 0.  0.
         11    1    3    3    0    0 -0.12995609114E+02 -0.95956500129E+01  0.25716131418E+02  0.30369092360E+02  0.51100000000E-03 0. -1.
         22    1    1    0    0    0 -0.25028286406E+02 -0.86436928264E+01  0.19436727761E+02  0.32846840520E+02  0.00000000000E+00 0.  1.
</event>
<event>
 5    1  0.1681104E-003  0.9118800E+02  0.7818608E-02  0.1130116E+00
         25   -1    0    0    0    0  0.00000000000E+00  0.00000000000E+00  0.99999998245E-14  0.12500000000E+03  0.12500000000E+03 0.  0.
        -11    1    3    3    0    0 -0.40659991951E+02  0.38225657030E+02 -0.15520710468E+02  0.57925195334E+02  0.51100000000E-03 0.  1.
         23    2    1    0    0    0 -0.20900990449E+02  0.18086111015E+02  0.96389577786E+01  0.95727686793E+02  0.91142315630E+02 0.  0.
         11    1    3    3    0    0  0.19759001502E+02 -0.20139546015E+02  0.25159668246E+02  0.37802491459E+02  0.51100000000E-03 0. -1.
         22    1    1    0    0    0  0.20900990449E+02 -0.18086111015E+02 -0.96389577786E+01  0.29272313207E+02  0.00000000000E+00 0.  1.
</event>
<event>
 5    1  0.1681104E-003  0.9118800E+02  0.7818608E-02  0.1130116E+00
         25   -1    0    0    0    0  0.00000000000E+00  0.00000000000E+00  0.99999998245E-14  0.12500000000E+03  0.12500000000E+03 0.  0.
        -11    1    3    3    0    0  0.45787910985E+01 -0.23989171120E+02  0.36131020247E+02  0.43610735872E+02  0.51100000000E-03 0.  1.
         23    2    1    0    0    0 -0.25913408672E+02 -0.14693040097E+02 -0.40888553520E+01  0.94931596079E+02  0.90043872749E+02 0.  0.
         11    1    3    3    0    0 -0.30492199771E+02  0.92961310225E+01 -0.40219875599E+02  0.51320860206E+02  0.51100000000E-03 0. -1.
         22    1    1    0    0    0  0.25913408672E+02  0.14693040097E+02  0.40888553520E+01  0.30068403921E+02  0.00000000000E+00 0. -1.
</event>
<event>
 5    1  0.1681104E-003  0.9118800E+02  0.7818608E-02  0.1130116E+00
         25   -1    0    0    0    0  0.00000000000E+00  0.00000000000E+00  0.99999998245E-14  0.12500000000E+03  0.12500000000E+03 0.  0.
        -11    1    3    3    0    0  0.21603024467E+02 -0.51250998456E+02 -0.21877152520E+02  0.59765920988E+02  0.51100000000E-03 0. -1.
         23    2    1    0    0    0  0.16130282895E+02 -0.22451232869E+02  0.15787654027E+01  0.97309994875E+02  0.93287184108E+02 0.  0.
         11    1    3    3    0    0 -0.54727415723E+01  0.28799765587E+02  0.23455917922E+02  0.37544073887E+02  0.51100000000E-03 0.  1.
         22    1    1    0    0    0 -0.16130282895E+02  0.22451232869E+02 -0.15787654027E+01  0.27690005125E+02  0.00000000000E+00 0. -1.
</event>
<event>
 5    1  0.1681104E-003  0.9118800E+02  0.7818608E-02  0.1130116E+00
         25   -1    0    0    0    0  0.00000000000E+00  0.00000000000E+00  0.99999998245E-14  0.12500000000E+03  0.12500000000E+03 0.  0.
        -11    1    3    3    0    0  0.22036365033E+02  0.47141935250E-01 -0.56456427688E+02  0.60604717916E+02  0.51100000000E-03 0. -1.
         23    2    1    0    0    0  0.19192216678E+02 -0.34206273277E+01 -0.20990360692E+02  0.96353235535E+02  0.91996243857E+02 0.  0.
         11    1    3    3    0    0 -0.28441483547E+01 -0.34677692630E+01  0.35466066996E+02  0.35748517619E+02  0.51100000000E-03 0.  1.
         22    1    1    0    0    0 -0.19192216678E+02  0.34206273277E+01  0.20990360692E+02  0.28646764465E+02  0.00000000000E+00 0. -1.
</event>
<event>
 5    1  0.1681104E-003  0.9118800E+02  0.7818608E-02  0.1130116E+00
         25   -1    0    0    0    0  0.00000000000E+00  0.00000000000E+00  0.99999998245E-14  0.12500000000E+03  0.12500000000E+03 0.  0.
        -11    1    3    3    0    0  0.22869910365E+02 -0.23293857218E+02  0.35578682464E+02  0.48285393550E+02  0.51100000000E-03 0.  1.
         23    2    1    0    0    0  0.26878561475E+02 -0.73444199757E+01 -0.89339946798E+01  0.95738868226E+02  0.91157649468E+02 0.  0.
         11    1    3    3    0    0  0.40086511096E+01  0.15949437242E+02 -0.44512677144E+02  0.47453474676E+02  0.51100000000E-03 0. -1.
         22    1    1    0    0    0 -0.26878561475E+02  0.73444199757E+01  0.89339946798E+01  0.29261131774E+02  0.00000000000E+00 0. -1.
</event>
<event>
 5    1  0.1681104E-003  0.9118800E+02  0.7818608E-02  0.1130116E+00
         25   -1    0    0    0    0  0.00000000000E+00  0.00000000000E+00  0.99999998245E-14  0.12500000000E+03  0.12500000000E+03 0.  0.
        -11    1    3    3    0    0 -0.15012010975E+02 -0.44316545130E+02  0.38974056783E+02  0.60895761332E+02  0.51100000000E-03 0. -1.
         23    2    1    0    0    0  0.13203268656E+01 -0.25345512327E+02  0.15213576854E+02  0.95409610026E+02  0.90705030216E+02 0.  0.
         11    1    3    3    0    0  0.16332337841E+02  0.18971032803E+02 -0.23760479929E+02  0.34513848694E+02  0.51100000000E-03 0.  1.
         22    1    1    0    0    0 -0.13203268656E+01  0.25345512327E+02 -0.15213576854E+02  0.29590389974E+02  0.00000000000E+00 0. -1.
</event>
<event>
 5    1  0.1681104E-003  0.9118800E+02  0.7818608E-02  0.1130116E+00
         25   -1    0    0    0    0  0.00000000000E+00  0.00000000000E+00  0.99999998245E-14  0.12500000000E+03  0.12500000000E+03 0.  0.
        -11    1    3    3    0    0  0.11672744129E+02 -0.27532228493E+02  0.35524431799E+02  0.46435566284E+02  0.51100000000E-03 0. -1.
         23    2    1    0    0    0 -0.24350627179E+02 -0.66792108839E+00  0.18180118803E+02  0.94604015359E+02  0.89587967048E+02 0.  0.
         11    1    3    3    0    0 -0.36023371308E+02  0.26864307404E+02 -0.17344312996E+02  0.48168449075E+02  0.51100000000E-03 0.  1.
         22    1    1    0    0    0  0.24350627179E+02  0.66792108839E+00 -0.18180118803E+02  0.30395984641E+02  0.00000000000E+00 0. -1.
</event>
