<event>
 4    1  0.1974401E-002  0.9118800E+02  0.7818608E-02  0.1130116E+00
         25   -1    0    0    0    0  0.00000000000E+00  0.00000000000E+00  0.99999998245E-14  0.12500000000E+03  0.12500000000E+03 0.  0.
        -11    1    1    0    0    0 -0.31484338615E+01 -0.18637188759E+01 -0.64526155720E+00  0.37151644064E+01  0.51100000000E-03 0.  1.
         11    1    1    0    0    0 -0.52641503400E+02 -0.23323625343E+02 -0.11916004210E+02  0.58797198368E+02  0.51100000000E-03 0. -1.
         22    1    1    0    0    0  0.55789937261E+02  0.25187344219E+02  0.12561265767E+02  0.62487637226E+02  0.00000000000E+00 0. -1.
</event>
<event>
 4    1  0.1974401E-002  0.9118800E+02  0.7818608E-02  0.1130116E+00
         25   -1    0    0    0    0  0.00000000000E+00  0.00000000000E+00  0.99999998245E-14  0.12500000000E+03  0.12500000000E+03 0.  0.
        -11    1    1    0    0    0  0.10609871036E+02  0.24940499479E+01  0.23906811319E+02  0.26274041872E+02  0.51100000000E-03 0.  1.
         11    1    1    0    0    0  0.14628015357E+02  0.34380993390E+01  0.32962413173E+02  0.36225958135E+02  0.51100000000E-03 0.  1.
         22    1    1    0    0    0 -0.25237886394E+02 -0.59321492869E+01 -0.56869224492E+02  0.62499999993E+02  0.00000000000E+00 0.  1.
</event>
<event>
 4    1  0.1974401E-002  0.9118800E+02  0.7818608E-02  0.1130116E+00
         25   -1    0    0    0    0  0.00000000000E+00  0.00000000000E+00  0.99999998245E-14  0.12500000000E+03  0.12500000000E+03 0.  0.
        -11    1    1    0    0    0 -0.22659724021E+01 -0.77233975155E+01  0.16852241380E+02  0.18675747372E+02  0.51100000000E-03 0. -1.
         11    1    1    0    0    0 -0.10616884635E+01 -0.49371850378E+01  0.43893988689E+02  0.44183540168E+02  0.51100000000E-03 0.  1.
         22    1    1    0    0    0  0.33276608656E+01  0.12660582553E+02 -0.60746230069E+02  0.62140712460E+02  0.00000000000E+00 0.  1.
</event>
<event>
 4    1  0.1974401E-002  0.9118800E+02  0.7818608E-02  0.1130116E+00
         25   -1    0    0    0    0  0.00000000000E+00  0.00000000000E+00  0.99999998245E-14  0.12500000000E+03  0.12500000000E+03 0.  0.
        -11    1    1    0    0    0  0.34079235454E+02 -0.12755588240E+02  0.20576258483E+02  0.41802891454E+02  0.51100000000E-03 0. -1.
         11    1    1    0    0    0  0.16878798825E+02 -0.64404592698E+01  0.10099740251E+02  0.20697297379E+02  0.51100000000E-03 0.  1.
         22    1    1    0    0    0 -0.50958034280E+02  0.19196047510E+02 -0.30675998733E+02  0.62499811167E+02  0.00000000000E+00 0.  1.
</event>
<event>
 4    1  0.1974401E-002  0.9118800E+02  0.7818608E-02  0.1130116E+00
         25   -1    0    0    0    0  0.00000000000E+00  0.00000000000E+00  0.99999998245E-14  0.12500000000E+03  0.12500000000E+03 0.  0.
        -11    1    1    0    0    0 -0.26796262472E+02  0.19592314025E+02 -0.19015604637E+02  0.38255609671E+02  0.51100000000E-03 0. -1.
         11    1    1    0    0    0 -0.16985474816E+02  0.12413857169E+02 -0.12049077346E+02  0.24244390479E+02  0.51100000000E-03 0.  1.
         22    1    1    0    0    0  0.43781737289E+02 -0.32006171194E+02  0.31064681983E+02  0.62499999850E+02  0.00000000000E+00 0. -1.
</event>
<event>
 4    1  0.1974401E-002  0.9118800E+02  0.7818608E-02  0.1130116E+00
         25   -1    0    0    0    0  0.00000000000E+00  0.00000000000E+00  0.99999998245E-14  0.12500000000E+03  0.12500000000E+03 0.  0.
        -11    1    1    0    0    0  0.48843223798E+02 -0.40471530594E+01 -0.50818611580E+01  0.49273372849E+02  0.51100000000E-03 0.  1.
         11    1    1    0    0    0  0.13109771499E+02 -0.11000449666E+01 -0.13665776904E+01  0.13226630052E+02  0.51100000000E-03 0. -1.
         22    1    1    0    0    0 -0.61952995297E+02  0.51471980260E+01  0.64484388484E+01  0.62499997099E+02  0.00000000000E+00 0.  1.
</event>
<event>
 4    1  0.1974401E-002  0.9118800E+02  0.7818608E-02  0.1130116E+00
         25   -1    0    0    0    0  0.00000000000E+00  0.00000000000E+00  0.99999998245E-14  0.12500000000E+03  0.12500000000E+03 0.  0.
        -11    1    1    0    0    0  0.93004173686E+01  0.63544232847E+01  0.82921413151E+01  0.13986996331E+02  0.51100000000E-03 0. -1.
         11    1    1    0    0    0  0.32296313715E+02  0.22051335052E+02  0.28708861860E+02  0.48513008634E+02  0.51100000000E-03 0.  1.
         22    1    1    0    0    0 -0.41596731083E+02 -0.28405758336E+02 -0.37001003175E+02  0.62499995036E+02  0.00000000000E+00 0.  1.
</event>
<event>
 4    1  0.1974401E-002  0.9118800E+02  0.7818608E-02  0.1130116E+00
         25   -1    0    0    0    0  0.00000000000E+00  0.00000000000E+00  0.99999998245E-14  0.12500000000E+03  0.12500000000E+03 0.  0.
        -11    1    1    0    0    0 -0.18580998281E+02  0.11681851279E+01 -0.28364167706E+02  0.33928515492E+02  0.51100000000E-03 0. -1.
         11    1    1    0    0    0 -0.15951805493E+02 -0.26469792215E+01 -0.23632322277E+02  0.28634825893E+02  0.51100000000E-03 0.  1.
         22    1    1    0    0    0  0.34532803774E+02  0.14787940937E+01  0.51996489983E+02  0.62436658615E+02  0.00000000000E+00 0.  1.
</event>
<event>
 4    1  0.1974401E-002  0.9118800E+02  0.7818608E-02  0.1130116E+00
         25   -1    0    0    0    0  0.00000000000E+00  0.00000000000E+00  0.99999998245E-14  0.12500000000E+03  0.12500000000E+03 0.  0.
        -11    1    1    0    0    0  0.11470766741E+02  0.53508236227E+02  0.23236769922E+02  0.59452984033E+02  0.51100000000E-03 0.  1.
         11    1    1    0    0    0  0.36187778360E+00  0.27816614506E+01  0.12003297449E+01  0.30511289244E+01  0.51100000000E-03 0. -1.
         22    1    1    0    0    0 -0.11832644525E+02 -0.56289897678E+02 -0.24437099667E+02  0.62495887042E+02  0.00000000000E+00 0.  1.
</event>
<event>
 4    1  0.1974401E-002  0.9118800E+02  0.7818608E-02  0.1130116E+00
         25   -1    0    0    0    0  0.00000000000E+00  0.00000000000E+00  0.99999998245E-14  0.12500000000E+03  0.12500000000E+03 0.  0.
        -11    1    1    0    0    0  0.83563234200E+01 -0.43505514214E+02  0.35176019178E+02  0.56567749059E+02  0.51100000000E-03 0.  1.
         11    1    1    0    0    0  0.10071641131E+01 -0.44403022623E+01  0.38054674988E+01  0.59339908052E+01  0.51100000000E-03 0. -1.
         22    1    1    0    0    0 -0.93634875330E+01  0.47945816477E+02 -0.38981486677E+02  0.62498260135E+02  0.00000000000E+00 0.  1.
</event>
<event>
 4    1  0.1974401E-002  0.9118800E+02  0.7818608E-02  0.1130116E+00
         25   -1    0    0    0    0  0.00000000000E+00  0.00000000000E+00  0.99999998245E-14  0.12500000000E+03  0.12500000000E+03 0.  0.
        -11    1    1    0    0    0 -0.42395134988E+00 -0.24457119544E+00  0.24098264660E+01  0.24590269771E+01  0.51100000000E-03 0.  1.
         11    1    1    0    0    0 -0.10376827949E+02 -0.59899717591E+01  0.58833325121E+02  0.60040973218E+02  0.51100000000E-03 0. -1.
         22    1    1    0    0    0  0.10800779299E+02  0.62345429546E+01 -0.61243151587E+02  0.62499999805E+02  0.00000000000E+00 0. -1.
</event>
<event>
 4    1  0.1974401E-002  0.9118800E+02  0.7818608E-02  0.1130116E+00
         25   -1    0    0    0    0  0.00000000000E+00  0.00000000000E+00  0.99999998245E-14  0.12500000000E+03  0.12500000000E+03 0.  0.
        -11    1    1    0    0    0  0.12588476501E+02 -0.16334879644E+02 -0.39513903299E+01  0.20997893214E+02  0.51100000000E-03 0. -1.
         11    1    1    0    0    0  0.90089678021E+01  0.54786666130E+02 -0.12534081704E+02  0.56919623074E+02  0.51100000000E-03 0.  1.
         22    1    1    0    0    0 -0.21597444303E+02 -0.38451786485E+02  0.16485472034E+02  0.47082483712E+02  0.00000000000E+00 0.  1.
</event>
<event>
 4    1  0.1974401E-002  0.9118800E+02  0.7818608E-02  0.1130116E+00
         25   -1    0    0    0    0  0.00000000000E+00  0.00000000000E+00  0.99999998245E-14  0.12500000000E+03  0.12500000000E+03 0.  0.
        -11    1    1    0    0    0 -0.24560147257E+02  0.71504068632E+01 -0.20221894842E+02  0.32607578611E+02  0.51100000000E-03 0. -1.
         11    1    1    0    0    0 -0.21534396203E+02  0.62959662779E+01 -0.19769972256E+02  0.29903531806E+02  0.51100000000E-03 0.  1.
         22    1    1    0    0    0  0.46094543460E+02 -0.13446373141E+02  0.39991867098E+02  0.62488889584E+02  0.00000000000E+00 0.  1.
</event>
<event>
 4    1  0.1974401E-002  0.9118800E+02  0.7818608E-02  0.1130116E+00
         25   -1    0    0    0    0  0.00000000000E+00  0.00000000000E+00  0.99999998245E-14  0.12500000000E+03  0.12500000000E+03 0.  0.
        -11    1    1    0    0    0 -0.29922551762E+02 -0.39236763166E+02 -0.35088482024E+02  0.60548197815E+02  0.51100000000E-03 0. -1.
         11    1    1    0    0    0 -0.84059340313E-01 -0.15956648827E+01 -0.13062197953E+01  0.20638369135E+01  0.51100000000E-03 0.  1.
         22    1    1    0    0    0  0.30006611102E+02  0.40832428049E+02  0.36394701819E+02  0.62387965271E+02  0.00000000000E+00 0. -1.
</event>
<event>
 4    1  0.1974401E-002  0.9118800E+02  0.7818608E-02  0.1130116E+00
         25   -1    0    0    0    0  0.00000000000E+00  0.00000000000E+00  0.99999998245E-14  0.12500000000E+03  0.12500000000E+03 0.  0.
        -11    1    1    0    0    0  0.23558819264E+01 -0.34857501563E+01 -0.23738760324E+02  0.24108699172E+02  0.51100000000E-03 0.  1.
         11    1    1    0    0    0  0.37506681093E+01 -0.55514098476E+01 -0.37802199896E+02  0.38391300835E+02  0.51100000000E-03 0.  1.
         22    1    1    0    0    0 -0.61065500357E+01  0.90371600040E+01  0.61540960220E+02  0.62499999993E+02  0.00000000000E+00 0.  1.
</event>
<event>
 4    1  0.1974401E-002  0.9118800E+02  0.7818608E-02  0.1130116E+00
         25   -1    0    0    0    0  0.00000000000E+00  0.00000000000E+00  0.99999998245E-14  0.12500000000E+03  0.12500000000E+03 0.  0.
        -11    1    1    0    0    0  0.37547922394E+01 -0.31375726284E+02  0.25672742065E+02  0.40713933119E+02  0.51100000000E-03 0. -1.
         11    1    1    0    0    0  0.20830135284E+01 -0.16563288777E+02  0.13999714951E+02  0.21787002993E+02  0.51100000000E-03 0.  1.
         22    1    1    0    0    0 -0.58378057678E+01  0.47939015061E+02 -0.39672457016E+02  0.62499063888E+02  0.00000000000E+00 0. -1.
</event>
<event>
 4    1  0.1974401E-002  0.9118800E+02  0.7818608E-02  0.1130116E+00
         25   -1    0    0    0    0  0.00000000000E+00  0.00000000000E+00  0.99999998245E-14  0.12500000000E+03  0.12500000000E+03 0.  0.
        -11    1    1    0    0    0 -0.20111015016E+02  0.19668778256E+01  0.53190655629E+02  0.56899625481E+02  0.51100000000E-03 0. -1.
         11    1    1    0    0    0 -0.19788887746E+01  0.18787224863E+00  0.52357342349E+01  0.56003758806E+01  0.51100000000E-03 0.  1.
         22    1    1    0    0    0  0.22089903791E+02 -0.21547500742E+01 -0.58426389864E+02  0.62499998639E+02  0.00000000000E+00 0. -1.
</event>
<event>
 4    1  0.1974401E-002  0.9118800E+02  0.7818608E-02  0.1130116E+00
         25   -1    0    0    0    0  0.00000000000E+00  0.00000000000E+00  0.99999998245E-14  0.12500000000E+03  0.12500000000E+03 0.  0.
        -11    1    1    0    0    0 -0.35055012283E+02  0.27509341799E+02  0.16158810311E+02  0.47399629991E+02  0.51100000000E-03 0. -1.
         11    1    1    0    0    0 -0.11102809148E+02  0.88721384614E+01  0.51030156532E+01  0.15100595381E+02  0.51100000000E-03 0.  1.
         22    1    1    0    0    0  0.46157821431E+02 -0.36381480260E+02 -0.21261825964E+02  0.62499774628E+02  0.00000000000E+00 0. -1.
</event>
<event>
 4    1  0.1974401E-002  0.9118800E+02  0.7818608E-02  0.1130116E+00
         25   -1    0    0    0    0  0.00000000000E+00  0.00000000000E+00  0.99999998245E-14  0.12500000000E+03  0.12500000000E+03 0.  0.
        -11    1    1    0    0    0  0.45443545383E+02 -0.29958077969E+02 -0.67453031857E+01  0.54846160923E+02  0.51100000000E-03 0. -1.
         11    1    1    0    0    0  0.63950542806E+01 -0.41159941575E+01 -0.86530105865E+00  0.76542062515E+01  0.51100000000E-03 0.  1.
         22    1    1    0    0    0 -0.51838599664E+02  0.34074072127E+02  0.76106042444E+01  0.62499632826E+02  0.00000000000E+00 0.  1.
</event>
<event>
 4    1  0.1974401E-002  0.9118800E+02  0.7818608E-02  0.1130116E+00
         25   -1    0    0    0    0  0.00000000000E+00  0.00000000000E+00  0.99999998245E-14  0.12500000000E+03  0.12500000000E+03 0.  0.
        -11    1    1    0    0    0  0.21084686206E+02 -0.20208766502E+02  0.37156303556E+02  0.47260439378E+02  0.51100000000E-03 0. -1.
         11    1    1    0    0    0  0.11833395491E+02 -0.22841458513E+01  0.10232854422E+02  0.15810056325E+02  0.51100000000E-03 0.  1.
         22    1    1    0    0    0 -0.32918081696E+02  0.22492912353E+02 -0.47389157978E+02  0.61929504298E+02  0.00000000000E+00 0. -1.
</event>
<event>
 4    1  0.1974401E-002  0.9118800E+02  0.7818608E-02  0.1130116E+00
         25   -1    0    0    0    0  0.00000000000E+00  0.00000000000E+00  0.99999998245E-14  0.12500000000E+03  0.12500000000E+03 0.  0.
        -11    1    1    0    0    0 -0.15720566503E+02 -0.11645361047E+02  0.17397055709E+02  0.26180301615E+02  0.51100000000E-03 0. -1.
         11    1    1    0    0    0 -0.21724750646E+02 -0.16032961618E+02  0.24292172859E+02  0.36319833581E+02  0.51100000000E-03 0.  1.
         22    1    1    0    0    0  0.37445317148E+02  0.27678322665E+02 -0.41689228568E+02  0.62499864804E+02  0.00000000000E+00 0.  1.
</event>
<event>
 4    1  0.1974401E-002  0.9118800E+02  0.7818608E-02  0.1130116E+00
         25   -1    0    0    0    0  0.00000000000E+00  0.00000000000E+00  0.99999998245E-14  0.12500000000E+03  0.12500000000E+03 0.  0.
        -11    1    1    0    0    0  0.24277039973E+00  0.87047128117E+00 -0.52767357570E-01  0.90523056371E+00  0.51100000000E-03 0. -1.
         11    1    1    0    0    0  0.14984227406E+02  0.59413876244E+02 -0.62808909076E+01  0.61595335473E+02  0.51100000000E-03 0.  1.
         22    1    1    0    0    0 -0.15226997806E+02 -0.60284347525E+02  0.63336582652E+01  0.62499433963E+02  0.00000000000E+00 0.  1.
</event>
<event>
 4    1  0.1974401E-002  0.9118800E+02  0.7818608E-02  0.1130116E+00
         25   -1    0    0    0    0  0.00000000000E+00  0.00000000000E+00  0.99999998245E-14  0.12500000000E+03  0.12500000000E+03 0.  0.
        -11    1    1    0    0    0  0.34739599973E+01  0.28224921092E+02 -0.51958660072E+02  0.59231891119E+02  0.51100000000E-03 0.  1.
         11    1    1    0    0    0  0.50919056164E-01  0.15591845546E+01 -0.28733773962E+01  0.32695484623E+01  0.51100000000E-03 0. -1.
         22    1    1    0    0    0 -0.35248790535E+01 -0.29784105647E+02  0.54832037468E+02  0.62498560419E+02  0.00000000000E+00 0.  1.
</event>
<event>
 4    1  0.1974401E-002  0.9118800E+02  0.7818608E-02  0.1130116E+00
         25   -1    0    0    0    0  0.00000000000E+00  0.00000000000E+00  0.99999998245E-14  0.12500000000E+03  0.12500000000E+03 0.  0.
        -11    1    1    0    0    0  0.30519315078E+02  0.26018147733E+02  0.19500117622E+02  0.44594026414E+02  0.51100000000E-03 0.  1.
         11    1    1    0    0    0  0.12977184193E+02  0.11405204454E+02  0.50426790919E+01  0.17997627924E+02  0.51100000000E-03 0. -1.
         22    1    1    0    0    0 -0.43496499271E+02 -0.37423352187E+02 -0.24542796714E+02  0.62408345662E+02  0.00000000000E+00 0.  1.
</event>
<event>
 4    1  0.1974401E-002  0.9118800E+02  0.7818608E-02  0.1130116E+00
         25   -1    0    0    0    0  0.00000000000E+00  0.00000000000E+00  0.99999998245E-14  0.12500000000E+03  0.12500000000E+03 0.  0.
        -11    1    1    0    0    0 -0.15744160353E+02  0.33801533057E+01  0.10292238512E+00  0.16103248582E+02  0.51100000000E-03 0.  1.
         11    1    1    0    0    0 -0.45382730888E+02  0.96407484573E+01  0.35205365708E+00  0.46396769669E+02  0.51100000000E-03 0. -1.
         22    1    1    0    0    0  0.61126891241E+02 -0.13020901763E+02 -0.45497604220E+00  0.62499981750E+02  0.00000000000E+00 0. -1.
</event>
<event>
 4    1  0.1974401E-002  0.9118800E+02  0.7818608E-02  0.1130116E+00
         25   -1    0    0    0    0  0.00000000000E+00  0.00000000000E+00  0.99999998245E-14  0.12500000000E+03  0.12500000000E+03 0.  0.
        -11    1    1    0    0    0 -0.27962636458E+02  0.58349665150E+01  0.29832598581E+02  0.41303024227E+02  0.51100000000E-03 0.  1.
         11    1    1    0    0    0 -0.14348191623E+02  0.29962673168E+01  0.15312203150E+02  0.21196975875E+02  0.51100000000E-03 0. -1.
         22    1    1    0    0    0  0.42310828081E+02 -0.88312338318E+01 -0.45144801731E+02  0.62499999898E+02  0.00000000000E+00 0.  1.
</event>
<event>
 4    1  0.1974401E-002  0.9118800E+02  0.7818608E-02  0.1130116E+00
         25   -1    0    0    0    0  0.00000000000E+00  0.00000000000E+00  0.99999998245E-14  0.12500000000E+03  0.12500000000E+03 0.  0.
        -11    1    1    0    0    0  0.11694238997E+02 -0.21847986756E+02 -0.19943313952E+02  0.31809204999E+02  0.51100000000E-03 0. -1.
         11    1    1    0    0    0  0.11071430734E+02 -0.20919373336E+02 -0.19538897164E+02  0.30691452587E+02  0.51100000000E-03 0.  1.
         22    1    1    0    0    0 -0.22765669731E+02  0.42767360092E+02  0.39482211116E+02  0.62499342414E+02  0.00000000000E+00 0.  1.
</event>
<event>
 4    1  0.1974401E-002  0.9118800E+02  0.7818608E-02  0.1130116E+00
         25   -1    0    0    0    0  0.00000000000E+00  0.00000000000E+00  0.99999998245E-14  0.12500000000E+03  0.12500000000E+03 0.  0.
        -11    1    1    0    0    0 -0.38119934215E+01  0.58202028848E+02 -0.10726967727E+02  0.59304934809E+02  0.51100000000E-03 0. -1.
         11    1    1    0    0    0  0.12292071901E+01  0.28062883283E+01  0.27432873944E+01  0.41123996021E+01  0.51100000000E-03 0.  1.
         22    1    1    0    0    0  0.25827862314E+01 -0.61008317176E+02  0.79836803327E+01  0.61582665589E+02  0.00000000000E+00 0. -1.
</event>
<event>
 4    1  0.1974401E-002  0.9118800E+02  0.7818608E-02  0.1130116E+00
         25   -1    0    0    0    0  0.00000000000E+00  0.00000000000E+00  0.99999998245E-14  0.12500000000E+03  0.12500000000E+03 0.  0.
        -11    1    1    0    0    0  0.23525423276E+01 -0.89749129891E+00 -0.32191155641E+01  0.40868877292E+01  0.51100000000E-03 0. -1.
         11    1    1    0    0    0  0.26052380859E+02 -0.28533329682E+02 -0.43923834001E+02  0.58499407217E+02  0.51100000000E-03 0.  1.
         22    1    1    0    0    0 -0.28404923187E+02  0.29430820980E+02  0.47142949565E+02  0.62413705054E+02  0.00000000000E+00 0.  1.
</event>
<event>
 4    1  0.1974401E-002  0.9118800E+02  0.7818608E-02  0.1130116E+00
         25   -1    0    0    0    0  0.00000000000E+00  0.00000000000E+00  0.99999998245E-14  0.12500000000E+03  0.12500000000E+03 0.  0.
        -11    1    1    0    0    0  0.18466362732E+00  0.13558422393E+01  0.23451223911E+01  0.27151442178E+01  0.51100000000E-03 0.  1.
         11    1    1    0    0    0  0.46302564756E+01  0.30799946367E+02  0.51031238738E+02  0.59785142792E+02  0.51100000000E-03 0. -1.
         22    1    1    0    0    0 -0.48149201029E+01 -0.32155788606E+02 -0.53376361129E+02  0.62499712990E+02  0.00000000000E+00 0. -1.
</event>
<event>
 4    1  0.1974401E-002  0.9118800E+02  0.7818608E-02  0.1130116E+00
         25   -1    0    0    0    0  0.00000000000E+00  0.00000000000E+00  0.99999998245E-14  0.12500000000E+03  0.12500000000E+03 0.  0.
        -11    1    1    0    0    0 -0.76013818882E+01  0.33548174611E+02  0.19240618647E+01  0.34452329975E+02  0.51100000000E-03 0.  1.
         11    1    1    0    0    0 -0.61858329512E+01  0.27312113861E+02  0.15670682284E+01  0.28047670063E+02  0.51100000000E-03 0. -1.
         22    1    1    0    0    0  0.13787214839E+02 -0.60860288472E+02 -0.34911300931E+01  0.62499999962E+02  0.00000000000E+00 0.  1.
</event>
<event>
 4    1  0.1974401E-002  0.9118800E+02  0.7818608E-02  0.1130116E+00
         25   -1    0    0    0    0  0.00000000000E+00  0.00000000000E+00  0.99999998245E-14  0.12500000000E+03  0.12500000000E+03 0.  0.
        -11    1    1    0    0    0 -0.25524596238E+02 -0.22542067633E+02  0.87838952342E+01  0.35168261857E+02  0.51100000000E-03 0. -1.
         11    1    1    0    0    0 -0.19825994637E+02 -0.17529769126E+02  0.68308939735E+01  0.27331739456E+02  0.51100000000E-03 0.  1.
         22    1    1    0    0    0  0.45350590875E+02  0.40071836759E+02 -0.15614789208E+02  0.62499998687E+02  0.00000000000E+00 0. -1.
</event>
<event>
 4    1  0.1974401E-002  0.9118800E+02  0.7818608E-02  0.1130116E+00
         25   -1    0    0    0    0  0.00000000000E+00  0.00000000000E+00  0.99999998245E-14  0.12500000000E+03  0.12500000000E+03 0.  0.
        -11    1    1    0    0    0 -0.98356811885E+01 -0.36551644766E+01  0.22431930178E+01  0.10729993801E+02  0.51100000000E-03 0.  1.
         11    1    1    0    0    0 -0.47837114588E+02 -0.17915628807E+02  0.84427398777E+01  0.51774889131E+02  0.51100000000E-03 0. -1.
         22    1    1    0    0    0  0.57672795776E+02  0.21570793284E+02 -0.10685932896E+02  0.62495117068E+02  0.00000000000E+00 0. -1.
</event>
<event>
 4    1  0.1974401E-002  0.9118800E+02  0.7818608E-02  0.1130116E+00
         25   -1    0    0    0    0  0.00000000000E+00  0.00000000000E+00  0.99999998245E-14  0.12500000000E+03  0.12500000000E+03 0.  0.
        -11    1    1    0    0    0 -0.23113456871E+02 -0.69401261003E+01 -0.16354337015E+02  0.29152385464E+02  0.51100000000E-03 0.  1.
         11    1    1    0    0    0 -0.26442691985E+02 -0.79351625176E+01 -0.18705096598E+02  0.33347614646E+02  0.51100000000E-03 0.  1.
         22    1    1    0    0    0  0.49556148856E+02  0.14875288618E+02  0.35059433613E+02  0.62499999889E+02  0.00000000000E+00 0.  1.
</event>
<event>
 4    1  0.1974401E-002  0.9118800E+02  0.7818608E-02  0.1130116E+00
         25   -1    0    0    0    0  0.00000000000E+00  0.00000000000E+00  0.99999998245E-14  0.12500000000E+03  0.12500000000E+03 0.  0.
        -11    1    1    0    0    0 -0.44202613854E+02 -0.13410833511E+02 -0.53663051377E+01  0.46502889782E+02  0.51100000000E-03 0.  1.
         11    1    1    0    0    0 -0.15184602083E+02 -0.46423438408E+01 -0.19463459873E+01  0.15997242253E+02  0.51100000000E-03 0. -1.
         22    1    1    0    0    0  0.59387215936E+02  0.18053177352E+02  0.73126511250E+01  0.62499867965E+02  0.00000000000E+00 0.  1.
</event>
<event>
 4    1  0.1974401E-002  0.9118800E+02  0.7818608E-02  0.1130116E+00
         25   -1    0    0    0    0  0.00000000000E+00  0.00000000000E+00  0.99999998245E-14  0.12500000000E+03  0.12500000000E+03 0.  0.
        -11    1    1    0    0    0  0.29084810553E+02 -0.35643224479E+02 -0.13608530004E+02  0.47974553102E+02  0.51100000000E-03 0. -1.
         11    1    1    0    0    0  0.87980592047E+01 -0.10801256583E+02 -0.41128698247E+01  0.14525449666E+02  0.51100000000E-03 0.  1.
         22    1    1    0    0    0 -0.37882869758E+02  0.46444481062E+02  0.17721399829E+02  0.62499997233E+02  0.00000000000E+00 0. -1.
</event>
<event>
 4    1  0.1974401E-002  0.9118800E+02  0.7818608E-02  0.1130116E+00
         25   -1    0    0    0    0  0.00000000000E+00  0.00000000000E+00  0.99999998245E-14  0.12500000000E+03  0.12500000000E+03 0.  0.
        -11    1    1    0    0    0  0.72792899204E+01 -0.14719406297E+02  0.13857886484E+00  0.16421576899E+02  0.51100000000E-03 0.  1.
         11    1    1    0    0    0  0.20435344595E+02 -0.41297391541E+02  0.37848239899E+00  0.46078423432E+02  0.51100000000E-03 0. -1.
         22    1    1    0    0    0 -0.27714634516E+02  0.56016797838E+02 -0.51706126383E+00  0.62499999669E+02  0.00000000000E+00 0. -1.
</event>
<event>
 4    1  0.1974401E-002  0.9118800E+02  0.7818608E-02  0.1130116E+00
         25   -1    0    0    0    0  0.00000000000E+00  0.00000000000E+00  0.99999998245E-14  0.12500000000E+03  0.12500000000E+03 0.  0.
        -11    1    1    0    0    0  0.23381580464E+02 -0.44324129093E+01  0.17768764169E+02  0.29699723392E+02  0.51100000000E-03 0.  1.
         11    1    1    0    0    0  0.25823761783E+02 -0.48933681852E+01  0.19622599781E+02  0.32800276634E+02  0.51100000000E-03 0. -1.
         22    1    1    0    0    0 -0.49205342248E+02  0.93257810944E+01 -0.37391363950E+02  0.62499999974E+02  0.00000000000E+00 0.  1.
</event>
<event>
 4    1  0.1974401E-002  0.9118800E+02  0.7818608E-02  0.1130116E+00
         25   -1    0    0    0    0  0.00000000000E+00  0.00000000000E+00  0.99999998245E-14  0.12500000000E+03  0.12500000000E+03 0.  0.
        -11    1    1    0    0    0  0.38639962117E+02  0.14692337182E+02  0.25328772039E+02  0.48481523672E+02  0.51100000000E-03 0. -1.
         11    1    1    0    0    0  0.11173530254E+02  0.42480573786E+01  0.73228347830E+01  0.14018476357E+02  0.51100000000E-03 0.  1.
         22    1    1    0    0    0 -0.49813492372E+02 -0.18940394561E+02 -0.32651606822E+02  0.62499999971E+02  0.00000000000E+00 0. -1.
</event>
<event>
 4    1  0.1974401E-002  0.9118800E+02  0.7818608E-02  0.1130116E+00
         25   -1    0    0    0    0  0.00000000000E+00  0.00000000000E+00  0.99999998245E-14  0.12500000000E+03  0.12500000000E+03 0.  0.
        -11    1    1    0    0    0 -0.30545028959E+01  0.12975396004E+01  0.30658818964E+00  0.33328056551E+01  0.51100000000E-03 0. -1.
         11    1    1    0    0    0 -0.54131386025E+02  0.23036194635E+02  0.63169839996E+01  0.59167368569E+02  0.51100000000E-03 0.  1.
         22    1    1    0    0    0  0.57185888921E+02 -0.24333734236E+02 -0.66235721892E+01  0.62499825776E+02  0.00000000000E+00 0.  1.
</event>
<event>
 4    1  0.1974401E-002  0.9118800E+02  0.7818608E-02  0.1130116E+00
         25   -1    0    0    0    0  0.00000000000E+00  0.00000000000E+00  0.99999998245E-14  0.12500000000E+03  0.12500000000E+03 0.  0.
        -11    1    1    0    0    0 -0.10908161522E+02  0.30383148933E+02 -0.17619600909E+02  0.36777358025E+02  0.51100000000E-03 0.  1.
         11    1    1    0    0    0 -0.73267146464E+01  0.21245686682E+02 -0.12515276320E+02  0.25723376367E+02  0.51100000000E-03 0. -1.
         22    1    1    0    0    0  0.18234876168E+02 -0.51628835615E+02  0.30134877229E+02  0.62499265607E+02  0.00000000000E+00 0.  1.
</event>
<event>
 4    1  0.1974401E-002  0.9118800E+02  0.7818608E-02  0.1130116E+00
         25   -1    0    0    0    0  0.00000000000E+00  0.00000000000E+00  0.99999998245E-14  0.12500000000E+03  0.12500000000E+03 0.  0.
        -11    1    1    0    0    0 -0.51518222213E+00 -0.22532830985E+00 -0.26634236321E+00  0.62219296427E+00  0.51100000000E-03 0.  1.
         11    1    1    0    0    0 -0.41615840241E+02 -0.42213640697E+02 -0.17826391269E+02  0.61900321855E+02  0.51100000000E-03 0. -1.
         22    1    1    0    0    0  0.42131022463E+02  0.42438969007E+02  0.18092733632E+02  0.62477485180E+02  0.00000000000E+00 0. -1.
</event>
<event>
 4    1  0.1974401E-002  0.9118800E+02  0.7818608E-02  0.1130116E+00
         25   -1    0    0    0    0  0.00000000000E+00  0.00000000000E+00  0.99999998245E-14  0.12500000000E+03  0.12500000000E+03 0.  0.
        -11    1    1    0    0    0  0.15342162128E+02 -0.41064770931E+02 -0.58603112379E+01  0.44227147754E+02  0.51100000000E-03 0. -1.
         11    1    1    0    0    0  0.77742915075E+00 -0.14437724134E+02  0.16571868483E+02  0.21992705598E+02  0.51100000000E-03 0.  1.
         22    1    1    0    0    0 -0.16119591279E+02  0.55502495064E+02 -0.10711557245E+02  0.58780146648E+02  0.00000000000E+00 0.  1.
</event>
<event>
 4    1  0.1974401E-002  0.9118800E+02  0.7818608E-02  0.1130116E+00
         25   -1    0    0    0    0  0.00000000000E+00  0.00000000000E+00  0.99999998245E-14  0.12500000000E+03  0.12500000000E+03 0.  0.
        -11    1    1    0    0    0  0.36054102792E+02 -0.35999078262E+02  0.64308233639E+01  0.51353553463E+02  0.51100000000E-03 0.  1.
         11    1    1    0    0    0  0.78235819080E+01 -0.78153488209E+01  0.13982719912E+01  0.11146446783E+02  0.51100000000E-03 0. -1.
         22    1    1    0    0    0 -0.43877684700E+02  0.43814427083E+02 -0.78290953551E+01  0.62499999754E+02  0.00000000000E+00 0.  1.
</event>
<event>
 4    1  0.1974401E-002  0.9118800E+02  0.7818608E-02  0.1130116E+00
         25   -1    0    0    0    0  0.00000000000E+00  0.00000000000E+00  0.99999998245E-14  0.12500000000E+03  0.12500000000E+03 0.  0.
        -11    1    1    0    0    0 -0.10621962158E+02 -0.87423649777E+01 -0.94908536940E+01  0.16713208238E+02  0.51100000000E-03 0.  1.
         11    1    1    0    0    0 -0.19170622022E+02 -0.34921557410E+02  0.31739791162E+02  0.50935667895E+02  0.51100000000E-03 0. -1.
         22    1    1    0    0    0  0.29792584180E+02  0.43663922387E+02 -0.22248937468E+02  0.57351123867E+02  0.00000000000E+00 0. -1.
</event>
<event>
 4    1  0.1974401E-002  0.9118800E+02  0.7818608E-02  0.1130116E+00
         25   -1    0    0    0    0  0.00000000000E+00  0.00000000000E+00  0.99999998245E-14  0.12500000000E+03  0.12500000000E+03 0.  0.
        -11    1    1    0    0    0  0.27946486472E+01  0.20995209897E+01 -0.35421965129E+01  0.49764651958E+01  0.51100000000E-03 0. -1.
         11    1    1    0    0    0  0.32347829482E+02  0.24071198017E+02 -0.41026263610E+02  0.57523551283E+02  0.51100000000E-03 0.  1.
         22    1    1    0    0    0 -0.35142478129E+02 -0.26170719007E+02  0.44568460123E+02  0.62499983521E+02  0.00000000000E+00 0.  1.
</event>
<event>
 4    1  0.1974401E-002  0.9118800E+02  0.7818608E-02  0.1130116E+00
         25   -1    0    0    0    0  0.00000000000E+00  0.00000000000E+00  0.99999998245E-14  0.12500000000E+03  0.12500000000E+03 0.  0.
        -11    1    1    0    0    0  0.12476424672E+02 -0.61598924094E+01  0.28944099665E+02  0.32114893006E+02  0.51100000000E-03 0. -1.
         11    1    1    0    0    0  0.11703736290E+02 -0.60212819108E+01  0.27386742055E+02  0.30385307628E+02  0.51100000000E-03 0.  1.
         22    1    1    0    0    0 -0.24180160961E+02  0.12181174320E+02 -0.56330841720E+02  0.62499799366E+02  0.00000000000E+00 0.  1.
</event>
<event>
 4    1  0.1974401E-002  0.9118800E+02  0.7818608E-02  0.1130116E+00
         25   -1    0    0    0    0  0.00000000000E+00  0.00000000000E+00  0.99999998245E-14  0.12500000000E+03  0.12500000000E+03 0.  0.
        -11    1    1    0    0    0  0.12365963328E+02  0.43314489381E+02 -0.31162981995E+02  0.54774022004E+02  0.51100000000E-03 0.  1.
         11    1    1    0    0    0  0.53573929085E+01  0.24155577604E+01 -0.62212240871E+01  0.85580492796E+01  0.51100000000E-03 0. -1.
         22    1    1    0    0    0 -0.17723356237E+02 -0.45730047141E+02  0.37384206082E+02  0.61667928717E+02  0.00000000000E+00 0.  1.
</event>
<event>
 4    1  0.1974401E-002  0.9118800E+02  0.7818608E-02  0.1130116E+00
         25   -1    0    0    0    0  0.00000000000E+00  0.00000000000E+00  0.99999998245E-14  0.12500000000E+03  0.12500000000E+03 0.  0.
        -11    1    1    0    0    0  0.35064576788E+02  0.16340319206E+01  0.22989839652E+02  0.41961021593E+02  0.51100000000E-03 0.  1.
         11    1    1    0    0    0  0.17162609333E+02  0.80005411557E+00  0.11254083205E+02  0.20538978426E+02  0.51100000000E-03 0.  1.
         22    1    1    0    0    0 -0.52227186121E+02 -0.24340860362E+01 -0.34243922857E+02  0.62499999981E+02  0.00000000000E+00 0.  1.
</event>
<event>
 4    1  0.1974401E-002  0.9118800E+02  0.7818608E-02  0.1130116E+00
         25   -1    0    0    0    0  0.00000000000E+00  0.00000000000E+00  0.99999998245E-14  0.12500000000E+03  0.12500000000E+03 0.  0.
        -11    1    1    0    0    0 -0.34993500354E+01 -0.27232025413E+02  0.19164234555E+02  0.33482779830E+02  0.51100000000E-03 0.  1.
         11    1    1    0    0    0 -0.30324142729E+01 -0.23599543442E+02  0.16609186606E+02  0.29017220180E+02  0.51100000000E-03 0.  1.
         22    1    1    0    0    0  0.65317643083E+01  0.50831568855E+02 -0.35773421162E+02  0.62499999991E+02  0.00000000000E+00 0.  1.
</event>
<event>
 4    1  0.1974401E-002  0.9118800E+02  0.7818608E-02  0.1130116E+00
         25   -1    0    0    0    0  0.00000000000E+00  0.00000000000E+00  0.99999998245E-14  0.12500000000E+03  0.12500000000E+03 0.  0.
        -11    1    1    0    0    0 -0.65143830148E+01  0.19513325375E+02 -0.29518404893E+01  0.20782695104E+02  0.51100000000E-03 0. -1.
         11    1    1    0    0    0 -0.13078478996E+02  0.39168080658E+02 -0.59286065384E+01  0.41717304935E+02  0.51100000000E-03 0. -1.
         22    1    1    0    0    0  0.19592862011E+02 -0.58681406033E+02  0.88804470277E+01  0.62499999961E+02  0.00000000000E+00 0. -1.
</event>
<event>
 4    1  0.1974401E-002  0.9118800E+02  0.7818608E-02  0.1130116E+00
         25   -1    0    0    0    0  0.00000000000E+00  0.00000000000E+00  0.99999998245E-14  0.12500000000E+03  0.12500000000E+03 0.  0.
        -11    1    1    0    0    0 -0.16495682481E+01  0.37416121488E+01 -0.25281850070E+01  0.48075416345E+01  0.51100000000E-03 0.  1.
         11    1    1    0    0    0 -0.20317334913E+02  0.44634695785E+02 -0.30387215648E+02  0.57692573533E+02  0.51100000000E-03 0. -1.
         22    1    1    0    0    0  0.21966903161E+02 -0.48376307934E+02  0.32915400655E+02  0.62499884832E+02  0.00000000000E+00 0. -1.
</event>
<event>
 4    1  0.1974401E-002  0.9118800E+02  0.7818608E-02  0.1130116E+00
         25   -1    0    0    0    0  0.00000000000E+00  0.00000000000E+00  0.99999998245E-14  0.12500000000E+03  0.12500000000E+03 0.  0.
        -11    1    1    0    0    0  0.96475082048E+00  0.77292973282E+01  0.83084084670E+01  0.11388697592E+02  0.51100000000E-03 0.  1.
         11    1    1    0    0    0  0.46706475024E+01  0.35180460788E+02  0.36782351128E+02  0.51111849156E+02  0.51100000000E-03 0. -1.
         22    1    1    0    0    0 -0.56353983229E+01 -0.42909758116E+02 -0.45090759595E+02  0.62499453252E+02  0.00000000000E+00 0. -1.
</event>
<event>
 4    1  0.1974401E-002  0.9118800E+02  0.7818608E-02  0.1130116E+00
         25   -1    0    0    0    0  0.00000000000E+00  0.00000000000E+00  0.99999998245E-14  0.12500000000E+03  0.12500000000E+03 0.  0.
        -11    1    1    0    0    0 -0.75133896638E+01  0.34597462884E+02  0.18106902033E+02  0.39765504696E+02  0.51100000000E-03 0. -1.
         11    1    1    0    0    0 -0.43033821938E+01  0.19699133183E+02  0.10501979889E+02  0.22734698773E+02  0.51100000000E-03 0.  1.
         22    1    1    0    0    0  0.11816771858E+02 -0.54296596067E+02 -0.28608881922E+02  0.62499796531E+02  0.00000000000E+00 0.  1.
</event>
<event>
 4    1  0.1974401E-002  0.9118800E+02  0.7818608E-02  0.1130116E+00
         25   -1    0    0    0    0  0.00000000000E+00  0.00000000000E+00  0.99999998245E-14  0.12500000000E+03  0.12500000000E+03 0.  0.
        -11    1    1    0    0    0 -0.25667900932E+01  0.28573507719E+02 -0.20852211005E+02  0.35466159346E+02  0.51100000000E-03 0.  1.
         11    1    1    0    0    0 -0.19603786610E+01  0.21780160645E+02 -0.15893711418E+02  0.27033840739E+02  0.51100000000E-03 0. -1.
         22    1    1    0    0    0  0.45271687542E+01 -0.50353668363E+02  0.36745922423E+02  0.62499999914E+02  0.00000000000E+00 0. -1.
</event>
<event>
 4    1  0.1974401E-002  0.9118800E+02  0.7818608E-02  0.1130116E+00
         25   -1    0    0    0    0  0.00000000000E+00  0.00000000000E+00  0.99999998245E-14  0.12500000000E+03  0.12500000000E+03 0.  0.
        -11    1    1    0    0    0 -0.56224958170E+00 -0.19542503315E+01 -0.11861406147E+01  0.23541768772E+01  0.51100000000E-03 0.  1.
         11    1    1    0    0    0 -0.14555385476E+02 -0.49790077245E+02 -0.30440275910E+02  0.60145834737E+02  0.51100000000E-03 0. -1.
         22    1    1    0    0    0  0.15117635058E+02  0.51744327577E+02  0.31626416524E+02  0.62499988386E+02  0.00000000000E+00 0. -1.
</event>
<event>
 4    1  0.1974401E-002  0.9118800E+02  0.7818608E-02  0.1130116E+00
         25   -1    0    0    0    0  0.00000000000E+00  0.00000000000E+00  0.99999998245E-14  0.12500000000E+03  0.12500000000E+03 0.  0.
        -11    1    1    0    0    0  0.31863880880E+02  0.98180309601E+01  0.43596575037E+02  0.54884988766E+02  0.51100000000E-03 0. -1.
         11    1    1    0    0    0  0.40039132111E+01  0.94918085683E+01  0.19874549689E+00  0.10303652310E+02  0.51100000000E-03 0.  1.
         22    1    1    0    0    0 -0.35867794091E+02 -0.19309839528E+02 -0.43795320534E+02  0.59811358923E+02  0.00000000000E+00 0. -1.
</event>
<event>
 4    1  0.1974401E-002  0.9118800E+02  0.7818608E-02  0.1130116E+00
         25   -1    0    0    0    0  0.00000000000E+00  0.00000000000E+00  0.99999998245E-14  0.12500000000E+03  0.12500000000E+03 0.  0.
        -11    1    1    0    0    0  0.61879000717E+01  0.11671940201E+02 -0.12202860100E+02  0.17984273414E+02  0.51100000000E-03 0. -1.
         11    1    1    0    0    0  0.15315439792E+02  0.28893967087E+02 -0.30203077421E+02  0.44515726614E+02  0.51100000000E-03 0.  1.
         22    1    1    0    0    0 -0.21503339863E+02 -0.40565907288E+02  0.42405937521E+02  0.62499999971E+02  0.00000000000E+00 0.  1.
</event>
<event>
 4    1  0.1974401E-002  0.9118800E+02  0.7818608E-02  0.1130116E+00
         25   -1    0    0    0    0  0.00000000000E+00  0.00000000000E+00  0.99999998245E-14  0.12500000000E+03  0.12500000000E+03 0.  0.
        -11    1    1    0    0    0  0.14953052593E+02 -0.11537914826E+02 -0.87933619927E+01  0.20833638083E+02  0.51100000000E-03 0.  1.
         11    1    1    0    0    0  0.34308425398E+02 -0.19796126100E+02 -0.13240474317E+02  0.41764396587E+02  0.51100000000E-03 0. -1.
         22    1    1    0    0    0 -0.49261477990E+02  0.31334040926E+02  0.22033836310E+02  0.62401965330E+02  0.00000000000E+00 0. -1.
</event>
<event>
 4    1  0.1974401E-002  0.9118800E+02  0.7818608E-02  0.1130116E+00
         25   -1    0    0    0    0  0.00000000000E+00  0.00000000000E+00  0.99999998245E-14  0.12500000000E+03  0.12500000000E+03 0.  0.
        -11    1    1    0    0    0  0.22765655801E+02 -0.24029209535E+02 -0.79704202204E+01  0.34047108448E+02  0.51100000000E-03 0. -1.
         11    1    1    0    0    0  0.19029008051E+02 -0.20079802232E+02 -0.66532287547E+01  0.28452891913E+02  0.51100000000E-03 0.  1.
         22    1    1    0    0    0 -0.41794663852E+02  0.44109011767E+02  0.14623648975E+02  0.62499999639E+02  0.00000000000E+00 0. -1.
</event>
<event>
 4    1  0.1974401E-002  0.9118800E+02  0.7818608E-02  0.1130116E+00
         25   -1    0    0    0    0  0.00000000000E+00  0.00000000000E+00  0.99999998245E-14  0.12500000000E+03  0.12500000000E+03 0.  0.
        -11    1    1    0    0    0 -0.18646194160E+02 -0.24725271390E+02  0.20451805492E+02  0.37111938108E+02  0.51100000000E-03 0. -1.
         11    1    1    0    0    0 -0.13527160910E+02 -0.15631411200E+02  0.14767298807E+02  0.25404688794E+02  0.51100000000E-03 0.  1.
         22    1    1    0    0    0  0.32173355070E+02  0.40356682590E+02 -0.35219104298E+02  0.62483373099E+02  0.00000000000E+00 0. -1.
</event>
<event>
 4    1  0.1974401E-002  0.9118800E+02  0.7818608E-02  0.1130116E+00
         25   -1    0    0    0    0  0.00000000000E+00  0.00000000000E+00  0.99999998245E-14  0.12500000000E+03  0.12500000000E+03 0.  0.
        -11    1    1    0    0    0 -0.42530691565E+02 -0.68972215807E+01  0.29536879380E+02  0.52238478484E+02  0.51100000000E-03 0.  1.
         11    1    1    0    0    0 -0.83486098973E+01 -0.14513606313E+01  0.57876663928E+01  0.10261716106E+02  0.51100000000E-03 0. -1.
         22    1    1    0    0    0  0.50879301463E+02  0.83485822120E+01 -0.35324545773E+02  0.62499805410E+02  0.00000000000E+00 0.  1.
</event>
<event>
 4    1  0.1974401E-002  0.9118800E+02  0.7818608E-02  0.1130116E+00
         25   -1    0    0    0    0  0.00000000000E+00  0.00000000000E+00  0.99999998245E-14  0.12500000000E+03  0.12500000000E+03 0.  0.
        -11    1    1    0    0    0 -0.16491013893E+02 -0.93773712026E+01  0.90971013803E+01  0.21039151211E+02  0.51100000000E-03 0. -1.
         11    1    1    0    0    0 -0.34694963562E+02 -0.17222932980E+02  0.14875436320E+02  0.41492752656E+02  0.51100000000E-03 0.  1.
         22    1    1    0    0    0  0.51185977455E+02  0.26600304183E+02 -0.23972537700E+02  0.62468096133E+02  0.00000000000E+00 0.  1.
</event>
<event>
 4    1  0.1974401E-002  0.9118800E+02  0.7818608E-02  0.1130116E+00
         25   -1    0    0    0    0  0.00000000000E+00  0.00000000000E+00  0.99999998245E-14  0.12500000000E+03  0.12500000000E+03 0.  0.
        -11    1    1    0    0    0 -0.12288674349E+01  0.44113211974E+02 -0.26342710283E+01  0.44208878859E+02  0.51100000000E-03 0. -1.
         11    1    1    0    0    0 -0.87938810905E+01  0.16826840438E+02  0.31357581704E+00  0.18988765989E+02  0.51100000000E-03 0.  1.
         22    1    1    0    0    0  0.10022748525E+02 -0.60940052412E+02  0.23206952113E+01  0.61802355151E+02  0.00000000000E+00 0. -1.
</event>
<event>
 4    1  0.1974401E-002  0.9118800E+02  0.7818608E-02  0.1130116E+00
         25   -1    0    0    0    0  0.00000000000E+00  0.00000000000E+00  0.99999998245E-14  0.12500000000E+03  0.12500000000E+03 0.  0.
        -11    1    1    0    0    0 -0.61047193703E+01 -0.19203653118E+01 -0.18734096069E+01  0.66682130543E+01  0.51100000000E-03 0. -1.
         11    1    1    0    0    0 -0.50593809928E+02 -0.16573154554E+02 -0.16819077124E+02  0.55832646457E+02  0.51100000000E-03 0.  1.
         22    1    1    0    0    0  0.56698529298E+02  0.18493519866E+02  0.18692486731E+02  0.62499140488E+02  0.00000000000E+00 0.  1.
</event>
<event>
 4    1  0.1974401E-002  0.9118800E+02  0.7818608E-02  0.1130116E+00
         25   -1    0    0    0    0  0.00000000000E+00  0.00000000000E+00  0.99999998245E-14  0.12500000000E+03  0.12500000000E+03 0.  0.
        -11    1    1    0    0    0  0.12404509283E+02  0.17836732870E+02  0.68168907177E+01  0.22770395020E+02  0.51100000000E-03 0. -1.
         11    1    1    0    0    0  0.21818791371E+02  0.30493675802E+02  0.13148445850E+02  0.39734186154E+02  0.51100000000E-03 0.  1.
         22    1    1    0    0    0 -0.34223300654E+02 -0.48330408672E+02 -0.19965336568E+02  0.62495418826E+02  0.00000000000E+00 0.  1.
</event>
<event>
 4    1  0.1974401E-002  0.9118800E+02  0.7818608E-02  0.1130116E+00
         25   -1    0    0    0    0  0.00000000000E+00  0.00000000000E+00  0.99999998245E-14  0.12500000000E+03  0.12500000000E+03 0.  0.
        -11    1    1    0    0    0  0.24598229130E+02  0.35076683501E+01  0.50013261215E+01  0.25345411356E+02  0.51100000000E-03 0. -1.
         11    1    1    0    0    0  0.36058727851E+02  0.51451352058E+01  0.73320658048E+01  0.37154588676E+02  0.51100000000E-03 0.  1.
         22    1    1    0    0    0 -0.60656956980E+02 -0.86528035559E+01 -0.12333391926E+02  0.62499999967E+02  0.00000000000E+00 0.  1.
</event>
<event>
 4    1  0.1974401E-002  0.9118800E+02  0.7818608E-02  0.1130116E+00
         25   -1    0    0    0    0  0.00000000000E+00  0.00000000000E+00  0.99999998245E-14  0.12500000000E+03  0.12500000000E+03 0.  0.
        -11    1    1    0    0    0 -0.25153556607E+01  0.31873954828E+01 -0.38570702574E+02  0.38783831700E+02  0.51100000000E-03 0.  1.
         11    1    1    0    0    0 -0.15394222948E+01  0.19346214274E+01 -0.23586948159E+02  0.23716169691E+02  0.51100000000E-03 0. -1.
         22    1    1    0    0    0  0.40547779555E+01 -0.51220169102E+01  0.62157650733E+02  0.62499998609E+02  0.00000000000E+00 0.  1.
</event>
<event>
 4    1  0.1974401E-002  0.9118800E+02  0.7818608E-02  0.1130116E+00
         25   -1    0    0    0    0  0.00000000000E+00  0.00000000000E+00  0.99999998245E-14  0.12500000000E+03  0.12500000000E+03 0.  0.
        -11    1    1    0    0    0  0.14577102560E+01  0.23802446707E+01 -0.22478693454E+01  0.35837690687E+01  0.51100000000E-03 0. -1.
         11    1    1    0    0    0  0.23791507033E+02  0.39306585959E+02 -0.36879271535E+02  0.58916247130E+02  0.51100000000E-03 0.  1.
         22    1    1    0    0    0 -0.25249217289E+02 -0.41686830630E+02  0.39127140880E+02  0.62499983801E+02  0.00000000000E+00 0.  1.
</event>
<event>
 4    1  0.1974401E-002  0.9118800E+02  0.7818608E-02  0.1130116E+00
         25   -1    0    0    0    0  0.00000000000E+00  0.00000000000E+00  0.99999998245E-14  0.12500000000E+03  0.12500000000E+03 0.  0.
        -11    1    1    0    0    0 -0.11352265618E+02 -0.14418025682E+02  0.94255201071E+01  0.20629925564E+02  0.51100000000E-03 0.  1.
         11    1    1    0    0    0 -0.12887349499E+01 -0.37294962643E+02  0.21235406733E+02  0.42936203554E+02  0.51100000000E-03 0. -1.
         22    1    1    0    0    0  0.12641000568E+02  0.51712988325E+02 -0.30660926840E+02  0.61433870882E+02  0.00000000000E+00 0. -1.
</event>
<event>
 4    1  0.1974401E-002  0.9118800E+02  0.7818608E-02  0.1130116E+00
         25   -1    0    0    0    0  0.00000000000E+00  0.00000000000E+00  0.99999998245E-14  0.12500000000E+03  0.12500000000E+03 0.  0.
        -11    1    1    0    0    0 -0.54024270204E+01  0.97146750471E+01  0.37263075960E+01  0.11723757825E+02  0.51100000000E-03 0.  1.
         11    1    1    0    0    0 -0.19779924239E+02  0.44465269643E+02  0.14554068802E+02  0.50795930213E+02  0.51100000000E-03 0. -1.
         22    1    1    0    0    0  0.25182351259E+02 -0.54179944690E+02 -0.18280376398E+02  0.62480311961E+02  0.00000000000E+00 0. -1.
</event>
<event>
 4    1  0.1974401E-002  0.9118800E+02  0.7818608E-02  0.1130116E+00
         25   -1    0    0    0    0  0.00000000000E+00  0.00000000000E+00  0.99999998245E-14  0.12500000000E+03  0.12500000000E+03 0.  0.
        -11    1    1    0    0    0 -0.85536058744E+01 -0.21157531591E+02  0.15841132071E+02  0.27780330848E+02  0.51100000000E-03 0. -1.
         11    1    1    0    0    0 -0.10679964636E+02 -0.26442935086E+02  0.19803156176E+02  0.34719669575E+02  0.51100000000E-03 0.  1.
         22    1    1    0    0    0  0.19233570511E+02  0.47600466677E+02 -0.35644288247E+02  0.62499999577E+02  0.00000000000E+00 0. -1.
</event>
<event>
 4    1  0.1974401E-002  0.9118800E+02  0.7818608E-02  0.1130116E+00
         25   -1    0    0    0    0  0.00000000000E+00  0.00000000000E+00  0.99999998245E-14  0.12500000000E+03  0.12500000000E+03 0.  0.
        -11    1    1    0    0    0 -0.48017507369E+01 -0.43981263970E+01  0.98591208010E+01  0.11815353959E+02  0.51100000000E-03 0.  1.
         11    1    1    0    0    0 -0.20606442543E+02 -0.18845886876E+02  0.42298232452E+02  0.50684646544E+02  0.51100000000E-03 0. -1.
         22    1    1    0    0    0  0.25408193280E+02  0.23244013273E+02 -0.52157353253E+02  0.62499999497E+02  0.00000000000E+00 0. -1.
</event>
<event>
 4    1  0.1974401E-002  0.9118800E+02  0.7818608E-02  0.1130116E+00
         25   -1    0    0    0    0  0.00000000000E+00  0.00000000000E+00  0.99999998245E-14  0.12500000000E+03  0.12500000000E+03 0.  0.
        -11    1    1    0    0    0 -0.10268297123E+01 -0.94678433152E+01  0.60026571404E+01  0.11257278948E+02  0.51100000000E-03 0.  1.
         11    1    1    0    0    0 -0.38038021964E+02 -0.24329317956E+02 -0.32552021860E+02  0.55663641226E+02  0.51100000000E-03 0. -1.
         22    1    1    0    0    0  0.39064851676E+02  0.33797161271E+02  0.26549364720E+02  0.58079079826E+02  0.00000000000E+00 0. -1.
</event>
<event>
 4    1  0.1974401E-002  0.9118800E+02  0.7818608E-02  0.1130116E+00
         25   -1    0    0    0    0  0.00000000000E+00  0.00000000000E+00  0.99999998245E-14  0.12500000000E+03  0.12500000000E+03 0.  0.
        -11    1    1    0    0    0  0.42258329576E+01 -0.31043979489E+02  0.11710288554E+02  0.33447229855E+02  0.51100000000E-03 0. -1.
         11    1    1    0    0    0  0.36727114303E+01 -0.26964395000E+02  0.10173300748E+02  0.29052770184E+02  0.51100000000E-03 0.  1.
         22    1    1    0    0    0 -0.78985443878E+01  0.58008374490E+02 -0.21883589302E+02  0.62499999961E+02  0.00000000000E+00 0. -1.
</event>
<event>
 4    1  0.1974401E-002  0.9118800E+02  0.7818608E-02  0.1130116E+00
         25   -1    0    0    0    0  0.00000000000E+00  0.00000000000E+00  0.99999998245E-14  0.12500000000E+03  0.12500000000E+03 0.  0.
        -11    1    1    0    0    0 -0.35617837122E+02 -0.39777878279E+02  0.14248026433E+02  0.55262249132E+02  0.51100000000E-03 0.  1.
         11    1    1    0    0    0 -0.46718057181E+01 -0.56553782254E+01  0.12150292446E+00  0.73364729102E+01  0.51100000000E-03 0. -1.
         22    1    1    0    0    0  0.40289642840E+02  0.45433256504E+02 -0.14369529358E+02  0.62401277958E+02  0.00000000000E+00 0.  1.
</event>
<event>
 4    1  0.1974401E-002  0.9118800E+02  0.7818608E-02  0.1130116E+00
         25   -1    0    0    0    0  0.00000000000E+00  0.00000000000E+00  0.99999998245E-14  0.12500000000E+03  0.12500000000E+03 0.  0.
        -11    1    1    0    0    0  0.29495551955E+00 -0.69491982938E+00  0.71268298372E+00  0.10381857368E+01  0.51100000000E-03 0. -1.
         11    1    1    0    0    0  0.15136109721E+02 -0.41376942348E+02  0.42853826806E+02  0.61462213170E+02  0.51100000000E-03 0.  1.
         22    1    1    0    0    0 -0.15431065240E+02  0.42071862178E+02 -0.43566509790E+02  0.62499601093E+02  0.00000000000E+00 0.  1.
</event>
<event>
 4    1  0.1974401E-002  0.9118800E+02  0.7818608E-02  0.1130116E+00
         25   -1    0    0    0    0  0.00000000000E+00  0.00000000000E+00  0.99999998245E-14  0.12500000000E+03  0.12500000000E+03 0.  0.
        -11    1    1    0    0    0  0.31879245308E+02  0.14019050573E+02 -0.17943323360E+02  0.39176305515E+02  0.51100000000E-03 0.  1.
         11    1    1    0    0    0  0.18856710639E+02  0.85833562790E+01 -0.10712973678E+02  0.23324179437E+02  0.51100000000E-03 0. -1.
         22    1    1    0    0    0 -0.50735955946E+02 -0.22602406852E+02  0.28656297038E+02  0.62499515048E+02  0.00000000000E+00 0.  1.
</event>
<event>
 4    1  0.1974401E-002  0.9118800E+02  0.7818608E-02  0.1130116E+00
         25   -1    0    0    0    0  0.00000000000E+00  0.00000000000E+00  0.99999998245E-14  0.12500000000E+03  0.12500000000E+03 0.  0.
        -11    1    1    0    0    0 -0.75804992498E+01  0.10940837015E+01  0.16879452086E+02  0.18535827227E+02  0.51100000000E-03 0.  1.
         11    1    1    0    0    0 -0.17962874076E+02  0.25816158205E+01  0.40043963117E+02  0.43964173684E+02  0.51100000000E-03 0. -1.
         22    1    1    0    0    0  0.25543373326E+02 -0.36756995220E+01 -0.56923415203E+02  0.62499999089E+02  0.00000000000E+00 0. -1.
</event>
<event>
 4    1  0.1974401E-002  0.9118800E+02  0.7818608E-02  0.1130116E+00
         25   -1    0    0    0    0  0.00000000000E+00  0.00000000000E+00  0.99999998245E-14  0.12500000000E+03  0.12500000000E+03 0.  0.
        -11    1    1    0    0    0  0.12421030647E+02 -0.16031386711E+02 -0.58124601568E+02  0.61560999585E+02  0.51100000000E-03 0. -1.
         11    1    1    0    0    0  0.18772174321E+00 -0.25260951225E+00 -0.88470673712E+00  0.93901932375E+00  0.51100000000E-03 0.  1.
         22    1    1    0    0    0 -0.12608752391E+02  0.16283996223E+02  0.59009308305E+02  0.62499981092E+02  0.00000000000E+00 0. -1.
</event>
<event>
 4    1  0.1974401E-002  0.9118800E+02  0.7818608E-02  0.1130116E+00
         25   -1    0    0    0    0  0.00000000000E+00  0.00000000000E+00  0.99999998245E-14  0.12500000000E+03  0.12500000000E+03 0.  0.
        -11    1    1    0    0    0 -0.43826902371E+01  0.22934351822E+02  0.18105485019E+02  0.29546591262E+02  0.51100000000E-03 0.  1.
         11    1    1    0    0    0 -0.37670403993E+00  0.34690476668E+02  0.55142204639E+00  0.34696903953E+02  0.51100000000E-03 0. -1.
         22    1    1    0    0    0  0.47593942770E+01 -0.57624828490E+02 -0.18656907065E+02  0.60756504784E+02  0.00000000000E+00 0. -1.
</event>
<event>
 4    1  0.1974401E-002  0.9118800E+02  0.7818608E-02  0.1130116E+00
         25   -1    0    0    0    0  0.00000000000E+00  0.00000000000E+00  0.99999998245E-14  0.12500000000E+03  0.12500000000E+03 0.  0.
        -11    1    1    0    0    0 -0.10274919003E+02  0.50835100325E+02 -0.17376313361E+02  0.54696596346E+02  0.51100000000E-03 0. -1.
         11    1    1    0    0    0 -0.14798667404E+01  0.72491023091E+01 -0.24806673050E+01  0.78034095366E+01  0.51100000000E-03 0.  1.
         22    1    1    0    0    0  0.11754785744E+02 -0.58084202634E+02  0.19856980666E+02  0.62499994117E+02  0.00000000000E+00 0. -1.
</event>
<event>
 4    1  0.1974401E-002  0.9118800E+02  0.7818608E-02  0.1130116E+00
         25   -1    0    0    0    0  0.00000000000E+00  0.00000000000E+00  0.99999998245E-14  0.12500000000E+03  0.12500000000E+03 0.  0.
        -11    1    1    0    0    0 -0.33490552825E+02  0.98482071458E+00 -0.21309524776E+02  0.39707465883E+02  0.51100000000E-03 0.  1.
         11    1    1    0    0    0 -0.13268343167E+02  0.12886034764E+02 -0.15545222534E+02  0.24160976102E+02  0.51100000000E-03 0. -1.
         22    1    1    0    0    0  0.46758895992E+02 -0.13870855479E+02  0.36854747310E+02  0.61131558015E+02  0.00000000000E+00 0.  1.
</event>
<event>
 4    1  0.1974401E-002  0.9118800E+02  0.7818608E-02  0.1130116E+00
         25   -1    0    0    0    0  0.00000000000E+00  0.00000000000E+00  0.99999998245E-14  0.12500000000E+03  0.12500000000E+03 0.  0.
        -11    1    1    0    0    0 -0.19634267109E+02 -0.11867139351E+02 -0.19270791657E+00  0.22942767442E+02  0.51100000000E-03 0. -1.
         11    1    1    0    0    0 -0.33838283008E+02 -0.20485023352E+02 -0.33047643137E+00  0.39557234403E+02  0.51100000000E-03 0.  1.
         22    1    1    0    0    0  0.53472550117E+02  0.32352162703E+02  0.52318434793E+00  0.62499998156E+02  0.00000000000E+00 0.  1.
</event>
<event>
 4    1  0.1974401E-002  0.9118800E+02  0.7818608E-02  0.1130116E+00
         25   -1    0    0    0    0  0.00000000000E+00  0.00000000000E+00  0.99999998245E-14  0.12500000000E+03  0.12500000000E+03 0.  0.
        -11    1    1    0    0    0  0.17766290675E+00 -0.28448761092E+02  0.80356321227E+01  0.29562390898E+02  0.51100000000E-03 0. -1.
         11    1    1    0    0    0  0.28244788370E+00 -0.31756226337E+02  0.87385247926E+01  0.32937812675E+02  0.51100000000E-03 0.  1.
         22    1    1    0    0    0 -0.46011079045E+00  0.60204987429E+02 -0.16774156915E+02  0.62499796427E+02  0.00000000000E+00 0.  1.
</event>
<event>
 4    1  0.1974401E-002  0.9118800E+02  0.7818608E-02  0.1130116E+00
         25   -1    0    0    0    0  0.00000000000E+00  0.00000000000E+00  0.99999998245E-14  0.12500000000E+03  0.12500000000E+03 0.  0.
        -11    1    1    0    0    0 -0.27734695152E+02  0.17024466838E+02 -0.51963564724E+02  0.61312786965E+02  0.51100000000E-03 0. -1.
         11    1    1    0    0    0 -0.36097296190E+00 -0.68559890663E+01  0.11386075729E+02  0.13295774077E+02  0.51100000000E-03 0.  1.
         22    1    1    0    0    0  0.28095668114E+02 -0.10168477772E+02  0.40577488996E+02  0.50391438957E+02  0.00000000000E+00 0. -1.
</event>
<event>
 4    1  0.1974401E-002  0.9118800E+02  0.7818608E-02  0.1130116E+00
         25   -1    0    0    0    0  0.00000000000E+00  0.00000000000E+00  0.99999998245E-14  0.12500000000E+03  0.12500000000E+03 0.  0.
        -11    1    1    0    0    0 -0.74969388140E+00 -0.13494534493E+01 -0.10065193212E+01  0.18428637857E+01  0.51100000000E-03 0. -1.
         11    1    1    0    0    0 -0.25151107030E+02 -0.43413284003E+02 -0.34088539250E+02  0.60657397910E+02  0.51100000000E-03 0.  1.
         22    1    1    0    0    0  0.25900800911E+02  0.44762737452E+02  0.35095058571E+02  0.62499738305E+02  0.00000000000E+00 0.  1.
</event>
<event>
 4    1  0.1974401E-002  0.9118800E+02  0.7818608E-02  0.1130116E+00
         25   -1    0    0    0    0  0.00000000000E+00  0.00000000000E+00  0.99999998245E-14  0.12500000000E+03  0.12500000000E+03 0.  0.
        -11    1    1    0    0    0 -0.33587864301E+01 -0.14457712828E+02 -0.49879108173E+01  0.15658421411E+02  0.51100000000E-03 0.  1.
         11    1    1    0    0    0 -0.31154369734E+02 -0.35352440781E+02 -0.67934528236E+01  0.47608201229E+02  0.51100000000E-03 0. -1.
         22    1    1    0    0    0  0.34513156164E+02  0.49810153610E+02  0.11781363641E+02  0.61733377360E+02  0.00000000000E+00 0. -1.
</event>
<event>
 4    1  0.1974401E-002  0.9118800E+02  0.7818608E-02  0.1130116E+00
         25   -1    0    0    0    0  0.00000000000E+00  0.00000000000E+00  0.99999998245E-14  0.12500000000E+03  0.12500000000E+03 0.  0.
        -11    1    1    0    0    0  0.18723736601E+02 -0.19340821758E+02  0.39786940646E+02  0.48037967742E+02  0.51100000000E-03 0.  1.
         11    1    1    0    0    0  0.52786886662E+01 -0.66294245602E+01  0.11732825003E+02  0.14473182333E+02  0.51100000000E-03 0. -1.
         22    1    1    0    0    0 -0.24002425267E+02  0.25970246318E+02 -0.51519765649E+02  0.62488849925E+02  0.00000000000E+00 0.  1.
</event>
<event>
 4    1  0.1974401E-002  0.9118800E+02  0.7818608E-02  0.1130116E+00
         25   -1    0    0    0    0  0.00000000000E+00  0.00000000000E+00  0.99999998245E-14  0.12500000000E+03  0.12500000000E+03 0.  0.
        -11    1    1    0    0    0  0.37801653016E+01  0.41254843583E+00  0.26238846342E+01  0.46200234582E+01  0.51100000000E-03 0.  1.
         11    1    1    0    0    0  0.47358426755E+02  0.51758262917E+01  0.32870684897E+02  0.57879976575E+02  0.51100000000E-03 0. -1.
         22    1    1    0    0    0 -0.51138592057E+02 -0.55883747275E+01 -0.35494569531E+02  0.62499999967E+02  0.00000000000E+00 0. -1.
</event>
<event>
 4    1  0.1974401E-002  0.9118800E+02  0.7818608E-02  0.1130116E+00
         25   -1    0    0    0    0  0.00000000000E+00  0.00000000000E+00  0.99999998245E-14  0.12500000000E+03  0.12500000000E+03 0.  0.
        -11    1    1    0    0    0 -0.29399960570E+00 -0.52162898583E+00  0.65448577595E-01  0.60234238141E+00  0.51100000000E-03 0.  1.
         11    1    1    0    0    0 -0.30155206977E+02 -0.53714774796E+02  0.60587713855E+01  0.61897675644E+02  0.51100000000E-03 0. -1.
         22    1    1    0    0    0  0.30449206582E+02  0.54236403782E+02 -0.61242199630E+01  0.62499981975E+02  0.00000000000E+00 0. -1.
</event>
<event>
 4    1  0.1974401E-002  0.9118800E+02  0.7818608E-02  0.1130116E+00
         25   -1    0    0    0    0  0.00000000000E+00  0.00000000000E+00  0.99999998245E-14  0.12500000000E+03  0.12500000000E+03 0.  0.
        -11    1    1    0    0    0 -0.38947884530E+00 -0.46579600518E+00 -0.54219647836E+01  0.54558557592E+01  0.51100000000E-03 0. -1.
         11    1    1    0    0    0  0.28715008829E+01 -0.25313145923E-01 -0.56999316598E+02  0.57071606347E+02  0.51100000000E-03 0.  1.
         22    1    1    0    0    0 -0.24820220376E+01  0.49110915111E+00  0.62421281382E+02  0.62472537894E+02  0.00000000000E+00 0.  1.
</event>
<event>
 4    1  0.1974401E-002  0.9118800E+02  0.7818608E-02  0.1130116E+00
         25   -1    0    0    0    0  0.00000000000E+00  0.00000000000E+00  0.99999998245E-14  0.12500000000E+03  0.12500000000E+03 0.  0.
        -11    1    1    0    0    0 -0.16956836767E+01  0.17912571216E+02  0.91210824412E+01  0.20172498503E+02  0.51100000000E-03 0. -1.
         11    1    1    0    0    0 -0.10272766311E+02  0.34597844170E+02  0.22348811805E+02  0.42450087612E+02  0.51100000000E-03 0.  1.
         22    1    1    0    0    0  0.11968449988E+02 -0.52510415386E+02 -0.31469894246E+02  0.62377413885E+02  0.00000000000E+00 0.  1.
</event>
<event>
 4    1  0.1974401E-002  0.9118800E+02  0.7818608E-02  0.1130116E+00
         25   -1    0    0    0    0  0.00000000000E+00  0.00000000000E+00  0.99999998245E-14  0.12500000000E+03  0.12500000000E+03 0.  0.
        -11    1    1    0    0    0 -0.11028529887E+02 -0.21510629609E+02 -0.90244752649E+01  0.25802651254E+02  0.51100000000E-03 0. -1.
         11    1    1    0    0    0 -0.15654629523E+02 -0.30744429629E+02 -0.12507401198E+02  0.36697717419E+02  0.51100000000E-03 0.  1.
         22    1    1    0    0    0  0.26683159410E+02  0.52255059239E+02  0.21531876463E+02  0.62499631328E+02  0.00000000000E+00 0.  1.
</event>
<event>
 4    1  0.1974401E-002  0.9118800E+02  0.7818608E-02  0.1130116E+00
         25   -1    0    0    0    0  0.00000000000E+00  0.00000000000E+00  0.99999998245E-14  0.12500000000E+03  0.12500000000E+03 0.  0.
        -11    1    1    0    0    0 -0.21068076314E+02  0.42616253251E+02 -0.61039718240E+01  0.47929816952E+02  0.51100000000E-03 0. -1.
         11    1    1    0    0    0 -0.64296562914E+01  0.12938448948E+02 -0.18833310081E+01  0.14570205117E+02  0.51100000000E-03 0.  1.
         22    1    1    0    0    0  0.27497732605E+02 -0.55554702199E+02  0.79873028321E+01  0.62499977931E+02  0.00000000000E+00 0. -1.
</event>
<event>
 4    1  0.1974401E-002  0.9118800E+02  0.7818608E-02  0.1130116E+00
         25   -1    0    0    0    0  0.00000000000E+00  0.00000000000E+00  0.99999998245E-14  0.12500000000E+03  0.12500000000E+03 0.  0.
        -11    1    1    0    0    0 -0.20212201688E+02 -0.35001119636E+02  0.12933612732E+02  0.42436892104E+02  0.51100000000E-03 0. -1.
         11    1    1    0    0    0 -0.95559607933E+01 -0.16547709217E+02  0.61143463615E+01  0.20063107902E+02  0.51100000000E-03 0. -1.
         22    1    1    0    0    0  0.29768162482E+02  0.51548828853E+02 -0.19047959094E+02  0.62499999994E+02  0.00000000000E+00 0. -1.
</event>
<event>
 4    1  0.1974401E-002  0.9118800E+02  0.7818608E-02  0.1130116E+00
         25   -1    0    0    0    0  0.00000000000E+00  0.00000000000E+00  0.99999998245E-14  0.12500000000E+03  0.12500000000E+03 0.  0.
        -11    1    1    0    0    0 -0.19431402799E+02 -0.15142288653E+02 -0.24797681582E+02  0.34954160446E+02  0.51100000000E-03 0.  1.
         11    1    1    0    0    0 -0.16864774770E+02 -0.10824172660E+02 -0.18929140763E+02  0.27566205980E+02  0.51100000000E-03 0. -1.
         22    1    1    0    0    0  0.36296177569E+02  0.25966461313E+02  0.43726822345E+02  0.62479633575E+02  0.00000000000E+00 0.  1.
</event>
<event>
 4    1  0.1974401E-002  0.9118800E+02  0.7818608E-02  0.1130116E+00
         25   -1    0    0    0    0  0.00000000000E+00  0.00000000000E+00  0.99999998245E-14  0.12500000000E+03  0.12500000000E+03 0.  0.
        -11    1    1    0    0    0 -0.80982312297E+01  0.18013040272E+00  0.13138496946E+01  0.82060951306E+01  0.51100000000E-03 0.  1.
         11    1    1    0    0    0 -0.50046876057E+02  0.17802216080E+02  0.12080396272E+02  0.54475174849E+02  0.51100000000E-03 0. -1.
         22    1    1    0    0    0  0.58145107287E+02 -0.17982346483E+02 -0.13394245967E+02  0.62318730021E+02  0.00000000000E+00 0. -1.
</event>
<event>
 4    1  0.1974401E-002  0.9118800E+02  0.7818608E-02  0.1130116E+00
         25   -1    0    0    0    0  0.00000000000E+00  0.00000000000E+00  0.99999998245E-14  0.12500000000E+03  0.12500000000E+03 0.  0.
        -11    1    1    0    0    0  0.28897909504E+01  0.30153733046E+02 -0.28029597643E+02  0.41270532498E+02  0.51100000000E-03 0. -1.
         11    1    1    0    0    0 -0.79797886038E+01  0.11798674871E+02 -0.16863981069E+02  0.22074410810E+02  0.51100000000E-03 0.  1.
         22    1    1    0    0    0  0.50899976535E+01 -0.41952407917E+02  0.44893578712E+02  0.61655056692E+02  0.00000000000E+00 0. -1.
</event>
<event>
 4    1  0.1974401E-002  0.9118800E+02  0.7818608E-02  0.1130116E+00
         25   -1    0    0    0    0  0.00000000000E+00  0.00000000000E+00  0.99999998245E-14  0.12500000000E+03  0.12500000000E+03 0.  0.
        -11    1    1    0    0    0  0.54303139462E+01  0.81278001148E+01 -0.23031177991E+02  0.25019684334E+02  0.51100000000E-03 0.  1.
         11    1    1    0    0    0  0.84480441929E+01  0.11617106307E+02 -0.34619826061E+02  0.37481448297E+02  0.51100000000E-03 0. -1.
         22    1    1    0    0    0 -0.13878358139E+02 -0.19744906422E+02  0.57651004052E+02  0.62498867369E+02  0.00000000000E+00 0. -1.
</event>
<event>
 4    1  0.1974401E-002  0.9118800E+02  0.7818608E-02  0.1130116E+00
         25   -1    0    0    0    0  0.00000000000E+00  0.00000000000E+00  0.99999998245E-14  0.12500000000E+03  0.12500000000E+03 0.  0.
        -11    1    1    0    0    0 -0.14232099119E+02  0.55148162181E+01  0.25846034777E+02  0.30016384812E+02  0.51100000000E-03 0.  1.
         11    1    1    0    0    0 -0.15401627609E+02  0.59683119694E+01  0.27970598402E+02  0.32483615192E+02  0.51100000000E-03 0.  1.
         22    1    1    0    0    0  0.29633726727E+02 -0.11483128187E+02 -0.53816633179E+02  0.62499999995E+02  0.00000000000E+00 0.  1.
</event>
<event>
 4    1  0.1974401E-002  0.9118800E+02  0.7818608E-02  0.1130116E+00
         25   -1    0    0    0    0  0.00000000000E+00  0.00000000000E+00  0.99999998245E-14  0.12500000000E+03  0.12500000000E+03 0.  0.
        -11    1    1    0    0    0 -0.87769671943E+01 -0.27539399062E+02 -0.20346341657E+02  0.35347238547E+02  0.51100000000E-03 0.  1.
         11    1    1    0    0    0 -0.67313842450E+01 -0.21154239061E+02 -0.15635188932E+02  0.27152762241E+02  0.51100000000E-03 0. -1.
         22    1    1    0    0    0  0.15508351439E+02  0.48693638122E+02  0.35981530589E+02  0.62499999212E+02  0.00000000000E+00 0.  1.
</event>
<event>
 4    1  0.1974401E-002  0.9118800E+02  0.7818608E-02  0.1130116E+00
         25   -1    0    0    0    0  0.00000000000E+00  0.00000000000E+00  0.99999998245E-14  0.12500000000E+03  0.12500000000E+03 0.  0.
        -11    1    1    0    0    0 -0.22422370727E+01  0.78056534506E+01 -0.16935820031E+02  0.18782381459E+02  0.51100000000E-03 0. -1.
         11    1    1    0    0    0 -0.46026924451E+01  0.18710206311E+02 -0.39243845490E+02  0.43718828976E+02  0.51100000000E-03 0.  1.
         22    1    1    0    0    0  0.68449295178E+01 -0.26515859762E+02  0.56179665521E+02  0.62498789565E+02  0.00000000000E+00 0.  1.
</event>
<event>
 4    1  0.1974401E-002  0.9118800E+02  0.7818608E-02  0.1130116E+00
         25   -1    0    0    0    0  0.00000000000E+00  0.00000000000E+00  0.99999998245E-14  0.12500000000E+03  0.12500000000E+03 0.  0.
        -11    1    1    0    0    0  0.16285899060E+01 -0.16068982218E+01  0.12118539114E+02  0.12332616004E+02  0.51100000000E-03 0.  1.
         11    1    1    0    0    0  0.66421424348E+01 -0.65498632259E+01  0.49292471041E+02  0.50167384484E+02  0.51100000000E-03 0. -1.
         22    1    1    0    0    0 -0.82707323409E+01  0.81567614477E+01 -0.61411010155E+02  0.62499999512E+02  0.00000000000E+00 0. -1.
</event>
<event>
 4    1  0.1974401E-002  0.9118800E+02  0.7818608E-02  0.1130116E+00
         25   -1    0    0    0    0  0.00000000000E+00  0.00000000000E+00  0.99999998245E-14  0.12500000000E+03  0.12500000000E+03 0.  0.
        -11    1    1    0    0    0 -0.28480724444E+02  0.13180830280E+02  0.15969345006E+02  0.35212298021E+02  0.51100000000E-03 0.  1.
         11    1    1    0    0    0 -0.23519453048E+02  0.95355452823E+01  0.10132446115E+02  0.27326868830E+02  0.51100000000E-03 0. -1.
         22    1    1    0    0    0  0.52000177493E+02 -0.22716375562E+02 -0.26101791121E+02  0.62460833149E+02  0.00000000000E+00 0.  1.
</event>
<event>
 4    1  0.1974401E-002  0.9118800E+02  0.7818608E-02  0.1130116E+00
         25   -1    0    0    0    0  0.00000000000E+00  0.00000000000E+00  0.99999998245E-14  0.12500000000E+03  0.12500000000E+03 0.  0.
        -11    1    1    0    0    0  0.12990736600E+02 -0.27706740959E+02 -0.16883471809E+00  0.30601490771E+02  0.51100000000E-03 0. -1.
         11    1    1    0    0    0 -0.92197233513E+00 -0.32666436385E+02  0.26013996565E+01  0.32782821408E+02  0.51100000000E-03 0.  1.
         22    1    1    0    0    0 -0.12068764264E+02  0.60373177344E+02 -0.24325649384E+01  0.61615687821E+02  0.00000000000E+00 0. -1.
</event>
<event>
 4    1  0.1974401E-002  0.9118800E+02  0.7818608E-02  0.1130116E+00
         25   -1    0    0    0    0  0.00000000000E+00  0.00000000000E+00  0.99999998245E-14  0.12500000000E+03  0.12500000000E+03 0.  0.
        -11    1    1    0    0    0 -0.77761626166E+01 -0.56716017380E+02  0.89705767038E+01  0.57945203246E+02  0.51100000000E-03 0.  1.
         11    1    1    0    0    0 -0.61688502095E+00 -0.44568330637E+01  0.70872194997E+00  0.45547991339E+01  0.51100000000E-03 0. -1.
         22    1    1    0    0    0  0.83930476375E+01  0.61172850444E+02 -0.96792986538E+01  0.62499997620E+02  0.00000000000E+00 0.  1.
</event>
<event>
 4    1  0.1974401E-002  0.9118800E+02  0.7818608E-02  0.1130116E+00
         25   -1    0    0    0    0  0.00000000000E+00  0.00000000000E+00  0.99999998245E-14  0.12500000000E+03  0.12500000000E+03 0.  0.
        -11    1    1    0    0    0 -0.84534312583E+01 -0.44137182750E+02 -0.35569050564E+02  0.57312378763E+02  0.51100000000E-03 0.  1.
         11    1    1    0    0    0 -0.76628261308E+00 -0.39955833521E+01 -0.32186238808E+01  0.51876213541E+01  0.51100000000E-03 0.  1.
         22    1    1    0    0    0  0.92197138714E+01  0.48132766102E+02  0.38787674445E+02  0.62499999883E+02  0.00000000000E+00 0.  1.
</event>
<event>
 4    1  0.1974401E-002  0.9118800E+02  0.7818608E-02  0.1130116E+00
         25   -1    0    0    0    0  0.00000000000E+00  0.00000000000E+00  0.99999998245E-14  0.12500000000E+03  0.12500000000E+03 0.  0.
        -11    1    1    0    0    0 -0.20327256992E+02 -0.11592023610E+02  0.25940251172E+02  0.34935211740E+02  0.51100000000E-03 0. -1.
         11    1    1    0    0    0 -0.16079175503E+02 -0.91341636958E+01  0.20441267384E+02  0.27564800812E+02  0.51100000000E-03 0.  1.
         22    1    1    0    0    0  0.36406432495E+02  0.20726187306E+02 -0.46381518557E+02  0.62499987447E+02  0.00000000000E+00 0. -1.
</event>
<event>
 4    1  0.1974401E-002  0.9118800E+02  0.7818608E-02  0.1130116E+00
         25   -1    0    0    0    0  0.00000000000E+00  0.00000000000E+00  0.99999998245E-14  0.12500000000E+03  0.12500000000E+03 0.  0.
        -11    1    1    0    0    0 -0.11408356691E+00  0.27091419100E+01 -0.29489850946E+01  0.40061176091E+01  0.51100000000E-03 0.  1.
         11    1    1    0    0    0 -0.18336288306E+01  0.39453920467E+02 -0.43145819369E+02  0.58493895102E+02  0.51100000000E-03 0. -1.
         22    1    1    0    0    0  0.19477123975E+01 -0.42163062377E+02  0.46094804464E+02  0.62499987289E+02  0.00000000000E+00 0. -1.
</event>
<event>
 4    1  0.1974401E-002  0.9118800E+02  0.7818608E-02  0.1130116E+00
         25   -1    0    0    0    0  0.00000000000E+00  0.00000000000E+00  0.99999998245E-14  0.12500000000E+03  0.12500000000E+03 0.  0.
        -11    1    1    0    0    0 -0.21274440556E+01 -0.54614040540E+01  0.27527411782E+00  0.58675998971E+01  0.51100000000E-03 0. -1.
         11    1    1    0    0    0 -0.20530672481E+02 -0.52712549518E+02  0.26659627838E+01  0.56632400153E+02  0.51100000000E-03 0.  1.
         22    1    1    0    0    0  0.22658116537E+02  0.58173953572E+02 -0.29412369016E+01  0.62499999950E+02  0.00000000000E+00 0.  1.
</event>
<event>
 4    1  0.1974401E-002  0.9118800E+02  0.7818608E-02  0.1130116E+00
         25   -1    0    0    0    0  0.00000000000E+00  0.00000000000E+00  0.99999998245E-14  0.12500000000E+03  0.12500000000E+03 0.  0.
        -11    1    1    0    0    0  0.97846180350E+01  0.24714388120E+02 -0.10533917806E+02  0.28592012081E+02  0.51100000000E-03 0. -1.
         11    1    1    0    0    0  0.11592954143E+02  0.29319198919E+02 -0.12479572130E+02  0.33907989203E+02  0.51100000000E-03 0.  1.
         22    1    1    0    0    0 -0.21377572178E+02 -0.54033587039E+02  0.23013489936E+02  0.62499998716E+02  0.00000000000E+00 0. -1.
</event>
<event>
 4    1  0.1974401E-002  0.9118800E+02  0.7818608E-02  0.1130116E+00
         25   -1    0    0    0    0  0.00000000000E+00  0.00000000000E+00  0.99999998245E-14  0.12500000000E+03  0.12500000000E+03 0.  0.
        -11    1    1    0    0    0 -0.15116921127E+02  0.31046126026E+02 -0.22397509468E+02  0.41158616063E+02  0.51100000000E-03 0.  1.
         11    1    1    0    0    0 -0.78433149798E+01  0.16095819204E+02 -0.11612996691E+02  0.21341384166E+02  0.51100000000E-03 0. -1.
         22    1    1    0    0    0  0.22960236107E+02 -0.47141945230E+02  0.34010506159E+02  0.62499999771E+02  0.00000000000E+00 0.  1.
</event>
<event>
 4    1  0.1974401E-002  0.9118800E+02  0.7818608E-02  0.1130116E+00
         25   -1    0    0    0    0  0.00000000000E+00  0.00000000000E+00  0.99999998245E-14  0.12500000000E+03  0.12500000000E+03 0.  0.
        -11    1    1    0    0    0  0.10709544241E+02  0.86239359275E+01 -0.29336839278E+01  0.14059626964E+02  0.51100000000E-03 0. -1.
         11    1    1    0    0    0  0.37643035581E+02  0.29223807030E+02 -0.87035463537E+01  0.48443583110E+02  0.51100000000E-03 0.  1.
         22    1    1    0    0    0 -0.48352579822E+02 -0.37847742958E+02  0.11637230281E+02  0.62496789926E+02  0.00000000000E+00 0.  1.
</event>
<event>
 4    1  0.1974401E-002  0.9118800E+02  0.7818608E-02  0.1130116E+00
         25   -1    0    0    0    0  0.00000000000E+00  0.00000000000E+00  0.99999998245E-14  0.12500000000E+03  0.12500000000E+03 0.  0.
        -11    1    1    0    0    0  0.75116729885E+00  0.54361498010E+01 -0.47930697793E+01  0.72862538482E+01  0.51100000000E-03 0.  1.
         11    1    1    0    0    0  0.54978256140E+01  0.40625533453E+02 -0.36985733944E+02  0.55214170016E+02  0.51100000000E-03 0. -1.
         22    1    1    0    0    0 -0.62489929129E+01 -0.46061683254E+02  0.41778803723E+02  0.62499576136E+02  0.00000000000E+00 0. -1.
</event>
<event>
 4    1  0.1974401E-002  0.9118800E+02  0.7818608E-02  0.1130116E+00
         25   -1    0    0    0    0  0.00000000000E+00  0.00000000000E+00  0.99999998245E-14  0.12500000000E+03  0.12500000000E+03 0.  0.
        -11    1    1    0    0    0  0.18826662497E+02 -0.16847029860E+02  0.99845725296E+01  0.27165369954E+02  0.51100000000E-03 0.  1.
         11    1    1    0    0    0  0.24487960895E+02 -0.21912989861E+02  0.12988330432E+02  0.35334630055E+02  0.51100000000E-03 0.  1.
         22    1    1    0    0    0 -0.43314623392E+02  0.38760019721E+02 -0.22972902961E+02  0.62499999991E+02  0.00000000000E+00 0.  1.
</event>
<event>
 4    1  0.1974401E-002  0.9118800E+02  0.7818608E-02  0.1130116E+00
         25   -1    0    0    0    0  0.00000000000E+00  0.00000000000E+00  0.99999998245E-14  0.12500000000E+03  0.12500000000E+03 0.  0.
        -11    1    1    0    0    0  0.28409240051E+02 -0.86034969825E+01 -0.20194532931E+02  0.35901591068E+02  0.51100000000E-03 0. -1.
         11    1    1    0    0    0 -0.27179709195E+02  0.23439773075E+02 -0.23525024982E+02  0.42913708234E+02  0.51100000000E-03 0.  1.
         22    1    1    0    0    0 -0.12295308563E+01 -0.14836276092E+02  0.43719557914E+02  0.46184700698E+02  0.00000000000E+00 0. -1.
</event>
<event>
 4    1  0.1974401E-002  0.9118800E+02  0.7818608E-02  0.1130116E+00
         25   -1    0    0    0    0  0.00000000000E+00  0.00000000000E+00  0.99999998245E-14  0.12500000000E+03  0.12500000000E+03 0.  0.
        -11    1    1    0    0    0  0.66072922638E+01  0.12933239102E+01 -0.74652239620E+01  0.10052789009E+02  0.51100000000E-03 0. -1.
         11    1    1    0    0    0  0.34750112106E+02  0.63959587950E+01 -0.38758875171E+02  0.52447392548E+02  0.51100000000E-03 0.  1.
         22    1    1    0    0    0 -0.41357404370E+02 -0.76892827052E+01  0.46224099133E+02  0.62499818443E+02  0.00000000000E+00 0.  1.
</event>
<event>
 4    1  0.1974401E-002  0.9118800E+02  0.7818608E-02  0.1130116E+00
         25   -1    0    0    0    0  0.00000000000E+00  0.00000000000E+00  0.99999998245E-14  0.12500000000E+03  0.12500000000E+03 0.  0.
        -11    1    1    0    0    0 -0.85853227095E+00 -0.20352935260E+00 -0.54837110102E+00  0.10388517619E+01  0.51100000000E-03 0.  1.
         11    1    1    0    0    0 -0.50856691671E+02 -0.11989345630E+02 -0.32362406650E+02  0.61461149199E+02  0.51100000000E-03 0. -1.
         22    1    1    0    0    0  0.51715223942E+02  0.12192874983E+02  0.32910777752E+02  0.62499999039E+02  0.00000000000E+00 0. -1.
</event>
<event>
 4    1  0.1974401E-002  0.9118800E+02  0.7818608E-02  0.1130116E+00
         25   -1    0    0    0    0  0.00000000000E+00  0.00000000000E+00  0.99999998245E-14  0.12500000000E+03  0.12500000000E+03 0.  0.
        -11    1    1    0    0    0 -0.10541064135E+02 -0.37578731330E+01  0.25805167867E+01  0.11484542252E+02  0.51100000000E-03 0. -1.
         11    1    1    0    0    0 -0.46840456544E+02 -0.16734121822E+02  0.11336638497E+02  0.51015473878E+02  0.51100000000E-03 0.  1.
         22    1    1    0    0    0  0.57381520679E+02  0.20491994955E+02 -0.13917155283E+02  0.62499983870E+02  0.00000000000E+00 0.  1.
</event>
<event>
 4    1  0.1974401E-002  0.9118800E+02  0.7818608E-02  0.1130116E+00
         25   -1    0    0    0    0  0.00000000000E+00  0.00000000000E+00  0.99999998245E-14  0.12500000000E+03  0.12500000000E+03 0.  0.
        -11    1    1    0    0    0 -0.47271979447E+01  0.27554453468E+01 -0.91862870028E+01  0.10692368710E+02  0.51100000000E-03 0. -1.
         11    1    1    0    0    0 -0.22868465494E+02  0.13346528911E+02 -0.44530150011E+02  0.51807632722E+02  0.51100000000E-03 0.  1.
         22    1    1    0    0    0  0.27595663439E+02 -0.16101974258E+02  0.53716437013E+02  0.62499998568E+02  0.00000000000E+00 0.  1.
</event>
<event>
 4    1  0.1974401E-002  0.9118800E+02  0.7818608E-02  0.1130116E+00
         25   -1    0    0    0    0  0.00000000000E+00  0.00000000000E+00  0.99999998245E-14  0.12500000000E+03  0.12500000000E+03 0.  0.
        -11    1    1    0    0    0 -0.76915688589E+01  0.96157769767E+01 -0.22139916164E+02  0.25333757842E+02  0.51100000000E-03 0.  1.
         11    1    1    0    0    0 -0.11287568265E+02  0.14111332375E+02 -0.32477540946E+02  0.37166242275E+02  0.51100000000E-03 0. -1.
         22    1    1    0    0    0  0.18979137124E+02 -0.23727109352E+02  0.54617457110E+02  0.62499999883E+02  0.00000000000E+00 0. -1.
</event>
<event>
 4    1  0.1974401E-002  0.9118800E+02  0.7818608E-02  0.1130116E+00
         25   -1    0    0    0    0  0.00000000000E+00  0.00000000000E+00  0.99999998245E-14  0.12500000000E+03  0.12500000000E+03 0.  0.
        -11    1    1    0    0    0 -0.52674492498E+01 -0.14384428345E+02 -0.29762380352E+02  0.33473229377E+02  0.51100000000E-03 0.  1.
         11    1    1    0    0    0  0.85628455066E+01 -0.21743097704E+02 -0.19439294403E+02  0.30396887803E+02  0.51100000000E-03 0. -1.
         22    1    1    0    0    0 -0.32953962568E+01  0.36127526049E+02  0.49201674755E+02  0.61129882821E+02  0.00000000000E+00 0.  1.
</event>
<event>
 4    1  0.1974401E-002  0.9118800E+02  0.7818608E-02  0.1130116E+00
         25   -1    0    0    0    0  0.00000000000E+00  0.00000000000E+00  0.99999998245E-14  0.12500000000E+03  0.12500000000E+03 0.  0.
        -11    1    1    0    0    0  0.44358813675E+00  0.26568074200E+01 -0.51543770676E+01  0.58157544066E+01  0.51100000000E-03 0.  1.
         11    1    1    0    0    0  0.21063958122E+00  0.22216051493E+02 -0.52164124875E+02  0.56698264851E+02  0.51100000000E-03 0. -1.
         22    1    1    0    0    0 -0.65422771797E+00 -0.24872858913E+02  0.57318501942E+02  0.62485980742E+02  0.00000000000E+00 0. -1.
</event>
<event>
 4    1  0.1974401E-002  0.9118800E+02  0.7818608E-02  0.1130116E+00
         25   -1    0    0    0    0  0.00000000000E+00  0.00000000000E+00  0.99999998245E-14  0.12500000000E+03  0.12500000000E+03 0.  0.
        -11    1    1    0    0    0 -0.95739396418E+01  0.35367567932E+01  0.18533209958E+02  0.21157713499E+02  0.51100000000E-03 0. -1.
         11    1    1    0    0    0 -0.18702166603E+02  0.69189642970E+01  0.36215211817E+02  0.41342286703E+02  0.51100000000E-03 0.  1.
         22    1    1    0    0    0  0.28276106245E+02 -0.10455721090E+02 -0.54748421775E+02  0.62499999798E+02  0.00000000000E+00 0. -1.
</event>
<event>
 4    1  0.1974401E-002  0.9118800E+02  0.7818608E-02  0.1130116E+00
         25   -1    0    0    0    0  0.00000000000E+00  0.00000000000E+00  0.99999998245E-14  0.12500000000E+03  0.12500000000E+03 0.  0.
        -11    1    1    0    0    0  0.14800581949E+02  0.48328579902E+01  0.12675341579E+02  0.20076803201E+02  0.51100000000E-03 0.  1.
         11    1    1    0    0    0  0.31185333244E+02  0.10254247707E+02  0.26871096162E+02  0.42423229660E+02  0.51100000000E-03 0. -1.
         22    1    1    0    0    0 -0.45985915192E+02 -0.15087105697E+02 -0.39546437741E+02  0.62499967139E+02  0.00000000000E+00 0. -1.
</event>
<event>
 4    1  0.1974401E-002  0.9118800E+02  0.7818608E-02  0.1130116E+00
         25   -1    0    0    0    0  0.00000000000E+00  0.00000000000E+00  0.99999998245E-14  0.12500000000E+03  0.12500000000E+03 0.  0.
        -11    1    1    0    0    0 -0.43356607398E+01 -0.95969940607E+00  0.11994865430E+01  0.45997549096E+01  0.51100000000E-03 0.  1.
         11    1    1    0    0    0 -0.54549904969E+02 -0.12171042806E+02  0.15119930944E+02  0.57900248075E+02  0.51100000000E-03 0. -1.
         22    1    1    0    0    0  0.58885565709E+02  0.13130742212E+02 -0.16319417487E+02  0.62499997016E+02  0.00000000000E+00 0. -1.
</event>
<event>
 4    1  0.1974401E-002  0.9118800E+02  0.7818608E-02  0.1130116E+00
         25   -1    0    0    0    0  0.00000000000E+00  0.00000000000E+00  0.99999998245E-14  0.12500000000E+03  0.12500000000E+03 0.  0.
        -11    1    1    0    0    0 -0.16925269442E+02 -0.29792703904E+02  0.15725032686E+02  0.37700750720E+02  0.51100000000E-03 0.  1.
         11    1    1    0    0    0 -0.10802530442E+02 -0.19794127642E+02  0.10322084411E+02  0.24800152820E+02  0.51100000000E-03 0. -1.
         22    1    1    0    0    0  0.27727799884E+02  0.49586831546E+02 -0.26047117097E+02  0.62499096460E+02  0.00000000000E+00 0. -1.
</event>
<event>
 4    1  0.1974401E-002  0.9118800E+02  0.7818608E-02  0.1130116E+00
         25   -1    0    0    0    0  0.00000000000E+00  0.00000000000E+00  0.99999998245E-14  0.12500000000E+03  0.12500000000E+03 0.  0.
        -11    1    1    0    0    0 -0.10423254480E+02 -0.25539780157E+02  0.46622764447E+02  0.54172010941E+02  0.51100000000E-03 0. -1.
         11    1    1    0    0    0 -0.62593972764E+01  0.11924599176E+02  0.54115010292E+01  0.14514147010E+02  0.51100000000E-03 0.  1.
         22    1    1    0    0    0  0.16682651757E+02  0.13615180981E+02 -0.52034265476E+02  0.56313842050E+02  0.00000000000E+00 0. -1.
</event>
<event>
 4    1  0.1974401E-002  0.9118800E+02  0.7818608E-02  0.1130116E+00
         25   -1    0    0    0    0  0.00000000000E+00  0.00000000000E+00  0.99999998245E-14  0.12500000000E+03  0.12500000000E+03 0.  0.
        -11    1    1    0    0    0  0.93911764925E+01  0.98573097809E+01  0.65481484067E+01  0.15107580873E+02  0.51100000000E-03 0.  1.
         11    1    1    0    0    0  0.29456387004E+02  0.30935397379E+02  0.20527150115E+02  0.47392419630E+02  0.51100000000E-03 0. -1.
         22    1    1    0    0    0 -0.38847563497E+02 -0.40792707159E+02 -0.27075298521E+02  0.62499999496E+02  0.00000000000E+00 0. -1.
</event>
<event>
 4    1  0.1974401E-002  0.9118800E+02  0.7818608E-02  0.1130116E+00
         25   -1    0    0    0    0  0.00000000000E+00  0.00000000000E+00  0.99999998245E-14  0.12500000000E+03  0.12500000000E+03 0.  0.
        -11    1    1    0    0    0 -0.43186496315E+02  0.96016531398E+00 -0.20703313812E+02  0.47902218993E+02  0.51100000000E-03 0.  1.
         11    1    1    0    0    0 -0.13166132227E+02  0.28549415149E+00 -0.62981538964E+01  0.14597783650E+02  0.51100000000E-03 0. -1.
         22    1    1    0    0    0  0.56352628542E+02 -0.12456594655E+01  0.27001467709E+02  0.62499997356E+02  0.00000000000E+00 0.  1.
</event>
<event>
 4    1  0.1974401E-002  0.9118800E+02  0.7818608E-02  0.1130116E+00
         25   -1    0    0    0    0  0.00000000000E+00  0.00000000000E+00  0.99999998245E-14  0.12500000000E+03  0.12500000000E+03 0.  0.
        -11    1    1    0    0    0  0.12730948810E+02 -0.56005990204E+01  0.48317293293E+01  0.14723769068E+02  0.51100000000E-03 0.  1.
         11    1    1    0    0    0  0.42420200089E+02 -0.17638112337E+02  0.13150046218E+02  0.47785982235E+02  0.51100000000E-03 0. -1.
         22    1    1    0    0    0 -0.55151148899E+02  0.23238711358E+02 -0.17981775547E+02  0.62490248697E+02  0.00000000000E+00 0. -1.
</event>
<event>
 4    1  0.1974401E-002  0.9118800E+02  0.7818608E-02  0.1130116E+00
         25   -1    0    0    0    0  0.00000000000E+00  0.00000000000E+00  0.99999998245E-14  0.12500000000E+03  0.12500000000E+03 0.  0.
        -11    1    1    0    0    0  0.41203013668E+02 -0.37274056246E+01 -0.20668099619E+02  0.46246645609E+02  0.51100000000E-03 0. -1.
         11    1    1    0    0    0  0.14554908980E+02 -0.13587879052E+01 -0.71057723967E+01  0.16253728237E+02  0.51100000000E-03 0.  1.
         22    1    1    0    0    0 -0.55757922648E+02  0.50861935298E+01  0.27773872015E+02  0.62499626154E+02  0.00000000000E+00 0. -1.
</event>
<event>
 4    1  0.1974401E-002  0.9118800E+02  0.7818608E-02  0.1130116E+00
         25   -1    0    0    0    0  0.00000000000E+00  0.00000000000E+00  0.99999998245E-14  0.12500000000E+03  0.12500000000E+03 0.  0.
        -11    1    1    0    0    0 -0.72630450727E+01  0.77786551192E+01  0.41465422441E+01  0.11421607244E+02  0.51100000000E-03 0.  1.
         11    1    1    0    0    0 -0.32542104434E+02  0.34654582214E+02  0.18683610615E+02  0.51078429257E+02  0.51100000000E-03 0. -1.
         22    1    1    0    0    0  0.39805149506E+02 -0.42433237334E+02 -0.22830152859E+02  0.62499963499E+02  0.00000000000E+00 0. -1.
</event>
<event>
 4    1  0.1974401E-002  0.9118800E+02  0.7818608E-02  0.1130116E+00
         25   -1    0    0    0    0  0.00000000000E+00  0.00000000000E+00  0.99999998245E-14  0.12500000000E+03  0.12500000000E+03 0.  0.
        -11    1    1    0    0    0  0.92065136117E+01  0.96671427636E+01 -0.98025134295E+01  0.16562089599E+02  0.51100000000E-03 0.  1.
         11    1    1    0    0    0  0.29285206269E+02  0.27384910148E+02 -0.22528234765E+02  0.45989976863E+02  0.51100000000E-03 0. -1.
         22    1    1    0    0    0 -0.38491719881E+02 -0.37052052912E+02  0.32330748194E+02  0.62447933538E+02  0.00000000000E+00 0. -1.
</event>
<event>
 4    1  0.1974401E-002  0.9118800E+02  0.7818608E-02  0.1130116E+00
         25   -1    0    0    0    0  0.00000000000E+00  0.00000000000E+00  0.99999998245E-14  0.12500000000E+03  0.12500000000E+03 0.  0.
        -11    1    1    0    0    0 -0.12871748096E+02  0.15755252919E+02 -0.38665408487E+02  0.43691231470E+02  0.51100000000E-03 0. -1.
         11    1    1    0    0    0  0.35152364501E+01  0.17436247692E+02 -0.10948996915E+02  0.20886841662E+02  0.51100000000E-03 0.  1.
         22    1    1    0    0    0  0.93565116456E+01 -0.33191500612E+02  0.49614405403E+02  0.60421926868E+02  0.00000000000E+00 0. -1.
</event>
<event>
 4    1  0.1974401E-002  0.9118800E+02  0.7818608E-02  0.1130116E+00
         25   -1    0    0    0    0  0.00000000000E+00  0.00000000000E+00  0.99999998245E-14  0.12500000000E+03  0.12500000000E+03 0.  0.
        -11    1    1    0    0    0  0.34872337336E+02  0.42956904347E+02  0.24577362652E+02  0.60542731170E+02  0.51100000000E-03 0. -1.
         11    1    1    0    0    0  0.11190240708E+01  0.13801701452E+01  0.82111368533E+00  0.19573738647E+01  0.51100000000E-03 0.  1.
         22    1    1    0    0    0 -0.35991361407E+02 -0.44337074492E+02 -0.25398476337E+02  0.62499894965E+02  0.00000000000E+00 0. -1.
</event>
<event>
 4    1  0.1974401E-002  0.9118800E+02  0.7818608E-02  0.1130116E+00
         25   -1    0    0    0    0  0.00000000000E+00  0.00000000000E+00  0.99999998245E-14  0.12500000000E+03  0.12500000000E+03 0.  0.
        -11    1    1    0    0    0 -0.20468969563E+01  0.56599553491E+02 -0.23871758805E+02  0.61461858996E+02  0.51100000000E-03 0.  1.
         11    1    1    0    0    0 -0.35337858435E-01  0.95623239102E+00 -0.40262631179E+00  0.10381412996E+01  0.51100000000E-03 0. -1.
         22    1    1    0    0    0  0.20822348147E+01 -0.57555785882E+02  0.24274385116E+02  0.62499999705E+02  0.00000000000E+00 0.  1.
</event>
<event>
 4    1  0.1974401E-002  0.9118800E+02  0.7818608E-02  0.1130116E+00
         25   -1    0    0    0    0  0.00000000000E+00  0.00000000000E+00  0.99999998245E-14  0.12500000000E+03  0.12500000000E+03 0.  0.
        -11    1    1    0    0    0  0.42458647610E+01 -0.35954353573E+01 -0.18618644898E+01  0.58669466179E+01  0.51100000000E-03 0.  1.
         11    1    1    0    0    0  0.60422626981E+01 -0.52740493784E+02 -0.21512610379E+02  0.57278800867E+02  0.51100000000E-03 0. -1.
         22    1    1    0    0    0 -0.10288127459E+02  0.56335929142E+02  0.23374474869E+02  0.61854252516E+02  0.00000000000E+00 0. -1.
</event>
<event>
 4    1  0.1974401E-002  0.9118800E+02  0.7818608E-02  0.1130116E+00
         25   -1    0    0    0    0  0.00000000000E+00  0.00000000000E+00  0.99999998245E-14  0.12500000000E+03  0.12500000000E+03 0.  0.
        -11    1    1    0    0    0 -0.10556415058E+02 -0.23010459053E+02  0.39222079431E+02  0.46682873089E+02  0.51100000000E-03 0.  1.
         11    1    1    0    0    0 -0.28182929670E+01 -0.82334378359E+01  0.13218823205E+02  0.15826230159E+02  0.51100000000E-03 0. -1.
         22    1    1    0    0    0  0.13374708026E+02  0.31243896889E+02 -0.52440902636E+02  0.62490896752E+02  0.00000000000E+00 0.  1.
</event>
<event>
 4    1  0.1974401E-002  0.9118800E+02  0.7818608E-02  0.1130116E+00
         25   -1    0    0    0    0  0.00000000000E+00  0.00000000000E+00  0.99999998245E-14  0.12500000000E+03  0.12500000000E+03 0.  0.
        -11    1    1    0    0    0  0.66368373069E+01  0.32608002327E+02 -0.29293557040E+02  0.44333304744E+02  0.51100000000E-03 0. -1.
         11    1    1    0    0    0  0.27182471002E+01  0.13361877218E+02 -0.12004173737E+02  0.18166695281E+02  0.51100000000E-03 0.  1.
         22    1    1    0    0    0 -0.93550844071E+01 -0.45969879545E+02  0.41297730776E+02  0.62499999975E+02  0.00000000000E+00 0. -1.
</event>
<event>
 4    1  0.1974401E-002  0.9118800E+02  0.7818608E-02  0.1130116E+00
         25   -1    0    0    0    0  0.00000000000E+00  0.00000000000E+00  0.99999998245E-14  0.12500000000E+03  0.12500000000E+03 0.  0.
        -11    1    1    0    0    0 -0.34813846619E+02 -0.79972691713E+01 -0.43833537110E+02  0.56545019290E+02  0.51100000000E-03 0. -1.
         11    1    1    0    0    0 -0.38221437247E+01 -0.39942288683E+00 -0.45601108496E+01  0.59634664849E+01  0.51100000000E-03 0.  1.
         22    1    1    0    0    0  0.38635990344E+02  0.83966920581E+01  0.48393647960E+02  0.62491514226E+02  0.00000000000E+00 0. -1.
</event>
<event>
 4    1  0.1974401E-002  0.9118800E+02  0.7818608E-02  0.1130116E+00
         25   -1    0    0    0    0  0.00000000000E+00  0.00000000000E+00  0.99999998245E-14  0.12500000000E+03  0.12500000000E+03 0.  0.
        -11    1    1    0    0    0 -0.27760005632E+00  0.10094730283E+02 -0.47063954289E+00  0.10109507561E+02  0.51100000000E-03 0.  1.
         11    1    1    0    0    0 -0.21107075247E+01  0.52296611011E+02 -0.23260863646E+01  0.52390851181E+02  0.51100000000E-03 0. -1.
         22    1    1    0    0    0  0.23883075810E+01 -0.62391341294E+02  0.27967259074E+01  0.62499641258E+02  0.00000000000E+00 0. -1.
</event>
<event>
 4    1  0.1974401E-002  0.9118800E+02  0.7818608E-02  0.1130116E+00
         25   -1    0    0    0    0  0.00000000000E+00  0.00000000000E+00  0.99999998245E-14  0.12500000000E+03  0.12500000000E+03 0.  0.
        -11    1    1    0    0    0  0.41564501182E+02  0.57346958243E+01  0.20933140368E+02  0.46890200049E+02  0.51100000000E-03 0. -1.
         11    1    1    0    0    0  0.13836542603E+02  0.19119891977E+01  0.69685180446E+01  0.15609800059E+02  0.51100000000E-03 0.  1.
         22    1    1    0    0    0 -0.55401043785E+02 -0.76466850220E+01 -0.27901658413E+02  0.62499999892E+02  0.00000000000E+00 0. -1.
</event>
<event>
 4    1  0.1974401E-002  0.9118800E+02  0.7818608E-02  0.1130116E+00
         25   -1    0    0    0    0  0.00000000000E+00  0.00000000000E+00  0.99999998245E-14  0.12500000000E+03  0.12500000000E+03 0.  0.
        -11    1    1    0    0    0 -0.92745286762E+01  0.88083636547E+01 -0.19965170558E+02  0.23711014068E+02  0.51100000000E-03 0.  1.
         11    1    1    0    0    0 -0.14870825292E+02  0.14470097146E+02 -0.32773168634E+02  0.38789247722E+02  0.51100000000E-03 0. -1.
         22    1    1    0    0    0  0.24145353968E+02 -0.23278460801E+02  0.52738339193E+02  0.62499738210E+02  0.00000000000E+00 0.  1.
</event>
<event>
 4    1  0.1974401E-002  0.9118800E+02  0.7818608E-02  0.1130116E+00
         25   -1    0    0    0    0  0.00000000000E+00  0.00000000000E+00  0.99999998245E-14  0.12500000000E+03  0.12500000000E+03 0.  0.
        -11    1    1    0    0    0  0.56942739077E-01  0.25394452637E+01 -0.29727423279E+00  0.25574199799E+01  0.51100000000E-03 0. -1.
         11    1    1    0    0    0  0.17463551815E+01  0.59507778811E+02 -0.69922021274E+01  0.59942609105E+02  0.51100000000E-03 0.  1.
         22    1    1    0    0    0 -0.18032979206E+01 -0.62047224075E+02  0.72894763602E+01  0.62499970915E+02  0.00000000000E+00 0.  1.
</event>
<event>
 4    1  0.1974401E-002  0.9118800E+02  0.7818608E-02  0.1130116E+00
         25   -1    0    0    0    0  0.00000000000E+00  0.00000000000E+00  0.99999998245E-14  0.12500000000E+03  0.12500000000E+03 0.  0.
        -11    1    1    0    0    0  0.24545682313E+02  0.33030990837E+02  0.34803974992E+01  0.41299516255E+02  0.51100000000E-03 0. -1.
         11    1    1    0    0    0  0.18391830879E+02 -0.21960108563E+02 -0.21522053751E+02  0.35828823719E+02  0.51100000000E-03 0.  1.
         22    1    1    0    0    0 -0.42937513191E+02 -0.11070882274E+02  0.18041656252E+02  0.47871660026E+02  0.00000000000E+00 0. -1.
</event>
<event>
 4    1  0.1974401E-002  0.9118800E+02  0.7818608E-02  0.1130116E+00
         25   -1    0    0    0    0  0.00000000000E+00  0.00000000000E+00  0.99999998245E-14  0.12500000000E+03  0.12500000000E+03 0.  0.
        -11    1    1    0    0    0 -0.97690173088E+01 -0.10263949381E+02  0.95744055338E+01  0.17101216262E+02  0.51100000000E-03 0. -1.
         11    1    1    0    0    0 -0.25915732555E+02 -0.27252089610E+02  0.25431241762E+02  0.45398784562E+02  0.51100000000E-03 0.  1.
         22    1    1    0    0    0  0.35684749863E+02  0.37516038990E+02 -0.35005647295E+02  0.62499999175E+02  0.00000000000E+00 0.  1.
</event>
<event>
 4    1  0.1974401E-002  0.9118800E+02  0.7818608E-02  0.1130116E+00
         25   -1    0    0    0    0  0.00000000000E+00  0.00000000000E+00  0.99999998245E-14  0.12500000000E+03  0.12500000000E+03 0.  0.
        -11    1    1    0    0    0 -0.24977316810E+02 -0.37934608219E+02  0.45904941859E+01  0.45650558517E+02  0.51100000000E-03 0.  1.
         11    1    1    0    0    0 -0.52548550402E+01 -0.15744425674E+02  0.41925196656E+01  0.17119511170E+02  0.51100000000E-03 0. -1.
         22    1    1    0    0    0  0.30232171850E+02  0.53679033893E+02 -0.87830138515E+01  0.62229930313E+02  0.00000000000E+00 0.  1.
</event>
<event>
 4    1  0.1974401E-002  0.9118800E+02  0.7818608E-02  0.1130116E+00
         25   -1    0    0    0    0  0.00000000000E+00  0.00000000000E+00  0.99999998245E-14  0.12500000000E+03  0.12500000000E+03 0.  0.
        -11    1    1    0    0    0 -0.79976627563E+01 -0.17918840656E+01  0.52024324214E+02  0.52665964040E+02  0.51100000000E-03 0.  1.
         11    1    1    0    0    0 -0.21221521826E+01  0.23762154852E+01  0.94794664791E+01  0.10000510732E+02  0.51100000000E-03 0. -1.
         22    1    1    0    0    0  0.10119814939E+02 -0.58433141958E+00 -0.61503790693E+02  0.62333525227E+02  0.00000000000E+00 0.  1.
</event>
<event>
 4    1  0.1974401E-002  0.9118800E+02  0.7818608E-02  0.1130116E+00
         25   -1    0    0    0    0  0.00000000000E+00  0.00000000000E+00  0.99999998245E-14  0.12500000000E+03  0.12500000000E+03 0.  0.
        -11    1    1    0    0    0  0.18365605443E+02  0.34640230459E+02  0.24062964174E+02  0.46002905067E+02  0.51100000000E-03 0.  1.
         11    1    1    0    0    0  0.92077212582E+01  0.13956690848E+02  0.28787859282E+01  0.16966400882E+02  0.51100000000E-03 0. -1.
         22    1    1    0    0    0 -0.27573326702E+02 -0.48596921306E+02 -0.26941750103E+02  0.62030694051E+02  0.00000000000E+00 0.  1.
</event>
<event>
 4    1  0.1974401E-002  0.9118800E+02  0.7818608E-02  0.1130116E+00
         25   -1    0    0    0    0  0.00000000000E+00  0.00000000000E+00  0.99999998245E-14  0.12500000000E+03  0.12500000000E+03 0.  0.
        -11    1    1    0    0    0  0.71163219550E+01 -0.40224255016E+02  0.22494286279E+02  0.46632881588E+02  0.51100000000E-03 0. -1.
         11    1    1    0    0    0  0.66942041352E+01 -0.15374853205E+02  0.13907220407E+00  0.16769550424E+02  0.51100000000E-03 0.  1.
         22    1    1    0    0    0 -0.13810526090E+02  0.55599108221E+02 -0.22633358483E+02  0.61597567988E+02  0.00000000000E+00 0. -1.
</event>
<event>
 4    1  0.1974401E-002  0.9118800E+02  0.7818608E-02  0.1130116E+00
         25   -1    0    0    0    0  0.00000000000E+00  0.00000000000E+00  0.99999998245E-14  0.12500000000E+03  0.12500000000E+03 0.  0.
        -11    1    1    0    0    0  0.22661603135E+02 -0.12043162672E+02  0.13716874871E+01  0.25699563237E+02  0.51100000000E-03 0. -1.
         11    1    1    0    0    0  0.32448257278E+02 -0.17249267802E+02  0.19609977592E+01  0.36800436853E+02  0.51100000000E-03 0.  1.
         22    1    1    0    0    0 -0.55109860413E+02  0.29292430473E+02 -0.33326852463E+01  0.62499999910E+02  0.00000000000E+00 0.  1.
</event>
<event>
 4    1  0.1974401E-002  0.9118800E+02  0.7818608E-02  0.1130116E+00
         25   -1    0    0    0    0  0.00000000000E+00  0.00000000000E+00  0.99999998245E-14  0.12500000000E+03  0.12500000000E+03 0.  0.
        -11    1    1    0    0    0  0.76239316527E+01  0.58653333587E+02 -0.11414027267E+02  0.60238010371E+02  0.51100000000E-03 0.  1.
         11    1    1    0    0    0  0.28686014820E+00  0.22024293129E+01 -0.42850145816E+00  0.22619896958E+01  0.51100000000E-03 0. -1.
         22    1    1    0    0    0 -0.79107918009E+01 -0.60855762900E+02  0.11842528725E+02  0.62499999933E+02  0.00000000000E+00 0.  1.
</event>
<event>
 4    1  0.1974401E-002  0.9118800E+02  0.7818608E-02  0.1130116E+00
         25   -1    0    0    0    0  0.00000000000E+00  0.00000000000E+00  0.99999998245E-14  0.12500000000E+03  0.12500000000E+03 0.  0.
        -11    1    1    0    0    0  0.18864400435E+02  0.43025687045E+02 -0.38775141334E+02  0.60914587212E+02  0.51100000000E-03 0. -1.
         11    1    1    0    0    0  0.49853171661E+00  0.10838766416E+01 -0.10447413257E+01  0.15858143477E+01  0.51100000000E-03 0.  1.
         22    1    1    0    0    0 -0.19362932151E+02 -0.44109563687E+02  0.39819882660E+02  0.62499598440E+02  0.00000000000E+00 0. -1.
</event>
<event>
 4    1  0.1974401E-002  0.9118800E+02  0.7818608E-02  0.1130116E+00
         25   -1    0    0    0    0  0.00000000000E+00  0.00000000000E+00  0.99999998245E-14  0.12500000000E+03  0.12500000000E+03 0.  0.
        -11    1    1    0    0    0 -0.14750137020E+01  0.96840267229E+00 -0.15532004957E+02  0.15631911188E+02  0.51100000000E-03 0. -1.
         11    1    1    0    0    0  0.26688034869E+01  0.13764437042E+02 -0.44960475106E+02  0.47095929348E+02  0.51100000000E-03 0.  1.
         22    1    1    0    0    0 -0.11937897849E+01 -0.14732839714E+02  0.60492480063E+02  0.62272159464E+02  0.00000000000E+00 0.  1.
</event>
<event>
 4    1  0.1974401E-002  0.9118800E+02  0.7818608E-02  0.1130116E+00
         25   -1    0    0    0    0  0.00000000000E+00  0.00000000000E+00  0.99999998245E-14  0.12500000000E+03  0.12500000000E+03 0.  0.
        -11    1    1    0    0    0 -0.15121688587E+01  0.12269851914E+01 -0.33114545984E+00  0.19752986847E+01  0.51100000000E-03 0.  1.
         11    1    1    0    0    0 -0.46308698529E+02  0.37621862537E+02 -0.10165598830E+02  0.60524701569E+02  0.51100000000E-03 0. -1.
         22    1    1    0    0    0  0.47820867388E+02 -0.38848847728E+02  0.10496744290E+02  0.62499999746E+02  0.00000000000E+00 0. -1.
</event>
<event>
 4    1  0.1974401E-002  0.9118800E+02  0.7818608E-02  0.1130116E+00
         25   -1    0    0    0    0  0.00000000000E+00  0.00000000000E+00  0.99999998245E-14  0.12500000000E+03  0.12500000000E+03 0.  0.
        -11    1    1    0    0    0 -0.42441092701E+02  0.29375694755E+02  0.14773247946E+02  0.53688235650E+02  0.51100000000E-03 0.  1.
         11    1    1    0    0    0 -0.65233372578E+01  0.48259281986E+01  0.35221792118E+01  0.88458611010E+01  0.51100000000E-03 0. -1.
         22    1    1    0    0    0  0.48964429959E+02 -0.34201622954E+02 -0.18295427158E+02  0.62465903249E+02  0.00000000000E+00 0.  1.
</event>
<event>
 4    1  0.1974401E-002  0.9118800E+02  0.7818608E-02  0.1130116E+00
         25   -1    0    0    0    0  0.00000000000E+00  0.00000000000E+00  0.99999998245E-14  0.12500000000E+03  0.12500000000E+03 0.  0.
        -11    1    1    0    0    0 -0.13182965955E+01  0.18559293729E+01  0.17024280771E+01  0.28426468950E+01  0.51100000000E-03 0. -1.
         11    1    1    0    0    0 -0.27740867049E+02  0.38904163858E+02  0.35719886424E+02  0.59657354589E+02  0.51100000000E-03 0.  1.
         22    1    1    0    0    0  0.29059163644E+02 -0.40760093231E+02 -0.37422314501E+02  0.62499998516E+02  0.00000000000E+00 0.  1.
</event>
<event>
 4    1  0.1974401E-002  0.9118800E+02  0.7818608E-02  0.1130116E+00
         25   -1    0    0    0    0  0.00000000000E+00  0.00000000000E+00  0.99999998245E-14  0.12500000000E+03  0.12500000000E+03 0.  0.
        -11    1    1    0    0    0  0.89105892199E+00  0.12239584502E+01 -0.24716691419E+01  0.28984838966E+01  0.51100000000E-03 0.  1.
         11    1    1    0    0    0  0.18203541322E+02  0.24961245645E+02 -0.50969695244E+02  0.59601531308E+02  0.51100000000E-03 0. -1.
         22    1    1    0    0    0 -0.19094600244E+02 -0.26185204096E+02  0.53441364386E+02  0.62499984795E+02  0.00000000000E+00 0. -1.
</event>
<event>
 4    1  0.1974401E-002  0.9118800E+02  0.7818608E-02  0.1130116E+00
         25   -1    0    0    0    0  0.00000000000E+00  0.00000000000E+00  0.99999998245E-14  0.12500000000E+03  0.12500000000E+03 0.  0.
        -11    1    1    0    0    0 -0.14939357500E+01  0.70646434394E+00 -0.19961433989E+00  0.16645666223E+01  0.51100000000E-03 0. -1.
         11    1    1    0    0    0 -0.54516269803E+02  0.23222550405E+02 -0.13794631367E+02  0.60840795321E+02  0.51100000000E-03 0.  1.
         22    1    1    0    0    0  0.56010205553E+02 -0.23929014749E+02  0.13994245707E+02  0.62494638056E+02  0.00000000000E+00 0.  1.
</event>
<event>
 4    1  0.1974401E-002  0.9118800E+02  0.7818608E-02  0.1130116E+00
         25   -1    0    0    0    0  0.00000000000E+00  0.00000000000E+00  0.99999998245E-14  0.12500000000E+03  0.12500000000E+03 0.  0.
        -11    1    1    0    0    0  0.73772819889E+01 -0.95389789802E+01 -0.16838673215E+02  0.20711284978E+02  0.51100000000E-03 0. -1.
         11    1    1    0    0    0  0.14961064776E+02 -0.19007261298E+02 -0.34076376182E+02  0.41788860420E+02  0.51100000000E-03 0.  1.
         22    1    1    0    0    0 -0.22338346765E+02  0.28546240278E+02  0.50915049397E+02  0.62499854602E+02  0.00000000000E+00 0.  1.
</event>
<event>
 4    1  0.1974401E-002  0.9118800E+02  0.7818608E-02  0.1130116E+00
         25   -1    0    0    0    0  0.00000000000E+00  0.00000000000E+00  0.99999998245E-14  0.12500000000E+03  0.12500000000E+03 0.  0.
        -11    1    1    0    0    0 -0.58574128455E+01 -0.11605061106E+01  0.87216787736E+00  0.60346281362E+01  0.51100000000E-03 0.  1.
         11    1    1    0    0    0 -0.52438968171E+02 -0.15841894239E+02  0.13803426507E+02  0.56491995712E+02  0.51100000000E-03 0. -1.
         22    1    1    0    0    0  0.58296381017E+02  0.17002400350E+02 -0.14675594384E+02  0.62473376152E+02  0.00000000000E+00 0. -1.
</event>
<event>
 4    1  0.1974401E-002  0.9118800E+02  0.7818608E-02  0.1130116E+00
         25   -1    0    0    0    0  0.00000000000E+00  0.00000000000E+00  0.99999998245E-14  0.12500000000E+03  0.12500000000E+03 0.  0.
        -11    1    1    0    0    0 -0.43292301075E+02 -0.55382471053E+00  0.30908197069E+02  0.53196303448E+02  0.51100000000E-03 0. -1.
         11    1    1    0    0    0 -0.80441822170E+01  0.93388940707E+01 -0.28781754843E+01  0.12657318215E+02  0.51100000000E-03 0.  1.
         22    1    1    0    0    0  0.51336483292E+02 -0.87850693602E+01 -0.28030021584E+02  0.59146378338E+02  0.00000000000E+00 0. -1.
</event>
<event>
 4    1  0.1974401E-002  0.9118800E+02  0.7818608E-02  0.1130116E+00
         25   -1    0    0    0    0  0.00000000000E+00  0.00000000000E+00  0.99999998245E-14  0.12500000000E+03  0.12500000000E+03 0.  0.
        -11    1    1    0    0    0  0.39467579822E+02  0.14663381245E+02  0.16514330323E+01  0.42135873527E+02  0.51100000000E-03 0. -1.
         11    1    1    0    0    0  0.18911985348E+02  0.75278806162E+01  0.66761901861E+00  0.20366096626E+02  0.51100000000E-03 0.  1.
         22    1    1    0    0    0 -0.58379565170E+02 -0.22191261861E+02 -0.23190520510E+01  0.62498029847E+02  0.00000000000E+00 0. -1.
</event>
<event>
 4    1  0.1974401E-002  0.9118800E+02  0.7818608E-02  0.1130116E+00
         25   -1    0    0    0    0  0.00000000000E+00  0.00000000000E+00  0.99999998245E-14  0.12500000000E+03  0.12500000000E+03 0.  0.
        -11    1    1    0    0    0  0.71478921664E+01 -0.36307140806E+02 -0.22552603585E+02  0.43334983150E+02  0.51100000000E-03 0. -1.
         11    1    1    0    0    0 -0.32288809863E+01 -0.18265106025E+02 -0.65783811073E+01  0.19680316786E+02  0.51100000000E-03 0.  1.
         22    1    1    0    0    0 -0.39190111801E+01  0.54572246831E+02  0.29130984692E+02  0.61984700064E+02  0.00000000000E+00 0. -1.
</event>
<event>
 4    1  0.1974401E-002  0.9118800E+02  0.7818608E-02  0.1130116E+00
         25   -1    0    0    0    0  0.00000000000E+00  0.00000000000E+00  0.99999998245E-14  0.12500000000E+03  0.12500000000E+03 0.  0.
        -11    1    1    0    0    0  0.35408917925E+02  0.22762540792E+02 -0.32316317470E+02  0.53068532173E+02  0.51100000000E-03 0.  1.
         11    1    1    0    0    0  0.63332736439E+01  0.39978479902E+01 -0.57324639032E+01  0.94315579977E+01  0.51100000000E-03 0. -1.
         22    1    1    0    0    0 -0.41742191568E+02 -0.26760388782E+02  0.38048781373E+02  0.62499909829E+02  0.00000000000E+00 0.  1.
</event>
<event>
 4    1  0.1974401E-002  0.9118800E+02  0.7818608E-02  0.1130116E+00
         25   -1    0    0    0    0  0.00000000000E+00  0.00000000000E+00  0.99999998245E-14  0.12500000000E+03  0.12500000000E+03 0.  0.
        -11    1    1    0    0    0 -0.26326937898E+02  0.46103571591E+02 -0.26735766084E+02  0.59442814207E+02  0.51100000000E-03 0.  1.
         11    1    1    0    0    0 -0.13539857802E+01  0.23716778600E+01 -0.13741368241E+01  0.30571859016E+01  0.51100000000E-03 0. -1.
         22    1    1    0    0    0  0.27680923678E+02 -0.48475249451E+02  0.28109902908E+02  0.62499999892E+02  0.00000000000E+00 0.  1.
</event>
<event>
 4    1  0.1974401E-002  0.9118800E+02  0.7818608E-02  0.1130116E+00
         25   -1    0    0    0    0  0.00000000000E+00  0.00000000000E+00  0.99999998245E-14  0.12500000000E+03  0.12500000000E+03 0.  0.
        -11    1    1    0    0    0 -0.14521448623E+02 -0.11782914635E+02  0.46861196332E+02  0.50454744765E+02  0.51100000000E-03 0. -1.
         11    1    1    0    0    0  0.45978459445E+01  0.31662226919E+02 -0.14107328254E+02  0.34966462668E+02  0.51100000000E-03 0.  1.
         22    1    1    0    0    0  0.99236026784E+01 -0.19879312283E+02 -0.32753868078E+02  0.39578792567E+02  0.00000000000E+00 0. -1.
</event>
<event>
 4    1  0.1974401E-002  0.9118800E+02  0.7818608E-02  0.1130116E+00
         25   -1    0    0    0    0  0.00000000000E+00  0.00000000000E+00  0.99999998245E-14  0.12500000000E+03  0.12500000000E+03 0.  0.
        -11    1    1    0    0    0 -0.37040833184E+01  0.39956790141E+01 -0.59412424437E+01  0.80612682656E+01  0.51100000000E-03 0. -1.
         11    1    1    0    0    0 -0.25007821732E+02  0.26978335791E+02 -0.40129213441E+02  0.54438731813E+02  0.51100000000E-03 0.  1.
         22    1    1    0    0    0  0.28711905050E+02 -0.30974014805E+02  0.46070455884E+02  0.62499999921E+02  0.00000000000E+00 0.  1.
</event>
<event>
 4    1  0.1974401E-002  0.9118800E+02  0.7818608E-02  0.1130116E+00
         25   -1    0    0    0    0  0.00000000000E+00  0.00000000000E+00  0.99999998245E-14  0.12500000000E+03  0.12500000000E+03 0.  0.
        -11    1    1    0    0    0  0.69657978179E+00 -0.52608929096E+01 -0.67850345028E+01  0.86138789789E+01  0.51100000000E-03 0.  1.
         11    1    1    0    0    0  0.44100206761E+01 -0.33096669142E+02 -0.42295157819E+02  0.53886159316E+02  0.51100000000E-03 0. -1.
         22    1    1    0    0    0 -0.51066004579E+01  0.38357562051E+02  0.49080192322E+02  0.62499961705E+02  0.00000000000E+00 0. -1.
</event>
<event>
 4    1  0.1974401E-002  0.9118800E+02  0.7818608E-02  0.1130116E+00
         25   -1    0    0    0    0  0.00000000000E+00  0.00000000000E+00  0.99999998245E-14  0.12500000000E+03  0.12500000000E+03 0.  0.
        -11    1    1    0    0    0  0.11100944605E+02 -0.38959239217E+02  0.41164030019E+00  0.40512007349E+02  0.51100000000E-03 0. -1.
         11    1    1    0    0    0  0.60229658540E+01 -0.21145820157E+02  0.22359446204E+00  0.21987992690E+02  0.51100000000E-03 0.  1.
         22    1    1    0    0    0 -0.17123910459E+02  0.60105059375E+02 -0.63523476222E+00  0.62499999960E+02  0.00000000000E+00 0. -1.
</event>
<event>
 4    1  0.1974401E-002  0.9118800E+02  0.7818608E-02  0.1130116E+00
         25   -1    0    0    0    0  0.00000000000E+00  0.00000000000E+00  0.99999998245E-14  0.12500000000E+03  0.12500000000E+03 0.  0.
        -11    1    1    0    0    0 -0.42073283577E+01  0.18855579058E+02 -0.62048971169E+01  0.20291259744E+02  0.51100000000E-03 0.  1.
         11    1    1    0    0    0  0.44054958116E+01  0.40315815649E+02 -0.12852814272E+02  0.42543721273E+02  0.51100000000E-03 0. -1.
         22    1    1    0    0    0 -0.19816745383E+00 -0.59171394706E+02  0.19057711388E+02  0.62165018983E+02  0.00000000000E+00 0. -1.
</event>
<event>
 4    1  0.1974401E-002  0.9118800E+02  0.7818608E-02  0.1130116E+00
         25   -1    0    0    0    0  0.00000000000E+00  0.00000000000E+00  0.99999998245E-14  0.12500000000E+03  0.12500000000E+03 0.  0.
        -11    1    1    0    0    0  0.23749542504E+02  0.20903029002E+02 -0.27527449517E+02  0.41937308781E+02  0.51100000000E-03 0.  1.
         11    1    1    0    0    0  0.11189696615E+02  0.11199036187E+02 -0.13138191764E+02  0.20572792833E+02  0.51100000000E-03 0. -1.
         22    1    1    0    0    0 -0.34939239119E+02 -0.32102065189E+02  0.40665641281E+02  0.62489898387E+02  0.00000000000E+00 0. -1.
</event>
<event>
 4    1  0.1974401E-002  0.9118800E+02  0.7818608E-02  0.1130116E+00
         25   -1    0    0    0    0  0.00000000000E+00  0.00000000000E+00  0.99999998245E-14  0.12500000000E+03  0.12500000000E+03 0.  0.
        -11    1    1    0    0    0  0.31918401065E+02  0.18469732880E+02 -0.71659477620E+01  0.37566822687E+02  0.51100000000E-03 0. -1.
         11    1    1    0    0    0  0.21184726512E+02  0.12260215208E+02 -0.47495084411E+01  0.24933177596E+02  0.51100000000E-03 0.  1.
         22    1    1    0    0    0 -0.53103127578E+02 -0.30729948089E+02  0.11915456203E+02  0.62499999716E+02  0.00000000000E+00 0. -1.
</event>
<event>
 4    1  0.1974401E-002  0.9118800E+02  0.7818608E-02  0.1130116E+00
         25   -1    0    0    0    0  0.00000000000E+00  0.00000000000E+00  0.99999998245E-14  0.12500000000E+03  0.12500000000E+03 0.  0.
        -11    1    1    0    0    0  0.56348671371E+01 -0.67641035890E+01  0.58318438203E+01  0.10560077065E+02  0.51100000000E-03 0.  1.
         11    1    1    0    0    0  0.27732808968E+02 -0.33246874073E+02  0.28693071323E+02  0.51939923673E+02  0.51100000000E-03 0. -1.
         22    1    1    0    0    0 -0.33367676105E+02  0.40010977662E+02 -0.34524915144E+02  0.62499999262E+02  0.00000000000E+00 0. -1.
</event>
<event>
 4    1  0.1974401E-002  0.9118800E+02  0.7818608E-02  0.1130116E+00
         25   -1    0    0    0    0  0.00000000000E+00  0.00000000000E+00  0.99999998245E-14  0.12500000000E+03  0.12500000000E+03 0.  0.
        -11    1    1    0    0    0  0.10977635640E+00 -0.28957475981E+01 -0.21410980986E+01  0.36030135066E+01  0.51100000000E-03 0.  1.
         11    1    1    0    0    0  0.19409998519E+01 -0.47294332278E+02 -0.35047602032E+02  0.58896992746E+02  0.51100000000E-03 0. -1.
         22    1    1    0    0    0 -0.20507762083E+01  0.50190079876E+02  0.37188700131E+02  0.62499993747E+02  0.00000000000E+00 0. -1.
</event>
<event>
 4    1  0.1974401E-002  0.9118800E+02  0.7818608E-02  0.1130116E+00
         25   -1    0    0    0    0  0.00000000000E+00  0.00000000000E+00  0.99999998245E-14  0.12500000000E+03  0.12500000000E+03 0.  0.
        -11    1    1    0    0    0  0.30605042834E+01 -0.87792130643E+00  0.67309079074E+01  0.74459756787E+01  0.51100000000E-03 0. -1.
         11    1    1    0    0    0  0.21172367979E+02 -0.55476673596E+01  0.50518440505E+02  0.55055958899E+02  0.51100000000E-03 0.  1.
         22    1    1    0    0    0 -0.24232872263E+02  0.64255886660E+01 -0.57249348413E+02  0.62498065422E+02  0.00000000000E+00 0.  1.
</event>
<event>
 4    1  0.1974401E-002  0.9118800E+02  0.7818608E-02  0.1130116E+00
         25   -1    0    0    0    0  0.00000000000E+00  0.00000000000E+00  0.99999998245E-14  0.12500000000E+03  0.12500000000E+03 0.  0.
        -11    1    1    0    0    0  0.39413080841E+01  0.21871200950E+02 -0.20603340909E+01  0.22318788435E+02  0.51100000000E-03 0. -1.
         11    1    1    0    0    0  0.83572525730E+01  0.39341003727E+02  0.25707933525E+00  0.40219700830E+02  0.51100000000E-03 0.  1.
         22    1    1    0    0    0 -0.12298560657E+02 -0.61212204676E+02  0.18032547557E+01  0.62461510735E+02  0.00000000000E+00 0.  1.
</event>
<event>
 4    1  0.1974401E-002  0.9118800E+02  0.7818608E-02  0.1130116E+00
         25   -1    0    0    0    0  0.00000000000E+00  0.00000000000E+00  0.99999998245E-14  0.12500000000E+03  0.12500000000E+03 0.  0.
        -11    1    1    0    0    0  0.19099537526E+02 -0.87829956379E+01 -0.56472756420E+00  0.21029794663E+02  0.51100000000E-03 0.  1.
         11    1    1    0    0    0  0.37554052767E+02 -0.17560574653E+02 -0.10534019841E+01  0.41470354681E+02  0.51100000000E-03 0. -1.
         22    1    1    0    0    0 -0.56653590293E+02  0.26343570291E+02  0.16181295483E+01  0.62499850656E+02  0.00000000000E+00 0. -1.
</event>
<event>
 4    1  0.1974401E-002  0.9118800E+02  0.7818608E-02  0.1130116E+00
         25   -1    0    0    0    0  0.00000000000E+00  0.00000000000E+00  0.99999998245E-14  0.12500000000E+03  0.12500000000E+03 0.  0.
        -11    1    1    0    0    0 -0.89419328200E+01  0.26913049435E+02  0.10018325692E+02  0.30077188073E+02  0.51100000000E-03 0.  1.
         11    1    1    0    0    0 -0.94892216203E+01  0.29041862308E+02  0.10852185916E+02  0.32422909072E+02  0.51100000000E-03 0. -1.
         22    1    1    0    0    0  0.18431154440E+02 -0.55954911743E+02 -0.20870511607E+02  0.62499902855E+02  0.00000000000E+00 0.  1.
</event>
<event>
 4    1  0.1974401E-002  0.9118800E+02  0.7818608E-02  0.1130116E+00
         25   -1    0    0    0    0  0.00000000000E+00  0.00000000000E+00  0.99999998245E-14  0.12500000000E+03  0.12500000000E+03 0.  0.
        -11    1    1    0    0    0 -0.16688816757E+02  0.32863931750E+02  0.41461338816E+02  0.55476096037E+02  0.51100000000E-03 0. -1.
         11    1    1    0    0    0 -0.57919901849E+01  0.18064162850E+01  0.46226955682E+01  0.76275556159E+01  0.51100000000E-03 0.  1.
         22    1    1    0    0    0  0.22480806942E+02 -0.34670348035E+02 -0.46084034384E+02  0.61896348347E+02  0.00000000000E+00 0. -1.
</event>
<event>
 4    1  0.1974401E-002  0.9118800E+02  0.7818608E-02  0.1130116E+00
         25   -1    0    0    0    0  0.00000000000E+00  0.00000000000E+00  0.99999998245E-14  0.12500000000E+03  0.12500000000E+03 0.  0.
        -11    1    1    0    0    0 -0.18402096737E+02 -0.14574445148E+02  0.93639784915E+01  0.25273221186E+02  0.51100000000E-03 0.  1.
         11    1    1    0    0    0 -0.27889804559E+02 -0.20818361317E+02  0.13223569264E+02  0.37230473413E+02  0.51100000000E-03 0. -1.
         22    1    1    0    0    0  0.46291901296E+02  0.35392806465E+02 -0.22587547755E+02  0.62496305400E+02  0.00000000000E+00 0. -1.
</event>
<event>
 4    1  0.1974401E-002  0.9118800E+02  0.7818608E-02  0.1130116E+00
         25   -1    0    0    0    0  0.00000000000E+00  0.00000000000E+00  0.99999998245E-14  0.12500000000E+03  0.12500000000E+03 0.  0.
        -11    1    1    0    0    0  0.43152859120E+01  0.82430737841E+01 -0.81369777704E+01  0.12360435486E+02  0.51100000000E-03 0.  1.
         11    1    1    0    0    0  0.17465217454E+02  0.33424081130E+02 -0.33041991494E+02  0.50139567432E+02  0.51100000000E-03 0. -1.
         22    1    1    0    0    0 -0.21780503366E+02 -0.41667154915E+02  0.41178969264E+02  0.62499997082E+02  0.00000000000E+00 0. -1.
</event>
<event>
 4    1  0.1974401E-002  0.9118800E+02  0.7818608E-02  0.1130116E+00
         25   -1    0    0    0    0  0.00000000000E+00  0.00000000000E+00  0.99999998245E-14  0.12500000000E+03  0.12500000000E+03 0.  0.
        -11    1    1    0    0    0 -0.13999477950E+02 -0.29610869436E+02  0.26408843582E+02  0.42073934820E+02  0.51100000000E-03 0. -1.
         11    1    1    0    0    0 -0.88148116201E+01 -0.12986121968E+02  0.13150782416E+02  0.20476409502E+02  0.51100000000E-03 0.  1.
         22    1    1    0    0    0  0.22814289570E+02  0.42596991404E+02 -0.39559625998E+02  0.62449655678E+02  0.00000000000E+00 0.  1.
</event>
<event>
 4    1  0.1974401E-002  0.9118800E+02  0.7818608E-02  0.1130116E+00
         25   -1    0    0    0    0  0.00000000000E+00  0.00000000000E+00  0.99999998245E-14  0.12500000000E+03  0.12500000000E+03 0.  0.
        -11    1    1    0    0    0  0.44575311360E+02  0.29869737171E+02 -0.78245776012E+01  0.54225304023E+02  0.51100000000E-03 0.  1.
         11    1    1    0    0    0  0.64560418881E+01  0.49653524041E+01 -0.15182088380E+01  0.82849357085E+01  0.51100000000E-03 0. -1.
         22    1    1    0    0    0 -0.51031353248E+02 -0.34835089575E+02  0.93427864392E+01  0.62489760269E+02  0.00000000000E+00 0.  1.
</event>
<event>
 4    1  0.1974401E-002  0.9118800E+02  0.7818608E-02  0.1130116E+00
         25   -1    0    0    0    0  0.00000000000E+00  0.00000000000E+00  0.99999998245E-14  0.12500000000E+03  0.12500000000E+03 0.  0.
        -11    1    1    0    0    0 -0.40672965255E+01 -0.21535330076E+02  0.23328107249E+02  0.32008029158E+02  0.51100000000E-03 0. -1.
         11    1    1    0    0    0 -0.32719778635E+01 -0.12355877627E+02  0.28154433988E+02  0.30919988754E+02  0.51100000000E-03 0.  1.
         22    1    1    0    0    0  0.73392743890E+01  0.33891207703E+02 -0.51482541237E+02  0.62071982088E+02  0.00000000000E+00 0.  1.
</event>
<event>
 4    1  0.1974401E-002  0.9118800E+02  0.7818608E-02  0.1130116E+00
         25   -1    0    0    0    0  0.00000000000E+00  0.00000000000E+00  0.99999998245E-14  0.12500000000E+03  0.12500000000E+03 0.  0.
        -11    1    1    0    0    0 -0.34340533106E+01  0.34743714505E+01  0.64384132966E+01  0.80819023228E+01  0.51100000000E-03 0. -1.
         11    1    1    0    0    0 -0.23131609512E+02  0.23417066863E+02  0.43334732433E+02  0.54418098225E+02  0.51100000000E-03 0.  1.
         22    1    1    0    0    0  0.26565662822E+02 -0.26891438314E+02 -0.49773145729E+02  0.62499999453E+02  0.00000000000E+00 0.  1.
</event>
<event>
 4    1  0.1974401E-002  0.9118800E+02  0.7818608E-02  0.1130116E+00
         25   -1    0    0    0    0  0.00000000000E+00  0.00000000000E+00  0.99999998245E-14  0.12500000000E+03  0.12500000000E+03 0.  0.
        -11    1    1    0    0    0  0.58510596787E+01  0.82003790946E+01  0.34204476719E+02  0.35657079865E+02  0.51100000000E-03 0. -1.
         11    1    1    0    0    0  0.44122472374E+01  0.61787567268E+01  0.25746794509E+02  0.26842920634E+02  0.51100000000E-03 0.  1.
         22    1    1    0    0    0 -0.10263306916E+02 -0.14379135821E+02 -0.59951271228E+02  0.62499999501E+02  0.00000000000E+00 0.  1.
</event>
<event>
 4    1  0.1974401E-002  0.9118800E+02  0.7818608E-02  0.1130116E+00
         25   -1    0    0    0    0  0.00000000000E+00  0.00000000000E+00  0.99999998245E-14  0.12500000000E+03  0.12500000000E+03 0.  0.
        -11    1    1    0    0    0  0.14809155630E+01  0.43031913140E+01 -0.21309138661E+01  0.50250731890E+01  0.51100000000E-03 0. -1.
         11    1    1    0    0    0  0.16291785132E+02  0.37464400413E+02 -0.40627268430E+02  0.57615783440E+02  0.51100000000E-03 0.  1.
         22    1    1    0    0    0 -0.17772700695E+02 -0.41767591727E+02  0.42758182296E+02  0.62359143371E+02  0.00000000000E+00 0.  1.
</event>
<event>
 4    1  0.1974401E-002  0.9118800E+02  0.7818608E-02  0.1130116E+00
         25   -1    0    0    0    0  0.00000000000E+00  0.00000000000E+00  0.99999998245E-14  0.12500000000E+03  0.12500000000E+03 0.  0.
        -11    1    1    0    0    0 -0.17943948062E+01  0.14421550619E+02 -0.17260216407E+02  0.22563600015E+02  0.51100000000E-03 0.  1.
         11    1    1    0    0    0 -0.30912983308E+01  0.25506562352E+02 -0.30574117515E+02  0.39936418348E+02  0.51100000000E-03 0. -1.
         22    1    1    0    0    0  0.48856931370E+01 -0.39928112971E+02  0.47834333922E+02  0.62499981637E+02  0.00000000000E+00 0. -1.
</event>
<event>
 4    1  0.1974401E-002  0.9118800E+02  0.7818608E-02  0.1130116E+00
         25   -1    0    0    0    0  0.00000000000E+00  0.00000000000E+00  0.99999998245E-14  0.12500000000E+03  0.12500000000E+03 0.  0.
        -11    1    1    0    0    0  0.15110775905E+02 -0.11135197177E+02  0.59429049366E+01  0.19688734951E+02  0.51100000000E-03 0. -1.
         11    1    1    0    0    0  0.27380013686E+02 -0.25585495707E+02  0.21072081863E+02  0.42992038499E+02  0.51100000000E-03 0.  1.
         22    1    1    0    0    0 -0.42490789591E+02  0.36720692884E+02 -0.27014986799E+02  0.62319226550E+02  0.00000000000E+00 0.  1.
</event>
<event>
 4    1  0.1974401E-002  0.9118800E+02  0.7818608E-02  0.1130116E+00
         25   -1    0    0    0    0  0.00000000000E+00  0.00000000000E+00  0.99999998245E-14  0.12500000000E+03  0.12500000000E+03 0.  0.
        -11    1    1    0    0    0  0.83010669255E+01  0.21301192778E+02 -0.20300443899E+01  0.22951461965E+02  0.51100000000E-03 0.  1.
         11    1    1    0    0    0 -0.18844025941E+01 -0.44730137749E+02  0.37946981237E+02  0.58688240572E+02  0.51100000000E-03 0. -1.
         22    1    1    0    0    0 -0.64166643314E+01  0.23428944971E+02 -0.35916936847E+02  0.43360297463E+02  0.00000000000E+00 0. -1.
</event>
<event>
 4    1  0.1974401E-002  0.9118800E+02  0.7818608E-02  0.1130116E+00
         25   -1    0    0    0    0  0.00000000000E+00  0.00000000000E+00  0.99999998245E-14  0.12500000000E+03  0.12500000000E+03 0.  0.
        -11    1    1    0    0    0 -0.56326974700E+00 -0.70373754937E+01 -0.23065340038E+01  0.74271142457E+01  0.51100000000E-03 0.  1.
         11    1    1    0    0    0 -0.41883920001E+01 -0.52180444230E+02 -0.17107932909E+02  0.55072885853E+02  0.51100000000E-03 0. -1.
         22    1    1    0    0    0  0.47516617471E+01  0.59217819723E+02  0.19414466912E+02  0.62499999901E+02  0.00000000000E+00 0. -1.
</event>
<event>
 4    1  0.1974401E-002  0.9118800E+02  0.7818608E-02  0.1130116E+00
         25   -1    0    0    0    0  0.00000000000E+00  0.00000000000E+00  0.99999998245E-14  0.12500000000E+03  0.12500000000E+03 0.  0.
        -11    1    1    0    0    0  0.20968980536E+02  0.16886692731E+02 -0.45149110544E+01  0.27299138415E+02  0.51100000000E-03 0. -1.
         11    1    1    0    0    0  0.27142036449E+02  0.21613004670E+02 -0.59413558594E+01  0.35201020201E+02  0.51100000000E-03 0.  1.
         22    1    1    0    0    0 -0.48111016985E+02 -0.38499697401E+02  0.10456266914E+02  0.62499841384E+02  0.00000000000E+00 0. -1.
</event>
<event>
 4    1  0.1974401E-002  0.9118800E+02  0.7818608E-02  0.1130116E+00
         25   -1    0    0    0    0  0.00000000000E+00  0.00000000000E+00  0.99999998245E-14  0.12500000000E+03  0.12500000000E+03 0.  0.
        -11    1    1    0    0    0  0.52688756774E+01  0.37922968202E+01 -0.12671644096E+01  0.66142476502E+01  0.51100000000E-03 0. -1.
         11    1    1    0    0    0  0.42768905214E+02  0.30395256949E+02 -0.19350101499E+02  0.55923852929E+02  0.51100000000E-03 0.  1.
         22    1    1    0    0    0 -0.48037780891E+02 -0.34187553769E+02  0.20617265908E+02  0.62461899420E+02  0.00000000000E+00 0.  1.
</event>
<event>
 4    1  0.1974401E-002  0.9118800E+02  0.7818608E-02  0.1130116E+00
         25   -1    0    0    0    0  0.00000000000E+00  0.00000000000E+00  0.99999998245E-14  0.12500000000E+03  0.12500000000E+03 0.  0.
        -11    1    1    0    0    0  0.60144475342E+01 -0.89879601903E+00  0.18146617595E+02  0.19138472871E+02  0.51100000000E-03 0.  1.
         11    1    1    0    0    0  0.13626759513E+02 -0.20815156752E+01  0.41112054990E+02  0.43361530740E+02  0.51100000000E-03 0. -1.
         22    1    1    0    0    0 -0.19641207047E+02  0.29803116943E+01 -0.59258672585E+02  0.62499996389E+02  0.00000000000E+00 0. -1.
</event>
<event>
 4    1  0.1974401E-002  0.9118800E+02  0.7818608E-02  0.1130116E+00
         25   -1    0    0    0    0  0.00000000000E+00  0.00000000000E+00  0.99999998245E-14  0.12500000000E+03  0.12500000000E+03 0.  0.
        -11    1    1    0    0    0  0.10150979790E+01 -0.62912265351E+00 -0.21276444213E+01  0.24398955438E+01  0.51100000000E-03 0. -1.
         11    1    1    0    0    0  0.27224421552E+02 -0.51068955393E+02  0.19623398610E+02  0.61108797296E+02  0.51100000000E-03 0.  1.
         22    1    1    0    0    0 -0.28239519531E+02  0.51698078047E+02 -0.17495754188E+02  0.61451307160E+02  0.00000000000E+00 0.  1.
</event>
<event>
 4    1  0.1974401E-002  0.9118800E+02  0.7818608E-02  0.1130116E+00
         25   -1    0    0    0    0  0.00000000000E+00  0.00000000000E+00  0.99999998245E-14  0.12500000000E+03  0.12500000000E+03 0.  0.
        -11    1    1    0    0    0 -0.66850537552E+01  0.18264068193E+02 -0.18052308405E+02  0.26535861955E+02  0.51100000000E-03 0.  1.
         11    1    1    0    0    0 -0.90628488663E+01  0.24757965367E+02 -0.24460726877E+02  0.35964138225E+02  0.51100000000E-03 0. -1.
         22    1    1    0    0    0  0.15747902622E+02 -0.43022033560E+02  0.42513035282E+02  0.62499999820E+02  0.00000000000E+00 0.  1.
</event>
<event>
 4    1  0.1974401E-002  0.9118800E+02  0.7818608E-02  0.1130116E+00
         25   -1    0    0    0    0  0.00000000000E+00  0.00000000000E+00  0.99999998245E-14  0.12500000000E+03  0.12500000000E+03 0.  0.
        -11    1    1    0    0    0  0.49915611321E+01 -0.28163189428E+01 -0.26819389557E+01  0.63277272181E+01  0.51100000000E-03 0.  1.
         11    1    1    0    0    0  0.44241635345E+02 -0.25127141362E+02 -0.23803986004E+02  0.56172282141E+02  0.51100000000E-03 0. -1.
         22    1    1    0    0    0 -0.49233196477E+02  0.27943460305E+02  0.26485924960E+02  0.62499990641E+02  0.00000000000E+00 0. -1.
</event>
<event>
 4    1  0.1974401E-002  0.9118800E+02  0.7818608E-02  0.1130116E+00
         25   -1    0    0    0    0  0.00000000000E+00  0.00000000000E+00  0.99999998245E-14  0.12500000000E+03  0.12500000000E+03 0.  0.
        -11    1    1    0    0    0  0.14638713778E+01  0.18627522090E+02  0.98905912052E+01  0.21141222606E+02  0.51100000000E-03 0. -1.
         11    1    1    0    0    0  0.48175080770E+02  0.17298243174E+01  0.41982157852E+01  0.48388590757E+02  0.51100000000E-03 0.  1.
         22    1    1    0    0    0 -0.49638952148E+02 -0.20357346408E+02 -0.14088806990E+02  0.55470186637E+02  0.00000000000E+00 0.  1.
</event>
<event>
 4    1  0.1974401E-002  0.9118800E+02  0.7818608E-02  0.1130116E+00
         25   -1    0    0    0    0  0.00000000000E+00  0.00000000000E+00  0.99999998245E-14  0.12500000000E+03  0.12500000000E+03 0.  0.
        -11    1    1    0    0    0 -0.83359558292E-01  0.15247636529E+02 -0.13526959502E+02  0.20383228453E+02  0.51100000000E-03 0.  1.
         11    1    1    0    0    0 -0.16611836222E+00  0.31505662735E+02 -0.27949741898E+02  0.42116771625E+02  0.51100000000E-03 0. -1.
         22    1    1    0    0    0  0.24947792051E+00 -0.46753299264E+02  0.41476701400E+02  0.62499999922E+02  0.00000000000E+00 0. -1.
</event>
<event>
 4    1  0.1974401E-002  0.9118800E+02  0.7818608E-02  0.1130116E+00
         25   -1    0    0    0    0  0.00000000000E+00  0.00000000000E+00  0.99999998245E-14  0.12500000000E+03  0.12500000000E+03 0.  0.
        -11    1    1    0    0    0 -0.40419167944E+02  0.13694007354E+02  0.41658193503E+02  0.59637572560E+02  0.51100000000E-03 0. -1.
         11    1    1    0    0    0 -0.19383439109E+01  0.65417627984E+00  0.20020929464E+01  0.28624290645E+01  0.51100000000E-03 0.  1.
         22    1    1    0    0    0  0.42357511854E+02 -0.14348183634E+02 -0.43660286449E+02  0.62499998375E+02  0.00000000000E+00 0. -1.
</event>
<event>
 4    1  0.1974401E-002  0.9118800E+02  0.7818608E-02  0.1130116E+00
         25   -1    0    0    0    0  0.00000000000E+00  0.00000000000E+00  0.99999998245E-14  0.12500000000E+03  0.12500000000E+03 0.  0.
        -11    1    1    0    0    0 -0.52793515825E+02  0.18556953448E+02  0.24009978137E+01  0.56011432986E+02  0.51100000000E-03 0.  1.
         11    1    1    0    0    0 -0.61163608253E+01  0.21478539047E+01  0.27992631853E+00  0.64885672645E+01  0.51100000000E-03 0. -1.
         22    1    1    0    0    0  0.58909876650E+02 -0.20704807353E+02 -0.26809241322E+01  0.62499999749E+02  0.00000000000E+00 0.  1.
</event>
<event>
 4    1  0.1974401E-002  0.9118800E+02  0.7818608E-02  0.1130116E+00
         25   -1    0    0    0    0  0.00000000000E+00  0.00000000000E+00  0.99999998245E-14  0.12500000000E+03  0.12500000000E+03 0.  0.
        -11    1    1    0    0    0 -0.63100637709E+01 -0.77899833421E+01  0.26898253537E+01  0.10379590838E+02  0.51100000000E-03 0. -1.
         11    1    1    0    0    0 -0.31101324383E+02 -0.39915385900E+02  0.12496904307E+02  0.52122001376E+02  0.51100000000E-03 0.  1.
         22    1    1    0    0    0  0.37411388153E+02  0.47705369242E+02 -0.15186729660E+02  0.62498407787E+02  0.00000000000E+00 0.  1.
</event>
<event>
 4    1  0.1974401E-002  0.9118800E+02  0.7818608E-02  0.1130116E+00
         25   -1    0    0    0    0  0.00000000000E+00  0.00000000000E+00  0.99999998245E-14  0.12500000000E+03  0.12500000000E+03 0.  0.
        -11    1    1    0    0    0 -0.11657888717E+02  0.15894064250E+02 -0.87955271751E+01  0.21584460759E+02  0.51100000000E-03 0. -1.
         11    1    1    0    0    0 -0.34668055695E+02  0.19073532222E+02  0.19947567190E+02  0.44312291231E+02  0.51100000000E-03 0.  1.
         22    1    1    0    0    0  0.46325944412E+02 -0.34967596472E+02 -0.11152040015E+02  0.59103248009E+02  0.00000000000E+00 0.  1.
</event>
<event>
 4    1  0.1974401E-002  0.9118800E+02  0.7818608E-02  0.1130116E+00
         25   -1    0    0    0    0  0.00000000000E+00  0.00000000000E+00  0.99999998245E-14  0.12500000000E+03  0.12500000000E+03 0.  0.
        -11    1    1    0    0    0  0.65230148786E+01  0.32447542502E+01  0.75868806045E+01  0.10518503259E+02  0.51100000000E-03 0. -1.
         11    1    1    0    0    0  0.32229814098E+02  0.16041354113E+02  0.37496533873E+02  0.51981496817E+02  0.51100000000E-03 0.  1.
         22    1    1    0    0    0 -0.38752828976E+02 -0.19286108364E+02 -0.45083414478E+02  0.62499999924E+02  0.00000000000E+00 0.  1.
</event>
<event>
 4    1  0.1974401E-002  0.9118800E+02  0.7818608E-02  0.1130116E+00
         25   -1    0    0    0    0  0.00000000000E+00  0.00000000000E+00  0.99999998245E-14  0.12500000000E+03  0.12500000000E+03 0.  0.
        -11    1    1    0    0    0  0.13374262623E+02  0.17567509234E+02  0.94457924975E+01  0.24014813711E+02  0.51100000000E-03 0. -1.
         11    1    1    0    0    0  0.21330130159E+02  0.28589640564E+02  0.14453240820E+02  0.38486857116E+02  0.51100000000E-03 0.  1.
         22    1    1    0    0    0 -0.34704392782E+02 -0.46157149799E+02 -0.23899033318E+02  0.62498329173E+02  0.00000000000E+00 0.  1.
</event>
<event>
 4    1  0.1974401E-002  0.9118800E+02  0.7818608E-02  0.1130116E+00
         25   -1    0    0    0    0  0.00000000000E+00  0.00000000000E+00  0.99999998245E-14  0.12500000000E+03  0.12500000000E+03 0.  0.
        -11    1    1    0    0    0 -0.32096929371E+02 -0.46717460867E+02  0.23528990415E+02  0.61370574506E+02  0.51100000000E-03 0.  1.
         11    1    1    0    0    0 -0.59299552614E+00 -0.86123907053E+00  0.42690442620E+00  0.11294352929E+01  0.51100000000E-03 0. -1.
         22    1    1    0    0    0  0.32689924897E+02  0.47578699938E+02 -0.23955894841E+02  0.62499990202E+02  0.00000000000E+00 0.  1.
</event>
<event>
 4    1  0.1974401E-002  0.9118800E+02  0.7818608E-02  0.1130116E+00
         25   -1    0    0    0    0  0.00000000000E+00  0.00000000000E+00  0.99999998245E-14  0.12500000000E+03  0.12500000000E+03 0.  0.
        -11    1    1    0    0    0  0.33118219315E+02  0.40669317445E+02  0.24851530362E+02  0.58037990951E+02  0.51100000000E-03 0. -1.
         11    1    1    0    0    0  0.25556560298E+01  0.30990499016E+01  0.19429147960E+01  0.44621078204E+01  0.51100000000E-03 0.  1.
         22    1    1    0    0    0 -0.35673875345E+02 -0.43768367346E+02 -0.26794445158E+02  0.62499901229E+02  0.00000000000E+00 0. -1.
</event>
<event>
 4    1  0.1974401E-002  0.9118800E+02  0.7818608E-02  0.1130116E+00
         25   -1    0    0    0    0  0.00000000000E+00  0.00000000000E+00  0.99999998245E-14  0.12500000000E+03  0.12500000000E+03 0.  0.
        -11    1    1    0    0    0  0.41923894953E+01  0.69392765868E+01 -0.89537218538E+01  0.12078858577E+02  0.51100000000E-03 0. -1.
         11    1    1    0    0    0  0.16922951134E+02  0.30028592584E+02 -0.36801655794E+02  0.50422857090E+02  0.51100000000E-03 0.  1.
         22    1    1    0    0    0 -0.21115340629E+02 -0.36967869171E+02  0.45755377648E+02  0.62498284333E+02  0.00000000000E+00 0.  1.
</event>
<event>
 4    1  0.1974401E-002  0.9118800E+02  0.7818608E-02  0.1130116E+00
         25   -1    0    0    0    0  0.00000000000E+00  0.00000000000E+00  0.99999998245E-14  0.12500000000E+03  0.12500000000E+03 0.  0.
        -11    1    1    0    0    0  0.30863916827E+02 -0.53619729530E+02  0.40428890797E+01  0.62000013784E+02  0.51100000000E-03 0.  1.
         11    1    1    0    0    0 -0.89299899449E+00  0.53879945433E-01  0.10843858912E+01  0.14057892000E+01  0.51100000000E-03 0. -1.
         22    1    1    0    0    0 -0.29970917833E+02  0.53565849585E+02 -0.51272749709E+01  0.61594197016E+02  0.00000000000E+00 0.  1.
</event>
<event>
 4    1  0.1974401E-002  0.9118800E+02  0.7818608E-02  0.1130116E+00
         25   -1    0    0    0    0  0.00000000000E+00  0.00000000000E+00  0.99999998245E-14  0.12500000000E+03  0.12500000000E+03 0.  0.
        -11    1    1    0    0    0  0.46121372296E+01 -0.17635506008E+02  0.51397791485E+01  0.18939382565E+02  0.51100000000E-03 0. -1.
         11    1    1    0    0    0  0.10671739076E+02 -0.40552915849E+02  0.11794199186E+02  0.43560625953E+02  0.51100000000E-03 0.  1.
         22    1    1    0    0    0 -0.15283876306E+02  0.58188421856E+02 -0.16933978334E+02  0.62499991482E+02  0.00000000000E+00 0.  1.
</event>
<event>
 4    1  0.1974401E-002  0.9118800E+02  0.7818608E-02  0.1130116E+00
         25   -1    0    0    0    0  0.00000000000E+00  0.00000000000E+00  0.99999998245E-14  0.12500000000E+03  0.12500000000E+03 0.  0.
        -11    1    1    0    0    0 -0.93566735383E+01 -0.15769073521E+01  0.63933282091E+01  0.11441530595E+02  0.51100000000E-03 0. -1.
         11    1    1    0    0    0 -0.41522685317E+02 -0.67023078404E+01  0.28947263189E+02  0.51058773709E+02  0.51100000000E-03 0.  1.
         22    1    1    0    0    0  0.50879358855E+02  0.82792151925E+01 -0.35340591398E+02  0.62499695696E+02  0.00000000000E+00 0.  1.
</event>
<event>
 4    1  0.1974401E-002  0.9118800E+02  0.7818608E-02  0.1130116E+00
         25   -1    0    0    0    0  0.00000000000E+00  0.00000000000E+00  0.99999998245E-14  0.12500000000E+03  0.12500000000E+03 0.  0.
        -11    1    1    0    0    0  0.28269506131E+02  0.22744205909E+01 -0.14255433652E+02  0.31742012456E+02  0.51100000000E-03 0.  1.
         11    1    1    0    0    0  0.27400838765E+02  0.22727760871E+01 -0.13787085195E+02  0.30758010251E+02  0.51100000000E-03 0. -1.
         22    1    1    0    0    0 -0.55670344895E+02 -0.45471966780E+01  0.28042518847E+02  0.62499977293E+02  0.00000000000E+00 0.  1.
</event>
<event>
 4    1  0.1974401E-002  0.9118800E+02  0.7818608E-02  0.1130116E+00
         25   -1    0    0    0    0  0.00000000000E+00  0.00000000000E+00  0.99999998245E-14  0.12500000000E+03  0.12500000000E+03 0.  0.
        -11    1    1    0    0    0  0.21258243375E+01 -0.16244889885E-01  0.18059139062E+01  0.27893938962E+01  0.51100000000E-03 0.  1.
         11    1    1    0    0    0  0.45520772540E+02 -0.62688570801E+00  0.38637087351E+02  0.59710620810E+02  0.51100000000E-03 0. -1.
         22    1    1    0    0    0 -0.47646596877E+02  0.64313059789E+00 -0.40443001258E+02  0.62499985293E+02  0.00000000000E+00 0. -1.
</event>
<event>
 4    1  0.1974401E-002  0.9118800E+02  0.7818608E-02  0.1130116E+00
         25   -1    0    0    0    0  0.00000000000E+00  0.00000000000E+00  0.99999998245E-14  0.12500000000E+03  0.12500000000E+03 0.  0.
        -11    1    1    0    0    0 -0.15452764812E+02 -0.25234437864E+02 -0.93283106348E+01  0.31025508444E+02  0.51100000000E-03 0. -1.
         11    1    1    0    0    0 -0.15682511831E+02 -0.25612118858E+02 -0.94192536193E+01  0.31474499976E+02  0.51100000000E-03 0.  1.
         22    1    1    0    0    0  0.31135276643E+02  0.50846556722E+02  0.18747564254E+02  0.62499991580E+02  0.00000000000E+00 0. -1.
</event>
<event>
 4    1  0.1974401E-002  0.9118800E+02  0.7818608E-02  0.1130116E+00
         25   -1    0    0    0    0  0.00000000000E+00  0.00000000000E+00  0.99999998245E-14  0.12500000000E+03  0.12500000000E+03 0.  0.
        -11    1    1    0    0    0 -0.15089598600E+00  0.40761253106E+01  0.30153422176E+01  0.50724605564E+01  0.51100000000E-03 0.  1.
         11    1    1    0    0    0 -0.23035786851E+02  0.43093254548E+02  0.30490164310E+02  0.57596234107E+02  0.51100000000E-03 0. -1.
         22    1    1    0    0    0  0.23186682837E+02 -0.47169379859E+02 -0.33505506527E+02  0.62331305336E+02  0.00000000000E+00 0. -1.
</event>
<event>
 4    1  0.1974401E-002  0.9118800E+02  0.7818608E-02  0.1130116E+00
         25   -1    0    0    0    0  0.00000000000E+00  0.00000000000E+00  0.99999998245E-14  0.12500000000E+03  0.12500000000E+03 0.  0.
        -11    1    1    0    0    0  0.91548013300E+01  0.49936269751E+02 -0.51350316141E+01  0.51027541328E+02  0.51100000000E-03 0.  1.
         11    1    1    0    0    0  0.20584558342E+01  0.11226957184E+02 -0.11556385193E+01  0.11472458703E+02  0.51100000000E-03 0. -1.
         22    1    1    0    0    0 -0.11213257164E+02 -0.61163226936E+02  0.62906701334E+01  0.62499999969E+02  0.00000000000E+00 0.  1.
</event>
<event>
 4    1  0.1974401E-002  0.9118800E+02  0.7818608E-02  0.1130116E+00
         25   -1    0    0    0    0  0.00000000000E+00  0.00000000000E+00  0.99999998245E-14  0.12500000000E+03  0.12500000000E+03 0.  0.
        -11    1    1    0    0    0 -0.31143035476E+01 -0.70288569603E+00 -0.77336277390E+00  0.32849695782E+01  0.51100000000E-03 0.  1.
         11    1    1    0    0    0 -0.56144555155E+02 -0.12642981578E+02 -0.13941441600E+02  0.59215030616E+02  0.51100000000E-03 0. -1.
         22    1    1    0    0    0  0.59258858702E+02  0.13345867274E+02  0.14714804374E+02  0.62499999806E+02  0.00000000000E+00 0. -1.
</event>
<event>
 4    1  0.1974401E-002  0.9118800E+02  0.7818608E-02  0.1130116E+00
         25   -1    0    0    0    0  0.00000000000E+00  0.00000000000E+00  0.99999998245E-14  0.12500000000E+03  0.12500000000E+03 0.  0.
        -11    1    1    0    0    0  0.11551119776E+02 -0.23939457883E+02 -0.21881362489E+02  0.34428477115E+02  0.51100000000E-03 0.  1.
         11    1    1    0    0    0  0.94677706532E+01 -0.18959652390E+02 -0.18414142730E+02  0.28074681701E+02  0.51100000000E-03 0. -1.
         22    1    1    0    0    0 -0.21018890429E+02  0.42899110273E+02  0.40295505219E+02  0.62496841184E+02  0.00000000000E+00 0. -1.
</event>
<event>
 4    1  0.1974401E-002  0.9118800E+02  0.7818608E-02  0.1130116E+00
         25   -1    0    0    0    0  0.00000000000E+00  0.00000000000E+00  0.99999998245E-14  0.12500000000E+03  0.12500000000E+03 0.  0.
        -11    1    1    0    0    0  0.24497639820E+02 -0.74966348164E+01  0.20698751750E+01  0.25702495479E+02  0.51100000000E-03 0. -1.
         11    1    1    0    0    0  0.35049825333E+02 -0.10890748526E+02  0.26427375173E+01  0.36797862997E+02  0.51100000000E-03 0.  1.
         22    1    1    0    0    0 -0.59547465153E+02  0.18387383343E+02 -0.47126126924E+01  0.62499641524E+02  0.00000000000E+00 0. -1.
</event>
<event>
 4    1  0.1974401E-002  0.9118800E+02  0.7818608E-02  0.1130116E+00
         25   -1    0    0    0    0  0.00000000000E+00  0.00000000000E+00  0.99999998245E-14  0.12500000000E+03  0.12500000000E+03 0.  0.
        -11    1    1    0    0    0  0.30759223212E+01  0.53987678387E+02  0.17939074488E+02  0.56973161309E+02  0.51100000000E-03 0.  1.
         11    1    1    0    0    0  0.28093459158E+00  0.52277297601E+01  0.17715786677E+01  0.55268955053E+01  0.51100000000E-03 0. -1.
         22    1    1    0    0    0 -0.33568569128E+01 -0.59215408148E+02 -0.19710653156E+02  0.62499943186E+02  0.00000000000E+00 0.  1.
</event>
<event>
 4    1  0.1974401E-002  0.9118800E+02  0.7818608E-02  0.1130116E+00
         25   -1    0    0    0    0  0.00000000000E+00  0.00000000000E+00  0.99999998245E-14  0.12500000000E+03  0.12500000000E+03 0.  0.
        -11    1    1    0    0    0 -0.40625413678E+01 -0.48263756169E+02  0.12840110563E+02  0.50107512824E+02  0.51100000000E-03 0.  1.
         11    1    1    0    0    0 -0.10197141974E+01 -0.11935006206E+02  0.31764192386E+01  0.12392490856E+02  0.51100000000E-03 0. -1.
         22    1    1    0    0    0  0.50822555652E+01  0.60198762375E+02 -0.16016529802E+02  0.62499996320E+02  0.00000000000E+00 0.  1.
</event>
<event>
 4    1  0.1974401E-002  0.9118800E+02  0.7818608E-02  0.1130116E+00
         25   -1    0    0    0    0  0.00000000000E+00  0.00000000000E+00  0.99999998245E-14  0.12500000000E+03  0.12500000000E+03 0.  0.
        -11    1    1    0    0    0  0.23037872738E+01  0.20694074649E+01 -0.21807202261E+01  0.37875353495E+01  0.51100000000E-03 0. -1.
         11    1    1    0    0    0  0.35740990997E+02  0.32137305894E+02 -0.33718377668E+02  0.58712467674E+02  0.51100000000E-03 0.  1.
         22    1    1    0    0    0 -0.38044778270E+02 -0.34206713358E+02  0.35899097894E+02  0.62499996977E+02  0.00000000000E+00 0.  1.
</event>
<event>
 4    1  0.1974401E-002  0.9118800E+02  0.7818608E-02  0.1130116E+00
         25   -1    0    0    0    0  0.00000000000E+00  0.00000000000E+00  0.99999998245E-14  0.12500000000E+03  0.12500000000E+03 0.  0.
        -11    1    1    0    0    0 -0.27605912312E+01 -0.84734076148E-02 -0.33683128253E+01  0.43550507798E+01  0.51100000000E-03 0. -1.
         11    1    1    0    0    0 -0.36661936863E+02 -0.94642695840E-01 -0.45130153693E+02  0.58144968349E+02  0.51100000000E-03 0.  1.
         22    1    1    0    0    0  0.39422528094E+02  0.10311610346E+00  0.48498466518E+02  0.62499980871E+02  0.00000000000E+00 0.  1.
</event>
<event>
 4    1  0.1974401E-002  0.9118800E+02  0.7818608E-02  0.1130116E+00
         25   -1    0    0    0    0  0.00000000000E+00  0.00000000000E+00  0.99999998245E-14  0.12500000000E+03  0.12500000000E+03 0.  0.
        -11    1    1    0    0    0  0.73853386101E+01 -0.97493927200E+00 -0.44375542232E+01  0.86709642321E+01  0.51100000000E-03 0. -1.
         11    1    1    0    0    0  0.45873358200E+02 -0.60136191788E+01 -0.27514300155E+02  0.53829037902E+02  0.51100000000E-03 0.  1.
         22    1    1    0    0    0 -0.53258696810E+02  0.69885584508E+01  0.31951854378E+02  0.62499997866E+02  0.00000000000E+00 0.  1.
</event>
<event>
 4    1  0.1974401E-002  0.9118800E+02  0.7818608E-02  0.1130116E+00
         25   -1    0    0    0    0  0.00000000000E+00  0.00000000000E+00  0.99999998245E-14  0.12500000000E+03  0.12500000000E+03 0.  0.
        -11    1    1    0    0    0 -0.48687501374E+01 -0.90713113744E+01 -0.14775739743E+02  0.18008772950E+02  0.51100000000E-03 0.  1.
         11    1    1    0    0    0 -0.12021239506E+02 -0.22419996364E+02 -0.36500724226E+02  0.44491227287E+02  0.51100000000E-03 0. -1.
         22    1    1    0    0    0  0.16889989643E+02  0.31491307738E+02  0.51276463969E+02  0.62499999763E+02  0.00000000000E+00 0. -1.
</event>
<event>
 4    1  0.1974401E-002  0.9118800E+02  0.7818608E-02  0.1130116E+00
         25   -1    0    0    0    0  0.00000000000E+00  0.00000000000E+00  0.99999998245E-14  0.12500000000E+03  0.12500000000E+03 0.  0.
        -11    1    1    0    0    0  0.24707435747E+02 -0.30784040095E+02 -0.38221549669E+02  0.54945439894E+02  0.51100000000E-03 0. -1.
         11    1    1    0    0    0  0.30204666640E+01 -0.28043954528E+01 -0.64562145529E+01  0.76596709680E+01  0.51100000000E-03 0.  1.
         22    1    1    0    0    0 -0.27727902411E+02  0.33588435548E+02  0.44677764222E+02  0.62394889138E+02  0.00000000000E+00 0. -1.
</event>
<event>
 4    1  0.1974401E-002  0.9118800E+02  0.7818608E-02  0.1130116E+00
         25   -1    0    0    0    0  0.00000000000E+00  0.00000000000E+00  0.99999998245E-14  0.12500000000E+03  0.12500000000E+03 0.  0.
        -11    1    1    0    0    0 -0.66138789264E+01 -0.50861613027E+01 -0.26765277256E+01  0.87622047555E+01  0.51100000000E-03 0. -1.
         11    1    1    0    0    0 -0.40571175780E+02 -0.31111197136E+02 -0.16547672248E+02  0.53737811162E+02  0.51100000000E-03 0.  1.
         22    1    1    0    0    0  0.47185054707E+02  0.36197358439E+02  0.19224199973E+02  0.62499984082E+02  0.00000000000E+00 0.  1.
</event>
<event>
 4    1  0.1974401E-002  0.9118800E+02  0.7818608E-02  0.1130116E+00
         25   -1    0    0    0    0  0.00000000000E+00  0.00000000000E+00  0.99999998245E-14  0.12500000000E+03  0.12500000000E+03 0.  0.
        -11    1    1    0    0    0  0.31155684452E+02 -0.31544640886E+02  0.90989185965E+01  0.45260704393E+02  0.51100000000E-03 0.  1.
         11    1    1    0    0    0  0.11722242796E+02 -0.11978728626E+02  0.40528108333E+01  0.17243149120E+02  0.51100000000E-03 0. -1.
         22    1    1    0    0    0 -0.42877927248E+02  0.43523369512E+02 -0.13151729430E+02  0.62496146487E+02  0.00000000000E+00 0.  1.
</event>
<event>
 4    1  0.1974401E-002  0.9118800E+02  0.7818608E-02  0.1130116E+00
         25   -1    0    0    0    0  0.00000000000E+00  0.00000000000E+00  0.99999998245E-14  0.12500000000E+03  0.12500000000E+03 0.  0.
        -11    1    1    0    0    0 -0.18222783947E+02 -0.15131924745E+01  0.69348857029E+01  0.19556386328E+02  0.51100000000E-03 0.  1.
         11    1    1    0    0    0 -0.39451066435E+02 -0.60215953609E+01  0.15898663551E+02  0.42958279255E+02  0.51100000000E-03 0. -1.
         22    1    1    0    0    0  0.57673850382E+02  0.75347878354E+01 -0.22833549254E+02  0.62485334417E+02  0.00000000000E+00 0. -1.
</event>
<event>
 4    1  0.1974401E-002  0.9118800E+02  0.7818608E-02  0.1130116E+00
         25   -1    0    0    0    0  0.00000000000E+00  0.00000000000E+00  0.99999998245E-14  0.12500000000E+03  0.12500000000E+03 0.  0.
        -11    1    1    0    0    0 -0.28108068332E+01 -0.70603102464E+00  0.10688956436E+01  0.30889566230E+01  0.51100000000E-03 0. -1.
         11    1    1    0    0    0 -0.54027795715E+02 -0.13528159459E+02  0.20679911178E+02  0.59411047245E+02  0.51100000000E-03 0.  1.
         22    1    1    0    0    0  0.56838602548E+02  0.14234190484E+02 -0.21748806821E+02  0.62499996132E+02  0.00000000000E+00 0.  1.
</event>
<event>
 4    1  0.1974401E-002  0.9118800E+02  0.7818608E-02  0.1130116E+00
         25   -1    0    0    0    0  0.00000000000E+00  0.00000000000E+00  0.99999998245E-14  0.12500000000E+03  0.12500000000E+03 0.  0.
        -11    1    1    0    0    0 -0.21856554029E+02 -0.26692489281E+02  0.34201298777E+02  0.48579077557E+02  0.51100000000E-03 0. -1.
         11    1    1    0    0    0 -0.63729951846E+01 -0.76528979104E+01  0.97271250836E+01  0.13921166499E+02  0.51100000000E-03 0.  1.
         22    1    1    0    0    0  0.28229549213E+02  0.34345387191E+02 -0.43928423861E+02  0.62499755943E+02  0.00000000000E+00 0. -1.
</event>
<event>
 4    1  0.1974401E-002  0.9118800E+02  0.7818608E-02  0.1130116E+00
         25   -1    0    0    0    0  0.00000000000E+00  0.00000000000E+00  0.99999998245E-14  0.12500000000E+03  0.12500000000E+03 0.  0.
        -11    1    1    0    0    0 -0.70672024580E+01  0.59804168836E+01  0.38297008361E+01  0.10018849507E+02  0.51100000000E-03 0. -1.
         11    1    1    0    0    0 -0.37037867131E+02  0.31244042111E+02  0.20156356200E+02  0.52481162949E+02  0.51100000000E-03 0.  1.
         22    1    1    0    0    0  0.44105069589E+02 -0.37224458994E+02 -0.23986057036E+02  0.62499987544E+02  0.00000000000E+00 0.  1.
</event>
<event>
 4    1  0.1974401E-002  0.9118800E+02  0.7818608E-02  0.1130116E+00
         25   -1    0    0    0    0  0.00000000000E+00  0.00000000000E+00  0.99999998245E-14  0.12500000000E+03  0.12500000000E+03 0.  0.
        -11    1    1    0    0    0  0.33357424997E+02 -0.32172862917E+02  0.34813326065E+02  0.57963597047E+02  0.51100000000E-03 0.  1.
         11    1    1    0    0    0  0.26108113656E+01 -0.25180522887E+01  0.27243399861E+01  0.45364029733E+01  0.51100000000E-03 0.  1.
         22    1    1    0    0    0 -0.35968236363E+02  0.34690915206E+02 -0.37537666051E+02  0.62499999979E+02  0.00000000000E+00 0.  1.
</event>
<event>
 4    1  0.1974401E-002  0.9118800E+02  0.7818608E-02  0.1130116E+00
         25   -1    0    0    0    0  0.00000000000E+00  0.00000000000E+00  0.99999998245E-14  0.12500000000E+03  0.12500000000E+03 0.  0.
        -11    1    1    0    0    0 -0.18088206473E+02  0.12694721310E+02  0.55301660557E+01  0.22779857318E+02  0.51100000000E-03 0.  1.
         11    1    1    0    0    0 -0.31182184385E+02  0.22483732036E+02  0.99955494992E+01  0.39720999979E+02  0.51100000000E-03 0. -1.
         22    1    1    0    0    0  0.49270390858E+02 -0.35178453346E+02 -0.15525715555E+02  0.62499142703E+02  0.00000000000E+00 0. -1.
</event>
<event>
 4    1  0.1974401E-002  0.9118800E+02  0.7818608E-02  0.1130116E+00
         25   -1    0    0    0    0  0.00000000000E+00  0.00000000000E+00  0.99999998245E-14  0.12500000000E+03  0.12500000000E+03 0.  0.
        -11    1    1    0    0    0  0.47009961275E+02 -0.17161934016E+02  0.37276019979E+02  0.62401683503E+02  0.51100000000E-03 0.  1.
         11    1    1    0    0    0  0.74940801068E-01 -0.27375089549E-01  0.57460651967E-01  0.98323480603E-01  0.51100000000E-03 0. -1.
         22    1    1    0    0    0 -0.47084902076E+02  0.17189309105E+02 -0.37333480631E+02  0.62499993017E+02  0.00000000000E+00 0.  1.
</event>
<event>
 4    1  0.1974401E-002  0.9118800E+02  0.7818608E-02  0.1130116E+00
         25   -1    0    0    0    0  0.00000000000E+00  0.00000000000E+00  0.99999998245E-14  0.12500000000E+03  0.12500000000E+03 0.  0.
        -11    1    1    0    0    0 -0.32855432332E+02 -0.13197704707E+01 -0.46382714919E+01  0.33207450828E+02  0.51100000000E-03 0. -1.
         11    1    1    0    0    0 -0.72805842955E+01 -0.31217139021E+02 -0.16399038968E+02  0.36006182187E+02  0.51100000000E-03 0.  1.
         22    1    1    0    0    0  0.40136016627E+02  0.32536909492E+02  0.21037310460E+02  0.55786366985E+02  0.00000000000E+00 0.  1.
</event>
<event>
 4    1  0.1974401E-002  0.9118800E+02  0.7818608E-02  0.1130116E+00
         25   -1    0    0    0    0  0.00000000000E+00  0.00000000000E+00  0.99999998245E-14  0.12500000000E+03  0.12500000000E+03 0.  0.
        -11    1    1    0    0    0  0.19294255798E+02 -0.10774340140E+02 -0.22980201661E+01  0.22217911900E+02  0.51100000000E-03 0. -1.
         11    1    1    0    0    0  0.35007054153E+02 -0.19489610043E+02 -0.41603319175E+01  0.40282094063E+02  0.51100000000E-03 0.  1.
         22    1    1    0    0    0 -0.54301309951E+02  0.30263950183E+02  0.64583520836E+01  0.62499994038E+02  0.00000000000E+00 0.  1.
</event>
<event>
 4    1  0.1974401E-002  0.9118800E+02  0.7818608E-02  0.1130116E+00
         25   -1    0    0    0    0  0.00000000000E+00  0.00000000000E+00  0.99999998245E-14  0.12500000000E+03  0.12500000000E+03 0.  0.
        -11    1    1    0    0    0 -0.11967555524E+02  0.54081505951E+02  0.46948786652E+01  0.55588430064E+02  0.51100000000E-03 0. -1.
         11    1    1    0    0    0 -0.14973716318E+01  0.67211218821E+01  0.59523096174E+00  0.69115773393E+01  0.51100000000E-03 0.  1.
         22    1    1    0    0    0  0.13464927155E+02 -0.60802627833E+02 -0.52901096269E+01  0.62499992596E+02  0.00000000000E+00 0. -1.
</event>
<event>
 4    1  0.1974401E-002  0.9118800E+02  0.7818608E-02  0.1130116E+00
         25   -1    0    0    0    0  0.00000000000E+00  0.00000000000E+00  0.99999998245E-14  0.12500000000E+03  0.12500000000E+03 0.  0.
        -11    1    1    0    0    0 -0.39222606188E+02 -0.58106860996E+01  0.31484920313E+02  0.50630792177E+02  0.51100000000E-03 0. -1.
         11    1    1    0    0    0 -0.91989102171E+01 -0.13513235863E+01  0.73778132261E+01  0.11869210289E+02  0.51100000000E-03 0.  1.
         22    1    1    0    0    0  0.48421516405E+02  0.71620096859E+01 -0.38862733539E+02  0.62499997534E+02  0.00000000000E+00 0. -1.
</event>
<event>
 4    1  0.1974401E-002  0.9118800E+02  0.7818608E-02  0.1130116E+00
         25   -1    0    0    0    0  0.00000000000E+00  0.00000000000E+00  0.99999998245E-14  0.12500000000E+03  0.12500000000E+03 0.  0.
        -11    1    1    0    0    0  0.50676712679E+02 -0.86879676201E+01  0.14701725935E+02  0.53476637282E+02  0.51100000000E-03 0. -1.
         11    1    1    0    0    0  0.85502240821E+01 -0.14679930795E+01  0.24818826869E+01  0.90233628692E+01  0.51100000000E-03 0.  1.
         22    1    1    0    0    0 -0.59226936761E+02  0.10155960700E+02 -0.17183608622E+02  0.62499999849E+02  0.00000000000E+00 0. -1.
</event>
<event>
 4    1  0.1974401E-002  0.9118800E+02  0.7818608E-02  0.1130116E+00
         25   -1    0    0    0    0  0.00000000000E+00  0.00000000000E+00  0.99999998245E-14  0.12500000000E+03  0.12500000000E+03 0.  0.
        -11    1    1    0    0    0  0.52809758144E+01  0.12154431749E+02  0.19972520098E+02  0.23969156765E+02  0.51100000000E-03 0. -1.
         11    1    1    0    0    0  0.84873156296E+01  0.19538879369E+02  0.32106440906E+02  0.38530843250E+02  0.51100000000E-03 0.  1.
         22    1    1    0    0    0 -0.13768291444E+02 -0.31693311119E+02 -0.52078961004E+02  0.62499999986E+02  0.00000000000E+00 0. -1.
</event>
<event>
 4    1  0.1974401E-002  0.9118800E+02  0.7818608E-02  0.1130116E+00
         25   -1    0    0    0    0  0.00000000000E+00  0.00000000000E+00  0.99999998245E-14  0.12500000000E+03  0.12500000000E+03 0.  0.
        -11    1    1    0    0    0  0.77019088412E+01  0.22560729128E+02  0.44649908317E+01  0.24253701614E+02  0.51100000000E-03 0.  1.
         11    1    1    0    0    0  0.11971803189E+02  0.35655206872E+02  0.69404965294E+01  0.38246416055E+02  0.51100000000E-03 0. -1.
         22    1    1    0    0    0 -0.19673712031E+02 -0.58215936000E+02 -0.11405487361E+02  0.62499882331E+02  0.00000000000E+00 0. -1.
</event>
<event>
 4    1  0.1974401E-002  0.9118800E+02  0.7818608E-02  0.1130116E+00
         25   -1    0    0    0    0  0.00000000000E+00  0.00000000000E+00  0.99999998245E-14  0.12500000000E+03  0.12500000000E+03 0.  0.
        -11    1    1    0    0    0  0.44254043841E+01  0.89756056754E+01 -0.78621342984E+01  0.12726305717E+02  0.51100000000E-03 0.  1.
         11    1    1    0    0    0  0.32376441256E+01  0.51187433708E+02  0.17833326163E+01  0.51320716914E+02  0.51100000000E-03 0. -1.
         22    1    1    0    0    0 -0.76630485097E+01 -0.60163039383E+02  0.60788016821E+01  0.60952977369E+02  0.00000000000E+00 0. -1.
</event>
<event>
 4    1  0.1974401E-002  0.9118800E+02  0.7818608E-02  0.1130116E+00
         25   -1    0    0    0    0  0.00000000000E+00  0.00000000000E+00  0.99999998245E-14  0.12500000000E+03  0.12500000000E+03 0.  0.
        -11    1    1    0    0    0 -0.43860252326E+02 -0.18150450270E+02 -0.16767104884E+02  0.50341795613E+02  0.51100000000E-03 0. -1.
         11    1    1    0    0    0 -0.95990951947E+01 -0.83843107813E+01  0.31248591677E+00  0.12748997747E+02  0.51100000000E-03 0.  1.
         22    1    1    0    0    0  0.53459347521E+02  0.26534761052E+02  0.16454618967E+02  0.61909206640E+02  0.00000000000E+00 0.  1.
</event>
<event>
 4    1  0.1974401E-002  0.9118800E+02  0.7818608E-02  0.1130116E+00
         25   -1    0    0    0    0  0.00000000000E+00  0.00000000000E+00  0.99999998245E-14  0.12500000000E+03  0.12500000000E+03 0.  0.
        -11    1    1    0    0    0  0.13101116182E+02  0.39421297921E+01  0.93933871049E+01  0.16595642624E+02  0.51100000000E-03 0. -1.
         11    1    1    0    0    0  0.36317628455E+02  0.10874412578E+02  0.25884151115E+02  0.45904381759E+02  0.51100000000E-03 0.  1.
         22    1    1    0    0    0 -0.49418744637E+02 -0.14816542370E+02 -0.35277538220E+02  0.62499975617E+02  0.00000000000E+00 0.  1.
</event>
<event>
 4    1  0.1974401E-002  0.9118800E+02  0.7818608E-02  0.1130116E+00
         25   -1    0    0    0    0  0.00000000000E+00  0.00000000000E+00  0.99999998245E-14  0.12500000000E+03  0.12500000000E+03 0.  0.
        -11    1    1    0    0    0 -0.20080895490E+02  0.39804314626E+02  0.63399738562E+01  0.45031334594E+02  0.51100000000E-03 0.  1.
         11    1    1    0    0    0 -0.59914852436E+01  0.16328387617E+02  0.20381421218E+01  0.17511943386E+02  0.51100000000E-03 0. -1.
         22    1    1    0    0    0  0.26072380734E+02 -0.56132702243E+02 -0.83781159780E+01  0.62456722020E+02  0.00000000000E+00 0. -1.
</event>
<event>
 4    1  0.1974401E-002  0.9118800E+02  0.7818608E-02  0.1130116E+00
         25   -1    0    0    0    0  0.00000000000E+00  0.00000000000E+00  0.99999998245E-14  0.12500000000E+03  0.12500000000E+03 0.  0.
        -11    1    1    0    0    0 -0.14760096631E+02  0.26713480110E+02 -0.17757244785E+02  0.35309916664E+02  0.51100000000E-03 0.  1.
         11    1    1    0    0    0 -0.11363992127E+02  0.20573142591E+02 -0.13671361431E+02  0.27190083427E+02  0.51100000000E-03 0. -1.
         22    1    1    0    0    0  0.26124088758E+02 -0.47286622701E+02  0.31428606217E+02  0.62499999909E+02  0.00000000000E+00 0. -1.
</event>
<event>
 4    1  0.1974401E-002  0.9118800E+02  0.7818608E-02  0.1130116E+00
         25   -1    0    0    0    0  0.00000000000E+00  0.00000000000E+00  0.99999998245E-14  0.12500000000E+03  0.12500000000E+03 0.  0.
        -11    1    1    0    0    0 -0.15488993881E+01  0.20527046367E+01  0.51242648369E+01  0.57333041102E+01  0.51100000000E-03 0.  1.
         11    1    1    0    0    0 -0.15363308413E+02  0.20305463353E+02  0.50735734217E+02  0.56766696347E+02  0.51100000000E-03 0. -1.
         22    1    1    0    0    0  0.16912207802E+02 -0.22358167989E+02 -0.55859999054E+02  0.62499999543E+02  0.00000000000E+00 0. -1.
</event>
<event>
 4    1  0.1974401E-002  0.9118800E+02  0.7818608E-02  0.1130116E+00
         25   -1    0    0    0    0  0.00000000000E+00  0.00000000000E+00  0.99999998245E-14  0.12500000000E+03  0.12500000000E+03 0.  0.
        -11    1    1    0    0    0  0.21883367023E+02 -0.49090027533E+02 -0.12360701796E+02  0.55149791519E+02  0.51100000000E-03 0. -1.
         11    1    1    0    0    0  0.28972125627E+01 -0.65541217459E+01 -0.16356944567E+01  0.73502278271E+01  0.51100000000E-03 0.  1.
         22    1    1    0    0    0 -0.24780579586E+02  0.55644149279E+02  0.13996396253E+02  0.62499980653E+02  0.00000000000E+00 0. -1.
</event>
<event>
 4    1  0.1974401E-002  0.9118800E+02  0.7818608E-02  0.1130116E+00
         25   -1    0    0    0    0  0.00000000000E+00  0.00000000000E+00  0.99999998245E-14  0.12500000000E+03  0.12500000000E+03 0.  0.
        -11    1    1    0    0    0  0.96557881167E+01  0.54903379425E+01 -0.22451481219E+02  0.25048893470E+02  0.51100000000E-03 0. -1.
         11    1    1    0    0    0  0.11738226832E+02  0.85908828401E+00 -0.35739545902E+02  0.37627638026E+02  0.51100000000E-03 0.  1.
         22    1    1    0    0    0 -0.21394014949E+02 -0.63494262265E+01  0.58191027121E+02  0.62323468505E+02  0.00000000000E+00 0.  1.
</event>
<event>
 4    1  0.1974401E-002  0.9118800E+02  0.7818608E-02  0.1130116E+00
         25   -1    0    0    0    0  0.00000000000E+00  0.00000000000E+00  0.99999998245E-14  0.12500000000E+03  0.12500000000E+03 0.  0.
        -11    1    1    0    0    0  0.23728363902E+02  0.53989646220E+02 -0.20457633174E+02  0.62421405846E+02  0.51100000000E-03 0.  1.
         11    1    1    0    0    0  0.33810494599E-01  0.67308112695E-01 -0.22714774625E-01  0.78674987683E-01  0.51100000000E-03 0. -1.
         22    1    1    0    0    0 -0.23762174396E+02 -0.54056954333E+02  0.20480347949E+02  0.62499919167E+02  0.00000000000E+00 0.  1.
</event>
<event>
 4    1  0.1974401E-002  0.9118800E+02  0.7818608E-02  0.1130116E+00
         25   -1    0    0    0    0  0.00000000000E+00  0.00000000000E+00  0.99999998245E-14  0.12500000000E+03  0.12500000000E+03 0.  0.
        -11    1    1    0    0    0 -0.60896972672E+01 -0.17868685748E+02 -0.40282793645E+00  0.18882177146E+02  0.51100000000E-03 0.  1.
         11    1    1    0    0    0  0.43797084074E+02 -0.18871182475E+02  0.17447025217E+02  0.50780949091E+02  0.51100000000E-03 0. -1.
         22    1    1    0    0    0 -0.37707386807E+02  0.36739868223E+02 -0.17044197281E+02  0.55336873763E+02  0.00000000000E+00 0. -1.
</event>
<event>
 4    1  0.1974401E-002  0.9118800E+02  0.7818608E-02  0.1130116E+00
         25   -1    0    0    0    0  0.00000000000E+00  0.00000000000E+00  0.99999998245E-14  0.12500000000E+03  0.12500000000E+03 0.  0.
        -11    1    1    0    0    0  0.79753901575E+01 -0.11511062250E+02  0.19506018386E+02  0.24012416701E+02  0.51100000000E-03 0. -1.
         11    1    1    0    0    0  0.12780938309E+02 -0.18449572719E+02  0.31265875199E+02  0.38487583320E+02  0.51100000000E-03 0. -1.
         22    1    1    0    0    0 -0.20756328467E+02  0.29960634969E+02 -0.50771893585E+02  0.62499999979E+02  0.00000000000E+00 0. -1.
</event>
<event>
 4    1  0.1974401E-002  0.9118800E+02  0.7818608E-02  0.1130116E+00
         25   -1    0    0    0    0  0.00000000000E+00  0.00000000000E+00  0.99999998245E-14  0.12500000000E+03  0.12500000000E+03 0.  0.
        -11    1    1    0    0    0 -0.10072206170E+02 -0.33914703041E+01  0.88973608141E+01  0.13860535259E+02  0.51100000000E-03 0. -1.
         11    1    1    0    0    0  0.11469925731E+02 -0.50498730484E+02  0.12279357996E+02  0.53220894485E+02  0.51100000000E-03 0.  1.
         22    1    1    0    0    0 -0.13977195606E+01  0.53890200788E+02 -0.21176718810E+02  0.57918570256E+02  0.00000000000E+00 0.  1.
</event>
<event>
 4    1  0.1974401E-002  0.9118800E+02  0.7818608E-02  0.1130116E+00
         25   -1    0    0    0    0  0.00000000000E+00  0.00000000000E+00  0.99999998245E-14  0.12500000000E+03  0.12500000000E+03 0.  0.
        -11    1    1    0    0    0 -0.24422755332E+02  0.39241910123E+02  0.38552757537E+02  0.60188982397E+02  0.51100000000E-03 0. -1.
         11    1    1    0    0    0 -0.96201982753E+00  0.15071204725E+01  0.14643476670E+01  0.23111054969E+01  0.51100000000E-03 0.  1.
         22    1    1    0    0    0  0.25384775159E+02 -0.40749030595E+02 -0.40017105204E+02  0.62499912106E+02  0.00000000000E+00 0. -1.
</event>
<event>
 4    1  0.1974401E-002  0.9118800E+02  0.7818608E-02  0.1130116E+00
         25   -1    0    0    0    0  0.00000000000E+00  0.00000000000E+00  0.99999998245E-14  0.12500000000E+03  0.12500000000E+03 0.  0.
        -11    1    1    0    0    0  0.20703595804E+02 -0.41801912952E+01  0.13910989936E+02  0.25290878192E+02  0.51100000000E-03 0.  1.
         11    1    1    0    0    0  0.30742974631E+02 -0.69362747516E+01  0.19786639912E+02  0.37212276414E+02  0.51100000000E-03 0. -1.
         22    1    1    0    0    0 -0.51446570435E+02  0.11116466047E+02 -0.33697629848E+02  0.62496845394E+02  0.00000000000E+00 0. -1.
</event>
<event>
 4    1  0.1974401E-002  0.9118800E+02  0.7818608E-02  0.1130116E+00
         25   -1    0    0    0    0  0.00000000000E+00  0.00000000000E+00  0.99999998245E-14  0.12500000000E+03  0.12500000000E+03 0.  0.
        -11    1    1    0    0    0 -0.44058886238E+01  0.13343786447E+02  0.11672230253E+01  0.14100741157E+02  0.51100000000E-03 0.  1.
         11    1    1    0    0    0 -0.21628437095E+02  0.27031269033E+02 -0.37222761906E+02  0.50833186019E+02  0.51100000000E-03 0. -1.
         22    1    1    0    0    0  0.26034325719E+02 -0.40375055480E+02  0.36055538880E+02  0.60066072825E+02  0.00000000000E+00 0. -1.
</event>
<event>
 4    1  0.1974401E-002  0.9118800E+02  0.7818608E-02  0.1130116E+00
         25   -1    0    0    0    0  0.00000000000E+00  0.00000000000E+00  0.99999998245E-14  0.12500000000E+03  0.12500000000E+03 0.  0.
        -11    1    1    0    0    0 -0.37437002132E+01  0.12041209903E+02  0.12428209161E+01  0.12670857560E+02  0.51100000000E-03 0.  1.
         11    1    1    0    0    0 -0.14832894849E+02  0.47318388454E+02  0.48887769981E+01  0.49829156087E+02  0.51100000000E-03 0. -1.
         22    1    1    0    0    0  0.18576595062E+02 -0.59359598357E+02 -0.61315979141E+01  0.62499986354E+02  0.00000000000E+00 0. -1.
</event>
<event>
 4    1  0.1974401E-002  0.9118800E+02  0.7818608E-02  0.1130116E+00
         25   -1    0    0    0    0  0.00000000000E+00  0.00000000000E+00  0.99999998245E-14  0.12500000000E+03  0.12500000000E+03 0.  0.
        -11    1    1    0    0    0  0.16162871649E+02 -0.30488206637E+02  0.10741626127E+02  0.36140720745E+02  0.51100000000E-03 0.  1.
         11    1    1    0    0    0  0.11788286629E+02 -0.22236169877E+02  0.78358567513E+01  0.26359279272E+02  0.51100000000E-03 0. -1.
         22    1    1    0    0    0 -0.27951158278E+02  0.52724376514E+02 -0.18577482878E+02  0.62499999983E+02  0.00000000000E+00 0.  1.
</event>
<event>
 4    1  0.1974401E-002  0.9118800E+02  0.7818608E-02  0.1130116E+00
         25   -1    0    0    0    0  0.00000000000E+00  0.00000000000E+00  0.99999998245E-14  0.12500000000E+03  0.12500000000E+03 0.  0.
        -11    1    1    0    0    0 -0.22794827366E+02 -0.23569811305E+01 -0.20985901491E+02  0.31073583256E+02  0.51100000000E-03 0. -1.
         11    1    1    0    0    0 -0.22099035268E+02 -0.72126878888E+00 -0.22359933422E+02  0.31446052396E+02  0.51100000000E-03 0.  1.
         22    1    1    0    0    0  0.44893862633E+02  0.30782499194E+01  0.43345834913E+02  0.62480364348E+02  0.00000000000E+00 0. -1.
</event>
<event>
 4    1  0.1974401E-002  0.9118800E+02  0.7818608E-02  0.1130116E+00
         25   -1    0    0    0    0  0.00000000000E+00  0.00000000000E+00  0.99999998245E-14  0.12500000000E+03  0.12500000000E+03 0.  0.
        -11    1    1    0    0    0 -0.31927525507E+02  0.96375291021E+01  0.49680434743E+02  0.59836397357E+02  0.51100000000E-03 0.  1.
         11    1    1    0    0    0 -0.16192586132E+01  0.52880676471E+00  0.20562683423E+01  0.26701825420E+01  0.51100000000E-03 0. -1.
         22    1    1    0    0    0  0.33546784120E+02 -0.10166335867E+02 -0.51736703085E+02  0.62493420101E+02  0.00000000000E+00 0.  1.
</event>
<event>
 4    1  0.1974401E-002  0.9118800E+02  0.7818608E-02  0.1130116E+00
         25   -1    0    0    0    0  0.00000000000E+00  0.00000000000E+00  0.99999998245E-14  0.12500000000E+03  0.12500000000E+03 0.  0.
        -11    1    1    0    0    0 -0.46408693462E+02 -0.27585121053E+02 -0.11893464342E+02  0.55282549024E+02  0.51100000000E-03 0. -1.
         11    1    1    0    0    0 -0.60301516577E+01 -0.35807250740E+01 -0.17083742094E+01  0.72182313464E+01  0.51100000000E-03 0.  1.
         22    1    1    0    0    0  0.52438845120E+02  0.31165846127E+02  0.13601838551E+02  0.62499219629E+02  0.00000000000E+00 0. -1.
</event>
<event>
 4    1  0.1974401E-002  0.9118800E+02  0.7818608E-02  0.1130116E+00
         25   -1    0    0    0    0  0.00000000000E+00  0.00000000000E+00  0.99999998245E-14  0.12500000000E+03  0.12500000000E+03 0.  0.
        -11    1    1    0    0    0  0.46774818133E+02  0.64637577024E+00 -0.13327667551E+02  0.48640807309E+02  0.51100000000E-03 0. -1.
         11    1    1    0    0    0  0.13327391139E+02  0.18372467840E+00 -0.37979090031E+01  0.13859192703E+02  0.51100000000E-03 0.  1.
         22    1    1    0    0    0 -0.60102209272E+02 -0.83010044864E+00  0.17125576554E+02  0.62499999988E+02  0.00000000000E+00 0. -1.
</event>
<event>
 4    1  0.1974401E-002  0.9118800E+02  0.7818608E-02  0.1130116E+00
         25   -1    0    0    0    0  0.00000000000E+00  0.00000000000E+00  0.99999998245E-14  0.12500000000E+03  0.12500000000E+03 0.  0.
        -11    1    1    0    0    0 -0.31979396764E+02  0.14014049871E+02 -0.19318989848E+02  0.39903618635E+02  0.51100000000E-03 0. -1.
         11    1    1    0    0    0 -0.15052133287E+01  0.26508698934E+02 -0.52589280133E+01  0.27067196206E+02  0.51100000000E-03 0.  1.
         22    1    1    0    0    0  0.33484610093E+02 -0.40522748805E+02  0.24577917861E+02  0.58029185159E+02  0.00000000000E+00 0. -1.
</event>
<event>
 4    1  0.1974401E-002  0.9118800E+02  0.7818608E-02  0.1130116E+00
         25   -1    0    0    0    0  0.00000000000E+00  0.00000000000E+00  0.99999998245E-14  0.12500000000E+03  0.12500000000E+03 0.  0.
        -11    1    1    0    0    0  0.99782880523E+01  0.95753411677E+01  0.43825229561E+01  0.14507236079E+02  0.51100000000E-03 0.  1.
         11    1    1    0    0    0  0.33003807492E+02  0.31683469475E+02  0.14498684476E+02  0.47992764024E+02  0.51100000000E-03 0. -1.
         22    1    1    0    0    0 -0.42982095544E+02 -0.41258810642E+02 -0.18881207432E+02  0.62499999897E+02  0.00000000000E+00 0. -1.
</event>
<event>
 4    1  0.1974401E-002  0.9118800E+02  0.7818608E-02  0.1130116E+00
         25   -1    0    0    0    0  0.00000000000E+00  0.00000000000E+00  0.99999998245E-14  0.12500000000E+03  0.12500000000E+03 0.  0.
        -11    1    1    0    0    0  0.18264496318E+01  0.43850160194E+00  0.19110388397E+00  0.18880473692E+01  0.51100000000E-03 0.  1.
         11    1    1    0    0    0 -0.18269933175E+02  0.51812659917E+02  0.27827069932E+02  0.61584803379E+02  0.51100000000E-03 0. -1.
         22    1    1    0    0    0  0.16443483544E+02 -0.52251161519E+02 -0.28018173816E+02  0.61527149252E+02  0.00000000000E+00 0. -1.
</event>
<event>
 4    1  0.1974401E-002  0.9118800E+02  0.7818608E-02  0.1130116E+00
         25   -1    0    0    0    0  0.00000000000E+00  0.00000000000E+00  0.99999998245E-14  0.12500000000E+03  0.12500000000E+03 0.  0.
        -11    1    1    0    0    0 -0.40079427813E+02 -0.32451831336E+02  0.26129862400E+02  0.57812209785E+02  0.51100000000E-03 0. -1.
         11    1    1    0    0    0  0.96952715770E+01 -0.56433059129E+01 -0.12055899931E+02  0.16467844910E+02  0.51100000000E-03 0.  1.
         22    1    1    0    0    0  0.30384156236E+02  0.38095137249E+02 -0.14073962469E+02  0.50719945305E+02  0.00000000000E+00 0. -1.
</event>
<event>
 4    1  0.1974401E-002  0.9118800E+02  0.7818608E-02  0.1130116E+00
         25   -1    0    0    0    0  0.00000000000E+00  0.00000000000E+00  0.99999998245E-14  0.12500000000E+03  0.12500000000E+03 0.  0.
        -11    1    1    0    0    0 -0.10413670003E+02 -0.18298447415E+02  0.19741768607E+02  0.28862001468E+02  0.51100000000E-03 0. -1.
         11    1    1    0    0    0 -0.12158036923E+02 -0.21294154865E+02  0.23027298507E+02  0.33638004846E+02  0.51100000000E-03 0.  1.
         22    1    1    0    0    0  0.22571706926E+02  0.39592602280E+02 -0.42769067115E+02  0.62499993686E+02  0.00000000000E+00 0.  1.
</event>
<event>
 4    1  0.1974401E-002  0.9118800E+02  0.7818608E-02  0.1130116E+00
         25   -1    0    0    0    0  0.00000000000E+00  0.00000000000E+00  0.99999998245E-14  0.12500000000E+03  0.12500000000E+03 0.  0.
        -11    1    1    0    0    0 -0.33999538347E+01  0.26691044307E+01  0.87128375322E+01  0.97261165253E+01  0.51100000000E-03 0.  1.
         11    1    1    0    0    0 -0.18431468143E+02  0.14488482054E+02  0.47280521079E+02  0.52773883730E+02  0.51100000000E-03 0. -1.
         22    1    1    0    0    0  0.21831421977E+02 -0.17157586485E+02 -0.55993358612E+02  0.62499999745E+02  0.00000000000E+00 0. -1.
</event>
<event>
 4    1  0.1974401E-002  0.9118800E+02  0.7818608E-02  0.1130116E+00
         25   -1    0    0    0    0  0.00000000000E+00  0.00000000000E+00  0.99999998245E-14  0.12500000000E+03  0.12500000000E+03 0.  0.
        -11    1    1    0    0    0 -0.33078757880E+02  0.26407321172E+02 -0.62176550995E+01  0.42780954519E+02  0.51100000000E-03 0.  1.
         11    1    1    0    0    0 -0.11860629794E+02  0.15222235350E+02 -0.50174772417E+01  0.19939058812E+02  0.51100000000E-03 0. -1.
         22    1    1    0    0    0  0.44939387674E+02 -0.41629556522E+02  0.11235132341E+02  0.62279986669E+02  0.00000000000E+00 0.  1.
</event>
<event>
 4    1  0.1974401E-002  0.9118800E+02  0.7818608E-02  0.1130116E+00
         25   -1    0    0    0    0  0.00000000000E+00  0.00000000000E+00  0.99999998245E-14  0.12500000000E+03  0.12500000000E+03 0.  0.
        -11    1    1    0    0    0  0.44476228756E+02  0.10678324565E+02  0.29855169553E+01  0.45837483042E+02  0.51100000000E-03 0. -1.
         11    1    1    0    0    0  0.16883090844E+02 -0.43761582574E+00 -0.13718139645E+00  0.16889318608E+02  0.51100000000E-03 0.  1.
         22    1    1    0    0    0 -0.61359319600E+02 -0.10240708739E+02 -0.28483355589E+01  0.62273198350E+02  0.00000000000E+00 0. -1.
</event>
<event>
 4    1  0.1974401E-002  0.9118800E+02  0.7818608E-02  0.1130116E+00
         25   -1    0    0    0    0  0.00000000000E+00  0.00000000000E+00  0.99999998245E-14  0.12500000000E+03  0.12500000000E+03 0.  0.
        -11    1    1    0    0    0 -0.51472148724E+02 -0.22911667939E+02  0.24377324576E+02  0.61388765876E+02  0.51100000000E-03 0. -1.
         11    1    1    0    0    0 -0.92145935575E+00 -0.47065663481E+00  0.40788641809E+00  0.11121944989E+01  0.51100000000E-03 0.  1.
         22    1    1    0    0    0  0.52393608079E+02  0.23382324574E+02 -0.24785210995E+02  0.62499039625E+02  0.00000000000E+00 0. -1.
</event>
<event>
 4    1  0.1974401E-002  0.9118800E+02  0.7818608E-02  0.1130116E+00
         25   -1    0    0    0    0  0.00000000000E+00  0.00000000000E+00  0.99999998245E-14  0.12500000000E+03  0.12500000000E+03 0.  0.
        -11    1    1    0    0    0 -0.31401583910E+02  0.15283279303E+02 -0.12151611652E-02  0.34923317426E+02  0.51100000000E-03 0.  1.
         11    1    1    0    0    0 -0.21432960372E+02  0.11123883001E+02  0.15894749933E+02  0.28909438580E+02  0.51100000000E-03 0. -1.
         22    1    1    0    0    0  0.52834544281E+02 -0.26407162304E+02 -0.15893534771E+02  0.61167243995E+02  0.00000000000E+00 0. -1.
</event>
<event>
 4    1  0.1974401E-002  0.9118800E+02  0.7818608E-02  0.1130116E+00
         25   -1    0    0    0    0  0.00000000000E+00  0.00000000000E+00  0.99999998245E-14  0.12500000000E+03  0.12500000000E+03 0.  0.
        -11    1    1    0    0    0  0.80395765898E+01 -0.26326494360E+01  0.66521900562E+01  0.10761843132E+02  0.51100000000E-03 0.  1.
         11    1    1    0    0    0  0.38652625305E+02 -0.12669368854E+02  0.31973403720E+02  0.51738157059E+02  0.51100000000E-03 0. -1.
         22    1    1    0    0    0 -0.46692201895E+02  0.15302018290E+02 -0.38625593776E+02  0.62499999809E+02  0.00000000000E+00 0.  1.
</event>
<event>
 4    1  0.1974401E-002  0.9118800E+02  0.7818608E-02  0.1130116E+00
         25   -1    0    0    0    0  0.00000000000E+00  0.00000000000E+00  0.99999998245E-14  0.12500000000E+03  0.12500000000E+03 0.  0.
        -11    1    1    0    0    0  0.28803280286E+02 -0.12896534748E+02  0.32707088334E+02  0.45450007604E+02  0.51100000000E-03 0.  1.
         11    1    1    0    0    0  0.10804420484E+02 -0.48376537997E+01  0.12270445990E+02  0.17049992415E+02  0.51100000000E-03 0. -1.
         22    1    1    0    0    0 -0.39607700770E+02  0.17734188547E+02 -0.44977534324E+02  0.62499999981E+02  0.00000000000E+00 0. -1.
</event>
<event>
 4    1  0.1974401E-002  0.9118800E+02  0.7818608E-02  0.1130116E+00
         25   -1    0    0    0    0  0.00000000000E+00  0.00000000000E+00  0.99999998245E-14  0.12500000000E+03  0.12500000000E+03 0.  0.
        -11    1    1    0    0    0  0.37005468490E+01 -0.71888712155E+01  0.69545626097E+01  0.10664889014E+02  0.51100000000E-03 0. -1.
         11    1    1    0    0    0  0.17983576144E+02 -0.34940927713E+02  0.33802385886E+02  0.51835110998E+02  0.51100000000E-03 0. -1.
         22    1    1    0    0    0 -0.21684122993E+02  0.42129798929E+02 -0.40756948495E+02  0.62499999987E+02  0.00000000000E+00 0. -1.
</event>
<event>
 4    1  0.1974401E-002  0.9118800E+02  0.7818608E-02  0.1130116E+00
         25   -1    0    0    0    0  0.00000000000E+00  0.00000000000E+00  0.99999998245E-14  0.12500000000E+03  0.12500000000E+03 0.  0.
        -11    1    1    0    0    0 -0.32881975525E+01 -0.19161619101E+02 -0.97463374369E+01  0.21747896068E+02  0.51100000000E-03 0. -1.
         11    1    1    0    0    0 -0.61680176480E+01 -0.35906333903E+02 -0.18259921356E+02  0.40752104047E+02  0.51100000000E-03 0.  1.
         22    1    1    0    0    0  0.94562152005E+01  0.55067953004E+02  0.28006258793E+02  0.62499999884E+02  0.00000000000E+00 0. -1.
</event>
<event>
 4    1  0.1974401E-002  0.9118800E+02  0.7818608E-02  0.1130116E+00
         25   -1    0    0    0    0  0.00000000000E+00  0.00000000000E+00  0.99999998245E-14  0.12500000000E+03  0.12500000000E+03 0.  0.
        -11    1    1    0    0    0  0.35618351168E+02 -0.55927950362E+00 -0.34055454467E+02  0.49282387450E+02  0.51100000000E-03 0.  1.
         11    1    1    0    0    0  0.95529734436E+01 -0.15203094205E+00 -0.91336119937E+01  0.13217612619E+02  0.51100000000E-03 0. -1.
         22    1    1    0    0    0 -0.45171324612E+02  0.71131044567E+00  0.43189066461E+02  0.62499999932E+02  0.00000000000E+00 0.  1.
</event>
<event>
 4    1  0.1974401E-002  0.9118800E+02  0.7818608E-02  0.1130116E+00
         25   -1    0    0    0    0  0.00000000000E+00  0.00000000000E+00  0.99999998245E-14  0.12500000000E+03  0.12500000000E+03 0.  0.
        -11    1    1    0    0    0 -0.21051214137E+02 -0.57917958604E+01  0.34660164475E+01  0.22106826688E+02  0.51100000000E-03 0.  1.
         11    1    1    0    0    0 -0.40036721923E+02 -0.63888138055E+01 -0.11399765752E+01  0.40559284893E+02  0.51100000000E-03 0. -1.
         22    1    1    0    0    0  0.61087936060E+02  0.12180609666E+02 -0.23260398724E+01  0.62333888419E+02  0.00000000000E+00 0.  1.
</event>
<event>
 4    1  0.1974401E-002  0.9118800E+02  0.7818608E-02  0.1130116E+00
         25   -1    0    0    0    0  0.00000000000E+00  0.00000000000E+00  0.99999998245E-14  0.12500000000E+03  0.12500000000E+03 0.  0.
        -11    1    1    0    0    0  0.22016167509E+02  0.15716001047E+02  0.33980460099E+02  0.43432430159E+02  0.51100000000E-03 0. -1.
         11    1    1    0    0    0  0.10098859740E+02  0.56760659094E+01  0.15164903149E+02  0.19083474003E+02  0.51100000000E-03 0.  1.
         22    1    1    0    0    0 -0.32115027249E+02 -0.21392066957E+02 -0.49145363248E+02  0.62484095838E+02  0.00000000000E+00 0. -1.
</event>
<event>
 4    1  0.1974401E-002  0.9118800E+02  0.7818608E-02  0.1130116E+00
         25   -1    0    0    0    0  0.00000000000E+00  0.00000000000E+00  0.99999998245E-14  0.12500000000E+03  0.12500000000E+03 0.  0.
        -11    1    1    0    0    0 -0.39217965429E+02  0.30693638133E+01  0.84443577946E+01  0.40234027706E+02  0.51100000000E-03 0. -1.
         11    1    1    0    0    0 -0.21373747462E+02  0.38890149642E+01  0.50434461767E+01  0.22302418424E+02  0.51100000000E-03 0.  1.
         22    1    1    0    0    0  0.60591712890E+02 -0.69583787775E+01 -0.13487803971E+02  0.62463553871E+02  0.00000000000E+00 0. -1.
</event>
<event>
 4    1  0.1974401E-002  0.9118800E+02  0.7818608E-02  0.1130116E+00
         25   -1    0    0    0    0  0.00000000000E+00  0.00000000000E+00  0.99999998245E-14  0.12500000000E+03  0.12500000000E+03 0.  0.
        -11    1    1    0    0    0  0.27542849978E+02 -0.58230876548E+01  0.18499718125E+02  0.33686147090E+02  0.51100000000E-03 0.  1.
         11    1    1    0    0    0 -0.56581652123E+01 -0.74739210587E+01  0.32727073610E+02  0.34043144345E+02  0.51100000000E-03 0. -1.
         22    1    1    0    0    0 -0.21884684766E+02  0.13297008714E+02 -0.51226791735E+02  0.57270708565E+02  0.00000000000E+00 0. -1.
</event>
<event>
 4    1  0.1974401E-002  0.9118800E+02  0.7818608E-02  0.1130116E+00
         25   -1    0    0    0    0  0.00000000000E+00  0.00000000000E+00  0.99999998245E-14  0.12500000000E+03  0.12500000000E+03 0.  0.
        -11    1    1    0    0    0 -0.45705488530E+01 -0.84134412940E+01  0.37429633487E+01  0.10280354377E+02  0.51100000000E-03 0.  1.
         11    1    1    0    0    0 -0.23203621851E+02 -0.42742282913E+02  0.19015272559E+02  0.52219645790E+02  0.51100000000E-03 0. -1.
         22    1    1    0    0    0  0.27774170704E+02  0.51155724207E+02 -0.22758235908E+02  0.62499999833E+02  0.00000000000E+00 0. -1.
</event>
<event>
 4    1  0.1974401E-002  0.9118800E+02  0.7818608E-02  0.1130116E+00
         25   -1    0    0    0    0  0.00000000000E+00  0.00000000000E+00  0.99999998245E-14  0.12500000000E+03  0.12500000000E+03 0.  0.
        -11    1    1    0    0    0 -0.10258911280E+02  0.25332011871E+02  0.16463041485E+02  0.31905921414E+02  0.51100000000E-03 0.  1.
         11    1    1    0    0    0 -0.98117463792E+01  0.24564426592E+02  0.15374614636E+02  0.30595100854E+02  0.51100000000E-03 0. -1.
         22    1    1    0    0    0  0.20070657660E+02 -0.49896438463E+02 -0.31837656122E+02  0.62498977732E+02  0.00000000000E+00 0.  1.
</event>
<event>
 4    1  0.1974401E-002  0.9118800E+02  0.7818608E-02  0.1130116E+00
         25   -1    0    0    0    0  0.00000000000E+00  0.00000000000E+00  0.99999998245E-14  0.12500000000E+03  0.12500000000E+03 0.  0.
        -11    1    1    0    0    0 -0.83718276069E+00  0.30023565997E+02 -0.62097180784E+01  0.30670441617E+02  0.51100000000E-03 0.  1.
         11    1    1    0    0    0  0.32327403704E+01  0.31391696112E+02 -0.47032885157E+01  0.31906270829E+02  0.51100000000E-03 0. -1.
         22    1    1    0    0    0 -0.23955576098E+01 -0.61415262108E+02  0.10913006594E+02  0.62423287554E+02  0.00000000000E+00 0. -1.
</event>
<event>
 4    1  0.1974401E-002  0.9118800E+02  0.7818608E-02  0.1130116E+00
         25   -1    0    0    0    0  0.00000000000E+00  0.00000000000E+00  0.99999998245E-14  0.12500000000E+03  0.12500000000E+03 0.  0.
        -11    1    1    0    0    0 -0.17561661083E+01 -0.10138702261E+02 -0.42372766021E+02  0.43604228045E+02  0.51100000000E-03 0.  1.
         11    1    1    0    0    0 -0.75750148141E+00 -0.43925445023E+01 -0.18362514718E+02  0.18895772086E+02  0.51100000000E-03 0. -1.
         22    1    1    0    0    0  0.25136675897E+01  0.14531246763E+02  0.60735280738E+02  0.62499999869E+02  0.00000000000E+00 0.  1.
</event>
<event>
 4    1  0.1974401E-002  0.9118800E+02  0.7818608E-02  0.1130116E+00
         25   -1    0    0    0    0  0.00000000000E+00  0.00000000000E+00  0.99999998245E-14  0.12500000000E+03  0.12500000000E+03 0.  0.
        -11    1    1    0    0    0 -0.10140994566E+02 -0.36571428172E+01 -0.76095592326E+01  0.13195448319E+02  0.51100000000E-03 0. -1.
         11    1    1    0    0    0 -0.34771775997E+02 -0.14595294827E+02 -0.31798663147E+02  0.49328024644E+02  0.51100000000E-03 0.  1.
         22    1    1    0    0    0  0.44912770562E+02  0.18252437644E+02  0.39408222379E+02  0.62476527037E+02  0.00000000000E+00 0.  1.
</event>
<event>
 4    1  0.1974401E-002  0.9118800E+02  0.7818608E-02  0.1130116E+00
         25   -1    0    0    0    0  0.00000000000E+00  0.00000000000E+00  0.99999998245E-14  0.12500000000E+03  0.12500000000E+03 0.  0.
        -11    1    1    0    0    0 -0.11438463649E+01  0.10200394973E+02  0.35530308155E+01  0.10861881529E+02  0.51100000000E-03 0. -1.
         11    1    1    0    0    0  0.39649009646E+01  0.41643143104E+02  0.30742885903E+02  0.51913358986E+02  0.51100000000E-03 0.  1.
         22    1    1    0    0    0 -0.28210545997E+01 -0.51843538077E+02 -0.34295916719E+02  0.62224759485E+02  0.00000000000E+00 0.  1.
</event>
<event>
 4    1  0.1974401E-002  0.9118800E+02  0.7818608E-02  0.1130116E+00
         25   -1    0    0    0    0  0.00000000000E+00  0.00000000000E+00  0.99999998245E-14  0.12500000000E+03  0.12500000000E+03 0.  0.
        -11    1    1    0    0    0  0.23045089309E+01 -0.73305453787E+00  0.73937511300E+01  0.77791828878E+01  0.51100000000E-03 0.  1.
         11    1    1    0    0    0  0.67569101858E+00 -0.18954326104E+02  0.51590494638E+02  0.54966373117E+02  0.51100000000E-03 0. -1.
         22    1    1    0    0    0 -0.29801999495E+01  0.19687380641E+02 -0.58984245768E+02  0.62254443995E+02  0.00000000000E+00 0. -1.
</event>
<event>
 4    1  0.1974401E-002  0.9118800E+02  0.7818608E-02  0.1130116E+00
         25   -1    0    0    0    0  0.00000000000E+00  0.00000000000E+00  0.99999998245E-14  0.12500000000E+03  0.12500000000E+03 0.  0.
        -11    1    1    0    0    0 -0.56510438298E+02 -0.18044411896E+02 -0.13889376528E+02  0.60925735268E+02  0.51100000000E-03 0.  1.
         11    1    1    0    0    0 -0.14599887456E+01 -0.46637290840E+00 -0.35949784265E+00  0.15742648402E+01  0.51100000000E-03 0.  1.
         22    1    1    0    0    0  0.57970427044E+02  0.18510784805E+02  0.14248874371E+02  0.62499999892E+02  0.00000000000E+00 0.  1.
</event>
<event>
 4    1  0.1974401E-002  0.9118800E+02  0.7818608E-02  0.1130116E+00
         25   -1    0    0    0    0  0.00000000000E+00  0.00000000000E+00  0.99999998245E-14  0.12500000000E+03  0.12500000000E+03 0.  0.
        -11    1    1    0    0    0  0.73579092365E+01 -0.43433873645E+01 -0.79197692634E+01  0.11650175431E+02  0.51100000000E-03 0.  1.
         11    1    1    0    0    0  0.36202939196E+02 -0.27277154998E+02 -0.23463625311E+02  0.51041529211E+02  0.51100000000E-03 0. -1.
         22    1    1    0    0    0 -0.43560848432E+02  0.31620542362E+02  0.31383394574E+02  0.62308295358E+02  0.00000000000E+00 0. -1.
</event>
<event>
 4    1  0.1974401E-002  0.9118800E+02  0.7818608E-02  0.1130116E+00
         25   -1    0    0    0    0  0.00000000000E+00  0.00000000000E+00  0.99999998245E-14  0.12500000000E+03  0.12500000000E+03 0.  0.
        -11    1    1    0    0    0 -0.46048399171E+02 -0.40029026959E+01 -0.50278903281E+01  0.46494709136E+02  0.51100000000E-03 0.  1.
         11    1    1    0    0    0 -0.15739176612E+02  0.29753318801E+01  0.47541407883E+01  0.16708564723E+02  0.51100000000E-03 0. -1.
         22    1    1    0    0    0  0.61787575783E+02  0.10275708158E+01  0.27374953977E+00  0.61796726141E+02  0.00000000000E+00 0.  1.
</event>
<event>
 4    1  0.1974401E-002  0.9118800E+02  0.7818608E-02  0.1130116E+00
         25   -1    0    0    0    0  0.00000000000E+00  0.00000000000E+00  0.99999998245E-14  0.12500000000E+03  0.12500000000E+03 0.  0.
        -11    1    1    0    0    0  0.90821613939E+01  0.15744362607E+01  0.25490355981E+01  0.95635813305E+01  0.51100000000E-03 0. -1.
         11    1    1    0    0    0  0.51184224184E+02  0.53831640195E+01  0.12433388679E+02  0.52947071822E+02  0.51100000000E-03 0.  1.
         22    1    1    0    0    0 -0.60266385578E+02 -0.69576002802E+01 -0.14982424277E+02  0.62489346848E+02  0.00000000000E+00 0.  1.
</event>
<event>
 4    1  0.1974401E-002  0.9118800E+02  0.7818608E-02  0.1130116E+00
         25   -1    0    0    0    0  0.00000000000E+00  0.00000000000E+00  0.99999998245E-14  0.12500000000E+03  0.12500000000E+03 0.  0.
        -11    1    1    0    0    0  0.35881511070E+02  0.11479739310E+02  0.37038263362E+02  0.52830864127E+02  0.51100000000E-03 0.  1.
         11    1    1    0    0    0  0.74698746578E+01  0.16581608154E+01  0.59705835552E+01  0.97054826229E+01  0.51100000000E-03 0. -1.
         22    1    1    0    0    0 -0.43351385727E+02 -0.13137900125E+02 -0.43008846917E+02  0.62463653250E+02  0.00000000000E+00 0.  1.
</event>
<event>
 4    1  0.1974401E-002  0.9118800E+02  0.7818608E-02  0.1130116E+00
         25   -1    0    0    0    0  0.00000000000E+00  0.00000000000E+00  0.99999998245E-14  0.12500000000E+03  0.12500000000E+03 0.  0.
        -11    1    1    0    0    0  0.40390270404E+02 -0.14131830228E+02 -0.24241188923E+02  0.49180461665E+02  0.51100000000E-03 0.  1.
         11    1    1    0    0    0  0.11440833649E+02 -0.43107739369E+01 -0.53572704619E+01  0.13348250581E+02  0.51100000000E-03 0. -1.
         22    1    1    0    0    0 -0.51831104053E+02  0.18442604165E+02  0.29598459384E+02  0.62471287754E+02  0.00000000000E+00 0.  1.
</event>
<event>
 4    1  0.1974401E-002  0.9118800E+02  0.7818608E-02  0.1130116E+00
         25   -1    0    0    0    0  0.00000000000E+00  0.00000000000E+00  0.99999998245E-14  0.12500000000E+03  0.12500000000E+03 0.  0.
        -11    1    1    0    0    0 -0.31936734982E+02  0.25195163569E+02  0.22776197466E+02  0.46620880299E+02  0.51100000000E-03 0. -1.
         11    1    1    0    0    0 -0.10898039250E+02  0.86063068405E+01  0.77014430836E+01  0.15879168831E+02  0.51100000000E-03 0.  1.
         22    1    1    0    0    0  0.42834774232E+02 -0.33801470409E+02 -0.30477640549E+02  0.62499950870E+02  0.00000000000E+00 0. -1.
</event>
<event>
 4    1  0.1974401E-002  0.9118800E+02  0.7818608E-02  0.1130116E+00
         25   -1    0    0    0    0  0.00000000000E+00  0.00000000000E+00  0.99999998245E-14  0.12500000000E+03  0.12500000000E+03 0.  0.
        -11    1    1    0    0    0  0.99810437188E+01  0.31678666060E+02 -0.20834026711E+02  0.39207343525E+02  0.51100000000E-03 0. -1.
         11    1    1    0    0    0  0.59430403305E+01  0.18826631433E+02 -0.12360672430E+02  0.23292659846E+02  0.51100000000E-03 0.  1.
         22    1    1    0    0    0 -0.15924084049E+02 -0.50505297493E+02  0.33194699141E+02  0.62499996630E+02  0.00000000000E+00 0. -1.
</event>
<event>
 4    1  0.1974401E-002  0.9118800E+02  0.7818608E-02  0.1130116E+00
         25   -1    0    0    0    0  0.00000000000E+00  0.00000000000E+00  0.99999998245E-14  0.12500000000E+03  0.12500000000E+03 0.  0.
        -11    1    1    0    0    0 -0.42331476620E+01  0.55854591465E+01 -0.16762434059E+01  0.72060172927E+01  0.51100000000E-03 0. -1.
         11    1    1    0    0    0 -0.33571027684E+02  0.41552862113E+02 -0.14284732924E+02  0.55296544598E+02  0.51100000000E-03 0.  1.
         22    1    1    0    0    0  0.37804175346E+02 -0.47138321260E+02  0.15960976330E+02  0.62497438109E+02  0.00000000000E+00 0.  1.
</event>
<event>
 4    1  0.1974401E-002  0.9118800E+02  0.7818608E-02  0.1130116E+00
         25   -1    0    0    0    0  0.00000000000E+00  0.00000000000E+00  0.99999998245E-14  0.12500000000E+03  0.12500000000E+03 0.  0.
        -11    1    1    0    0    0 -0.14860975007E+02 -0.21436050780E+02  0.10084071743E+02  0.27965002313E+02  0.51100000000E-03 0. -1.
         11    1    1    0    0    0 -0.18352559335E+02 -0.26471731816E+02  0.12453796446E+02  0.34534997693E+02  0.51100000000E-03 0.  1.
         22    1    1    0    0    0  0.33213534342E+02  0.47907782596E+02 -0.22537868189E+02  0.62499999994E+02  0.00000000000E+00 0. -1.
</event>
<event>
 4    1  0.1974401E-002  0.9118800E+02  0.7818608E-02  0.1130116E+00
         25   -1    0    0    0    0  0.00000000000E+00  0.00000000000E+00  0.99999998245E-14  0.12500000000E+03  0.12500000000E+03 0.  0.
        -11    1    1    0    0    0 -0.51626504731E+00  0.13295038891E+00 -0.19616089947E-01  0.53347020263E+00  0.51100000000E-03 0.  1.
         11    1    1    0    0    0 -0.60615065837E+02  0.12351172670E+02 -0.36281565102E+01  0.61966936286E+02  0.51100000000E-03 0. -1.
         22    1    1    0    0    0  0.61131330884E+02 -0.12484123059E+02  0.36477726001E+01  0.62499593512E+02  0.00000000000E+00 0. -1.
</event>
<event>
 4    1  0.1974401E-002  0.9118800E+02  0.7818608E-02  0.1130116E+00
         25   -1    0    0    0    0  0.00000000000E+00  0.00000000000E+00  0.99999998245E-14  0.12500000000E+03  0.12500000000E+03 0.  0.
        -11    1    1    0    0    0  0.15491814577E+02  0.56307418197E+01 -0.33665115546E+01  0.16823643263E+02  0.51100000000E-03 0.  1.
         11    1    1    0    0    0  0.40272987389E+02  0.18308380814E+02 -0.11472139814E+02  0.45702519772E+02  0.51100000000E-03 0. -1.
         22    1    1    0    0    0 -0.55764801966E+02 -0.23939122634E+02  0.14838651369E+02  0.62473836966E+02  0.00000000000E+00 0. -1.
</event>
<event>
 4    1  0.1974401E-002  0.9118800E+02  0.7818608E-02  0.1130116E+00
         25   -1    0    0    0    0  0.00000000000E+00  0.00000000000E+00  0.99999998245E-14  0.12500000000E+03  0.12500000000E+03 0.  0.
        -11    1    1    0    0    0 -0.43752969294E+02 -0.37540803987E+02  0.18829940226E+02  0.60648173387E+02  0.51100000000E-03 0. -1.
         11    1    1    0    0    0 -0.13286815262E+01 -0.11560744729E+01  0.57221919412E+00  0.18518471460E+01  0.51100000000E-03 0.  1.
         22    1    1    0    0    0  0.45081650820E+02  0.38696878460E+02 -0.19402159420E+02  0.62499979467E+02  0.00000000000E+00 0. -1.
</event>
<event>
 4    1  0.1974401E-002  0.9118800E+02  0.7818608E-02  0.1130116E+00
         25   -1    0    0    0    0  0.00000000000E+00  0.00000000000E+00  0.99999998245E-14  0.12500000000E+03  0.12500000000E+03 0.  0.
        -11    1    1    0    0    0 -0.57182379125E+01 -0.73521798553E+01  0.34601500988E+01  0.99360672510E+01  0.51100000000E-03 0. -1.
         11    1    1    0    0    0 -0.44547232094E+02 -0.25763053425E+02  0.12158264104E+02  0.52877350495E+02  0.51100000000E-03 0.  1.
         22    1    1    0    0    0  0.50265470007E+02  0.33115233280E+02 -0.15618414203E+02  0.62186582254E+02  0.00000000000E+00 0.  1.
</event>
<event>
 4    1  0.1974401E-002  0.9118800E+02  0.7818608E-02  0.1130116E+00
         25   -1    0    0    0    0  0.00000000000E+00  0.00000000000E+00  0.99999998245E-14  0.12500000000E+03  0.12500000000E+03 0.  0.
        -11    1    1    0    0    0 -0.37316021300E+01  0.35017242487E+01 -0.13691927178E+02  0.14616969497E+02  0.51100000000E-03 0.  1.
         11    1    1    0    0    0 -0.12874970064E+02  0.13108164365E+02 -0.44222225014E+02  0.47887305339E+02  0.51100000000E-03 0. -1.
         22    1    1    0    0    0  0.16606572194E+02 -0.16609888614E+02  0.57914152191E+02  0.62495725165E+02  0.00000000000E+00 0. -1.
</event>
<event>
 4    1  0.1974401E-002  0.9118800E+02  0.7818608E-02  0.1130116E+00
         25   -1    0    0    0    0  0.00000000000E+00  0.00000000000E+00  0.99999998245E-14  0.12500000000E+03  0.12500000000E+03 0.  0.
        -11    1    1    0    0    0 -0.19199697467E+02  0.24113004294E+02  0.19837012970E+02  0.36654773806E+02  0.51100000000E-03 0. -1.
         11    1    1    0    0    0 -0.13879323872E+02  0.16924189228E+02  0.13746449909E+02  0.25846251131E+02  0.51100000000E-03 0.  1.
         22    1    1    0    0    0  0.33079021339E+02 -0.41037193522E+02 -0.33583462879E+02  0.62498975063E+02  0.00000000000E+00 0. -1.
</event>
<event>
 4    1  0.1974401E-002  0.9118800E+02  0.7818608E-02  0.1130116E+00
         25   -1    0    0    0    0  0.00000000000E+00  0.00000000000E+00  0.99999998245E-14  0.12500000000E+03  0.12500000000E+03 0.  0.
        -11    1    1    0    0    0 -0.59826142604E+01  0.44474885534E+02 -0.27425688338E+02  0.52592542225E+02  0.51100000000E-03 0. -1.
         11    1    1    0    0    0 -0.15455623806E+01  0.91144134817E+01 -0.37248630832E+01  0.99667397597E+01  0.51100000000E-03 0.  1.
         22    1    1    0    0    0  0.75281766409E+01 -0.53589299015E+02  0.31150551421E+02  0.62440718016E+02  0.00000000000E+00 0. -1.
</event>
<event>
 4    1  0.1974401E-002  0.9118800E+02  0.7818608E-02  0.1130116E+00
         25   -1    0    0    0    0  0.00000000000E+00  0.00000000000E+00  0.99999998245E-14  0.12500000000E+03  0.12500000000E+03 0.  0.
        -11    1    1    0    0    0  0.36622139533E+02 -0.23636397784E+02  0.42346744081E+02  0.60770939919E+02  0.51100000000E-03 0.  1.
         11    1    1    0    0    0  0.11120150452E+00 -0.20257972341E+01  0.64704047972E+00  0.21295262036E+01  0.51100000000E-03 0. -1.
         22    1    1    0    0    0 -0.36733341037E+02  0.25662195018E+02 -0.42993784561E+02  0.62099533877E+02  0.00000000000E+00 0.  1.
</event>
<event>
 4    1  0.1974401E-002  0.9118800E+02  0.7818608E-02  0.1130116E+00
         25   -1    0    0    0    0  0.00000000000E+00  0.00000000000E+00  0.99999998245E-14  0.12500000000E+03  0.12500000000E+03 0.  0.
        -11    1    1    0    0    0 -0.68815007447E+01  0.29609706807E+01 -0.41960271516E+00  0.75032304090E+01  0.51100000000E-03 0.  1.
         11    1    1    0    0    0 -0.54023646803E+02  0.77017873547E+01 -0.77884080117E+01  0.55122874035E+02  0.51100000000E-03 0. -1.
         22    1    1    0    0    0  0.60905147547E+02 -0.10662758035E+02  0.82080107268E+01  0.62373895556E+02  0.00000000000E+00 0. -1.
</event>
<event>
 4    1  0.1974401E-002  0.9118800E+02  0.7818608E-02  0.1130116E+00
         25   -1    0    0    0    0  0.00000000000E+00  0.00000000000E+00  0.99999998245E-14  0.12500000000E+03  0.12500000000E+03 0.  0.
        -11    1    1    0    0    0 -0.29193995691E+02 -0.59089153356E+01 -0.40733785653E+02  0.50462322169E+02  0.51100000000E-03 0. -1.
         11    1    1    0    0    0 -0.69645041840E+01 -0.14090848578E+01 -0.97167818205E+01  0.12037677844E+02  0.51100000000E-03 0. -1.
         22    1    1    0    0    0  0.36158499875E+02  0.73180001934E+01  0.50450567473E+02  0.62499999987E+02  0.00000000000E+00 0. -1.
</event>
<event>
 4    1  0.1974401E-002  0.9118800E+02  0.7818608E-02  0.1130116E+00
         25   -1    0    0    0    0  0.00000000000E+00  0.00000000000E+00  0.99999998245E-14  0.12500000000E+03  0.12500000000E+03 0.  0.
        -11    1    1    0    0    0 -0.19215038043E+02 -0.20017962384E+02  0.24877745282E+00  0.27748844940E+02  0.51100000000E-03 0.  1.
         11    1    1    0    0    0 -0.24074987590E+02 -0.25060705229E+02  0.95815453650E-01  0.34751304362E+02  0.51100000000E-03 0. -1.
         22    1    1    0    0    0  0.43290025633E+02  0.45078667613E+02 -0.34459290647E+00  0.62499850698E+02  0.00000000000E+00 0. -1.
</event>
<event>
 4    1  0.1974401E-002  0.9118800E+02  0.7818608E-02  0.1130116E+00
         25   -1    0    0    0    0  0.00000000000E+00  0.00000000000E+00  0.99999998245E-14  0.12500000000E+03  0.12500000000E+03 0.  0.
        -11    1    1    0    0    0 -0.37126811477E+00  0.21793202915E+01  0.17299679101E+00  0.22174771919E+01  0.51100000000E-03 0.  1.
         11    1    1    0    0    0 -0.20303294336E+02  0.37536552076E+02 -0.43171866788E+02  0.60704419813E+02  0.51100000000E-03 0. -1.
         22    1    1    0    0    0  0.20674562450E+02 -0.39715872367E+02  0.42998869997E+02  0.62078102995E+02  0.00000000000E+00 0. -1.
</event>
<event>
 4    1  0.1974401E-002  0.9118800E+02  0.7818608E-02  0.1130116E+00
         25   -1    0    0    0    0  0.00000000000E+00  0.00000000000E+00  0.99999998245E-14  0.12500000000E+03  0.12500000000E+03 0.  0.
        -11    1    1    0    0    0 -0.30904162666E+02  0.12114174514E+02 -0.15414710037E+00  0.33194039462E+02  0.51100000000E-03 0.  1.
         11    1    1    0    0    0 -0.27293119254E+02  0.10373043466E+02 -0.28935335848E+01  0.29340874667E+02  0.51100000000E-03 0. -1.
         22    1    1    0    0    0  0.58197281920E+02 -0.22487217980E+02  0.30476806852E+01  0.62465085871E+02  0.00000000000E+00 0.  1.
</event>
<event>
 4    1  0.1974401E-002  0.9118800E+02  0.7818608E-02  0.1130116E+00
         25   -1    0    0    0    0  0.00000000000E+00  0.00000000000E+00  0.99999998245E-14  0.12500000000E+03  0.12500000000E+03 0.  0.
        -11    1    1    0    0    0  0.13184847156E+02  0.25421886374E+02  0.14102205769E+02  0.31921539893E+02  0.51100000000E-03 0. -1.
         11    1    1    0    0    0  0.12630238961E+02  0.24352258213E+02  0.13508767754E+02  0.30578460111E+02  0.51100000000E-03 0. -1.
         22    1    1    0    0    0 -0.25815086117E+02 -0.49774144587E+02 -0.27610973523E+02  0.62499999996E+02  0.00000000000E+00 0. -1.
</event>
<event>
 4    1  0.1974401E-002  0.9118800E+02  0.7818608E-02  0.1130116E+00
         25   -1    0    0    0    0  0.00000000000E+00  0.00000000000E+00  0.99999998245E-14  0.12500000000E+03  0.12500000000E+03 0.  0.
        -11    1    1    0    0    0  0.69807505410E+01 -0.25688599670E+02 -0.44912931541E+01  0.26996420978E+02  0.51100000000E-03 0. -1.
         11    1    1    0    0    0  0.91633817881E+01 -0.33787701447E+02 -0.59099795439E+01  0.35503580007E+02  0.51100000000E-03 0.  1.
         22    1    1    0    0    0 -0.16144132329E+02  0.59476301117E+02  0.10401272698E+02  0.62499999016E+02  0.00000000000E+00 0.  1.
</event>
<event>
 4    1  0.1974401E-002  0.9118800E+02  0.7818608E-02  0.1130116E+00
         25   -1    0    0    0    0  0.00000000000E+00  0.00000000000E+00  0.99999998245E-14  0.12500000000E+03  0.12500000000E+03 0.  0.
        -11    1    1    0    0    0  0.21703049533E+02  0.43314934350E+01 -0.71450779603E+00  0.22142599578E+02  0.51100000000E-03 0.  1.
         11    1    1    0    0    0  0.39564216252E+02  0.79028079005E+01 -0.97817110097E+00  0.40357631240E+02  0.51100000000E-03 0. -1.
         22    1    1    0    0    0 -0.61267265785E+02 -0.12234301335E+02  0.16926788970E+01  0.62499769182E+02  0.00000000000E+00 0.  1.
</event>
<event>
 4    1  0.1974401E-002  0.9118800E+02  0.7818608E-02  0.1130116E+00
         25   -1    0    0    0    0  0.00000000000E+00  0.00000000000E+00  0.99999998245E-14  0.12500000000E+03  0.12500000000E+03 0.  0.
        -11    1    1    0    0    0 -0.14892844011E+02  0.11854211853E+02 -0.51056546163E+02  0.54489357198E+02  0.51100000000E-03 0. -1.
         11    1    1    0    0    0 -0.21867368213E+01  0.17248531992E+01 -0.75108997114E+01  0.80106523592E+01  0.51100000000E-03 0.  1.
         22    1    1    0    0    0  0.17079580832E+02 -0.13579065052E+02  0.58567445875E+02  0.62499990443E+02  0.00000000000E+00 0. -1.
</event>
<event>
 4    1  0.1974401E-002  0.9118800E+02  0.7818608E-02  0.1130116E+00
         25   -1    0    0    0    0  0.00000000000E+00  0.00000000000E+00  0.99999998245E-14  0.12500000000E+03  0.12500000000E+03 0.  0.
        -11    1    1    0    0    0  0.13563676988E+02 -0.11107072602E+02  0.15262524789E+02  0.23244032749E+02  0.51100000000E-03 0.  1.
         11    1    1    0    0    0  0.22909650542E+02 -0.18759375394E+02  0.25773333404E+02  0.39255967294E+02  0.51100000000E-03 0. -1.
         22    1    1    0    0    0 -0.36473327531E+02  0.29866447997E+02 -0.41035858193E+02  0.62499999958E+02  0.00000000000E+00 0. -1.
</event>
<event>
 4    1  0.1974401E-002  0.9118800E+02  0.7818608E-02  0.1130116E+00
         25   -1    0    0    0    0  0.00000000000E+00  0.00000000000E+00  0.99999998245E-14  0.12500000000E+03  0.12500000000E+03 0.  0.
        -11    1    1    0    0    0  0.14505703192E+02 -0.26617211458E+02  0.42596488494E+02  0.52281470935E+02  0.51100000000E-03 0. -1.
         11    1    1    0    0    0  0.29710161839E+01 -0.50675013513E+01  0.83622796809E+01  0.10219306671E+02  0.51100000000E-03 0.  1.
         22    1    1    0    0    0 -0.17476719376E+02  0.31684712809E+02 -0.50958768175E+02  0.62499222394E+02  0.00000000000E+00 0.  1.
</event>
<event>
 4    1  0.1974401E-002  0.9118800E+02  0.7818608E-02  0.1130116E+00
         25   -1    0    0    0    0  0.00000000000E+00  0.00000000000E+00  0.99999998245E-14  0.12500000000E+03  0.12500000000E+03 0.  0.
        -11    1    1    0    0    0 -0.13218963010E+02 -0.32885884965E+02 -0.49407450310E+02  0.60805580002E+02  0.51100000000E-03 0. -1.
         11    1    1    0    0    0 -0.36943417844E+00 -0.33556738896E+00 -0.16833714874E+01  0.17557980836E+01  0.51100000000E-03 0.  1.
         22    1    1    0    0    0  0.13588397189E+02  0.33221452354E+02  0.51090821797E+02  0.62438621914E+02  0.00000000000E+00 0. -1.
</event>
<event>
 4    1  0.1974401E-002  0.9118800E+02  0.7818608E-02  0.1130116E+00
         25   -1    0    0    0    0  0.00000000000E+00  0.00000000000E+00  0.99999998245E-14  0.12500000000E+03  0.12500000000E+03 0.  0.
        -11    1    1    0    0    0 -0.40575871229E+02 -0.18831300529E+01  0.45325533511E+02  0.60863383846E+02  0.51100000000E-03 0.  1.
         11    1    1    0    0    0 -0.10933630139E+01 -0.51409969254E-01  0.12167298614E+01  0.16366176957E+01  0.51100000000E-03 0. -1.
         22    1    1    0    0    0  0.41669234243E+02  0.19345400221E+01 -0.46542263373E+02  0.62499998459E+02  0.00000000000E+00 0.  1.
</event>
<event>
 4    1  0.1974401E-002  0.9118800E+02  0.7818608E-02  0.1130116E+00
         25   -1    0    0    0    0  0.00000000000E+00  0.00000000000E+00  0.99999998245E-14  0.12500000000E+03  0.12500000000E+03 0.  0.
        -11    1    1    0    0    0 -0.23469974182E+01  0.64289726821E+01 -0.11777780451E+02  0.13621901455E+02  0.51100000000E-03 0.  1.
         11    1    1    0    0    0 -0.84355120946E+01  0.22954244076E+02 -0.42320387035E+02  0.48878117235E+02  0.51100000000E-03 0. -1.
         22    1    1    0    0    0  0.10782509513E+02 -0.29383216759E+02  0.54098167486E+02  0.62499981310E+02  0.00000000000E+00 0. -1.
</event>
<event>
 4    1  0.1974401E-002  0.9118800E+02  0.7818608E-02  0.1130116E+00
         25   -1    0    0    0    0  0.00000000000E+00  0.00000000000E+00  0.99999998245E-14  0.12500000000E+03  0.12500000000E+03 0.  0.
        -11    1    1    0    0    0  0.16779678772E+01  0.39315197272E+01  0.49811860507E+01  0.65638889612E+01  0.51100000000E-03 0. -1.
         11    1    1    0    0    0  0.13167478694E+02  0.33814227272E+02  0.42569204311E+02  0.55936764450E+02  0.51100000000E-03 0.  1.
         22    1    1    0    0    0 -0.14845446571E+02 -0.37745747000E+02 -0.47550390362E+02  0.62499346589E+02  0.00000000000E+00 0.  1.
</event>
<event>
 4    1  0.1974401E-002  0.9118800E+02  0.7818608E-02  0.1130116E+00
         25   -1    0    0    0    0  0.00000000000E+00  0.00000000000E+00  0.99999998245E-14  0.12500000000E+03  0.12500000000E+03 0.  0.
        -11    1    1    0    0    0 -0.74038902245E+01  0.54564902222E+02 -0.70168317773E+01  0.55510197923E+02  0.51100000000E-03 0. -1.
         11    1    1    0    0    0 -0.92953336565E+00  0.68719839369E+01 -0.87701793691E+00  0.69898037333E+01  0.51100000000E-03 0.  1.
         22    1    1    0    0    0  0.83334235901E+01 -0.61436886159E+02  0.78938497142E+01  0.62499998344E+02  0.00000000000E+00 0. -1.
</event>
<event>
 4    1  0.1974401E-002  0.9118800E+02  0.7818608E-02  0.1130116E+00
         25   -1    0    0    0    0  0.00000000000E+00  0.00000000000E+00  0.99999998245E-14  0.12500000000E+03  0.12500000000E+03 0.  0.
        -11    1    1    0    0    0 -0.46873028655E+01 -0.78716553607E+01 -0.22055523571E+02  0.23882627295E+02  0.51100000000E-03 0. -1.
         11    1    1    0    0    0 -0.69270790110E+01 -0.12800382111E+02 -0.35770822447E+02  0.38618466368E+02  0.51100000000E-03 0.  1.
         22    1    1    0    0    0  0.11614381877E+02  0.20672037472E+02  0.57826346018E+02  0.62498906337E+02  0.00000000000E+00 0.  1.
</event>
<event>
 4    1  0.1974401E-002  0.9118800E+02  0.7818608E-02  0.1130116E+00
         25   -1    0    0    0    0  0.00000000000E+00  0.00000000000E+00  0.99999998245E-14  0.12500000000E+03  0.12500000000E+03 0.  0.
        -11    1    1    0    0    0  0.20532096754E+01  0.25902592907E+01  0.40077876978E+01  0.51949471273E+01  0.51100000000E-03 0.  1.
         11    1    1    0    0    0  0.27454588985E+02  0.24001906618E+02  0.44225010692E+02  0.57321004428E+02  0.51100000000E-03 0. -1.
         22    1    1    0    0    0 -0.29507798660E+02 -0.26592165909E+02 -0.48232798390E+02  0.62484048445E+02  0.00000000000E+00 0. -1.
</event>
<event>
 4    1  0.1974401E-002  0.9118800E+02  0.7818608E-02  0.1130116E+00
         25   -1    0    0    0    0  0.00000000000E+00  0.00000000000E+00  0.99999998245E-14  0.12500000000E+03  0.12500000000E+03 0.  0.
        -11    1    1    0    0    0  0.38945288050E+01  0.69707402389E+01 -0.13544921430E+01  0.80989643361E+01  0.51100000000E-03 0.  1.
         11    1    1    0    0    0  0.14943963150E+02 -0.69040688809E+01 -0.55036957734E+02  0.57446104469E+02  0.51100000000E-03 0. -1.
         22    1    1    0    0    0 -0.18838491955E+02 -0.66671357927E-01  0.56391449877E+02  0.59454931195E+02  0.00000000000E+00 0. -1.
</event>
<event>
 4    1  0.1974401E-002  0.9118800E+02  0.7818608E-02  0.1130116E+00
         25   -1    0    0    0    0  0.00000000000E+00  0.00000000000E+00  0.99999998245E-14  0.12500000000E+03  0.12500000000E+03 0.  0.
        -11    1    1    0    0    0 -0.46474410978E+02  0.25309073864E+02  0.31266475117E+02  0.61465539630E+02  0.51100000000E-03 0. -1.
         11    1    1    0    0    0 -0.83464524409E+00  0.45661352704E+00  0.41570274595E+00  0.10382377525E+01  0.51100000000E-03 0.  1.
         22    1    1    0    0    0  0.47309056222E+02 -0.25765687391E+02 -0.31682177863E+02  0.62496222617E+02  0.00000000000E+00 0. -1.
</event>
<event>
 4    1  0.1974401E-002  0.9118800E+02  0.7818608E-02  0.1130116E+00
         25   -1    0    0    0    0  0.00000000000E+00  0.00000000000E+00  0.99999998245E-14  0.12500000000E+03  0.12500000000E+03 0.  0.
        -11    1    1    0    0    0 -0.76217459414E+01 -0.12435111286E+02 -0.53524019763E+02  0.55475613523E+02  0.51100000000E-03 0.  1.
         11    1    1    0    0    0 -0.93705720190E+00 -0.16705396665E+01 -0.67585368159E+01  0.70247134554E+01  0.51100000000E-03 0. -1.
         22    1    1    0    0    0  0.85588031433E+01  0.14105650953E+02  0.60282556579E+02  0.62499673021E+02  0.00000000000E+00 0.  1.
</event>
<event>
 4    1  0.1974401E-002  0.9118800E+02  0.7818608E-02  0.1130116E+00
         25   -1    0    0    0    0  0.00000000000E+00  0.00000000000E+00  0.99999998245E-14  0.12500000000E+03  0.12500000000E+03 0.  0.
        -11    1    1    0    0    0  0.14159347948E+02 -0.41679636311E+01  0.30870648249E+02  0.34217772848E+02  0.51100000000E-03 0.  1.
         11    1    1    0    0    0  0.11768377810E+02 -0.34369871182E+01  0.25486823736E+02  0.28282252053E+02  0.51100000000E-03 0. -1.
         22    1    1    0    0    0 -0.25927725758E+02  0.76049507493E+01 -0.56357471985E+02  0.62499975099E+02  0.00000000000E+00 0.  1.
</event>
<event>
 4    1  0.1974401E-002  0.9118800E+02  0.7818608E-02  0.1130116E+00
         25   -1    0    0    0    0  0.00000000000E+00  0.00000000000E+00  0.99999998245E-14  0.12500000000E+03  0.12500000000E+03 0.  0.
        -11    1    1    0    0    0 -0.17283505726E+02  0.17000666851E+02  0.43827698435E+02  0.50086019945E+02  0.51100000000E-03 0. -1.
         11    1    1    0    0    0 -0.42848020919E+01  0.42146631930E+01  0.10862043407E+02  0.12413980105E+02  0.51100000000E-03 0.  1.
         22    1    1    0    0    0  0.21568307818E+02 -0.21215330044E+02 -0.54689741842E+02  0.62499999950E+02  0.00000000000E+00 0. -1.
</event>
<event>
 4    1  0.1974401E-002  0.9118800E+02  0.7818608E-02  0.1130116E+00
         25   -1    0    0    0    0  0.00000000000E+00  0.00000000000E+00  0.99999998245E-14  0.12500000000E+03  0.12500000000E+03 0.  0.
        -11    1    1    0    0    0  0.18692278848E+02  0.52704587205E+02  0.17357113872E+01  0.55948078567E+02  0.51100000000E-03 0. -1.
         11    1    1    0    0    0  0.28138942660E+01  0.59009687215E+01  0.71730817727E+00  0.65767745951E+01  0.51100000000E-03 0.  1.
         22    1    1    0    0    0 -0.21506173114E+02 -0.58605555927E+02 -0.24530195645E+01  0.62475146838E+02  0.00000000000E+00 0. -1.
</event>
<event>
 4    1  0.1974401E-002  0.9118800E+02  0.7818608E-02  0.1130116E+00
         25   -1    0    0    0    0  0.00000000000E+00  0.00000000000E+00  0.99999998245E-14  0.12500000000E+03  0.12500000000E+03 0.  0.
        -11    1    1    0    0    0 -0.19268863785E+01  0.29947703981E+00 -0.20959758699E+01  0.28628120304E+01  0.51100000000E-03 0. -1.
         11    1    1    0    0    0 -0.50286260555E+02 -0.26555522302E+02  0.21139923993E+02  0.60669598252E+02  0.51100000000E-03 0.  1.
         22    1    1    0    0    0  0.52213146934E+02  0.26256045262E+02 -0.19043948124E+02  0.61467589717E+02  0.00000000000E+00 0.  1.
</event>
<event>
 4    1  0.1974401E-002  0.9118800E+02  0.7818608E-02  0.1130116E+00
         25   -1    0    0    0    0  0.00000000000E+00  0.00000000000E+00  0.99999998245E-14  0.12500000000E+03  0.12500000000E+03 0.  0.
        -11    1    1    0    0    0  0.61898302438E+01  0.13113116713E+02  0.18231910867E+00  0.14501760889E+02  0.51100000000E-03 0. -1.
         11    1    1    0    0    0  0.11438764811E+02  0.45662630471E+02  0.10454864775E+02  0.48220590620E+02  0.51100000000E-03 0.  1.
         22    1    1    0    0    0 -0.17628595055E+02 -0.58775747184E+02 -0.10637183884E+02  0.62277648491E+02  0.00000000000E+00 0.  1.
</event>
<event>
 4    1  0.1974401E-002  0.9118800E+02  0.7818608E-02  0.1130116E+00
         25   -1    0    0    0    0  0.00000000000E+00  0.00000000000E+00  0.99999998245E-14  0.12500000000E+03  0.12500000000E+03 0.  0.
        -11    1    1    0    0    0  0.94420108188E+01 -0.64876723766E+01  0.16265230971E+02  0.19894702811E+02  0.51100000000E-03 0. -1.
         11    1    1    0    0    0  0.20816720054E+02 -0.14231959911E+02  0.34342973137E+02  0.42606622969E+02  0.51100000000E-03 0.  1.
         22    1    1    0    0    0 -0.30258730873E+02  0.20719632288E+02 -0.50608204107E+02  0.62498674219E+02  0.00000000000E+00 0.  1.
</event>
<event>
 4    1  0.1974401E-002  0.9118800E+02  0.7818608E-02  0.1130116E+00
         25   -1    0    0    0    0  0.00000000000E+00  0.00000000000E+00  0.99999998245E-14  0.12500000000E+03  0.12500000000E+03 0.  0.
        -11    1    1    0    0    0  0.34950117856E+02 -0.19255625837E+02  0.45759453358E+01  0.40165023845E+02  0.51100000000E-03 0. -1.
         11    1    1    0    0    0  0.19435465653E+02 -0.10706021141E+02  0.25485195383E+01  0.22334976291E+02  0.51100000000E-03 0.  1.
         22    1    1    0    0    0 -0.54385583509E+02  0.29961646978E+02 -0.71244648741E+01  0.62499999864E+02  0.00000000000E+00 0. -1.
</event>
<event>
 4    1  0.1974401E-002  0.9118800E+02  0.7818608E-02  0.1130116E+00
         25   -1    0    0    0    0  0.00000000000E+00  0.00000000000E+00  0.99999998245E-14  0.12500000000E+03  0.12500000000E+03 0.  0.
        -11    1    1    0    0    0  0.63327899952E+01  0.60117161318E+02 -0.13911365388E+02  0.62029858949E+02  0.51100000000E-03 0. -1.
         11    1    1    0    0    0  0.47492807456E-01  0.45402698434E+00 -0.11252904574E+00  0.47016924242E+00  0.51100000000E-03 0.  1.
         22    1    1    0    0    0 -0.63802828026E+01 -0.60571188302E+02  0.14023894433E+02  0.62499971808E+02  0.00000000000E+00 0. -1.
</event>
<event>
 4    1  0.1974401E-002  0.9118800E+02  0.7818608E-02  0.1130116E+00
         25   -1    0    0    0    0  0.00000000000E+00  0.00000000000E+00  0.99999998245E-14  0.12500000000E+03  0.12500000000E+03 0.  0.
        -11    1    1    0    0    0 -0.58359339407E+01  0.30197384020E+01 -0.29725670016E+02  0.30443265317E+02  0.51100000000E-03 0.  1.
         11    1    1    0    0    0 -0.60996254696E+01  0.31567700477E+01 -0.31312366199E+02  0.32056745082E+02  0.51100000000E-03 0. -1.
         22    1    1    0    0    0  0.11935559410E+02 -0.61765084497E+01  0.61038036216E+02  0.62499989601E+02  0.00000000000E+00 0. -1.
</event>
<event>
 4    1  0.1974401E-002  0.9118800E+02  0.7818608E-02  0.1130116E+00
         25   -1    0    0    0    0  0.00000000000E+00  0.00000000000E+00  0.99999998245E-14  0.12500000000E+03  0.12500000000E+03 0.  0.
        -11    1    1    0    0    0  0.93392847847E+01 -0.32062357731E+00 -0.67822009010E+01  0.11546570447E+02  0.51100000000E-03 0.  1.
         11    1    1    0    0    0  0.41219991517E+02 -0.14175100252E+01 -0.29919140401E+02  0.50953429697E+02  0.51100000000E-03 0. -1.
         22    1    1    0    0    0 -0.50559276302E+02  0.17381336025E+01  0.36701341302E+02  0.62499999855E+02  0.00000000000E+00 0. -1.
</event>
<event>
 4    1  0.1974401E-002  0.9118800E+02  0.7818608E-02  0.1130116E+00
         25   -1    0    0    0    0  0.00000000000E+00  0.00000000000E+00  0.99999998245E-14  0.12500000000E+03  0.12500000000E+03 0.  0.
        -11    1    1    0    0    0  0.18543289723E+02 -0.15765575467E+02 -0.11531456236E+02  0.26932906392E+02  0.51100000000E-03 0. -1.
         11    1    1    0    0    0  0.24488302183E+02 -0.20814918423E+02 -0.15234184836E+02  0.35567093790E+02  0.51100000000E-03 0.  1.
         22    1    1    0    0    0 -0.43031591906E+02  0.36580493890E+02  0.26765641073E+02  0.62499999818E+02  0.00000000000E+00 0.  1.
</event>
<event>
 4    1  0.1974401E-002  0.9118800E+02  0.7818608E-02  0.1130116E+00
         25   -1    0    0    0    0  0.00000000000E+00  0.00000000000E+00  0.99999998245E-14  0.12500000000E+03  0.12500000000E+03 0.  0.
        -11    1    1    0    0    0 -0.24421429463E+02 -0.11455089266E+02  0.12577709430E+02  0.29762796607E+02  0.51100000000E-03 0. -1.
         11    1    1    0    0    0 -0.22837263724E+02 -0.64030997616E+01  0.23319857987E+02  0.33261931360E+02  0.51100000000E-03 0.  1.
         22    1    1    0    0    0  0.47258693187E+02  0.17858189028E+02 -0.35897567417E+02  0.61975272033E+02  0.00000000000E+00 0. -1.
</event>
<event>
 4    1  0.1974401E-002  0.9118800E+02  0.7818608E-02  0.1130116E+00
         25   -1    0    0    0    0  0.00000000000E+00  0.00000000000E+00  0.99999998245E-14  0.12500000000E+03  0.12500000000E+03 0.  0.
        -11    1    1    0    0    0 -0.25468144512E+02 -0.52626935508E+01 -0.21420472279E+02  0.33692120165E+02  0.51100000000E-03 0. -1.
         11    1    1    0    0    0 -0.21524100954E+02 -0.44690854254E+01 -0.18619252993E+02  0.28808613793E+02  0.51100000000E-03 0.  1.
         22    1    1    0    0    0  0.46992245465E+02  0.97317789762E+01  0.40039725272E+02  0.62499266042E+02  0.00000000000E+00 0.  1.
</event>
<event>
 4    1  0.1974401E-002  0.9118800E+02  0.7818608E-02  0.1130116E+00
         25   -1    0    0    0    0  0.00000000000E+00  0.00000000000E+00  0.99999998245E-14  0.12500000000E+03  0.12500000000E+03 0.  0.
        -11    1    1    0    0    0 -0.50724143630E+01  0.37527267594E+02 -0.25401986759E+01  0.37953627101E+02  0.51100000000E-03 0. -1.
         11    1    1    0    0    0 -0.32761711457E+01  0.24270779121E+02 -0.16493709901E+01  0.24546373285E+02  0.51100000000E-03 0.  1.
         22    1    1    0    0    0  0.83485855087E+01 -0.61798046715E+02  0.41895696660E+01  0.62499999614E+02  0.00000000000E+00 0. -1.
</event>
<event>
 4    1  0.1974401E-002  0.9118800E+02  0.7818608E-02  0.1130116E+00
         25   -1    0    0    0    0  0.00000000000E+00  0.00000000000E+00  0.99999998245E-14  0.12500000000E+03  0.12500000000E+03 0.  0.
        -11    1    1    0    0    0  0.55327948430E+01 -0.13796409722E+02  0.15374074191E+02  0.21384922200E+02  0.51100000000E-03 0.  1.
         11    1    1    0    0    0  0.10636751014E+02 -0.26525192841E+02  0.29558810791E+02  0.41115077806E+02  0.51100000000E-03 0.  1.
         22    1    1    0    0    0 -0.16169545857E+02  0.40321602563E+02 -0.44932884982E+02  0.62499999994E+02  0.00000000000E+00 0.  1.
</event>
<event>
 4    1  0.1974401E-002  0.9118800E+02  0.7818608E-02  0.1130116E+00
         25   -1    0    0    0    0  0.00000000000E+00  0.00000000000E+00  0.99999998245E-14  0.12500000000E+03  0.12500000000E+03 0.  0.
        -11    1    1    0    0    0  0.76336256120E+01  0.25692408726E+01  0.13958415454E+01  0.81744487598E+01  0.51100000000E-03 0.  1.
         11    1    1    0    0    0  0.48829848446E+02  0.21686141160E+02  0.99134571052E+01  0.54340771523E+02  0.51100000000E-03 0. -1.
         22    1    1    0    0    0 -0.56463474058E+02 -0.24255382033E+02 -0.11309298651E+02  0.62484779717E+02  0.00000000000E+00 0. -1.
</event>
<event>
 4    1  0.1974401E-002  0.9118800E+02  0.7818608E-02  0.1130116E+00
         25   -1    0    0    0    0  0.00000000000E+00  0.00000000000E+00  0.99999998245E-14  0.12500000000E+03  0.12500000000E+03 0.  0.
        -11    1    1    0    0    0  0.55124637895E-02  0.22089428489E+00 -0.26366819809E+00  0.34401431970E+00  0.51100000000E-03 0.  1.
         11    1    1    0    0    0  0.87754279416E+00  0.39682218836E+02 -0.47832188861E+02  0.62155988164E+02  0.51100000000E-03 0. -1.
         22    1    1    0    0    0 -0.88305525795E+00 -0.39903113121E+02  0.48095857059E+02  0.62499997517E+02  0.00000000000E+00 0. -1.
</event>
<event>
 4    1  0.1974401E-002  0.9118800E+02  0.7818608E-02  0.1130116E+00
         25   -1    0    0    0    0  0.00000000000E+00  0.00000000000E+00  0.99999998245E-14  0.12500000000E+03  0.12500000000E+03 0.  0.
        -11    1    1    0    0    0 -0.46080512660E+01 -0.37329862386E+02 -0.44716714758E+02  0.58432331301E+02  0.51100000000E-03 0.  1.
         11    1    1    0    0    0 -0.31827639672E+00 -0.25991694242E+01 -0.31127078305E+01  0.40676690941E+01  0.51100000000E-03 0. -1.
         22    1    1    0    0    0  0.49263276627E+01  0.39929031810E+02  0.47829422588E+02  0.62499999605E+02  0.00000000000E+00 0.  1.
</event>
<event>
 4    1  0.1974401E-002  0.9118800E+02  0.7818608E-02  0.1130116E+00
         25   -1    0    0    0    0  0.00000000000E+00  0.00000000000E+00  0.99999998245E-14  0.12500000000E+03  0.12500000000E+03 0.  0.
        -11    1    1    0    0    0  0.12962282939E+01 -0.93158928886E-01  0.99431060226E+00  0.16363191042E+01  0.51100000000E-03 0.  1.
         11    1    1    0    0    0  0.48203048400E+02 -0.35181768466E+01  0.36992921661E+02  0.60863681261E+02  0.51100000000E-03 0. -1.
         22    1    1    0    0    0 -0.49499276694E+02  0.36113357755E+01 -0.37987232263E+02  0.62499999635E+02  0.00000000000E+00 0. -1.
</event>
<event>
 4    1  0.1974401E-002  0.9118800E+02  0.7818608E-02  0.1130116E+00
         25   -1    0    0    0    0  0.00000000000E+00  0.00000000000E+00  0.99999998245E-14  0.12500000000E+03  0.12500000000E+03 0.  0.
        -11    1    1    0    0    0 -0.89815654052E+01 -0.35737167178E+01  0.29761313117E+01  0.10114214065E+02  0.51100000000E-03 0. -1.
         11    1    1    0    0    0 -0.41540600132E+02  0.22889870988E+02  0.25402960689E+02  0.53804071084E+02  0.51100000000E-03 0.  1.
         22    1    1    0    0    0  0.50522165537E+02 -0.19316154270E+02 -0.28379092001E+02  0.61081714851E+02  0.00000000000E+00 0.  1.
</event>
<event>
 4    1  0.1974401E-002  0.9118800E+02  0.7818608E-02  0.1130116E+00
         25   -1    0    0    0    0  0.00000000000E+00  0.00000000000E+00  0.99999998245E-14  0.12500000000E+03  0.12500000000E+03 0.  0.
        -11    1    1    0    0    0  0.74364879714E+01 -0.32676701799E+00  0.43928521823E+01  0.86432216557E+01  0.51100000000E-03 0. -1.
         11    1    1    0    0    0  0.46305390555E+02 -0.14736565436E+01  0.27462961077E+02  0.53856987378E+02  0.51100000000E-03 0.  1.
         22    1    1    0    0    0 -0.53741878526E+02  0.18004235616E+01 -0.31855813259E+02  0.62499790967E+02  0.00000000000E+00 0.  1.
</event>
<event>
 4    1  0.1974401E-002  0.9118800E+02  0.7818608E-02  0.1130116E+00
         25   -1    0    0    0    0  0.00000000000E+00  0.00000000000E+00  0.99999998245E-14  0.12500000000E+03  0.12500000000E+03 0.  0.
        -11    1    1    0    0    0 -0.55761014930E+02  0.17220429324E+01  0.84464858264E+01  0.56423393562E+02  0.51100000000E-03 0. -1.
         11    1    1    0    0    0 -0.60061536001E+01  0.16116260376E+00  0.90860251725E+00  0.60766284441E+01  0.51100000000E-03 0.  1.
         22    1    1    0    0    0  0.61767168530E+02 -0.18832055362E+01 -0.93550883436E+01  0.62499977994E+02  0.00000000000E+00 0. -1.
</event>
<event>
 4    1  0.1974401E-002  0.9118800E+02  0.7818608E-02  0.1130116E+00
         25   -1    0    0    0    0  0.00000000000E+00  0.00000000000E+00  0.99999998245E-14  0.12500000000E+03  0.12500000000E+03 0.  0.
        -11    1    1    0    0    0  0.22004944053E+01 -0.21365163043E+01  0.82498389411E+01  0.88015180714E+01  0.51100000000E-03 0.  1.
         11    1    1    0    0    0  0.13458267987E+02 -0.13060666127E+02  0.50317205058E+02  0.53698483238E+02  0.51100000000E-03 0. -1.
         22    1    1    0    0    0 -0.15658762393E+02  0.15197182431E+02 -0.58567043999E+02  0.62499998691E+02  0.00000000000E+00 0. -1.
</event>
<event>
 4    1  0.1974401E-002  0.9118800E+02  0.7818608E-02  0.1130116E+00
         25   -1    0    0    0    0  0.00000000000E+00  0.00000000000E+00  0.99999998245E-14  0.12500000000E+03  0.12500000000E+03 0.  0.
        -11    1    1    0    0    0 -0.41685009807E+02  0.53955507712E+01  0.92797039580E+01  0.43044917430E+02  0.51100000000E-03 0. -1.
         11    1    1    0    0    0 -0.18706395265E+02  0.26605397651E+01  0.46460754386E+01  0.19457484752E+02  0.51100000000E-03 0.  1.
         22    1    1    0    0    0  0.60391405071E+02 -0.80560905364E+01 -0.13925779397E+02  0.62497597818E+02  0.00000000000E+00 0. -1.
</event>
<event>
 4    1  0.1974401E-002  0.9118800E+02  0.7818608E-02  0.1130116E+00
         25   -1    0    0    0    0  0.00000000000E+00  0.00000000000E+00  0.99999998245E-14  0.12500000000E+03  0.12500000000E+03 0.  0.
        -11    1    1    0    0    0  0.13395110316E+01 -0.15604805935E+02 -0.45499949082E+02  0.48120158196E+02  0.51100000000E-03 0. -1.
         11    1    1    0    0    0  0.49901023157E+00 -0.46853456694E+01 -0.13586109070E+02  0.14379980360E+02  0.51100000000E-03 0.  1.
         22    1    1    0    0    0 -0.18385212631E+01  0.20290151604E+02  0.59086058152E+02  0.62499861444E+02  0.00000000000E+00 0. -1.
</event>
<event>
 4    1  0.1974401E-002  0.9118800E+02  0.7818608E-02  0.1130116E+00
         25   -1    0    0    0    0  0.00000000000E+00  0.00000000000E+00  0.99999998245E-14  0.12500000000E+03  0.12500000000E+03 0.  0.
        -11    1    1    0    0    0 -0.70916017986E+01  0.51355507168E+00 -0.33433872746E+01  0.78570219301E+01  0.51100000000E-03 0. -1.
         11    1    1    0    0    0 -0.43932256502E+02 -0.11252991936E+02 -0.30796540135E+02  0.54818791244E+02  0.51100000000E-03 0.  1.
         22    1    1    0    0    0  0.51023858300E+02  0.10739436865E+02  0.34139927410E+02  0.62324186826E+02  0.00000000000E+00 0.  1.
</event>
<event>
 4    1  0.1974401E-002  0.9118800E+02  0.7818608E-02  0.1130116E+00
         25   -1    0    0    0    0  0.00000000000E+00  0.00000000000E+00  0.99999998245E-14  0.12500000000E+03  0.12500000000E+03 0.  0.
        -11    1    1    0    0    0  0.19891878879E-01 -0.33991932895E-01  0.79161575554E-02  0.40175428046E-01  0.51100000000E-03 0.  1.
         11    1    1    0    0    0  0.78142043077E+01 -0.60997785962E+02  0.10937634056E+02  0.62461376227E+02  0.51100000000E-03 0. -1.
         22    1    1    0    0    0 -0.78340961866E+01  0.61031777895E+02 -0.10945550213E+02  0.62498448345E+02  0.00000000000E+00 0. -1.
</event>
<event>
 4    1  0.1974401E-002  0.9118800E+02  0.7818608E-02  0.1130116E+00
         25   -1    0    0    0    0  0.00000000000E+00  0.00000000000E+00  0.99999998245E-14  0.12500000000E+03  0.12500000000E+03 0.  0.
        -11    1    1    0    0    0 -0.55146588934E+02 -0.47572565257E+01  0.16414337131E+02  0.57733943434E+02  0.51100000000E-03 0.  1.
         11    1    1    0    0    0 -0.45527035214E+01 -0.39228754616E+00  0.13543620362E+01  0.47660566152E+01  0.51100000000E-03 0. -1.
         22    1    1    0    0    0  0.59699292455E+02  0.51495440718E+01 -0.17768699167E+02  0.62499999951E+02  0.00000000000E+00 0.  1.
</event>
<event>
 4    1  0.1974401E-002  0.9118800E+02  0.7818608E-02  0.1130116E+00
         25   -1    0    0    0    0  0.00000000000E+00  0.00000000000E+00  0.99999998245E-14  0.12500000000E+03  0.12500000000E+03 0.  0.
        -11    1    1    0    0    0  0.29521180487E+01 -0.23114289118E+01 -0.32002077101E+01  0.49294050591E+01  0.51100000000E-03 0.  1.
         11    1    1    0    0    0 -0.25954283343E+02 -0.28413984652E+02  0.47710874735E+02  0.61296875254E+02  0.51100000000E-03 0. -1.
         22    1    1    0    0    0  0.23002165294E+02  0.30725413564E+02 -0.44510667025E+02  0.58773719687E+02  0.00000000000E+00 0. -1.
</event>
<event>
 4    1  0.1974401E-002  0.9118800E+02  0.7818608E-02  0.1130116E+00
         25   -1    0    0    0    0  0.00000000000E+00  0.00000000000E+00  0.99999998245E-14  0.12500000000E+03  0.12500000000E+03 0.  0.
        -11    1    1    0    0    0 -0.11673138276E+02 -0.16344637735E+02 -0.19968804841E+02  0.28322473531E+02  0.51100000000E-03 0. -1.
         11    1    1    0    0    0 -0.15044296381E+02 -0.18813669156E+02 -0.24253234758E+02  0.34183393588E+02  0.51100000000E-03 0.  1.
         22    1    1    0    0    0  0.26717434657E+02  0.35158306891E+02  0.44222039599E+02  0.62494132880E+02  0.00000000000E+00 0.  1.
</event>
<event>
 4    1  0.1974401E-002  0.9118800E+02  0.7818608E-02  0.1130116E+00
         25   -1    0    0    0    0  0.00000000000E+00  0.00000000000E+00  0.99999998245E-14  0.12500000000E+03  0.12500000000E+03 0.  0.
        -11    1    1    0    0    0 -0.12835613450E+02  0.26741252134E+02 -0.23973389822E+02  0.38138837924E+02  0.51100000000E-03 0. -1.
         11    1    1    0    0    0 -0.81992411695E+01  0.17082345814E+02 -0.15311176475E+02  0.24361162115E+02  0.51100000000E-03 0.  1.
         22    1    1    0    0    0  0.21034854620E+02 -0.43823597949E+02  0.39284566297E+02  0.62499999961E+02  0.00000000000E+00 0. -1.
</event>
<event>
 4    1  0.1974401E-002  0.9118800E+02  0.7818608E-02  0.1130116E+00
         25   -1    0    0    0    0  0.00000000000E+00  0.00000000000E+00  0.99999998245E-14  0.12500000000E+03  0.12500000000E+03 0.  0.
        -11    1    1    0    0    0  0.81024200189E+01 -0.48495303178E+01 -0.53040340427E+01  0.10830509307E+02  0.51100000000E-03 0.  1.
         11    1    1    0    0    0  0.38061685222E+02 -0.22730468363E+02 -0.26543321790E+02  0.51671210609E+02  0.51100000000E-03 0. -1.
         22    1    1    0    0    0 -0.46164105240E+02  0.27579998681E+02  0.31847355833E+02  0.62498280084E+02  0.00000000000E+00 0. -1.
</event>
<event>
 4    1  0.1974401E-002  0.9118800E+02  0.7818608E-02  0.1130116E+00
         25   -1    0    0    0    0  0.00000000000E+00  0.00000000000E+00  0.99999998245E-14  0.12500000000E+03  0.12500000000E+03 0.  0.
        -11    1    1    0    0    0  0.84514325095E+01  0.80747359662E+01  0.14498378677E+02  0.18623400788E+02  0.51100000000E-03 0.  1.
         11    1    1    0    0    0  0.10692194879E+02 -0.86942868635E-01  0.43492418657E+02  0.44787510215E+02  0.51100000000E-03 0. -1.
         22    1    1    0    0    0 -0.19143627388E+02 -0.79877930976E+01 -0.57990797333E+02  0.61589088997E+02  0.00000000000E+00 0. -1.
</event>
<event>
 4    1  0.1974401E-002  0.9118800E+02  0.7818608E-02  0.1130116E+00
         25   -1    0    0    0    0  0.00000000000E+00  0.00000000000E+00  0.99999998245E-14  0.12500000000E+03  0.12500000000E+03 0.  0.
        -11    1    1    0    0    0  0.23378657185E+01  0.10099944587E+01 -0.70483846526E+01  0.74943599724E+01  0.51100000000E-03 0.  1.
         11    1    1    0    0    0  0.18384089503E+02  0.48665150987E+01 -0.51618235829E+02  0.55009998968E+02  0.51100000000E-03 0. -1.
         22    1    1    0    0    0 -0.20721955222E+02 -0.58765095575E+01  0.58666620481E+02  0.62495641060E+02  0.00000000000E+00 0. -1.
</event>
<event>
 4    1  0.1974401E-002  0.9118800E+02  0.7818608E-02  0.1130116E+00
         25   -1    0    0    0    0  0.00000000000E+00  0.00000000000E+00  0.99999998245E-14  0.12500000000E+03  0.12500000000E+03 0.  0.
        -11    1    1    0    0    0 -0.10471643165E+01 -0.11450179248E+02  0.58375270825E+02  0.59496852035E+02  0.51100000000E-03 0.  1.
         11    1    1    0    0    0 -0.54013536130E+01 -0.15734155094E+00  0.23381244728E+00  0.54087009288E+01  0.51100000000E-03 0. -1.
         22    1    1    0    0    0  0.64485179294E+01  0.11607520799E+02 -0.58609083272E+02  0.60094447036E+02  0.00000000000E+00 0.  1.
</event>
<event>
 4    1  0.1974401E-002  0.9118800E+02  0.7818608E-02  0.1130116E+00
         25   -1    0    0    0    0  0.00000000000E+00  0.00000000000E+00  0.99999998245E-14  0.12500000000E+03  0.12500000000E+03 0.  0.
        -11    1    1    0    0    0  0.26802314123E+01  0.10664200572E+02 -0.25596884377E+02  0.27858738384E+02  0.51100000000E-03 0. -1.
         11    1    1    0    0    0  0.33289279708E+01  0.13234231064E+02 -0.31840077875E+02  0.34641264305E+02  0.51100000000E-03 0.  1.
         22    1    1    0    0    0 -0.60091593831E+01 -0.23898431636E+02  0.57436962252E+02  0.62499997311E+02  0.00000000000E+00 0.  1.
</event>
<event>
 4    1  0.1974401E-002  0.9118800E+02  0.7818608E-02  0.1130116E+00
         25   -1    0    0    0    0  0.00000000000E+00  0.00000000000E+00  0.99999998245E-14  0.12500000000E+03  0.12500000000E+03 0.  0.
        -11    1    1    0    0    0 -0.52499308415E+01 -0.10558745325E+02 -0.50887219281E+00  0.11802873712E+02  0.51100000000E-03 0. -1.
         11    1    1    0    0    0 -0.22552041162E+02 -0.45351105655E+02 -0.22093716346E+01  0.50697126821E+02  0.51100000000E-03 0.  1.
         22    1    1    0    0    0  0.27801972003E+02  0.55909850980E+02  0.27182438274E+01  0.62499999467E+02  0.00000000000E+00 0.  1.
</event>
<event>
 4    1  0.1974401E-002  0.9118800E+02  0.7818608E-02  0.1130116E+00
         25   -1    0    0    0    0  0.00000000000E+00  0.00000000000E+00  0.99999998245E-14  0.12500000000E+03  0.12500000000E+03 0.  0.
        -11    1    1    0    0    0  0.26544146571E+02  0.15280082693E+02  0.16672745727E+02  0.34871952836E+02  0.51100000000E-03 0.  1.
         11    1    1    0    0    0  0.21031552131E+02  0.12104821825E+02  0.13208182876E+02  0.27628047191E+02  0.51100000000E-03 0. -1.
         22    1    1    0    0    0 -0.47575698702E+02 -0.27384904519E+02 -0.29880928602E+02  0.62499999973E+02  0.00000000000E+00 0. -1.
</event>
<event>
 4    1  0.1974401E-002  0.9118800E+02  0.7818608E-02  0.1130116E+00
         25   -1    0    0    0    0  0.00000000000E+00  0.00000000000E+00  0.99999998245E-14  0.12500000000E+03  0.12500000000E+03 0.  0.
        -11    1    1    0    0    0 -0.33992731819E+02  0.11604063187E+02  0.88938158919E+01  0.37003514162E+02  0.51100000000E-03 0. -1.
         11    1    1    0    0    0 -0.23421844300E+02  0.79954779557E+01  0.61286484635E+01  0.25496485844E+02  0.51100000000E-03 0. -1.
         22    1    1    0    0    0  0.57414576119E+02 -0.19599541143E+02 -0.15022464355E+02  0.62499999994E+02  0.00000000000E+00 0. -1.
</event>
<event>
 4    1  0.1974401E-002  0.9118800E+02  0.7818608E-02  0.1130116E+00
         25   -1    0    0    0    0  0.00000000000E+00  0.00000000000E+00  0.99999998245E-14  0.12500000000E+03  0.12500000000E+03 0.  0.
        -11    1    1    0    0    0 -0.12586536367E+02  0.85473229412E+01  0.11733308279E+02  0.19213228532E+02  0.51100000000E-03 0. -1.
         11    1    1    0    0    0 -0.28357781865E+02  0.19271046410E+02  0.26423618458E+02  0.43286772053E+02  0.51100000000E-03 0.  1.
         22    1    1    0    0    0  0.40944318233E+02 -0.27818369351E+02 -0.38156926737E+02  0.62499999415E+02  0.00000000000E+00 0.  1.
</event>
<event>
 4    1  0.1974401E-002  0.9118800E+02  0.7818608E-02  0.1130116E+00
         25   -1    0    0    0    0  0.00000000000E+00  0.00000000000E+00  0.99999998245E-14  0.12500000000E+03  0.12500000000E+03 0.  0.
        -11    1    1    0    0    0 -0.16387971436E+02  0.31907908142E+02  0.60846189322E+01  0.36382726638E+02  0.51100000000E-03 0. -1.
         11    1    1    0    0    0 -0.11763933934E+02  0.22904897888E+02  0.43689219865E+01  0.26117273374E+02  0.51100000000E-03 0. -1.
         22    1    1    0    0    0  0.28151905370E+02 -0.54812806030E+02 -0.10453540919E+02  0.62499999989E+02  0.00000000000E+00 0. -1.
</event>
<event>
 4    1  0.1974401E-002  0.9118800E+02  0.7818608E-02  0.1130116E+00
         25   -1    0    0    0    0  0.00000000000E+00  0.00000000000E+00  0.99999998245E-14  0.12500000000E+03  0.12500000000E+03 0.  0.
        -11    1    1    0    0    0 -0.27308374162E+02  0.14734575882E+02 -0.35572927640E+02  0.47204747716E+02  0.51100000000E-03 0. -1.
         11    1    1    0    0    0 -0.88183708542E+01  0.46572295892E+01 -0.11597357992E+02  0.15295494912E+02  0.51100000000E-03 0.  1.
         22    1    1    0    0    0  0.36126745016E+02 -0.19391805472E+02  0.47170285632E+02  0.62499757371E+02  0.00000000000E+00 0. -1.
</event>
<event>
 4    1  0.1974401E-002  0.9118800E+02  0.7818608E-02  0.1130116E+00
         25   -1    0    0    0    0  0.00000000000E+00  0.00000000000E+00  0.99999998245E-14  0.12500000000E+03  0.12500000000E+03 0.  0.
        -11    1    1    0    0    0 -0.48081964268E+01  0.26107944019E+01  0.19002935779E+01  0.57919009169E+01  0.51100000000E-03 0.  1.
         11    1    1    0    0    0 -0.53937372216E+02  0.15594241534E+02  0.86473841719E+01  0.56808430218E+02  0.51100000000E-03 0. -1.
         22    1    1    0    0    0  0.58745568643E+02 -0.18205035936E+02 -0.10547677750E+02  0.62399668865E+02  0.00000000000E+00 0. -1.
</event>
<event>
 4    1  0.1974401E-002  0.9118800E+02  0.7818608E-02  0.1130116E+00
         25   -1    0    0    0    0  0.00000000000E+00  0.00000000000E+00  0.99999998245E-14  0.12500000000E+03  0.12500000000E+03 0.  0.
        -11    1    1    0    0    0 -0.15038358096E+02  0.33167802756E+02 -0.12970287401E+02  0.38658552862E+02  0.51100000000E-03 0.  1.
         11    1    1    0    0    0  0.46463221113E+01  0.25329063026E+02  0.12385217740E+01  0.25781459994E+02  0.51100000000E-03 0. -1.
         22    1    1    0    0    0  0.10392035985E+02 -0.58496865782E+02  0.11731765627E+02  0.60559987144E+02  0.00000000000E+00 0. -1.
</event>
<event>
 4    1  0.1974401E-002  0.9118800E+02  0.7818608E-02  0.1130116E+00
         25   -1    0    0    0    0  0.00000000000E+00  0.00000000000E+00  0.99999998245E-14  0.12500000000E+03  0.12500000000E+03 0.  0.
        -11    1    1    0    0    0  0.99407194459E+01  0.23635606702E+02  0.45025142138E+02  0.51814314934E+02  0.51100000000E-03 0. -1.
         11    1    1    0    0    0  0.22655158790E+01  0.48371931036E+01  0.92559732776E+01  0.10686629071E+02  0.51100000000E-03 0.  1.
         22    1    1    0    0    0 -0.12206235325E+02 -0.28472799806E+02 -0.54281115415E+02  0.62499055995E+02  0.00000000000E+00 0. -1.
</event>
<event>
 4    1  0.1974401E-002  0.9118800E+02  0.7818608E-02  0.1130116E+00
         25   -1    0    0    0    0  0.00000000000E+00  0.00000000000E+00  0.99999998245E-14  0.12500000000E+03  0.12500000000E+03 0.  0.
        -11    1    1    0    0    0 -0.11499548953E-01 -0.41454310146E+00  0.52662634580E+00  0.67030872873E+00  0.51100000000E-03 0. -1.
         11    1    1    0    0    0 -0.43960465163E+02 -0.11729900449E+02 -0.42558110420E+02  0.62300127004E+02  0.51100000000E-03 0.  1.
         22    1    1    0    0    0  0.43971964712E+02  0.12144443551E+02  0.42031484074E+02  0.62029564268E+02  0.00000000000E+00 0.  1.
</event>
<event>
 4    1  0.1974401E-002  0.9118800E+02  0.7818608E-02  0.1130116E+00
         25   -1    0    0    0    0  0.00000000000E+00  0.00000000000E+00  0.99999998245E-14  0.12500000000E+03  0.12500000000E+03 0.  0.
        -11    1    1    0    0    0  0.34999968840E+02  0.24115224382E+02  0.14383680144E+02  0.44871283919E+02  0.51100000000E-03 0.  1.
         11    1    1    0    0    0  0.13891812564E+02  0.95711400842E+01  0.51275093165E+01  0.17631804527E+02  0.51100000000E-03 0. -1.
         22    1    1    0    0    0 -0.48891781403E+02 -0.33686364466E+02 -0.19511189460E+02  0.62496911555E+02  0.00000000000E+00 0. -1.
</event>
<event>
 4    1  0.1974401E-002  0.9118800E+02  0.7818608E-02  0.1130116E+00
         25   -1    0    0    0    0  0.00000000000E+00  0.00000000000E+00  0.99999998245E-14  0.12500000000E+03  0.12500000000E+03 0.  0.
        -11    1    1    0    0    0  0.20212914960E+02 -0.11269087797E+02 -0.37298925391E+02  0.43894921193E+02  0.51100000000E-03 0. -1.
         11    1    1    0    0    0  0.30876397386E+01 -0.26781888009E+01 -0.18554812399E+02  0.18999665203E+02  0.51100000000E-03 0.  1.
         22    1    1    0    0    0 -0.23300554699E+02  0.13947276598E+02  0.55853737790E+02  0.62105413604E+02  0.00000000000E+00 0. -1.
</event>
<event>
 4    1  0.1974401E-002  0.9118800E+02  0.7818608E-02  0.1130116E+00
         25   -1    0    0    0    0  0.00000000000E+00  0.00000000000E+00  0.99999998245E-14  0.12500000000E+03  0.12500000000E+03 0.  0.
        -11    1    1    0    0    0  0.28738780981E+02 -0.60862466648E+01  0.10306859270E+02  0.31131837064E+02  0.51100000000E-03 0. -1.
         11    1    1    0    0    0  0.28995680982E+02 -0.60487029885E+01  0.10326098487E+02  0.31368210560E+02  0.51100000000E-03 0.  1.
         22    1    1    0    0    0 -0.57734461963E+02  0.12134949653E+02 -0.20632957757E+02  0.62499952376E+02  0.00000000000E+00 0.  1.
</event>
<event>
 4    1  0.1974401E-002  0.9118800E+02  0.7818608E-02  0.1130116E+00
         25   -1    0    0    0    0  0.00000000000E+00  0.00000000000E+00  0.99999998245E-14  0.12500000000E+03  0.12500000000E+03 0.  0.
        -11    1    1    0    0    0  0.22331468462E+02  0.34122019246E+02 -0.47245092077E+02  0.62410779571E+02  0.51100000000E-03 0. -1.
         11    1    1    0    0    0  0.17917440644E-01 -0.85297452943E-02 -0.99428575535E-01  0.10139079834E+00  0.51100000000E-03 0.  1.
         22    1    1    0    0    0 -0.22349385903E+02 -0.34113489500E+02  0.47344520652E+02  0.62487829630E+02  0.00000000000E+00 0. -1.
</event>
<event>
 4    1  0.1974401E-002  0.9118800E+02  0.7818608E-02  0.1130116E+00
         25   -1    0    0    0    0  0.00000000000E+00  0.00000000000E+00  0.99999998245E-14  0.12500000000E+03  0.12500000000E+03 0.  0.
        -11    1    1    0    0    0 -0.68802652735E+01 -0.48222760945E+02 -0.14854474148E+02  0.50925711834E+02  0.51100000000E-03 0. -1.
         11    1    1    0    0    0  0.18126857460E+02 -0.41315618633E+01  0.73953276884E+01  0.20008589073E+02  0.51100000000E-03 0.  1.
         22    1    1    0    0    0 -0.11246592186E+02  0.52354322808E+02  0.74591464592E+01  0.54065699093E+02  0.00000000000E+00 0. -1.
</event>
<event>
 4    1  0.1974401E-002  0.9118800E+02  0.7818608E-02  0.1130116E+00
         25   -1    0    0    0    0  0.00000000000E+00  0.00000000000E+00  0.99999998245E-14  0.12500000000E+03  0.12500000000E+03 0.  0.
        -11    1    1    0    0    0  0.37519945964E+00  0.47639432480E+00  0.38573236719E+00  0.71869041140E+00  0.51100000000E-03 0. -1.
         11    1    1    0    0    0  0.32345544410E+02  0.40928711523E+02  0.33098891645E+02  0.61781310269E+02  0.51100000000E-03 0.  1.
         22    1    1    0    0    0 -0.32720743870E+02 -0.41405105848E+02 -0.33484624012E+02  0.62499999320E+02  0.00000000000E+00 0.  1.
</event>
<event>
 4    1  0.1974401E-002  0.9118800E+02  0.7818608E-02  0.1130116E+00
         25   -1    0    0    0    0  0.00000000000E+00  0.00000000000E+00  0.99999998245E-14  0.12500000000E+03  0.12500000000E+03 0.  0.
        -11    1    1    0    0    0 -0.21265213836E+02  0.20616014559E+02 -0.95614424495E+00  0.29633487608E+02  0.51100000000E-03 0.  1.
         11    1    1    0    0    0 -0.24484151500E+02  0.21825041320E+02  0.29407855496E+01  0.32931054086E+02  0.51100000000E-03 0. -1.
         22    1    1    0    0    0  0.45749365336E+02 -0.42441055878E+02 -0.19846413046E+01  0.62435458306E+02  0.00000000000E+00 0. -1.
</event>
<event>
 4    1  0.1974401E-002  0.9118800E+02  0.7818608E-02  0.1130116E+00
         25   -1    0    0    0    0  0.00000000000E+00  0.00000000000E+00  0.99999998245E-14  0.12500000000E+03  0.12500000000E+03 0.  0.
        -11    1    1    0    0    0 -0.17313720765E+01  0.73137903076E+01 -0.61780294801E+02  0.62235793591E+02  0.51100000000E-03 0.  1.
         11    1    1    0    0    0 -0.77415923542E-02  0.31494577731E-01 -0.26220837696E+00  0.26420699224E+00  0.51100000000E-03 0.  1.
         22    1    1    0    0    0  0.17391136689E+01 -0.73452848853E+01  0.62042503178E+02  0.62499999416E+02  0.00000000000E+00 0.  1.
</event>
<event>
 4    1  0.1974401E-002  0.9118800E+02  0.7818608E-02  0.1130116E+00
         25   -1    0    0    0    0  0.00000000000E+00  0.00000000000E+00  0.99999998245E-14  0.12500000000E+03  0.12500000000E+03 0.  0.
        -11    1    1    0    0    0  0.88913152889E+00 -0.28068670691E+01 -0.73006053853E+01  0.78719690594E+01  0.51100000000E-03 0.  1.
         11    1    1    0    0    0  0.61684138707E+01 -0.19479602329E+02 -0.50662782483E+02  0.54628030953E+02  0.51100000000E-03 0.  1.
         22    1    1    0    0    0 -0.70575453996E+01  0.22286469398E+02  0.57963387868E+02  0.62499999988E+02  0.00000000000E+00 0.  1.
</event>
<event>
 4    1  0.1974401E-002  0.9118800E+02  0.7818608E-02  0.1130116E+00
         25   -1    0    0    0    0  0.00000000000E+00  0.00000000000E+00  0.99999998245E-14  0.12500000000E+03  0.12500000000E+03 0.  0.
        -11    1    1    0    0    0 -0.29887841039E+02 -0.23515910293E+02  0.20770875752E+02  0.43332555413E+02  0.51100000000E-03 0. -1.
         11    1    1    0    0    0 -0.20836328093E+02  0.67689397595E+00 -0.15118399872E+02  0.25752218717E+02  0.51100000000E-03 0.  1.
         22    1    1    0    0    0  0.50724169133E+02  0.22839016317E+02 -0.56524758798E+01  0.55915225870E+02  0.00000000000E+00 0. -1.
</event>
<event>
 4    1  0.1974401E-002  0.9118800E+02  0.7818608E-02  0.1130116E+00
         25   -1    0    0    0    0  0.00000000000E+00  0.00000000000E+00  0.99999998245E-14  0.12500000000E+03  0.12500000000E+03 0.  0.
        -11    1    1    0    0    0  0.13578479506E+02 -0.16833789731E+01 -0.36752618190E+02  0.39216881755E+02  0.51100000000E-03 0. -1.
         11    1    1    0    0    0  0.80594097741E+01 -0.10040612359E+01 -0.21820664028E+02  0.23283118428E+02  0.51100000000E-03 0.  1.
         22    1    1    0    0    0 -0.21637889280E+02  0.26874402091E+01  0.58573282218E+02  0.62499999817E+02  0.00000000000E+00 0. -1.
</event>
<event>
 4    1  0.1974401E-002  0.9118800E+02  0.7818608E-02  0.1130116E+00
         25   -1    0    0    0    0  0.00000000000E+00  0.00000000000E+00  0.99999998245E-14  0.12500000000E+03  0.12500000000E+03 0.  0.
        -11    1    1    0    0    0  0.85654302788E+01 -0.27416026906E+01  0.57726147153E+02  0.58422521741E+02  0.51100000000E-03 0.  1.
         11    1    1    0    0    0  0.60521932629E+00 -0.23738394086E+00  0.40254452094E+01  0.40776035809E+01  0.51100000000E-03 0. -1.
         22    1    1    0    0    0 -0.91706496051E+01  0.29789866315E+01 -0.61751592362E+02  0.62499874678E+02  0.00000000000E+00 0.  1.
</event>
<event>
 4    1  0.1974401E-002  0.9118800E+02  0.7818608E-02  0.1130116E+00
         25   -1    0    0    0    0  0.00000000000E+00  0.00000000000E+00  0.99999998245E-14  0.12500000000E+03  0.12500000000E+03 0.  0.
        -11    1    1    0    0    0 -0.55000439301E+01 -0.22465820944E+02 -0.51114479995E+02  0.56103954043E+02  0.51100000000E-03 0.  1.
         11    1    1    0    0    0 -0.63501337071E+00 -0.25459817998E+01 -0.58330340243E+01  0.63960574963E+01  0.51100000000E-03 0. -1.
         22    1    1    0    0    0  0.61350573008E+01  0.25011802744E+02  0.56947514019E+02  0.62499988460E+02  0.00000000000E+00 0.  1.
</event>
<event>
 4    1  0.1974401E-002  0.9118800E+02  0.7818608E-02  0.1130116E+00
         25   -1    0    0    0    0  0.00000000000E+00  0.00000000000E+00  0.99999998245E-14  0.12500000000E+03  0.12500000000E+03 0.  0.
        -11    1    1    0    0    0  0.52034341563E+01 -0.10735140977E+02  0.69612942348E+01  0.13812262541E+02  0.51100000000E-03 0. -1.
         11    1    1    0    0    0  0.22053957298E+02 -0.32243353509E+02  0.29186682607E+02  0.48763442453E+02  0.51100000000E-03 0.  1.
         22    1    1    0    0    0 -0.27257391454E+02  0.42978494486E+02 -0.36147976842E+02  0.62424295006E+02  0.00000000000E+00 0.  1.
</event>
<event>
 4    1  0.1974401E-002  0.9118800E+02  0.7818608E-02  0.1130116E+00
         25   -1    0    0    0    0  0.00000000000E+00  0.00000000000E+00  0.99999998245E-14  0.12500000000E+03  0.12500000000E+03 0.  0.
        -11    1    1    0    0    0  0.69749345930E+00  0.12547989945E+02  0.92213802781E+01  0.15587572078E+02  0.51100000000E-03 0.  1.
         11    1    1    0    0    0  0.19030088354E+01  0.37732759830E+02  0.27810045328E+02  0.46912484782E+02  0.51100000000E-03 0. -1.
         22    1    1    0    0    0 -0.26005022947E+01 -0.50280749775E+02 -0.37031425606E+02  0.62499943140E+02  0.00000000000E+00 0. -1.
</event>
<event>
 4    1  0.1974401E-002  0.9118800E+02  0.7818608E-02  0.1130116E+00
         25   -1    0    0    0    0  0.00000000000E+00  0.00000000000E+00  0.99999998245E-14  0.12500000000E+03  0.12500000000E+03 0.  0.
        -11    1    1    0    0    0  0.15838469484E+02 -0.37359106989E+02 -0.72259457686E+01  0.41216189576E+02  0.51100000000E-03 0.  1.
         11    1    1    0    0    0  0.81777433794E+01 -0.19291082610E+02 -0.37388835366E+01  0.21283810876E+02  0.51100000000E-03 0. -1.
         22    1    1    0    0    0 -0.24016212864E+02  0.56650189599E+02  0.10964829305E+02  0.62499999549E+02  0.00000000000E+00 0. -1.
</event>
<event>
 4    1  0.1974401E-002  0.9118800E+02  0.7818608E-02  0.1130116E+00
         25   -1    0    0    0    0  0.00000000000E+00  0.00000000000E+00  0.99999998245E-14  0.12500000000E+03  0.12500000000E+03 0.  0.
        -11    1    1    0    0    0 -0.15497551596E+02  0.38231944631E+01  0.12457539009E+02  0.20247992488E+02  0.51100000000E-03 0. -1.
         11    1    1    0    0    0 -0.32340659384E+02  0.79756459643E+01  0.25994287112E+02  0.42252007534E+02  0.51100000000E-03 0.  1.
         22    1    1    0    0    0  0.47838210979E+02 -0.11798840427E+02 -0.38451826122E+02  0.62499999978E+02  0.00000000000E+00 0.  1.
</event>
<event>
 4    1  0.1974401E-002  0.9118800E+02  0.7818608E-02  0.1130116E+00
         25   -1    0    0    0    0  0.00000000000E+00  0.00000000000E+00  0.99999998245E-14  0.12500000000E+03  0.12500000000E+03 0.  0.
        -11    1    1    0    0    0  0.32511333371E-01 -0.14850441439E+00 -0.54886163060E+00  0.56952602974E+00  0.51100000000E-03 0.  1.
         11    1    1    0    0    0  0.36037440650E+01 -0.16303959993E+02 -0.59637049549E+02  0.61930475227E+02  0.51100000000E-03 0. -1.
         22    1    1    0    0    0 -0.36362553983E+01  0.16452464407E+02  0.60185911179E+02  0.62499998743E+02  0.00000000000E+00 0. -1.
</event>
<event>
 4    1  0.1974401E-002  0.9118800E+02  0.7818608E-02  0.1130116E+00
         25   -1    0    0    0    0  0.00000000000E+00  0.00000000000E+00  0.99999998245E-14  0.12500000000E+03  0.12500000000E+03 0.  0.
        -11    1    1    0    0    0  0.18718936317E+02  0.35220551626E+02 -0.39341559111E+02  0.56023603126E+02  0.51100000000E-03 0. -1.
         11    1    1    0    0    0  0.18966596050E+01  0.41358802928E+01 -0.46126615446E+01  0.64791565994E+01  0.51100000000E-03 0.  1.
         22    1    1    0    0    0 -0.20615595922E+02 -0.39356431919E+02  0.43954220655E+02  0.62497240275E+02  0.00000000000E+00 0. -1.
</event>
<event>
 4    1  0.1974401E-002  0.9118800E+02  0.7818608E-02  0.1130116E+00
         25   -1    0    0    0    0  0.00000000000E+00  0.00000000000E+00  0.99999998245E-14  0.12500000000E+03  0.12500000000E+03 0.  0.
        -11    1    1    0    0    0  0.15474173109E+02 -0.17416678081E+02 -0.35623330048E+01  0.23568642844E+02  0.51100000000E-03 0.  1.
         11    1    1    0    0    0  0.25561004101E+02 -0.28771172441E+02 -0.58741208934E+01  0.38931357423E+02  0.51100000000E-03 0. -1.
         22    1    1    0    0    0 -0.41035177210E+02  0.46187850522E+02  0.94364538982E+01  0.62499999733E+02  0.00000000000E+00 0. -1.
</event>
<event>
 4    1  0.1974401E-002  0.9118800E+02  0.7818608E-02  0.1130116E+00
         25   -1    0    0    0    0  0.00000000000E+00  0.00000000000E+00  0.99999998245E-14  0.12500000000E+03  0.12500000000E+03 0.  0.
        -11    1    1    0    0    0  0.92384505002E+01 -0.15225044017E+01 -0.29575962950E+01  0.98190815968E+01  0.51100000000E-03 0.  1.
         11    1    1    0    0    0  0.39634820907E+02  0.37393201702E+02  0.11919591833E+00  0.54490226369E+02  0.51100000000E-03 0. -1.
         22    1    1    0    0    0 -0.48873271407E+02 -0.35870697300E+02  0.28384003767E+01  0.60690692034E+02  0.00000000000E+00 0. -1.
</event>
<event>
 4    1  0.1974401E-002  0.9118800E+02  0.7818608E-02  0.1130116E+00
         25   -1    0    0    0    0  0.00000000000E+00  0.00000000000E+00  0.99999998245E-14  0.12500000000E+03  0.12500000000E+03 0.  0.
        -11    1    1    0    0    0  0.10592779174E+02 -0.20928835187E+02  0.51236519754E+02  0.56350723772E+02  0.51100000000E-03 0.  1.
         11    1    1    0    0    0  0.11619838649E+01 -0.22968404808E+01  0.55846241745E+01  0.61492853347E+01  0.51100000000E-03 0. -1.
         22    1    1    0    0    0 -0.11754763039E+02  0.23225675668E+02 -0.56821143928E+02  0.62499990893E+02  0.00000000000E+00 0.  1.
</event>
<event>
 4    1  0.1974401E-002  0.9118800E+02  0.7818608E-02  0.1130116E+00
         25   -1    0    0    0    0  0.00000000000E+00  0.00000000000E+00  0.99999998245E-14  0.12500000000E+03  0.12500000000E+03 0.  0.
        -11    1    1    0    0    0  0.10142838878E+02  0.15304260084E+02  0.10653738953E+02  0.21227334057E+02  0.51100000000E-03 0.  1.
         11    1    1    0    0    0  0.19721303961E+02  0.29755472973E+02  0.20715089975E+02  0.41272665951E+02  0.51100000000E-03 0. -1.
         22    1    1    0    0    0 -0.29864142839E+02 -0.45059733057E+02 -0.31368828929E+02  0.62499999992E+02  0.00000000000E+00 0. -1.
</event>
<event>
 4    1  0.1974401E-002  0.9118800E+02  0.7818608E-02  0.1130116E+00
         25   -1    0    0    0    0  0.00000000000E+00  0.00000000000E+00  0.99999998245E-14  0.12500000000E+03  0.12500000000E+03 0.  0.
        -11    1    1    0    0    0 -0.30839496268E+02  0.63266738650E+01 -0.10496955527E+02  0.33185650632E+02  0.51100000000E-03 0. -1.
         11    1    1    0    0    0 -0.27239655634E+02  0.56082945033E+01 -0.92671130385E+01  0.29314351274E+02  0.51100000000E-03 0.  1.
         22    1    1    0    0    0  0.58079151901E+02 -0.11934968368E+02  0.19764068566E+02  0.62499998095E+02  0.00000000000E+00 0.  1.
</event>
<event>
 4    1  0.1974401E-002  0.9118800E+02  0.7818608E-02  0.1130116E+00
         25   -1    0    0    0    0  0.00000000000E+00  0.00000000000E+00  0.99999998245E-14  0.12500000000E+03  0.12500000000E+03 0.  0.
        -11    1    1    0    0    0 -0.77792023981E+01  0.93830947678E+01  0.24339783928E+02  0.27221012826E+02  0.51100000000E-03 0.  1.
         11    1    1    0    0    0 -0.10083190913E+02  0.12160101760E+02  0.31544700389E+02  0.35278987183E+02  0.51100000000E-03 0.  1.
         22    1    1    0    0    0  0.17862393311E+02 -0.21543196528E+02 -0.55884484317E+02  0.62499999990E+02  0.00000000000E+00 0.  1.
</event>
<event>
 4    1  0.1974401E-002  0.9118800E+02  0.7818608E-02  0.1130116E+00
         25   -1    0    0    0    0  0.00000000000E+00  0.00000000000E+00  0.99999998245E-14  0.12500000000E+03  0.12500000000E+03 0.  0.
        -11    1    1    0    0    0 -0.43633044800E+02  0.39837478679E+01 -0.28186689889E+01  0.43905099257E+02  0.51100000000E-03 0.  1.
         11    1    1    0    0    0 -0.18479758666E+02  0.16857765092E+01 -0.11945759596E+01  0.18594900774E+02  0.51100000000E-03 0.  1.
         22    1    1    0    0    0  0.62112803467E+02 -0.56695243771E+01  0.40132449485E+01  0.62499999969E+02  0.00000000000E+00 0.  1.
</event>
<event>
 4    1  0.1974401E-002  0.9118800E+02  0.7818608E-02  0.1130116E+00
         25   -1    0    0    0    0  0.00000000000E+00  0.00000000000E+00  0.99999998245E-14  0.12500000000E+03  0.12500000000E+03 0.  0.
        -11    1    1    0    0    0  0.56064938063E+02 -0.16758448492E+02 -0.20307746458E+02  0.61939708122E+02  0.51100000000E-03 0.  1.
         11    1    1    0    0    0  0.50440829846E+00 -0.15413055736E+00 -0.18911464107E+00  0.56031113576E+00  0.51100000000E-03 0. -1.
         22    1    1    0    0    0 -0.56569346361E+02  0.16912579049E+02  0.20496861099E+02  0.62499980742E+02  0.00000000000E+00 0.  1.
</event>
<event>
 4    1  0.1974401E-002  0.9118800E+02  0.7818608E-02  0.1130116E+00
         25   -1    0    0    0    0  0.00000000000E+00  0.00000000000E+00  0.99999998245E-14  0.12500000000E+03  0.12500000000E+03 0.  0.
        -11    1    1    0    0    0  0.20914124893E+02  0.19918413668E+02 -0.13813902860E+01  0.28914564885E+02  0.51100000000E-03 0.  1.
         11    1    1    0    0    0  0.19406812326E+02  0.17419773316E+02  0.25133440634E+02  0.36218264803E+02  0.51100000000E-03 0. -1.
         22    1    1    0    0    0 -0.40320937219E+02 -0.37338186983E+02 -0.23752050348E+02  0.59867170312E+02  0.00000000000E+00 0.  1.
</event>
<event>
 4    1  0.1974401E-002  0.9118800E+02  0.7818608E-02  0.1130116E+00
         25   -1    0    0    0    0  0.00000000000E+00  0.00000000000E+00  0.99999998245E-14  0.12500000000E+03  0.12500000000E+03 0.  0.
        -11    1    1    0    0    0  0.15074496936E+00  0.96653320036E+00 -0.56949130191E-01  0.97987444998E+00  0.51100000000E-03 0.  1.
         11    1    1    0    0    0  0.88524693958E+01  0.60641939328E+02 -0.53798984005E+01  0.61520357012E+02  0.51100000000E-03 0. -1.
         22    1    1    0    0    0 -0.90032143652E+01 -0.61608472528E+02  0.54368475307E+01  0.62499768538E+02  0.00000000000E+00 0. -1.
</event>
<event>
 4    1  0.1974401E-002  0.9118800E+02  0.7818608E-02  0.1130116E+00
         25   -1    0    0    0    0  0.00000000000E+00  0.00000000000E+00  0.99999998245E-14  0.12500000000E+03  0.12500000000E+03 0.  0.
        -11    1    1    0    0    0 -0.21701132282E+01  0.40868002692E+02  0.50485182906E+01  0.41235792373E+02  0.51100000000E-03 0. -1.
         11    1    1    0    0    0 -0.48773841664E+00  0.21135783926E+02  0.23167045236E+01  0.21267965841E+02  0.51100000000E-03 0.  1.
         22    1    1    0    0    0  0.26578516449E+01 -0.62003786617E+02 -0.73652228142E+01  0.62496241786E+02  0.00000000000E+00 0.  1.
</event>
<event>
 4    1  0.1974401E-002  0.9118800E+02  0.7818608E-02  0.1130116E+00
         25   -1    0    0    0    0  0.00000000000E+00  0.00000000000E+00  0.99999998245E-14  0.12500000000E+03  0.12500000000E+03 0.  0.
        -11    1    1    0    0    0 -0.95229009989E+01 -0.16118463460E+02 -0.43143891717E+02  0.47030691048E+02  0.51100000000E-03 0.  1.
         11    1    1    0    0    0 -0.27970898840E+01 -0.48236089094E+01 -0.14434654135E+02  0.15474177038E+02  0.51100000000E-03 0. -1.
         22    1    1    0    0    0  0.12319990883E+02  0.20942072370E+02  0.57578545852E+02  0.62495131914E+02  0.00000000000E+00 0.  1.
</event>
<event>
 4    1  0.1974401E-002  0.9118800E+02  0.7818608E-02  0.1130116E+00
         25   -1    0    0    0    0  0.00000000000E+00  0.00000000000E+00  0.99999998245E-14  0.12500000000E+03  0.12500000000E+03 0.  0.
        -11    1    1    0    0    0 -0.99073692209E+01 -0.23963282719E+00  0.17847444335E+02  0.20414324832E+02  0.51100000000E-03 0.  1.
         11    1    1    0    0    0  0.14511162461E+02 -0.43446270960E+02 -0.34773686025E+02  0.57509664721E+02  0.51100000000E-03 0. -1.
         22    1    1    0    0    0 -0.46037932404E+01  0.43685903787E+02  0.16926241689E+02  0.47076010447E+02  0.00000000000E+00 0. -1.
</event>
<event>
 4    1  0.1974401E-002  0.9118800E+02  0.7818608E-02  0.1130116E+00
         25   -1    0    0    0    0  0.00000000000E+00  0.00000000000E+00  0.99999998245E-14  0.12500000000E+03  0.12500000000E+03 0.  0.
        -11    1    1    0    0    0 -0.87958560133E+01  0.43346458943E+02  0.92594641389E+01  0.45188718308E+02  0.51100000000E-03 0.  1.
         11    1    1    0    0    0 -0.32755928314E+01  0.16609482494E+02  0.36167673865E+01  0.17311424659E+02  0.51100000000E-03 0. -1.
         22    1    1    0    0    0  0.12071448845E+02 -0.59955941438E+02 -0.12876231525E+02  0.62499857033E+02  0.00000000000E+00 0.  1.
</event>
<event>
 4    1  0.1974401E-002  0.9118800E+02  0.7818608E-02  0.1130116E+00
         25   -1    0    0    0    0  0.00000000000E+00  0.00000000000E+00  0.99999998245E-14  0.12500000000E+03  0.12500000000E+03 0.  0.
        -11    1    1    0    0    0 -0.78401955368E+01 -0.12887027369E+01  0.58333261066E-01  0.79456166425E+01  0.51100000000E-03 0. -1.
         11    1    1    0    0    0 -0.43520767990E+02 -0.33014393390E+02 -0.62476244622E+01  0.54982181014E+02  0.51100000000E-03 0.  1.
         22    1    1    0    0    0  0.51360963526E+02  0.34303096127E+02  0.61892912011E+01  0.62072202344E+02  0.00000000000E+00 0.  1.
</event>
<event>
 4    1  0.1974401E-002  0.9118800E+02  0.7818608E-02  0.1130116E+00
         25   -1    0    0    0    0  0.00000000000E+00  0.00000000000E+00  0.99999998245E-14  0.12500000000E+03  0.12500000000E+03 0.  0.
        -11    1    1    0    0    0 -0.14088363622E+02 -0.26773631224E+02  0.39073500737E+01  0.30505355322E+02  0.51100000000E-03 0. -1.
         11    1    1    0    0    0 -0.22155805301E+02 -0.14626667451E+02 -0.24126512772E+02  0.35873496178E+02  0.51100000000E-03 0.  1.
         22    1    1    0    0    0  0.36244168923E+02  0.41400298674E+02  0.20219162698E+02  0.58621148500E+02  0.00000000000E+00 0.  1.
</event>
<event>
 4    1  0.1974401E-002  0.9118800E+02  0.7818608E-02  0.1130116E+00
         25   -1    0    0    0    0  0.00000000000E+00  0.00000000000E+00  0.99999998245E-14  0.12500000000E+03  0.12500000000E+03 0.  0.
        -11    1    1    0    0    0  0.19800741162E+02  0.30656857959E+02  0.16359755753E+02  0.39994423349E+02  0.51100000000E-03 0.  1.
         11    1    1    0    0    0  0.11144011800E+02  0.17250558349E+02  0.92049019251E+01  0.22505576688E+02  0.51100000000E-03 0. -1.
         22    1    1    0    0    0 -0.30944752962E+02 -0.47907416307E+02 -0.25564657678E+02  0.62499999963E+02  0.00000000000E+00 0.  1.
</event>
<event>
 4    1  0.1974401E-002  0.9118800E+02  0.7818608E-02  0.1130116E+00
         25   -1    0    0    0    0  0.00000000000E+00  0.00000000000E+00  0.99999998245E-14  0.12500000000E+03  0.12500000000E+03 0.  0.
        -11    1    1    0    0    0 -0.19728422449E+02  0.11226241903E+02  0.58079817243E+02  0.62357873046E+02  0.51100000000E-03 0. -1.
         11    1    1    0    0    0  0.16217017136E+00 -0.19384190490E+00  0.10377131320E+00  0.27320797049E+00  0.51100000000E-03 0.  1.
         22    1    1    0    0    0  0.19566252278E+02 -0.11032399998E+02 -0.58183588556E+02  0.62368918984E+02  0.00000000000E+00 0. -1.
</event>
<event>
 4    1  0.1974401E-002  0.9118800E+02  0.7818608E-02  0.1130116E+00
         25   -1    0    0    0    0  0.00000000000E+00  0.00000000000E+00  0.99999998245E-14  0.12500000000E+03  0.12500000000E+03 0.  0.
        -11    1    1    0    0    0  0.16304578580E+01 -0.57310475553E+01  0.22488129306E+02  0.23264119559E+02  0.51100000000E-03 0.  1.
         11    1    1    0    0    0  0.27486705563E+01 -0.96664582027E+01  0.37927018211E+02  0.39235880450E+02  0.51100000000E-03 0.  1.
         22    1    1    0    0    0 -0.43791284142E+01  0.15397505758E+02 -0.60415147518E+02  0.62499999991E+02  0.00000000000E+00 0.  1.
</event>
<event>
 4    1  0.1974401E-002  0.9118800E+02  0.7818608E-02  0.1130116E+00
         25   -1    0    0    0    0  0.00000000000E+00  0.00000000000E+00  0.99999998245E-14  0.12500000000E+03  0.12500000000E+03 0.  0.
        -11    1    1    0    0    0  0.14246588879E+01 -0.11455859868E+02  0.31266581909E+01  0.11960032189E+02  0.51100000000E-03 0.  1.
         11    1    1    0    0    0  0.23953839999E+01 -0.49504582201E+02  0.10010020184E+02  0.50563247797E+02  0.51100000000E-03 0. -1.
         22    1    1    0    0    0 -0.38200428878E+01  0.60960442069E+02 -0.13136678375E+02  0.62476720014E+02  0.00000000000E+00 0. -1.
</event>
<event>
 4    1  0.1974401E-002  0.9118800E+02  0.7818608E-02  0.1130116E+00
         25   -1    0    0    0    0  0.00000000000E+00  0.00000000000E+00  0.99999998245E-14  0.12500000000E+03  0.12500000000E+03 0.  0.
        -11    1    1    0    0    0  0.12818231977E+02  0.19580844227E+02  0.34169075905E+02  0.41415483579E+02  0.51100000000E-03 0. -1.
         11    1    1    0    0    0 -0.18586337423E+02 -0.34269585516E+02  0.68970148850E+01  0.39590721701E+02  0.51100000000E-03 0.  1.
         22    1    1    0    0    0  0.57681054458E+01  0.14688741288E+02 -0.41066090790E+02  0.43993794719E+02  0.00000000000E+00 0. -1.
</event>
<event>
 4    1  0.1974401E-002  0.9118800E+02  0.7818608E-02  0.1130116E+00
         25   -1    0    0    0    0  0.00000000000E+00  0.00000000000E+00  0.99999998245E-14  0.12500000000E+03  0.12500000000E+03 0.  0.
        -11    1    1    0    0    0 -0.28176357618E+02 -0.14491128545E+02  0.28266073693E+02  0.42460226770E+02  0.51100000000E-03 0. -1.
         11    1    1    0    0    0 -0.13300007622E+02 -0.68365626805E+01  0.13340304443E+02  0.20039773325E+02  0.51100000000E-03 0.  1.
         22    1    1    0    0    0  0.41476365240E+02  0.21327691226E+02 -0.41606378135E+02  0.62499999905E+02  0.00000000000E+00 0. -1.
</event>
<event>
 4    1  0.1974401E-002  0.9118800E+02  0.7818608E-02  0.1130116E+00
         25   -1    0    0    0    0  0.00000000000E+00  0.00000000000E+00  0.99999998245E-14  0.12500000000E+03  0.12500000000E+03 0.  0.
        -11    1    1    0    0    0 -0.28931569499E+02 -0.13752545180E+02  0.86849418506E+01  0.33190306233E+02  0.51100000000E-03 0. -1.
         11    1    1    0    0    0 -0.26052920879E+02 -0.11543110023E+02  0.68838581243E+01  0.29315278922E+02  0.51100000000E-03 0.  1.
         22    1    1    0    0    0  0.54984490378E+02  0.25295655203E+02 -0.15568799975E+02  0.62494414846E+02  0.00000000000E+00 0. -1.
</event>
<event>
 4    1  0.1974401E-002  0.9118800E+02  0.7818608E-02  0.1130116E+00
         25   -1    0    0    0    0  0.00000000000E+00  0.00000000000E+00  0.99999998245E-14  0.12500000000E+03  0.12500000000E+03 0.  0.
        -11    1    1    0    0    0 -0.64902555803E+00 -0.91989060768E+00 -0.17877823367E+01  0.21127230887E+01  0.51100000000E-03 0.  1.
         11    1    1    0    0    0 -0.18493982487E+02 -0.26323426559E+02 -0.51104531239E+02  0.60387277530E+02  0.51100000000E-03 0. -1.
         22    1    1    0    0    0  0.19143008045E+02  0.27243317167E+02  0.52892313576E+02  0.62499999381E+02  0.00000000000E+00 0. -1.
</event>
<event>
 4    1  0.1974401E-002  0.9118800E+02  0.7818608E-02  0.1130116E+00
         25   -1    0    0    0    0  0.00000000000E+00  0.00000000000E+00  0.99999998245E-14  0.12500000000E+03  0.12500000000E+03 0.  0.
        -11    1    1    0    0    0 -0.59614900273E+01 -0.24033728871E+01 -0.18209714677E+02  0.19310858952E+02  0.51100000000E-03 0. -1.
         11    1    1    0    0    0 -0.13412140216E+02 -0.46281297087E+01 -0.40793194191E+02  0.43190158397E+02  0.51100000000E-03 0.  1.
         22    1    1    0    0    0  0.19373630244E+02  0.70315025958E+01  0.59002908868E+02  0.62498982651E+02  0.00000000000E+00 0. -1.
</event>
<event>
 4    1  0.1974401E-002  0.9118800E+02  0.7818608E-02  0.1130116E+00
         25   -1    0    0    0    0  0.00000000000E+00  0.00000000000E+00  0.99999998245E-14  0.12500000000E+03  0.12500000000E+03 0.  0.
        -11    1    1    0    0    0 -0.27837227532E+02  0.16992573975E+02  0.44331573964E+02  0.55035872459E+02  0.51100000000E-03 0. -1.
         11    1    1    0    0    0 -0.37775352149E+01  0.22873307225E+01  0.60176150496E+01  0.74641372763E+01  0.51100000000E-03 0.  1.
         22    1    1    0    0    0  0.31614762747E+02 -0.19279904698E+02 -0.50349189014E+02  0.62499990264E+02  0.00000000000E+00 0. -1.
</event>
<event>
 4    1  0.1974401E-002  0.9118800E+02  0.7818608E-02  0.1130116E+00
         25   -1    0    0    0    0  0.00000000000E+00  0.00000000000E+00  0.99999998245E-14  0.12500000000E+03  0.12500000000E+03 0.  0.
        -11    1    1    0    0    0 -0.17390901588E+01 -0.36025421471E+01  0.50821670890E+00  0.40324966195E+01  0.51100000000E-03 0.  1.
         11    1    1    0    0    0 -0.32509585134E+02 -0.48517069895E+02  0.32228597408E+01  0.58490734497E+02  0.51100000000E-03 0. -1.
         22    1    1    0    0    0  0.34248675293E+02  0.52119612042E+02 -0.37310764497E+01  0.62476768884E+02  0.00000000000E+00 0. -1.
</event>
<event>
 4    1  0.1974401E-002  0.9118800E+02  0.7818608E-02  0.1130116E+00
         25   -1    0    0    0    0  0.00000000000E+00  0.00000000000E+00  0.99999998245E-14  0.12500000000E+03  0.12500000000E+03 0.  0.
        -11    1    1    0    0    0 -0.24464525157E+01  0.12085196833E+00  0.12506081397E+02  0.12743696767E+02  0.51100000000E-03 0.  1.
         11    1    1    0    0    0 -0.93680310928E+01  0.55112348579E+00  0.48863382802E+02  0.49756345553E+02  0.51100000000E-03 0. -1.
         22    1    1    0    0    0  0.11814483608E+02 -0.67197545412E+00 -0.61369464199E+02  0.62499957680E+02  0.00000000000E+00 0. -1.
</event>
<event>
 4    1  0.1974401E-002  0.9118800E+02  0.7818608E-02  0.1130116E+00
         25   -1    0    0    0    0  0.00000000000E+00  0.00000000000E+00  0.99999998245E-14  0.12500000000E+03  0.12500000000E+03 0.  0.
        -11    1    1    0    0    0 -0.15362641497E+02 -0.54786007780E+01 -0.53816230519E+02  0.56233553042E+02  0.51100000000E-03 0. -1.
         11    1    1    0    0    0 -0.17632173141E+01 -0.57094020417E+00 -0.59862666726E+01  0.62666017067E+01  0.51100000000E-03 0.  1.
         22    1    1    0    0    0  0.17125858811E+02  0.60495409822E+01  0.59802497191E+02  0.62499845251E+02  0.00000000000E+00 0. -1.
</event>
<event>
 4    1  0.1974401E-002  0.9118800E+02  0.7818608E-02  0.1130116E+00
         25   -1    0    0    0    0  0.00000000000E+00  0.00000000000E+00  0.99999998245E-14  0.12500000000E+03  0.12500000000E+03 0.  0.
        -11    1    1    0    0    0  0.15257061938E+02  0.16998305658E+02 -0.17400849546E+02  0.28714280409E+02  0.51100000000E-03 0.  1.
         11    1    1    0    0    0  0.17953992710E+02  0.19991394000E+02 -0.20481044680E+02  0.33785720057E+02  0.51100000000E-03 0. -1.
         22    1    1    0    0    0 -0.33211054648E+02 -0.36989699658E+02  0.37881894227E+02  0.62499999534E+02  0.00000000000E+00 0.  1.
</event>
<event>
 4    1  0.1974401E-002  0.9118800E+02  0.7818608E-02  0.1130116E+00
         25   -1    0    0    0    0  0.00000000000E+00  0.00000000000E+00  0.99999998245E-14  0.12500000000E+03  0.12500000000E+03 0.  0.
        -11    1    1    0    0    0  0.19480777313E+02 -0.49789111006E+02 -0.16349890254E+02  0.55908632348E+02  0.51100000000E-03 0. -1.
         11    1    1    0    0    0  0.20382756317E+01 -0.59391540290E+01 -0.20132839100E+01  0.65940450783E+01  0.51100000000E-03 0.  1.
         22    1    1    0    0    0 -0.21519052945E+02  0.55728265035E+02  0.18363174164E+02  0.62497322573E+02  0.00000000000E+00 0. -1.
</event>
<event>
 4    1  0.1974401E-002  0.9118800E+02  0.7818608E-02  0.1130116E+00
         25   -1    0    0    0    0  0.00000000000E+00  0.00000000000E+00  0.99999998245E-14  0.12500000000E+03  0.12500000000E+03 0.  0.
        -11    1    1    0    0    0 -0.55147164340E+01 -0.10496631789E+02  0.11430771820E+02  0.16469788127E+02  0.51100000000E-03 0.  1.
         11    1    1    0    0    0 -0.13490882337E+02 -0.31317868900E+02  0.30937131443E+02  0.46042577261E+02  0.51100000000E-03 0. -1.
         22    1    1    0    0    0  0.19005598771E+02  0.41814500690E+02 -0.42367903263E+02  0.62487634612E+02  0.00000000000E+00 0. -1.
</event>
<event>
 4    1  0.1974401E-002  0.9118800E+02  0.7818608E-02  0.1130116E+00
         25   -1    0    0    0    0  0.00000000000E+00  0.00000000000E+00  0.99999998245E-14  0.12500000000E+03  0.12500000000E+03 0.  0.
        -11    1    1    0    0    0 -0.19825644316E+00 -0.11050457638E-01  0.17104897636E+01  0.17219765453E+01  0.51100000000E-03 0. -1.
         11    1    1    0    0    0 -0.28238266381E+01 -0.23383054760E+01  0.60669761477E+02  0.60780437867E+02  0.51100000000E-03 0.  1.
         22    1    1    0    0    0  0.30220830813E+01  0.23493559337E+01 -0.62380251241E+02  0.62497585588E+02  0.00000000000E+00 0.  1.
</event>
<event>
 4    1  0.1974401E-002  0.9118800E+02  0.7818608E-02  0.1130116E+00
         25   -1    0    0    0    0  0.00000000000E+00  0.00000000000E+00  0.99999998245E-14  0.12500000000E+03  0.12500000000E+03 0.  0.
        -11    1    1    0    0    0 -0.98677536209E+01  0.32922575837E+01 -0.84436335069E+01  0.13398002410E+02  0.51100000000E-03 0.  1.
         11    1    1    0    0    0 -0.19006175692E+02 -0.48854162130E+02 -0.12241171726E+02  0.53831312053E+02  0.51100000000E-03 0. -1.
         22    1    1    0    0    0  0.28873929313E+02  0.45561904546E+02  0.20684805233E+02  0.57770685537E+02  0.00000000000E+00 0. -1.
</event>
<event>
 4    1  0.1974401E-002  0.9118800E+02  0.7818608E-02  0.1130116E+00
         25   -1    0    0    0    0  0.00000000000E+00  0.00000000000E+00  0.99999998245E-14  0.12500000000E+03  0.12500000000E+03 0.  0.
        -11    1    1    0    0    0 -0.21455024332E+00 -0.12519413381E+02 -0.26074111359E+02  0.28924747650E+02  0.51100000000E-03 0.  1.
         11    1    1    0    0    0  0.42569698285E+00 -0.15705395715E+02 -0.29680970670E+02  0.33582743971E+02  0.51100000000E-03 0. -1.
         22    1    1    0    0    0 -0.21114673953E+00  0.28224809096E+02  0.55755082028E+02  0.62492508379E+02  0.00000000000E+00 0.  1.
</event>
<event>
 4    1  0.1974401E-002  0.9118800E+02  0.7818608E-02  0.1130116E+00
         25   -1    0    0    0    0  0.00000000000E+00  0.00000000000E+00  0.99999998245E-14  0.12500000000E+03  0.12500000000E+03 0.  0.
        -11    1    1    0    0    0  0.37046985919E+01  0.12892346023E+02  0.10855951365E+02  0.17256565647E+02  0.51100000000E-03 0. -1.
         11    1    1    0    0    0  0.13684065571E+02  0.30599646799E+02  0.30455188879E+02  0.45289188165E+02  0.51100000000E-03 0.  1.
         22    1    1    0    0    0 -0.17388764163E+02 -0.43491992822E+02 -0.41311140243E+02  0.62454246188E+02  0.00000000000E+00 0.  1.
</event>
<event>
 4    1  0.1974401E-002  0.9118800E+02  0.7818608E-02  0.1130116E+00
         25   -1    0    0    0    0  0.00000000000E+00  0.00000000000E+00  0.99999998245E-14  0.12500000000E+03  0.12500000000E+03 0.  0.
        -11    1    1    0    0    0 -0.17270417474E+01  0.13372358903E+02 -0.20707832462E+02  0.24710665336E+02  0.51100000000E-03 0.  1.
         11    1    1    0    0    0 -0.26312578870E+01  0.20435647446E+02 -0.31677984305E+02  0.37789335725E+02  0.51100000000E-03 0. -1.
         22    1    1    0    0    0  0.43582996344E+01 -0.33808006350E+02  0.52385816767E+02  0.62499998939E+02  0.00000000000E+00 0.  1.
</event>
<event>
 4    1  0.1974401E-002  0.9118800E+02  0.7818608E-02  0.1130116E+00
         25   -1    0    0    0    0  0.00000000000E+00  0.00000000000E+00  0.99999998245E-14  0.12500000000E+03  0.12500000000E+03 0.  0.
        -11    1    1    0    0    0 -0.45690859588E+02  0.26641534994E+02 -0.25450508441E+02  0.58695437786E+02  0.51100000000E-03 0. -1.
         11    1    1    0    0    0 -0.29603957837E+01  0.17291786453E+01 -0.16494528677E+01  0.38045626565E+01  0.51100000000E-03 0. -1.
         22    1    1    0    0    0  0.48651255372E+02 -0.28370713640E+02  0.27099961308E+02  0.62499999557E+02  0.00000000000E+00 0. -1.
</event>
<event>
 4    1  0.1974401E-002  0.9118800E+02  0.7818608E-02  0.1130116E+00
         25   -1    0    0    0    0  0.00000000000E+00  0.00000000000E+00  0.99999998245E-14  0.12500000000E+03  0.12500000000E+03 0.  0.
        -11    1    1    0    0    0 -0.72430628231E+01 -0.43930666114E+02  0.31335848650E+02  0.54445392781E+02  0.51100000000E-03 0.  1.
         11    1    1    0    0    0 -0.58171801370E+01 -0.57022219441E+01  0.31372922210E+01  0.87291192332E+01  0.51100000000E-03 0. -1.
         22    1    1    0    0    0  0.13060242960E+02  0.49632888058E+02 -0.34473140871E+02  0.61825487985E+02  0.00000000000E+00 0.  1.
</event>
<event>
 4    1  0.1974401E-002  0.9118800E+02  0.7818608E-02  0.1130116E+00
         25   -1    0    0    0    0  0.00000000000E+00  0.00000000000E+00  0.99999998245E-14  0.12500000000E+03  0.12500000000E+03 0.  0.
        -11    1    1    0    0    0 -0.34506211647E+02 -0.16301098918E+01  0.31987464873E+02  0.47080078693E+02  0.51100000000E-03 0.  1.
         11    1    1    0    0    0 -0.11301700908E+02 -0.53570814297E+00  0.10476571369E+02  0.15419921353E+02  0.51100000000E-03 0.  1.
         22    1    1    0    0    0  0.45807912555E+02  0.21658180348E+01 -0.42464036241E+02  0.62499999954E+02  0.00000000000E+00 0.  1.
</event>
<event>
 4    1  0.1974401E-002  0.9118800E+02  0.7818608E-02  0.1130116E+00
         25   -1    0    0    0    0  0.00000000000E+00  0.00000000000E+00  0.99999998245E-14  0.12500000000E+03  0.12500000000E+03 0.  0.
        -11    1    1    0    0    0 -0.52592692855E+02 -0.26622242469E+02  0.11206575924E+02  0.60002687274E+02  0.51100000000E-03 0.  1.
         11    1    1    0    0    0 -0.19241386455E+01 -0.10999857198E+01  0.13024002547E+01  0.25707051163E+01  0.51100000000E-03 0. -1.
         22    1    1    0    0    0  0.54516831501E+02  0.27722228189E+02 -0.12508976178E+02  0.62426607610E+02  0.00000000000E+00 0.  1.
</event>
<event>
 4    1  0.1974401E-002  0.9118800E+02  0.7818608E-02  0.1130116E+00
         25   -1    0    0    0    0  0.00000000000E+00  0.00000000000E+00  0.99999998245E-14  0.12500000000E+03  0.12500000000E+03 0.  0.
        -11    1    1    0    0    0  0.17259047219E+02 -0.17620034231E+02 -0.14394962899E+02  0.28557928397E+02  0.51100000000E-03 0. -1.
         11    1    1    0    0    0  0.20637612351E+02 -0.20996871396E+02 -0.16890816328E+02  0.33942294095E+02  0.51100000000E-03 0.  1.
         22    1    1    0    0    0 -0.37896659570E+02  0.38616905626E+02  0.31285779227E+02  0.62499777508E+02  0.00000000000E+00 0. -1.
</event>
<event>
 4    1  0.1974401E-002  0.9118800E+02  0.7818608E-02  0.1130116E+00
         25   -1    0    0    0    0  0.00000000000E+00  0.00000000000E+00  0.99999998245E-14  0.12500000000E+03  0.12500000000E+03 0.  0.
        -11    1    1    0    0    0 -0.32952642782E+02 -0.25194861474E+01  0.10792855303E+02  0.34766509785E+02  0.51100000000E-03 0. -1.
         11    1    1    0    0    0 -0.26368126907E+02 -0.13484350374E+01  0.84957167932E+01  0.27735781903E+02  0.51100000000E-03 0.  1.
         22    1    1    0    0    0  0.59320769689E+02  0.38679211849E+01 -0.19288572096E+02  0.62497708313E+02  0.00000000000E+00 0. -1.
</event>
<event>
 4    1  0.1974401E-002  0.9118800E+02  0.7818608E-02  0.1130116E+00
         25   -1    0    0    0    0  0.00000000000E+00  0.00000000000E+00  0.99999998245E-14  0.12500000000E+03  0.12500000000E+03 0.  0.
        -11    1    1    0    0    0 -0.21100999779E+02 -0.14202231384E+02 -0.55769564339E+01  0.26039547064E+02  0.51100000000E-03 0.  1.
         11    1    1    0    0    0 -0.30098064064E+02 -0.19449496926E+02 -0.67473150291E+01  0.36465088118E+02  0.51100000000E-03 0. -1.
         22    1    1    0    0    0  0.51199063843E+02  0.33651728310E+02  0.12324271463E+02  0.62495364818E+02  0.00000000000E+00 0. -1.
</event>
<event>
 4    1  0.1974401E-002  0.9118800E+02  0.7818608E-02  0.1130116E+00
         25   -1    0    0    0    0  0.00000000000E+00  0.00000000000E+00  0.99999998245E-14  0.12500000000E+03  0.12500000000E+03 0.  0.
        -11    1    1    0    0    0 -0.16959500564E+02 -0.37498358657E+01 -0.27810564815E+01  0.17590344051E+02  0.51100000000E-03 0. -1.
         11    1    1    0    0    0 -0.42792425126E+02 -0.10141476824E+02 -0.91379333113E+01  0.44917068312E+02  0.51100000000E-03 0.  1.
         22    1    1    0    0    0  0.59751925690E+02  0.13891312690E+02  0.11918989793E+02  0.62492587637E+02  0.00000000000E+00 0.  1.
</event>
<event>
 4    1  0.1974401E-002  0.9118800E+02  0.7818608E-02  0.1130116E+00
         25   -1    0    0    0    0  0.00000000000E+00  0.00000000000E+00  0.99999998245E-14  0.12500000000E+03  0.12500000000E+03 0.  0.
        -11    1    1    0    0    0  0.50979837462E+01 -0.77052653637E+01  0.34364753525E+02  0.35585064813E+02  0.51100000000E-03 0.  1.
         11    1    1    0    0    0  0.17822722512E+01  0.42532538147E+01  0.27090124084E+02  0.27479837800E+02  0.51100000000E-03 0. -1.
         22    1    1    0    0    0 -0.68802559974E+01  0.34520115489E+01 -0.61454877609E+02  0.61935097387E+02  0.00000000000E+00 0.  1.
</event>
<event>
 4    1  0.1974401E-002  0.9118800E+02  0.7818608E-02  0.1130116E+00
         25   -1    0    0    0    0  0.00000000000E+00  0.00000000000E+00  0.99999998245E-14  0.12500000000E+03  0.12500000000E+03 0.  0.
        -11    1    1    0    0    0  0.21122427983E+02 -0.49357147270E+02 -0.61709999933E+01  0.54040412579E+02  0.51100000000E-03 0.  1.
         11    1    1    0    0    0  0.12353167685E+02  0.19122196890E+01  0.27103879289E+01  0.12790759907E+02  0.51100000000E-03 0. -1.
         22    1    1    0    0    0 -0.33475595669E+02  0.47444927581E+02  0.34606120644E+01  0.58168827514E+02  0.00000000000E+00 0.  1.
</event>
<event>
 4    1  0.1974401E-002  0.9118800E+02  0.7818608E-02  0.1130116E+00
         25   -1    0    0    0    0  0.00000000000E+00  0.00000000000E+00  0.99999998245E-14  0.12500000000E+03  0.12500000000E+03 0.  0.
        -11    1    1    0    0    0 -0.55145027310E+01  0.13799168217E+00 -0.70083104935E+01  0.89188114852E+01  0.51100000000E-03 0. -1.
         11    1    1    0    0    0 -0.33128888860E+02  0.83139549375E+00 -0.42103791612E+02  0.53581188527E+02  0.51100000000E-03 0. -1.
         22    1    1    0    0    0  0.38643391591E+02 -0.96938717592E+00  0.49112102106E+02  0.62499999988E+02  0.00000000000E+00 0. -1.
</event>
<event>
 4    1  0.1974401E-002  0.9118800E+02  0.7818608E-02  0.1130116E+00
         25   -1    0    0    0    0  0.00000000000E+00  0.00000000000E+00  0.99999998245E-14  0.12500000000E+03  0.12500000000E+03 0.  0.
        -11    1    1    0    0    0  0.11934186165E+02  0.65573368778E+01 -0.27106521207E+01  0.13884203309E+02  0.51100000000E-03 0. -1.
         11    1    1    0    0    0  0.42172551457E+02  0.22364127179E+02 -0.92131414473E+01  0.48616460756E+02  0.51100000000E-03 0.  1.
         22    1    1    0    0    0 -0.54106737622E+02 -0.28921464056E+02  0.11923793568E+02  0.62499335935E+02  0.00000000000E+00 0.  1.
</event>
<event>
 4    1  0.1974401E-002  0.9118800E+02  0.7818608E-02  0.1130116E+00
         25   -1    0    0    0    0  0.00000000000E+00  0.00000000000E+00  0.99999998245E-14  0.12500000000E+03  0.12500000000E+03 0.  0.
        -11    1    1    0    0    0  0.42573078955E+02 -0.13923471777E+02  0.75095030645E+01  0.45417207692E+02  0.51100000000E-03 0.  1.
         11    1    1    0    0    0  0.17618416420E+02  0.89295638872E+00 -0.15169732163E+01  0.17706133860E+02  0.51100000000E-03 0. -1.
         22    1    1    0    0    0 -0.60191495375E+02  0.13030515388E+02 -0.59925298483E+01  0.61876658448E+02  0.00000000000E+00 0.  1.
</event>
<event>
 4    1  0.1974401E-002  0.9118800E+02  0.7818608E-02  0.1130116E+00
         25   -1    0    0    0    0  0.00000000000E+00  0.00000000000E+00  0.99999998245E-14  0.12500000000E+03  0.12500000000E+03 0.  0.
        -11    1    1    0    0    0 -0.60669533010E+01  0.68214766271E+01  0.44625907881E+00  0.91400007198E+01  0.51100000000E-03 0. -1.
         11    1    1    0    0    0 -0.35423430310E+02  0.39819862280E+02  0.26170001166E+01  0.53359999407E+02  0.51100000000E-03 0.  1.
         22    1    1    0    0    0  0.41490383611E+02 -0.46641338907E+02 -0.30632591955E+01  0.62499999873E+02  0.00000000000E+00 0.  1.
</event>
<event>
 4    1  0.1974401E-002  0.9118800E+02  0.7818608E-02  0.1130116E+00
         25   -1    0    0    0    0  0.00000000000E+00  0.00000000000E+00  0.99999998245E-14  0.12500000000E+03  0.12500000000E+03 0.  0.
        -11    1    1    0    0    0 -0.11409494187E+02 -0.59238275340E+01 -0.67588866152E+01  0.14524146749E+02  0.51100000000E-03 0.  1.
         11    1    1    0    0    0 -0.41385548776E+02 -0.21556189386E+02 -0.11798185858E+02  0.48131384128E+02  0.51100000000E-03 0. -1.
         22    1    1    0    0    0  0.52795042963E+02  0.27480016920E+02  0.18557072474E+02  0.62344469122E+02  0.00000000000E+00 0. -1.
</event>
<event>
 4    1  0.1974401E-002  0.9118800E+02  0.7818608E-02  0.1130116E+00
         25   -1    0    0    0    0  0.00000000000E+00  0.00000000000E+00  0.99999998245E-14  0.12500000000E+03  0.12500000000E+03 0.  0.
        -11    1    1    0    0    0  0.67023900588E+01  0.35793815112E+01  0.26363856751E+02  0.27436963162E+02  0.51100000000E-03 0. -1.
         11    1    1    0    0    0  0.86285024368E+01  0.45864425126E+01  0.33673892282E+02  0.35063050793E+02  0.51100000000E-03 0.  1.
         22    1    1    0    0    0 -0.15330892496E+02 -0.81658240239E+01 -0.60037749033E+02  0.62499986045E+02  0.00000000000E+00 0.  1.
</event>
<event>
 4    1  0.1974401E-002  0.9118800E+02  0.7818608E-02  0.1130116E+00
         25   -1    0    0    0    0  0.00000000000E+00  0.00000000000E+00  0.99999998245E-14  0.12500000000E+03  0.12500000000E+03 0.  0.
        -11    1    1    0    0    0 -0.74125853232E+01  0.25330096660E+02 -0.37278371632E+01  0.26654399040E+02  0.51100000000E-03 0.  1.
         11    1    1    0    0    0 -0.99762587919E+01  0.34057831557E+02 -0.50443737450E+01  0.35845604146E+02  0.51100000000E-03 0. -1.
         22    1    1    0    0    0  0.17388844115E+02 -0.59387928217E+02  0.87722109082E+01  0.62499996814E+02  0.00000000000E+00 0. -1.
</event>
<event>
 4    1  0.1974401E-002  0.9118800E+02  0.7818608E-02  0.1130116E+00
         25   -1    0    0    0    0  0.00000000000E+00  0.00000000000E+00  0.99999998245E-14  0.12500000000E+03  0.12500000000E+03 0.  0.
        -11    1    1    0    0    0 -0.24202134981E+02  0.11346541771E+02 -0.26942290806E+02  0.37952264517E+02  0.51100000000E-03 0.  1.
         11    1    1    0    0    0 -0.15557044950E+02  0.74066598955E+01 -0.17484745920E+02  0.24547843052E+02  0.51100000000E-03 0. -1.
         22    1    1    0    0    0  0.39759179931E+02 -0.18753201667E+02  0.44427036726E+02  0.62499892431E+02  0.00000000000E+00 0.  1.
</event>
<event>
 4    1  0.1974401E-002  0.9118800E+02  0.7818608E-02  0.1130116E+00
         25   -1    0    0    0    0  0.00000000000E+00  0.00000000000E+00  0.99999998245E-14  0.12500000000E+03  0.12500000000E+03 0.  0.
        -11    1    1    0    0    0  0.24067417314E+02  0.41572930759E+01 -0.37717331320E+02  0.44934627450E+02  0.51100000000E-03 0.  1.
         11    1    1    0    0    0  0.94310205868E+01  0.15469056570E+01 -0.14737966162E+02  0.17565440879E+02  0.51100000000E-03 0. -1.
         22    1    1    0    0    0 -0.33498437901E+02 -0.57041987329E+01  0.52455297482E+02  0.62499931671E+02  0.00000000000E+00 0.  1.
</event>
<event>
 4    1  0.1974401E-002  0.9118800E+02  0.7818608E-02  0.1130116E+00
         25   -1    0    0    0    0  0.00000000000E+00  0.00000000000E+00  0.99999998245E-14  0.12500000000E+03  0.12500000000E+03 0.  0.
        -11    1    1    0    0    0  0.39136334754E+02 -0.29078514662E+02  0.13124274666E+02  0.50492170667E+02  0.51100000000E-03 0.  1.
         11    1    1    0    0    0  0.93087500187E+01 -0.69138142203E+01  0.31199861549E+01  0.12007829440E+02  0.51100000000E-03 0. -1.
         22    1    1    0    0    0 -0.48445084773E+02  0.35992328882E+02 -0.16244260821E+02  0.62499999893E+02  0.00000000000E+00 0.  1.
</event>
<event>
 4    1  0.1974401E-002  0.9118800E+02  0.7818608E-02  0.1130116E+00
         25   -1    0    0    0    0  0.00000000000E+00  0.00000000000E+00  0.99999998245E-14  0.12500000000E+03  0.12500000000E+03 0.  0.
        -11    1    1    0    0    0 -0.24418614608E+02 -0.65641455059E+01  0.14461520903E+01  0.25326825733E+02  0.51100000000E-03 0. -1.
         11    1    1    0    0    0 -0.35502242542E+02 -0.11012852672E+02 -0.20028053182E+01  0.37225036990E+02  0.51100000000E-03 0.  1.
         22    1    1    0    0    0  0.59920857150E+02  0.17576998178E+02  0.55665322792E+00  0.62448137277E+02  0.00000000000E+00 0. -1.
</event>
<event>
 4    1  0.1974401E-002  0.9118800E+02  0.7818608E-02  0.1130116E+00
         25   -1    0    0    0    0  0.00000000000E+00  0.00000000000E+00  0.99999998245E-14  0.12500000000E+03  0.12500000000E+03 0.  0.
        -11    1    1    0    0    0 -0.25480937180E+01 -0.25693582384E+01  0.29404353166E+01  0.46626755694E+01  0.51100000000E-03 0. -1.
         11    1    1    0    0    0 -0.32186017385E+02 -0.30898916395E+02  0.36803874169E+02  0.57837772292E+02  0.51100000000E-03 0.  1.
         22    1    1    0    0    0  0.34734111103E+02  0.33468274633E+02 -0.39744309486E+02  0.62499552139E+02  0.00000000000E+00 0.  1.
</event>
<event>
 4    1  0.1974401E-002  0.9118800E+02  0.7818608E-02  0.1130116E+00
         25   -1    0    0    0    0  0.00000000000E+00  0.00000000000E+00  0.99999998245E-14  0.12500000000E+03  0.12500000000E+03 0.  0.
        -11    1    1    0    0    0  0.33003259877E+02  0.38343374304E+01 -0.13291062207E+02  0.35785047728E+02  0.51100000000E-03 0.  1.
         11    1    1    0    0    0  0.24646824587E+02  0.28578740394E+01 -0.99022931902E+01  0.26714954930E+02  0.51100000000E-03 0. -1.
         22    1    1    0    0    0 -0.57650084464E+02 -0.66922114698E+01  0.23193355397E+02  0.62499997341E+02  0.00000000000E+00 0.  1.
</event>
<event>
 4    1  0.1974401E-002  0.9118800E+02  0.7818608E-02  0.1130116E+00
         25   -1    0    0    0    0  0.00000000000E+00  0.00000000000E+00  0.99999998245E-14  0.12500000000E+03  0.12500000000E+03 0.  0.
        -11    1    1    0    0    0  0.34363676571E+02  0.17068626263E+02  0.19397218514E+02  0.42993631579E+02  0.51100000000E-03 0.  1.
         11    1    1    0    0    0  0.15591545849E+02  0.77431677694E+01  0.88003102392E+01  0.19506368438E+02  0.51100000000E-03 0. -1.
         22    1    1    0    0    0 -0.49955222420E+02 -0.24811794033E+02 -0.28197528753E+02  0.62499999983E+02  0.00000000000E+00 0.  1.
</event>
<event>
 4    1  0.1974401E-002  0.9118800E+02  0.7818608E-02  0.1130116E+00
         25   -1    0    0    0    0  0.00000000000E+00  0.00000000000E+00  0.99999998245E-14  0.12500000000E+03  0.12500000000E+03 0.  0.
        -11    1    1    0    0    0  0.57496231767E+02 -0.57402667612E+00 -0.20267037259E+02  0.60966375762E+02  0.51100000000E-03 0.  1.
         11    1    1    0    0    0  0.14476729646E+01 -0.11306296190E-01 -0.50609364684E+00  0.15336283400E+01  0.51100000000E-03 0. -1.
         22    1    1    0    0    0 -0.58943904731E+02  0.58533297231E+00  0.20773130905E+02  0.62499995898E+02  0.00000000000E+00 0.  1.
</event>
<event>
 4    1  0.1974401E-002  0.9118800E+02  0.7818608E-02  0.1130116E+00
         25   -1    0    0    0    0  0.00000000000E+00  0.00000000000E+00  0.99999998245E-14  0.12500000000E+03  0.12500000000E+03 0.  0.
        -11    1    1    0    0    0  0.12213608178E+02 -0.11320753250E+02 -0.68301183458E+01  0.17999505431E+02  0.51100000000E-03 0.  1.
         11    1    1    0    0    0  0.30203697532E+02 -0.27988043683E+02 -0.16873058910E+02  0.44500494953E+02  0.51100000000E-03 0. -1.
         22    1    1    0    0    0 -0.42417305710E+02  0.39308796933E+02  0.23703177256E+02  0.62499999616E+02  0.00000000000E+00 0. -1.
</event>
<event>
 4    1  0.1974401E-002  0.9118800E+02  0.7818608E-02  0.1130116E+00
         25   -1    0    0    0    0  0.00000000000E+00  0.00000000000E+00  0.99999998245E-14  0.12500000000E+03  0.12500000000E+03 0.  0.
        -11    1    1    0    0    0  0.86612726509E+01 -0.30591393755E+02 -0.38566117531E+02  0.49981961121E+02  0.51100000000E-03 0. -1.
         11    1    1    0    0    0  0.21817829256E+01 -0.76674572427E+01 -0.96514930769E+01  0.12518042825E+02  0.51100000000E-03 0.  1.
         22    1    1    0    0    0 -0.10843055577E+02  0.38258850998E+02  0.48217610608E+02  0.62499996053E+02  0.00000000000E+00 0. -1.
</event>
<event>
 4    1  0.1974401E-002  0.9118800E+02  0.7818608E-02  0.1130116E+00
         25   -1    0    0    0    0  0.00000000000E+00  0.00000000000E+00  0.99999998245E-14  0.12500000000E+03  0.12500000000E+03 0.  0.
        -11    1    1    0    0    0  0.26619601786E+02 -0.47170483480E+02  0.51451265204E+01  0.54407077096E+02  0.51100000000E-03 0.  1.
         11    1    1    0    0    0  0.44117960015E+01 -0.68101885586E+01 -0.12122309266E+01  0.82043961535E+01  0.51100000000E-03 0. -1.
         22    1    1    0    0    0 -0.31031397787E+02  0.53980672038E+02 -0.39328955938E+01  0.62388526751E+02  0.00000000000E+00 0.  1.
</event>
<event>
 4    1  0.1974401E-002  0.9118800E+02  0.7818608E-02  0.1130116E+00
         25   -1    0    0    0    0  0.00000000000E+00  0.00000000000E+00  0.99999998245E-14  0.12500000000E+03  0.12500000000E+03 0.  0.
        -11    1    1    0    0    0 -0.86276714189E+01  0.21815034483E+01 -0.75098730289E+01  0.11644477858E+02  0.51100000000E-03 0.  1.
         11    1    1    0    0    0 -0.40627780585E+02  0.48124799128E+01 -0.30265271891E+02  0.50889716064E+02  0.51100000000E-03 0. -1.
         22    1    1    0    0    0  0.49255452004E+02 -0.69939833611E+01  0.37775144920E+02  0.62465806079E+02  0.00000000000E+00 0. -1.
</event>
<event>
 4    1  0.1974401E-002  0.9118800E+02  0.7818608E-02  0.1130116E+00
         25   -1    0    0    0    0  0.00000000000E+00  0.00000000000E+00  0.99999998245E-14  0.12500000000E+03  0.12500000000E+03 0.  0.
        -11    1    1    0    0    0  0.30566529245E+02 -0.67115357801E+01  0.13161054727E+02  0.33949532904E+02  0.51100000000E-03 0.  1.
         11    1    1    0    0    0  0.25551520600E+02 -0.54492895999E+01  0.11516316482E+02  0.28551716371E+02  0.51100000000E-03 0. -1.
         22    1    1    0    0    0 -0.56118049846E+02  0.12160825380E+02 -0.24677371209E+02  0.62498750725E+02  0.00000000000E+00 0. -1.
</event>
<event>
 4    1  0.1974401E-002  0.9118800E+02  0.7818608E-02  0.1130116E+00
         25   -1    0    0    0    0  0.00000000000E+00  0.00000000000E+00  0.99999998245E-14  0.12500000000E+03  0.12500000000E+03 0.  0.
        -11    1    1    0    0    0 -0.61704259158E+01  0.54686145978E+02  0.67536607966E+01  0.55446015658E+02  0.51100000000E-03 0.  1.
         11    1    1    0    0    0 -0.81186977741E+00  0.69511301243E+01  0.88428957137E+00  0.70540279874E+01  0.51100000000E-03 0. -1.
         22    1    1    0    0    0  0.69822956932E+01 -0.61637276103E+02 -0.76379503680E+01  0.62499956354E+02  0.00000000000E+00 0.  1.
</event>
<event>
 4    1  0.1974401E-002  0.9118800E+02  0.7818608E-02  0.1130116E+00
         25   -1    0    0    0    0  0.00000000000E+00  0.00000000000E+00  0.99999998245E-14  0.12500000000E+03  0.12500000000E+03 0.  0.
        -11    1    1    0    0    0  0.96631285387E+01 -0.52138419856E+02 -0.24506260823E+02  0.58415303629E+02  0.51100000000E-03 0.  1.
         11    1    1    0    0    0  0.65012865998E+00 -0.36503119085E+01 -0.17139472339E+01  0.40847349590E+01  0.51100000000E-03 0. -1.
         22    1    1    0    0    0 -0.10313257199E+02  0.55788731765E+02  0.26220208057E+02  0.62499961412E+02  0.00000000000E+00 0.  1.
</event>
<event>
 4    1  0.1974401E-002  0.9118800E+02  0.7818608E-02  0.1130116E+00
         25   -1    0    0    0    0  0.00000000000E+00  0.00000000000E+00  0.99999998245E-14  0.12500000000E+03  0.12500000000E+03 0.  0.
        -11    1    1    0    0    0 -0.14103188484E+01  0.16910412618E+02  0.49337871732E+02  0.52174482666E+02  0.51100000000E-03 0.  1.
         11    1    1    0    0    0 -0.14153445219E+01  0.42203656360E+01  0.93662366244E+01  0.10370201299E+02  0.51100000000E-03 0. -1.
         22    1    1    0    0    0  0.28256633703E+01 -0.21130778254E+02 -0.58704108356E+02  0.62455316035E+02  0.00000000000E+00 0.  1.
</event>
<event>
 4    1  0.1974401E-002  0.9118800E+02  0.7818608E-02  0.1130116E+00
         25   -1    0    0    0    0  0.00000000000E+00  0.00000000000E+00  0.99999998245E-14  0.12500000000E+03  0.12500000000E+03 0.  0.
        -11    1    1    0    0    0  0.28671435585E+02 -0.94714894087E+01 -0.13168809012E+01  0.30224071627E+02  0.51100000000E-03 0.  1.
         11    1    1    0    0    0  0.30682230435E+02 -0.10011928643E+02 -0.53396079859E+00  0.32278833529E+02  0.51100000000E-03 0. -1.
         22    1    1    0    0    0 -0.59353666020E+02  0.19483418051E+02  0.18508416998E+01  0.62497094844E+02  0.00000000000E+00 0. -1.
</event>
<event>
 4    1  0.1974401E-002  0.9118800E+02  0.7818608E-02  0.1130116E+00
         25   -1    0    0    0    0  0.00000000000E+00  0.00000000000E+00  0.99999998245E-14  0.12500000000E+03  0.12500000000E+03 0.  0.
        -11    1    1    0    0    0 -0.72653063232E+01  0.50263472092E+02 -0.27466531555E+02  0.57737437237E+02  0.51100000000E-03 0. -1.
         11    1    1    0    0    0 -0.59959698431E+00  0.41455824706E+01 -0.22664143116E+01  0.47625628245E+01  0.51100000000E-03 0. -1.
         22    1    1    0    0    0  0.78649033075E+01 -0.54409054563E+02  0.29732945867E+02  0.62499999939E+02  0.00000000000E+00 0. -1.
</event>
<event>
 4    1  0.1974401E-002  0.9118800E+02  0.7818608E-02  0.1130116E+00
         25   -1    0    0    0    0  0.00000000000E+00  0.00000000000E+00  0.99999998245E-14  0.12500000000E+03  0.12500000000E+03 0.  0.
        -11    1    1    0    0    0  0.32690413576E+02  0.31540580200E+02  0.35198987741E+02  0.57466860688E+02  0.51100000000E-03 0.  1.
         11    1    1    0    0    0  0.22948857597E+01  0.25635631244E+01  0.37214108953E+01  0.50682596476E+01  0.51100000000E-03 0. -1.
         22    1    1    0    0    0 -0.34985299335E+02 -0.34104143325E+02 -0.38920398636E+02  0.62464879664E+02  0.00000000000E+00 0.  1.
</event>
<event>
 4    1  0.1974401E-002  0.9118800E+02  0.7818608E-02  0.1130116E+00
         25   -1    0    0    0    0  0.00000000000E+00  0.00000000000E+00  0.99999998245E-14  0.12500000000E+03  0.12500000000E+03 0.  0.
        -11    1    1    0    0    0 -0.43126637045E+02 -0.81821095216E+00 -0.17633132475E+02  0.46599395415E+02  0.51100000000E-03 0.  1.
         11    1    1    0    0    0 -0.14769599543E+02 -0.25382482641E+00 -0.58848568543E+01  0.15900850234E+02  0.51100000000E-03 0. -1.
         22    1    1    0    0    0  0.57896236588E+02  0.10720357786E+01  0.23517989329E+02  0.62499754350E+02  0.00000000000E+00 0. -1.
</event>
<event>
 4    1  0.1974401E-002  0.9118800E+02  0.7818608E-02  0.1130116E+00
         25   -1    0    0    0    0  0.00000000000E+00  0.00000000000E+00  0.99999998245E-14  0.12500000000E+03  0.12500000000E+03 0.  0.
        -11    1    1    0    0    0 -0.16674016281E+02 -0.36485197689E+02 -0.19287871686E+02  0.44510835353E+02  0.51100000000E-03 0.  1.
         11    1    1    0    0    0 -0.57077756417E+01 -0.15360983947E+02 -0.74582516827E+01  0.18004556341E+02  0.51100000000E-03 0. -1.
         22    1    1    0    0    0  0.22381791923E+02  0.51846181636E+02  0.26746123369E+02  0.62484608306E+02  0.00000000000E+00 0.  1.
</event>
<event>
 4    1  0.1974401E-002  0.9118800E+02  0.7818608E-02  0.1130116E+00
         25   -1    0    0    0    0  0.00000000000E+00  0.00000000000E+00  0.99999998245E-14  0.12500000000E+03  0.12500000000E+03 0.  0.
        -11    1    1    0    0    0 -0.32396031801E+02 -0.19103806162E+02  0.29272535437E+02  0.47658573389E+02  0.51100000000E-03 0.  1.
         11    1    1    0    0    0 -0.10619859901E+02 -0.60503003585E+01  0.84361204901E+01  0.14851117397E+02  0.51100000000E-03 0. -1.
         22    1    1    0    0    0  0.43015891703E+02  0.25154106521E+02 -0.37708655927E+02  0.62490309214E+02  0.00000000000E+00 0.  1.
</event>
<event>
 4    1  0.1974401E-002  0.9118800E+02  0.7818608E-02  0.1130116E+00
         25   -1    0    0    0    0  0.00000000000E+00  0.00000000000E+00  0.99999998245E-14  0.12500000000E+03  0.12500000000E+03 0.  0.
        -11    1    1    0    0    0 -0.55505663230E+02 -0.10289404331E+02  0.60490317689E+01  0.56774477345E+02  0.51100000000E-03 0.  1.
         11    1    1    0    0    0 -0.56414447672E+01 -0.77746044543E+00  0.61881226807E+00  0.57282870642E+01  0.51100000000E-03 0. -1.
         22    1    1    0    0    0  0.61147107998E+02  0.11066864777E+02 -0.66678440370E+01  0.62497235591E+02  0.00000000000E+00 0.  1.
</event>
<event>
 4    1  0.1974401E-002  0.9118800E+02  0.7818608E-02  0.1130116E+00
         25   -1    0    0    0    0  0.00000000000E+00  0.00000000000E+00  0.99999998245E-14  0.12500000000E+03  0.12500000000E+03 0.  0.
        -11    1    1    0    0    0  0.11484010769E+02  0.74590755244E+01  0.27814137713E+01  0.13973423841E+02  0.51100000000E-03 0. -1.
         11    1    1    0    0    0  0.38893774840E+02  0.25845147584E+02  0.13254657933E+02  0.48542592968E+02  0.51100000000E-03 0.  1.
         22    1    1    0    0    0 -0.50377785608E+02 -0.33304223108E+02 -0.16036071705E+02  0.62483983191E+02  0.00000000000E+00 0.  1.
</event>
<event>
 4    1  0.1974401E-002  0.9118800E+02  0.7818608E-02  0.1130116E+00
         25   -1    0    0    0    0  0.00000000000E+00  0.00000000000E+00  0.99999998245E-14  0.12500000000E+03  0.12500000000E+03 0.  0.
        -11    1    1    0    0    0 -0.55604189598E+01  0.34762954116E+02  0.17259450296E+02  0.39208033140E+02  0.51100000000E-03 0. -1.
         11    1    1    0    0    0 -0.33020421374E+01  0.20650074728E+02  0.10256054561E+02  0.23291966941E+02  0.51100000000E-03 0.  1.
         22    1    1    0    0    0  0.88624610972E+01 -0.55413028844E+02 -0.27515504857E+02  0.62499999920E+02  0.00000000000E+00 0. -1.
</event>
<event>
 4    1  0.1974401E-002  0.9118800E+02  0.7818608E-02  0.1130116E+00
         25   -1    0    0    0    0  0.00000000000E+00  0.00000000000E+00  0.99999998245E-14  0.12500000000E+03  0.12500000000E+03 0.  0.
        -11    1    1    0    0    0 -0.16683137196E+02  0.17624513973E+02  0.64865490259E+01  0.25120228462E+02  0.51100000000E-03 0. -1.
         11    1    1    0    0    0 -0.30819112196E+02  0.71253689537E+01 -0.27916090955E+02  0.42188821905E+02  0.51100000000E-03 0.  1.
         22    1    1    0    0    0  0.47502249392E+02 -0.24749882927E+02  0.21429541929E+02  0.57690949632E+02  0.00000000000E+00 0.  1.
</event>
<event>
 4    1  0.1974401E-002  0.9118800E+02  0.7818608E-02  0.1130116E+00
         25   -1    0    0    0    0  0.00000000000E+00  0.00000000000E+00  0.99999998245E-14  0.12500000000E+03  0.12500000000E+03 0.  0.
        -11    1    1    0    0    0 -0.53021159514E+01  0.64799867961E+01 -0.19348404753E+02  0.21082301325E+02  0.51100000000E-03 0. -1.
         11    1    1    0    0    0 -0.10272417147E+02  0.13050571029E+02 -0.37942158577E+02  0.41417959341E+02  0.51100000000E-03 0.  1.
         22    1    1    0    0    0  0.15574533098E+02 -0.19530557825E+02  0.57290563330E+02  0.62499739334E+02  0.00000000000E+00 0. -1.
</event>
<event>
 4    1  0.1974401E-002  0.9118800E+02  0.7818608E-02  0.1130116E+00
         25   -1    0    0    0    0  0.00000000000E+00  0.00000000000E+00  0.99999998245E-14  0.12500000000E+03  0.12500000000E+03 0.  0.
        -11    1    1    0    0    0  0.19327816976E+02  0.43096198293E+01  0.82301079355E+01  0.21444626577E+02  0.51100000000E-03 0.  1.
         11    1    1    0    0    0  0.36453964496E+02  0.95397633753E+01  0.16310564857E+02  0.41060116159E+02  0.51100000000E-03 0. -1.
         22    1    1    0    0    0 -0.55781781473E+02 -0.13849383205E+02 -0.24540672792E+02  0.62495257264E+02  0.00000000000E+00 0. -1.
</event>
<event>
 4    1  0.1974401E-002  0.9118800E+02  0.7818608E-02  0.1130116E+00
         25   -1    0    0    0    0  0.00000000000E+00  0.00000000000E+00  0.99999998245E-14  0.12500000000E+03  0.12500000000E+03 0.  0.
        -11    1    1    0    0    0 -0.24230711652E+02 -0.97190194000E+01  0.20469622597E+02  0.33175174074E+02  0.51100000000E-03 0.  1.
         11    1    1    0    0    0 -0.22100016050E+02 -0.22249529785E+02  0.15093844242E+01  0.31396345753E+02  0.51100000000E-03 0. -1.
         22    1    1    0    0    0  0.46330727702E+02  0.31968549185E+02 -0.21979007022E+02  0.60428480173E+02  0.00000000000E+00 0.  1.
</event>
<event>
 4    1  0.1974401E-002  0.9118800E+02  0.7818608E-02  0.1130116E+00
         25   -1    0    0    0    0  0.00000000000E+00  0.00000000000E+00  0.99999998245E-14  0.12500000000E+03  0.12500000000E+03 0.  0.
        -11    1    1    0    0    0  0.76724457843E+01 -0.32392966417E+01 -0.16818516810E+01  0.84963575951E+01  0.51100000000E-03 0.  1.
         11    1    1    0    0    0  0.48756042676E+02 -0.20605835493E+02 -0.10707067114E+02  0.54003642842E+02  0.51100000000E-03 0. -1.
         22    1    1    0    0    0 -0.56428488460E+02  0.23845132135E+02  0.12388918795E+02  0.62499999563E+02  0.00000000000E+00 0. -1.
</event>
<event>
 4    1  0.1974401E-002  0.9118800E+02  0.7818608E-02  0.1130116E+00
         25   -1    0    0    0    0  0.00000000000E+00  0.00000000000E+00  0.99999998245E-14  0.12500000000E+03  0.12500000000E+03 0.  0.
        -11    1    1    0    0    0  0.66491808829E+01 -0.10993205884E+02  0.29849635276E+02  0.32497121540E+02  0.51100000000E-03 0. -1.
         11    1    1    0    0    0  0.61392620800E+01 -0.10149828861E+02  0.27558359007E+02  0.30002878466E+02  0.51100000000E-03 0. -1.
         22    1    1    0    0    0 -0.12788442963E+02  0.21143034745E+02 -0.57407994283E+02  0.62499999994E+02  0.00000000000E+00 0. -1.
</event>
<event>
 4    1  0.1974401E-002  0.9118800E+02  0.7818608E-02  0.1130116E+00
         25   -1    0    0    0    0  0.00000000000E+00  0.00000000000E+00  0.99999998245E-14  0.12500000000E+03  0.12500000000E+03 0.  0.
        -11    1    1    0    0    0 -0.39940374839E+01 -0.24927572092E+01 -0.55255603988E+02  0.55455819769E+02  0.51100000000E-03 0. -1.
         11    1    1    0    0    0 -0.50732474357E+00 -0.31631063113E+00 -0.70187637268E+01  0.70441802451E+01  0.51100000000E-03 0.  1.
         22    1    1    0    0    0  0.45013622274E+01  0.28090678403E+01  0.62274367714E+02  0.62499999986E+02  0.00000000000E+00 0. -1.
</event>
<event>
 4    1  0.1974401E-002  0.9118800E+02  0.7818608E-02  0.1130116E+00
         25   -1    0    0    0    0  0.00000000000E+00  0.00000000000E+00  0.99999998245E-14  0.12500000000E+03  0.12500000000E+03 0.  0.
        -11    1    1    0    0    0  0.53183532132E+01 -0.35176458916E+01  0.54820103626E+01  0.84089922937E+01  0.51100000000E-03 0. -1.
         11    1    1    0    0    0  0.34166181486E+02 -0.22727868066E+02  0.35241367946E+02  0.54091015512E+02  0.51100000000E-03 0.  1.
         22    1    1    0    0    0 -0.39484534700E+02  0.26245513958E+02 -0.40723378309E+02  0.62499992194E+02  0.00000000000E+00 0.  1.
</event>
<event>
 4    1  0.1974401E-002  0.9118800E+02  0.7818608E-02  0.1130116E+00
         25   -1    0    0    0    0  0.00000000000E+00  0.00000000000E+00  0.99999998245E-14  0.12500000000E+03  0.12500000000E+03 0.  0.
        -11    1    1    0    0    0  0.38663956898E+01 -0.20250809525E+02  0.27918753800E+02  0.34705923357E+02  0.51100000000E-03 0. -1.
         11    1    1    0    0    0  0.28402217854E+01 -0.16144102872E+02  0.22446238820E+02  0.27794469860E+02  0.51100000000E-03 0.  1.
         22    1    1    0    0    0 -0.67066174753E+01  0.36394912398E+02 -0.50364992620E+02  0.62499606783E+02  0.00000000000E+00 0. -1.
</event>
<event>
 4    1  0.1974401E-002  0.9118800E+02  0.7818608E-02  0.1130116E+00
         25   -1    0    0    0    0  0.00000000000E+00  0.00000000000E+00  0.99999998245E-14  0.12500000000E+03  0.12500000000E+03 0.  0.
        -11    1    1    0    0    0  0.11828717205E+02  0.31257484068E+00  0.39805441938E+02  0.41526972703E+02  0.51100000000E-03 0. -1.
         11    1    1    0    0    0  0.59745656116E+01  0.15748604004E+00  0.20103423538E+02  0.20973027305E+02  0.51100000000E-03 0. -1.
         22    1    1    0    0    0 -0.17803282817E+02 -0.47006088073E+00 -0.59908865477E+02  0.62499999992E+02  0.00000000000E+00 0. -1.
</event>
<event>
 4    1  0.1974401E-002  0.9118800E+02  0.7818608E-02  0.1130116E+00
         25   -1    0    0    0    0  0.00000000000E+00  0.00000000000E+00  0.99999998245E-14  0.12500000000E+03  0.12500000000E+03 0.  0.
        -11    1    1    0    0    0 -0.78706201512E+01  0.11349183317E+02 -0.15080305312E+00  0.13812073173E+02  0.51100000000E-03 0.  1.
         11    1    1    0    0    0 -0.27748455016E+02  0.40003172906E+02 -0.53256349604E+00  0.48687926865E+02  0.51100000000E-03 0. -1.
         22    1    1    0    0    0  0.35619075167E+02 -0.51352356222E+02  0.68336654916E+00  0.62499999962E+02  0.00000000000E+00 0. -1.
</event>
<event>
 4    1  0.1974401E-002  0.9118800E+02  0.7818608E-02  0.1130116E+00
         25   -1    0    0    0    0  0.00000000000E+00  0.00000000000E+00  0.99999998245E-14  0.12500000000E+03  0.12500000000E+03 0.  0.
        -11    1    1    0    0    0  0.20546804620E+02  0.47984926091E+01  0.54241097353E+01  0.21785721886E+02  0.51100000000E-03 0.  1.
         11    1    1    0    0    0  0.38397933130E+02  0.89694844613E+01  0.10139010001E+02  0.40714278137E+02  0.51100000000E-03 0. -1.
         22    1    1    0    0    0 -0.58944737751E+02 -0.13767977070E+02 -0.15563119737E+02  0.62499999976E+02  0.00000000000E+00 0. -1.
</event>
<event>
 4    1  0.1974401E-002  0.9118800E+02  0.7818608E-02  0.1130116E+00
         25   -1    0    0    0    0  0.00000000000E+00  0.00000000000E+00  0.99999998245E-14  0.12500000000E+03  0.12500000000E+03 0.  0.
        -11    1    1    0    0    0 -0.37720559225E+02 -0.20447198252E+02 -0.45119318901E+02  0.62263002200E+02  0.51100000000E-03 0.  1.
         11    1    1    0    0    0 -0.15496836608E+00  0.15982456546E+00 -0.19131389635E+00  0.29353084041E+00  0.51100000000E-03 0. -1.
         22    1    1    0    0    0  0.37875527591E+02  0.20287373687E+02  0.45310632797E+02  0.62443466959E+02  0.00000000000E+00 0.  1.
</event>
<event>
 4    1  0.1974401E-002  0.9118800E+02  0.7818608E-02  0.1130116E+00
         25   -1    0    0    0    0  0.00000000000E+00  0.00000000000E+00  0.99999998245E-14  0.12500000000E+03  0.12500000000E+03 0.  0.
        -11    1    1    0    0    0  0.13795777930E+02 -0.44409075647E+02  0.36601801515E+02  0.59179230841E+02  0.51100000000E-03 0.  1.
         11    1    1    0    0    0  0.78544374863E+00 -0.24759656224E+01  0.20689294746E+01  0.33208127134E+01  0.51100000000E-03 0. -1.
         22    1    1    0    0    0 -0.14581221678E+02  0.46885041270E+02 -0.38670730989E+02  0.62499956446E+02  0.00000000000E+00 0.  1.
</event>
<event>
 4    1  0.1974401E-002  0.9118800E+02  0.7818608E-02  0.1130116E+00
         25   -1    0    0    0    0  0.00000000000E+00  0.00000000000E+00  0.99999998245E-14  0.12500000000E+03  0.12500000000E+03 0.  0.
        -11    1    1    0    0    0  0.48051209519E+02  0.50355290270E+01 -0.36065029455E+02  0.60290643044E+02  0.51100000000E-03 0. -1.
         11    1    1    0    0    0  0.17606646806E+01  0.18699356538E+00 -0.13214969835E+01  0.22093576554E+01  0.51100000000E-03 0.  1.
         22    1    1    0    0    0 -0.49811874199E+02 -0.52225225924E+01  0.37386526438E+02  0.62499999301E+02  0.00000000000E+00 0. -1.
</event>
<event>
 4    1  0.1974401E-002  0.9118800E+02  0.7818608E-02  0.1130116E+00
         25   -1    0    0    0    0  0.00000000000E+00  0.00000000000E+00  0.99999998245E-14  0.12500000000E+03  0.12500000000E+03 0.  0.
        -11    1    1    0    0    0 -0.27042564340E+02  0.48660395118E+02 -0.30440880549E+01  0.55753034101E+02  0.51100000000E-03 0. -1.
         11    1    1    0    0    0 -0.32777183829E+01  0.58856547470E+01 -0.37040086872E+00  0.67469672197E+01  0.51100000000E-03 0.  1.
         22    1    1    0    0    0  0.30320282723E+02 -0.54546049865E+02  0.34144889236E+01  0.62499998679E+02  0.00000000000E+00 0. -1.
</event>
<event>
 4    1  0.1974401E-002  0.9118800E+02  0.7818608E-02  0.1130116E+00
         25   -1    0    0    0    0  0.00000000000E+00  0.00000000000E+00  0.99999998245E-14  0.12500000000E+03  0.12500000000E+03 0.  0.
        -11    1    1    0    0    0  0.44535593695E+02 -0.36489063525E+01  0.38647879270E+02  0.59079541262E+02  0.51100000000E-03 0. -1.
         11    1    1    0    0    0  0.24979998665E+01 -0.13735122274E+00  0.23346881116E+01  0.34219347643E+01  0.51100000000E-03 0.  1.
         22    1    1    0    0    0 -0.47033593562E+02  0.37862575753E+01 -0.40982567382E+02  0.62498523974E+02  0.00000000000E+00 0. -1.
</event>
<event>
 4    1  0.1974401E-002  0.9118800E+02  0.7818608E-02  0.1130116E+00
         25   -1    0    0    0    0  0.00000000000E+00  0.00000000000E+00  0.99999998245E-14  0.12500000000E+03  0.12500000000E+03 0.  0.
        -11    1    1    0    0    0 -0.98382670262E+01 -0.90201086928E+01 -0.13240092977E+02  0.18800370242E+02  0.51100000000E-03 0. -1.
         11    1    1    0    0    0 -0.22902872856E+02 -0.20970717255E+02 -0.30746469453E+02  0.43699633309E+02  0.51100000000E-03 0.  1.
         22    1    1    0    0    0  0.32741139882E+02  0.29990825947E+02  0.43986562431E+02  0.62499996450E+02  0.00000000000E+00 0.  1.
</event>
<event>
 4    1  0.1974401E-002  0.9118800E+02  0.7818608E-02  0.1130116E+00
         25   -1    0    0    0    0  0.00000000000E+00  0.00000000000E+00  0.99999998245E-14  0.12500000000E+03  0.12500000000E+03 0.  0.
        -11    1    1    0    0    0  0.37802455747E+01  0.92206152804E+00 -0.76551021899E+01  0.85872605565E+01  0.51100000000E-03 0. -1.
         11    1    1    0    0    0  0.25326107331E+02  0.11446906941E+02 -0.46224945736E+02  0.53936898313E+02  0.51100000000E-03 0.  1.
         22    1    1    0    0    0 -0.29106352905E+02 -0.12368968469E+02  0.53880047926E+02  0.62475841131E+02  0.00000000000E+00 0.  1.
</event>
<event>
 4    1  0.1974401E-002  0.9118800E+02  0.7818608E-02  0.1130116E+00
         25   -1    0    0    0    0  0.00000000000E+00  0.00000000000E+00  0.99999998245E-14  0.12500000000E+03  0.12500000000E+03 0.  0.
        -11    1    1    0    0    0  0.30219520957E+01 -0.10572650450E+01 -0.48077148718E+01  0.57761688336E+01  0.51100000000E-03 0. -1.
         11    1    1    0    0    0  0.29332843738E+02 -0.10264484317E+02 -0.47453413276E+02  0.56723908468E+02  0.51100000000E-03 0.  1.
         22    1    1    0    0    0 -0.32354795834E+02  0.11321749362E+02  0.52261128148E+02  0.62499922699E+02  0.00000000000E+00 0.  1.
</event>
<event>
 4    1  0.1974401E-002  0.9118800E+02  0.7818608E-02  0.1130116E+00
         25   -1    0    0    0    0  0.00000000000E+00  0.00000000000E+00  0.99999998245E-14  0.12500000000E+03  0.12500000000E+03 0.  0.
        -11    1    1    0    0    0  0.37805200421E+02 -0.23782584565E+02 -0.23727451110E+02  0.50575057527E+02  0.51100000000E-03 0.  1.
         11    1    1    0    0    0  0.89059819394E+01 -0.56095490999E+01 -0.56054234456E+01  0.11924945605E+02  0.51100000000E-03 0. -1.
         22    1    1    0    0    0 -0.46711182360E+02  0.29392133665E+02  0.29332874555E+02  0.62499996868E+02  0.00000000000E+00 0.  1.
</event>
<event>
 4    1  0.1974401E-002  0.9118800E+02  0.7818608E-02  0.1130116E+00
         25   -1    0    0    0    0  0.00000000000E+00  0.00000000000E+00  0.99999998245E-14  0.12500000000E+03  0.12500000000E+03 0.  0.
        -11    1    1    0    0    0  0.53253631092E+01  0.38201741075E+02 -0.18035545722E+02  0.42579495338E+02  0.51100000000E-03 0. -1.
         11    1    1    0    0    0  0.24911272375E+01  0.17872391741E+02 -0.84379147024E+01  0.19920504668E+02  0.51100000000E-03 0.  1.
         22    1    1    0    0    0 -0.78164903467E+01 -0.56074132816E+02  0.26473460425E+02  0.62499999994E+02  0.00000000000E+00 0. -1.
</event>
<event>
 4    1  0.1974401E-002  0.9118800E+02  0.7818608E-02  0.1130116E+00
         25   -1    0    0    0    0  0.00000000000E+00  0.00000000000E+00  0.99999998245E-14  0.12500000000E+03  0.12500000000E+03 0.  0.
        -11    1    1    0    0    0 -0.34740508122E+02  0.36193125343E+02  0.20575781776E+02  0.54223685071E+02  0.51100000000E-03 0. -1.
         11    1    1    0    0    0 -0.43204972741E+01 -0.51236252527E+01  0.10152264037E+02  0.12164978330E+02  0.51100000000E-03 0.  1.
         22    1    1    0    0    0  0.39061005397E+02 -0.31069500090E+02 -0.30728045813E+02  0.58611336599E+02  0.00000000000E+00 0. -1.
</event>
<event>
 4    1  0.1974401E-002  0.9118800E+02  0.7818608E-02  0.1130116E+00
         25   -1    0    0    0    0  0.00000000000E+00  0.00000000000E+00  0.99999998245E-14  0.12500000000E+03  0.12500000000E+03 0.  0.
        -11    1    1    0    0    0  0.90897814524E+01  0.24151588512E+02 -0.97479571836E+01  0.27585250117E+02  0.51100000000E-03 0.  1.
         11    1    1    0    0    0  0.38790208440E+01  0.33304974744E+02 -0.10490378933E+02  0.35132836433E+02  0.51100000000E-03 0. -1.
         22    1    1    0    0    0 -0.12968802296E+02 -0.57456563256E+02  0.20238336116E+02  0.62281913450E+02  0.00000000000E+00 0.  1.
</event>
<event>
 4    1  0.1974401E-002  0.9118800E+02  0.7818608E-02  0.1130116E+00
         25   -1    0    0    0    0  0.00000000000E+00  0.00000000000E+00  0.99999998245E-14  0.12500000000E+03  0.12500000000E+03 0.  0.
        -11    1    1    0    0    0  0.71081228303E+01 -0.21117526917E+02 -0.12821944823E+02  0.25707540189E+02  0.51100000000E-03 0. -1.
         11    1    1    0    0    0  0.10689399020E+02 -0.29750053400E+02 -0.18828275518E+02  0.36794468171E+02  0.51100000000E-03 0.  1.
         22    1    1    0    0    0 -0.17797521851E+02  0.50867580317E+02  0.31650220342E+02  0.62497991640E+02  0.00000000000E+00 0. -1.
</event>
<event>
 4    1  0.1974401E-002  0.9118800E+02  0.7818608E-02  0.1130116E+00
         25   -1    0    0    0    0  0.00000000000E+00  0.00000000000E+00  0.99999998245E-14  0.12500000000E+03  0.12500000000E+03 0.  0.
        -11    1    1    0    0    0  0.98072753391E+01  0.18375829973E+01 -0.18224655791E+02  0.20777329949E+02  0.51100000000E-03 0. -1.
         11    1    1    0    0    0  0.19935866173E+02  0.37213636618E+01 -0.36462402340E+02  0.41722824596E+02  0.51100000000E-03 0.  1.
         22    1    1    0    0    0 -0.29743141512E+02 -0.55589466591E+01  0.54687058131E+02  0.62499845456E+02  0.00000000000E+00 0.  1.
</event>
<event>
 4    1  0.1974401E-002  0.9118800E+02  0.7818608E-02  0.1130116E+00
         25   -1    0    0    0    0  0.00000000000E+00  0.00000000000E+00  0.99999998245E-14  0.12500000000E+03  0.12500000000E+03 0.  0.
        -11    1    1    0    0    0  0.47229928699E+01 -0.33577068798E+01  0.14489662450E+02  0.15605485424E+02  0.51100000000E-03 0. -1.
         11    1    1    0    0    0  0.12709081343E+02 -0.10394822253E+02  0.43929803362E+02  0.46897768624E+02  0.51100000000E-03 0.  1.
         22    1    1    0    0    0 -0.17432074213E+02  0.13752529132E+02 -0.58419465812E+02  0.62496745952E+02  0.00000000000E+00 0.  1.
</event>
<event>
 4    1  0.1974401E-002  0.9118800E+02  0.7818608E-02  0.1130116E+00
         25   -1    0    0    0    0  0.00000000000E+00  0.00000000000E+00  0.99999998245E-14  0.12500000000E+03  0.12500000000E+03 0.  0.
        -11    1    1    0    0    0  0.11748211906E+02  0.10409254195E+02 -0.42188643558E+01  0.16253364963E+02  0.51100000000E-03 0. -1.
         11    1    1    0    0    0  0.34893518221E+02  0.27823633489E+02 -0.12154836637E+02  0.46254213303E+02  0.51100000000E-03 0.  1.
         22    1    1    0    0    0 -0.46641730127E+02 -0.38232887685E+02  0.16373700992E+02  0.62492421734E+02  0.00000000000E+00 0. -1.
</event>
<event>
 4    1  0.1974401E-002  0.9118800E+02  0.7818608E-02  0.1130116E+00
         25   -1    0    0    0    0  0.00000000000E+00  0.00000000000E+00  0.99999998245E-14  0.12500000000E+03  0.12500000000E+03 0.  0.
        -11    1    1    0    0    0 -0.29432969886E+02  0.39831441451E+02  0.23544080391E+02  0.54837643696E+02  0.51100000000E-03 0.  1.
         11    1    1    0    0    0 -0.43834987348E+01  0.54706676027E+01  0.31016312287E+01  0.76657277356E+01  0.51100000000E-03 0. -1.
         22    1    1    0    0    0  0.33816468621E+02 -0.45302109054E+02 -0.26645711620E+02  0.62496628569E+02  0.00000000000E+00 0.  1.
</event>
<event>
 4    1  0.1974401E-002  0.9118800E+02  0.7818608E-02  0.1130116E+00
         25   -1    0    0    0    0  0.00000000000E+00  0.00000000000E+00  0.99999998245E-14  0.12500000000E+03  0.12500000000E+03 0.  0.
        -11    1    1    0    0    0  0.20482915243E+02  0.25875579617E+02 -0.21559168517E+02  0.39419451857E+02  0.51100000000E-03 0. -1.
         11    1    1    0    0    0  0.12025879621E+02  0.15125284018E+02 -0.12622053977E+02  0.23080559875E+02  0.51100000000E-03 0.  1.
         22    1    1    0    0    0 -0.32508794864E+02 -0.41000863634E+02  0.34181222494E+02  0.62499988268E+02  0.00000000000E+00 0. -1.
</event>
<event>
 4    1  0.1974401E-002  0.9118800E+02  0.7818608E-02  0.1130116E+00
         25   -1    0    0    0    0  0.00000000000E+00  0.00000000000E+00  0.99999998245E-14  0.12500000000E+03  0.12500000000E+03 0.  0.
        -11    1    1    0    0    0  0.23436254468E+01 -0.46528206158E+01 -0.64598686724E+00  0.52496303881E+01  0.51100000000E-03 0.  1.
         11    1    1    0    0    0 -0.11792400327E+02 -0.55796786188E+02  0.98645497606E+01  0.57876172961E+02  0.51100000000E-03 0. -1.
         22    1    1    0    0    0  0.94487748804E+01  0.60449606803E+02 -0.92185628933E+01  0.61874196651E+02  0.00000000000E+00 0. -1.
</event>
<event>
 4    1  0.1974401E-002  0.9118800E+02  0.7818608E-02  0.1130116E+00
         25   -1    0    0    0    0  0.00000000000E+00  0.00000000000E+00  0.99999998245E-14  0.12500000000E+03  0.12500000000E+03 0.  0.
        -11    1    1    0    0    0 -0.27621467077E+02 -0.18618628126E+01  0.20301265041E+02  0.34330064654E+02  0.51100000000E-03 0.  1.
         11    1    1    0    0    0 -0.22666532240E+02 -0.15274441500E+01  0.16656544944E+02  0.28169935378E+02  0.51100000000E-03 0. -1.
         22    1    1    0    0    0  0.50287999318E+02  0.33893069626E+01 -0.36957809986E+02  0.62499999968E+02  0.00000000000E+00 0.  1.
</event>
<event>
 4    1  0.1974401E-002  0.9118800E+02  0.7818608E-02  0.1130116E+00
         25   -1    0    0    0    0  0.00000000000E+00  0.00000000000E+00  0.99999998245E-14  0.12500000000E+03  0.12500000000E+03 0.  0.
        -11    1    1    0    0    0 -0.37898140986E+02  0.58219844068E+01 -0.15699634837E+02  0.41432392242E+02  0.51100000000E-03 0.  1.
         11    1    1    0    0    0 -0.19922348566E+02  0.34796793208E+00 -0.70374052131E+01  0.21131638045E+02  0.51100000000E-03 0. -1.
         22    1    1    0    0    0  0.57820489551E+02 -0.61699523389E+01  0.22737040050E+02  0.62435969714E+02  0.00000000000E+00 0.  1.
</event>
<event>
 4    1  0.1974401E-002  0.9118800E+02  0.7818608E-02  0.1130116E+00
         25   -1    0    0    0    0  0.00000000000E+00  0.00000000000E+00  0.99999998245E-14  0.12500000000E+03  0.12500000000E+03 0.  0.
        -11    1    1    0    0    0 -0.60765638974E+01 -0.78987424019E+01  0.18180863809E+02  0.20733030879E+02  0.51100000000E-03 0. -1.
         11    1    1    0    0    0 -0.12469860232E+02 -0.14078645158E+02  0.37301691007E+02  0.41774655187E+02  0.51100000000E-03 0.  1.
         22    1    1    0    0    0  0.18546424130E+02  0.21977387560E+02 -0.55482554816E+02  0.62492313934E+02  0.00000000000E+00 0.  1.
</event>
<event>
 4    1  0.1974401E-002  0.9118800E+02  0.7818608E-02  0.1130116E+00
         25   -1    0    0    0    0  0.00000000000E+00  0.00000000000E+00  0.99999998245E-14  0.12500000000E+03  0.12500000000E+03 0.  0.
        -11    1    1    0    0    0 -0.95257824878E+01 -0.57763820306E+01 -0.18868503301E+02  0.21911812760E+02  0.51100000000E-03 0.  1.
         11    1    1    0    0    0 -0.16249912851E+02 -0.10858284545E+02 -0.35578837019E+02  0.40593295688E+02  0.51100000000E-03 0. -1.
         22    1    1    0    0    0  0.25775695339E+02  0.16634666575E+02  0.54447340319E+02  0.62494891552E+02  0.00000000000E+00 0. -1.
</event>
<event>
 4    1  0.1974401E-002  0.9118800E+02  0.7818608E-02  0.1130116E+00
         25   -1    0    0    0    0  0.00000000000E+00  0.00000000000E+00  0.99999998245E-14  0.12500000000E+03  0.12500000000E+03 0.  0.
        -11    1    1    0    0    0  0.43940392704E+02 -0.12794859832E+02 -0.25856231242E+02  0.52564353353E+02  0.51100000000E-03 0. -1.
         11    1    1    0    0    0  0.83032330719E+01 -0.24527539697E+01 -0.48742139314E+01  0.99356752761E+01  0.51100000000E-03 0.  1.
         22    1    1    0    0    0 -0.52243625776E+02  0.15247613802E+02  0.30730445174E+02  0.62499971371E+02  0.00000000000E+00 0. -1.
</event>
<event>
 4    1  0.1974401E-002  0.9118800E+02  0.7818608E-02  0.1130116E+00
         25   -1    0    0    0    0  0.00000000000E+00  0.00000000000E+00  0.99999998245E-14  0.12500000000E+03  0.12500000000E+03 0.  0.
        -11    1    1    0    0    0 -0.95349028479E+01  0.49374480454E+01 -0.89875230277E+01  0.14002440357E+02  0.51100000000E-03 0.  1.
         11    1    1    0    0    0 -0.27617017684E+02  0.27161797565E+02 -0.29436475609E+02  0.48651505724E+02  0.51100000000E-03 0. -1.
         22    1    1    0    0    0  0.37151920532E+02 -0.32099245611E+02  0.38423998636E+02  0.62346053918E+02  0.00000000000E+00 0. -1.
</event>
<event>
 4    1  0.1974401E-002  0.9118800E+02  0.7818608E-02  0.1130116E+00
         25   -1    0    0    0    0  0.00000000000E+00  0.00000000000E+00  0.99999998245E-14  0.12500000000E+03  0.12500000000E+03 0.  0.
        -11    1    1    0    0    0 -0.27102212442E+02  0.22471218461E+02  0.40755480156E+02  0.53856241434E+02  0.51100000000E-03 0.  1.
         11    1    1    0    0    0 -0.43488758337E+01  0.35840914924E+01  0.65541147204E+01  0.86437753830E+01  0.51100000000E-03 0. -1.
         22    1    1    0    0    0  0.31451088275E+02 -0.26055309954E+02 -0.47309594877E+02  0.62499983183E+02  0.00000000000E+00 0.  1.
</event>
<event>
 4    1  0.1974401E-002  0.9118800E+02  0.7818608E-02  0.1130116E+00
         25   -1    0    0    0    0  0.00000000000E+00  0.00000000000E+00  0.99999998245E-14  0.12500000000E+03  0.12500000000E+03 0.  0.
        -11    1    1    0    0    0  0.16541772974E+02  0.13034019706E+02 -0.23141326287E+01  0.21186579075E+02  0.51100000000E-03 0. -1.
         11    1    1    0    0    0  0.32255670905E+02  0.25416804449E+02 -0.45118172553E+01  0.41313420932E+02  0.51100000000E-03 0. -1.
         22    1    1    0    0    0 -0.48797443879E+02 -0.38450824155E+02  0.68259498840E+01  0.62499999993E+02  0.00000000000E+00 0. -1.
</event>
<event>
 4    1  0.1974401E-002  0.9118800E+02  0.7818608E-02  0.1130116E+00
         25   -1    0    0    0    0  0.00000000000E+00  0.00000000000E+00  0.99999998245E-14  0.12500000000E+03  0.12500000000E+03 0.  0.
        -11    1    1    0    0    0 -0.46738333456E+01 -0.17630082578E+02  0.25528135218E+02  0.31374356054E+02  0.51100000000E-03 0. -1.
         11    1    1    0    0    0 -0.47407118393E+01 -0.17657735263E+02  0.25190277903E+02  0.31125874517E+02  0.51100000000E-03 0.  1.
         22    1    1    0    0    0  0.94145451849E+01  0.35287817841E+02 -0.50718413122E+02  0.62499769428E+02  0.00000000000E+00 0. -1.
</event>
<event>
 4    1  0.1974401E-002  0.9118800E+02  0.7818608E-02  0.1130116E+00
         25   -1    0    0    0    0  0.00000000000E+00  0.00000000000E+00  0.99999998245E-14  0.12500000000E+03  0.12500000000E+03 0.  0.
        -11    1    1    0    0    0 -0.20953017369E+01  0.35499750169E+01  0.43870350183E+01  0.60198578473E+01  0.51100000000E-03 0.  1.
         11    1    1    0    0    0 -0.19635130672E+02  0.33325608588E+02  0.41156675750E+02  0.56480142557E+02  0.51100000000E-03 0. -1.
         22    1    1    0    0    0  0.21730432408E+02 -0.36875583605E+02 -0.45543710768E+02  0.62499999595E+02  0.00000000000E+00 0. -1.
</event>
<event>
 4    1  0.1974401E-002  0.9118800E+02  0.7818608E-02  0.1130116E+00
         25   -1    0    0    0    0  0.00000000000E+00  0.00000000000E+00  0.99999998245E-14  0.12500000000E+03  0.12500000000E+03 0.  0.
        -11    1    1    0    0    0  0.36039916771E+02  0.42305373078E+02 -0.65194145758E+01  0.55956438046E+02  0.51100000000E-03 0. -1.
         11    1    1    0    0    0  0.42009278642E+01  0.49568398939E+01 -0.77481593664E+00  0.65435767475E+01  0.51100000000E-03 0.  1.
         22    1    1    0    0    0 -0.40240844635E+02 -0.47262212972E+02  0.72942305124E+01  0.62499985206E+02  0.00000000000E+00 0. -1.
</event>
<event>
 4    1  0.1974401E-002  0.9118800E+02  0.7818608E-02  0.1130116E+00
         25   -1    0    0    0    0  0.00000000000E+00  0.00000000000E+00  0.99999998245E-14  0.12500000000E+03  0.12500000000E+03 0.  0.
        -11    1    1    0    0    0 -0.69779516614E+01 -0.16475691936E+02 -0.20209756633E+02  0.26992119176E+02  0.51100000000E-03 0. -1.
         11    1    1    0    0    0 -0.97593804451E+01 -0.22246186901E+02 -0.25902039161E+02  0.35511321734E+02  0.51100000000E-03 0.  1.
         22    1    1    0    0    0  0.16737332106E+02  0.38721878837E+02  0.46111795794E+02  0.62496559090E+02  0.00000000000E+00 0. -1.
</event>
<event>
 4    1  0.1974401E-002  0.9118800E+02  0.7818608E-02  0.1130116E+00
         25   -1    0    0    0    0  0.00000000000E+00  0.00000000000E+00  0.99999998245E-14  0.12500000000E+03  0.12500000000E+03 0.  0.
        -11    1    1    0    0    0  0.64192012988E+01 -0.29059602445E+01  0.50409056445E+02  0.50899152470E+02  0.51100000000E-03 0. -1.
         11    1    1    0    0    0  0.14739013538E+01 -0.64791250250E+00  0.11488586514E+02  0.11600853252E+02  0.51100000000E-03 0.  1.
         22    1    1    0    0    0 -0.78931026526E+01  0.35538727470E+01 -0.61897642959E+02  0.62499994279E+02  0.00000000000E+00 0. -1.
</event>
<event>
 4    1  0.1974401E-002  0.9118800E+02  0.7818608E-02  0.1130116E+00
         25   -1    0    0    0    0  0.00000000000E+00  0.00000000000E+00  0.99999998245E-14  0.12500000000E+03  0.12500000000E+03 0.  0.
        -11    1    1    0    0    0 -0.16123071871E+02 -0.13796952780E+00  0.53537498142E+01  0.16989264831E+02  0.51100000000E-03 0. -1.
         11    1    1    0    0    0 -0.43413470289E+02  0.57227596837E-01  0.13659760217E+02  0.45511775695E+02  0.51100000000E-03 0.  1.
         22    1    1    0    0    0  0.59536542160E+02  0.80741930964E-01 -0.19013510031E+02  0.62498959474E+02  0.00000000000E+00 0.  1.
</event>
<event>
 4    1  0.1974401E-002  0.9118800E+02  0.7818608E-02  0.1130116E+00
         25   -1    0    0    0    0  0.00000000000E+00  0.00000000000E+00  0.99999998245E-14  0.12500000000E+03  0.12500000000E+03 0.  0.
        -11    1    1    0    0    0 -0.66643850472E+01 -0.36963700200E+02 -0.41018979892E+02  0.55617316298E+02  0.51100000000E-03 0. -1.
         11    1    1    0    0    0 -0.82396620977E+00 -0.45724301053E+01 -0.50779228687E+01  0.68826839463E+01  0.51100000000E-03 0.  1.
         22    1    1    0    0    0  0.74883512569E+01  0.41536130305E+02  0.46096902761E+02  0.62499999756E+02  0.00000000000E+00 0. -1.
</event>
<event>
 4    1  0.1974401E-002  0.9118800E+02  0.7818608E-02  0.1130116E+00
         25   -1    0    0    0    0  0.00000000000E+00  0.00000000000E+00  0.99999998245E-14  0.12500000000E+03  0.12500000000E+03 0.  0.
        -11    1    1    0    0    0 -0.13882512836E+00 -0.74034958282E+01 -0.74698077093E+01  0.10518034530E+02  0.51100000000E-03 0. -1.
         11    1    1    0    0    0 -0.67697688347E+00 -0.36571061543E+02 -0.36935402502E+02  0.51981966088E+02  0.51100000000E-03 0.  1.
         22    1    1    0    0    0  0.81580201183E+00  0.43974557372E+02  0.44405210211E+02  0.62499999383E+02  0.00000000000E+00 0.  1.
</event>
<event>
 4    1  0.1974401E-002  0.9118800E+02  0.7818608E-02  0.1130116E+00
         25   -1    0    0    0    0  0.00000000000E+00  0.00000000000E+00  0.99999998245E-14  0.12500000000E+03  0.12500000000E+03 0.  0.
        -11    1    1    0    0    0  0.13378251436E+01  0.16128679577E+01  0.99390602015E+00  0.23192603566E+01  0.51100000000E-03 0. -1.
         11    1    1    0    0    0  0.32537757655E+02  0.43607076354E+02  0.25721272062E+02  0.60181945948E+02  0.51100000000E-03 0.  1.
         22    1    1    0    0    0 -0.33875582799E+02 -0.45219944311E+02 -0.26715178082E+02  0.62498793696E+02  0.00000000000E+00 0.  1.
</event>
<event>
 4    1  0.1974401E-002  0.9118800E+02  0.7818608E-02  0.1130116E+00
         25   -1    0    0    0    0  0.00000000000E+00  0.00000000000E+00  0.99999998245E-14  0.12500000000E+03  0.12500000000E+03 0.  0.
        -11    1    1    0    0    0 -0.26223036138E+02  0.33199380438E+02 -0.24817779501E+02  0.49048635714E+02  0.51100000000E-03 0.  1.
         11    1    1    0    0    0 -0.20138525274E+01  0.11851418635E+02 -0.70772072528E+01  0.13949859800E+02  0.51100000000E-03 0. -1.
         22    1    1    0    0    0  0.28236888666E+02 -0.45050799073E+02  0.31894986753E+02  0.62001504487E+02  0.00000000000E+00 0.  1.
</event>
<event>
 4    1  0.1974401E-002  0.9118800E+02  0.7818608E-02  0.1130116E+00
         25   -1    0    0    0    0  0.00000000000E+00  0.00000000000E+00  0.99999998245E-14  0.12500000000E+03  0.12500000000E+03 0.  0.
        -11    1    1    0    0    0 -0.22403426507E+00  0.10235025886E+00 -0.17490975537E+00  0.30209371238E+00  0.51100000000E-03 0. -1.
         11    1    1    0    0    0 -0.46706237343E+02  0.17505473475E+02 -0.37157773157E+02  0.62198185782E+02  0.51100000000E-03 0.  1.
         22    1    1    0    0    0  0.46930271608E+02 -0.17607823734E+02  0.37332682912E+02  0.62499720506E+02  0.00000000000E+00 0.  1.
</event>
<event>
 4    1  0.1974401E-002  0.9118800E+02  0.7818608E-02  0.1130116E+00
         25   -1    0    0    0    0  0.00000000000E+00  0.00000000000E+00  0.99999998245E-14  0.12500000000E+03  0.12500000000E+03 0.  0.
        -11    1    1    0    0    0 -0.63010708493E+00  0.21537840840E-01  0.99485591957E+00  0.11778104172E+01  0.51100000000E-03 0. -1.
         11    1    1    0    0    0 -0.30955331049E+02  0.18659257955E+01  0.52903173645E+02  0.61322589487E+02  0.51100000000E-03 0.  1.
         22    1    1    0    0    0  0.31585438134E+02 -0.18874636363E+01 -0.53898029565E+02  0.62499600095E+02  0.00000000000E+00 0.  1.
</event>
<event>
 4    1  0.1974401E-002  0.9118800E+02  0.7818608E-02  0.1130116E+00
         25   -1    0    0    0    0  0.00000000000E+00  0.00000000000E+00  0.99999998245E-14  0.12500000000E+03  0.12500000000E+03 0.  0.
        -11    1    1    0    0    0 -0.50827767552E+01  0.54211766198E+01 -0.39454379704E+01  0.84136945824E+01  0.51100000000E-03 0. -1.
         11    1    1    0    0    0 -0.32680285298E+02  0.34868274135E+02 -0.25328461305E+02  0.54086306406E+02  0.51100000000E-03 0.  1.
         22    1    1    0    0    0  0.37763062053E+02 -0.40289450755E+02  0.29273899275E+02  0.62499999012E+02  0.00000000000E+00 0.  1.
</event>
<event>
 4    1  0.1974401E-002  0.9118800E+02  0.7818608E-02  0.1130116E+00
         25   -1    0    0    0    0  0.00000000000E+00  0.00000000000E+00  0.99999998245E-14  0.12500000000E+03  0.12500000000E+03 0.  0.
        -11    1    1    0    0    0 -0.58692709957E+01 -0.39966137112E+01  0.68674729343E+01  0.98784334761E+01  0.51100000000E-03 0. -1.
         11    1    1    0    0    0 -0.33009936989E+02 -0.38969305839E+02  0.14935207003E+02  0.53210178971E+02  0.51100000000E-03 0.  1.
         22    1    1    0    0    0  0.38879207984E+02  0.42965919550E+02 -0.21802679938E+02  0.61911387553E+02  0.00000000000E+00 0.  1.
</event>
<event>
 4    1  0.1974401E-002  0.9118800E+02  0.7818608E-02  0.1130116E+00
         25   -1    0    0    0    0  0.00000000000E+00  0.00000000000E+00  0.99999998245E-14  0.12500000000E+03  0.12500000000E+03 0.  0.
        -11    1    1    0    0    0  0.33266549186E+00  0.11244563700E+01  0.63264749247E+00  0.13324081838E+01  0.51100000000E-03 0.  1.
         11    1    1    0    0    0  0.15810272822E+02  0.51827451065E+02  0.28380153551E+02  0.61167659154E+02  0.51100000000E-03 0. -1.
         22    1    1    0    0    0 -0.16142938313E+02 -0.52951907435E+02 -0.29012801043E+02  0.62499932662E+02  0.00000000000E+00 0. -1.
</event>
<event>
 4    1  0.1974401E-002  0.9118800E+02  0.7818608E-02  0.1130116E+00
         25   -1    0    0    0    0  0.00000000000E+00  0.00000000000E+00  0.99999998245E-14  0.12500000000E+03  0.12500000000E+03 0.  0.
        -11    1    1    0    0    0 -0.24411542433E+02 -0.39355446006E+01  0.24642072401E+02  0.34909076867E+02  0.51100000000E-03 0. -1.
         11    1    1    0    0    0 -0.24870196347E+02  0.20308223054E+02  0.11068145010E+01  0.32127490232E+02  0.51100000000E-03 0.  1.
         22    1    1    0    0    0  0.49281738781E+02 -0.16372678454E+02 -0.25748886902E+02  0.57963432901E+02  0.00000000000E+00 0.  1.
</event>
<event>
 4    1  0.1974401E-002  0.9118800E+02  0.7818608E-02  0.1130116E+00
         25   -1    0    0    0    0  0.00000000000E+00  0.00000000000E+00  0.99999998245E-14  0.12500000000E+03  0.12500000000E+03 0.  0.
        -11    1    1    0    0    0 -0.21865961390E+02 -0.13457800559E+02 -0.12103512442E+02  0.28385342645E+02  0.51100000000E-03 0. -1.
         11    1    1    0    0    0 -0.25402317971E+02 -0.16392154578E+02 -0.15823566084E+02  0.34122803722E+02  0.51100000000E-03 0.  1.
         22    1    1    0    0    0  0.47268279360E+02  0.29849955137E+02  0.27927078527E+02  0.62491853632E+02  0.00000000000E+00 0. -1.
</event>
<event>
 4    1  0.1974401E-002  0.9118800E+02  0.7818608E-02  0.1130116E+00
         25   -1    0    0    0    0  0.00000000000E+00  0.00000000000E+00  0.99999998245E-14  0.12500000000E+03  0.12500000000E+03 0.  0.
        -11    1    1    0    0    0 -0.39126348092E+00 -0.37442194180E+00 -0.49593095678E+00  0.73432055468E+00  0.51100000000E-03 0. -1.
         11    1    1    0    0    0 -0.27109860177E+02 -0.26720614276E+02 -0.48648508818E+02  0.61770649637E+02  0.51100000000E-03 0.  1.
         22    1    1    0    0    0  0.27501123658E+02  0.27095036217E+02  0.49144439774E+02  0.62495029809E+02  0.00000000000E+00 0.  1.
</event>
<event>
 4    1  0.1974401E-002  0.9118800E+02  0.7818608E-02  0.1130116E+00
         25   -1    0    0    0    0  0.00000000000E+00  0.00000000000E+00  0.99999998245E-14  0.12500000000E+03  0.12500000000E+03 0.  0.
        -11    1    1    0    0    0  0.22833250170E+02  0.27141271259E+02 -0.17411689960E+02  0.39511680126E+02  0.51100000000E-03 0. -1.
         11    1    1    0    0    0  0.13284310857E+02  0.15791212772E+02 -0.10130524906E+02  0.22988319880E+02  0.51100000000E-03 0.  1.
         22    1    1    0    0    0 -0.36117561027E+02 -0.42932484031E+02  0.27542214866E+02  0.62499999994E+02  0.00000000000E+00 0. -1.
</event>
<event>
 4    1  0.1974401E-002  0.9118800E+02  0.7818608E-02  0.1130116E+00
         25   -1    0    0    0    0  0.00000000000E+00  0.00000000000E+00  0.99999998245E-14  0.12500000000E+03  0.12500000000E+03 0.  0.
        -11    1    1    0    0    0  0.19583284972E+02 -0.83787732109E+01  0.36771640281E+02  0.42495439992E+02  0.51100000000E-03 0.  1.
         11    1    1    0    0    0  0.20010354257E+02 -0.74225221130E+01  0.59450124036E+01  0.22155163839E+02  0.51100000000E-03 0. -1.
         22    1    1    0    0    0 -0.39593639230E+02  0.15801295324E+02 -0.42716652685E+02  0.60349396169E+02  0.00000000000E+00 0.  1.
</event>
<event>
 4    1  0.1974401E-002  0.9118800E+02  0.7818608E-02  0.1130116E+00
         25   -1    0    0    0    0  0.00000000000E+00  0.00000000000E+00  0.99999998245E-14  0.12500000000E+03  0.12500000000E+03 0.  0.
        -11    1    1    0    0    0  0.25904547471E+00 -0.10160661133E+02 -0.45040844693E+01  0.11117235105E+02  0.51100000000E-03 0.  1.
         11    1    1    0    0    0  0.11881231967E+01 -0.46967477739E+02 -0.20804637750E+02  0.51382765146E+02  0.51100000000E-03 0. -1.
         22    1    1    0    0    0 -0.14471686714E+01  0.57128138872E+02  0.25308722219E+02  0.62499999748E+02  0.00000000000E+00 0. -1.
</event>
<event>
 4    1  0.1974401E-002  0.9118800E+02  0.7818608E-02  0.1130116E+00
         25   -1    0    0    0    0  0.00000000000E+00  0.00000000000E+00  0.99999998245E-14  0.12500000000E+03  0.12500000000E+03 0.  0.
        -11    1    1    0    0    0 -0.22428887361E+02 -0.14927602766E+02  0.64581996841E+01  0.27705534754E+02  0.51100000000E-03 0.  1.
         11    1    1    0    0    0 -0.28333264420E+02 -0.18401048240E+02  0.83261801312E+01  0.34795081906E+02  0.51100000000E-03 0. -1.
         22    1    1    0    0    0  0.50762151781E+02  0.33328651006E+02 -0.14784379815E+02  0.62499383340E+02  0.00000000000E+00 0. -1.
</event>
<event>
 4    1  0.1974401E-002  0.9118800E+02  0.7818608E-02  0.1130116E+00
         25   -1    0    0    0    0  0.00000000000E+00  0.00000000000E+00  0.99999998245E-14  0.12500000000E+03  0.12500000000E+03 0.  0.
        -11    1    1    0    0    0  0.21883748385E+02  0.14714246106E+02 -0.40656301976E+02  0.48459698435E+02  0.51100000000E-03 0. -1.
         11    1    1    0    0    0  0.61164384364E+01  0.47997210169E+01 -0.11696821599E+02  0.14045062363E+02  0.51100000000E-03 0.  1.
         22    1    1    0    0    0 -0.28000186821E+02 -0.19513967123E+02  0.52353123575E+02  0.62495239202E+02  0.00000000000E+00 0. -1.
</event>
<event>
 4    1  0.1974401E-002  0.9118800E+02  0.7818608E-02  0.1130116E+00
         25   -1    0    0    0    0  0.00000000000E+00  0.00000000000E+00  0.99999998245E-14  0.12500000000E+03  0.12500000000E+03 0.  0.
        -11    1    1    0    0    0 -0.11576517599E+01 -0.58877530473E+01 -0.13870614487E+01  0.61587119811E+01  0.51100000000E-03 0.  1.
         11    1    1    0    0    0 -0.10575700811E+02 -0.53862519167E+02 -0.12701351742E+02  0.56341288191E+02  0.51100000000E-03 0. -1.
         22    1    1    0    0    0  0.11733352571E+02  0.59750272214E+02  0.14088413191E+02  0.62499999828E+02  0.00000000000E+00 0. -1.
</event>
<event>
 4    1  0.1974401E-002  0.9118800E+02  0.7818608E-02  0.1130116E+00
         25   -1    0    0    0    0  0.00000000000E+00  0.00000000000E+00  0.99999998245E-14  0.12500000000E+03  0.12500000000E+03 0.  0.
        -11    1    1    0    0    0  0.50944344669E+02  0.18236044063E+02  0.27443051211E+02  0.60671250332E+02  0.51100000000E-03 0. -1.
         11    1    1    0    0    0 -0.79642024030E+01 -0.60644321821E+01  0.27868018037E+01  0.10390963486E+02  0.51100000000E-03 0.  1.
         22    1    1    0    0    0 -0.42980142266E+02 -0.12171611881E+02 -0.30229853015E+02  0.53937786182E+02  0.00000000000E+00 0. -1.
</event>
<event>
 4    1  0.1974401E-002  0.9118800E+02  0.7818608E-02  0.1130116E+00
         25   -1    0    0    0    0  0.00000000000E+00  0.00000000000E+00  0.99999998245E-14  0.12500000000E+03  0.12500000000E+03 0.  0.
        -11    1    1    0    0    0 -0.46975027995E+02 -0.22615893416E+02  0.23335448857E+02  0.57119830740E+02  0.51100000000E-03 0. -1.
         11    1    1    0    0    0 -0.33254242949E+01 -0.26981714666E+01  0.34726426475E+01  0.55134220972E+01  0.51100000000E-03 0.  1.
         22    1    1    0    0    0  0.50300452290E+02  0.25314064883E+02 -0.26808091505E+02  0.62366747162E+02  0.00000000000E+00 0. -1.
</event>
<event>
 4    1  0.1974401E-002  0.9118800E+02  0.7818608E-02  0.1130116E+00
         25   -1    0    0    0    0  0.00000000000E+00  0.00000000000E+00  0.99999998245E-14  0.12500000000E+03  0.12500000000E+03 0.  0.
        -11    1    1    0    0    0 -0.36069557034E+02 -0.17515309013E+01  0.34132562091E+02  0.49690166032E+02  0.51100000000E-03 0.  1.
         11    1    1    0    0    0 -0.92987375248E+01 -0.45138808080E+00  0.87989530901E+01  0.12809833976E+02  0.51100000000E-03 0.  1.
         22    1    1    0    0    0  0.45368294559E+02  0.22029189821E+01 -0.42931515181E+02  0.62499999992E+02  0.00000000000E+00 0.  1.
</event>
<event>
 4    1  0.1974401E-002  0.9118800E+02  0.7818608E-02  0.1130116E+00
         25   -1    0    0    0    0  0.00000000000E+00  0.00000000000E+00  0.99999998245E-14  0.12500000000E+03  0.12500000000E+03 0.  0.
        -11    1    1    0    0    0  0.63894287649E+01  0.14606789606E+02 -0.41194688280E+02  0.44172224817E+02  0.51100000000E-03 0.  1.
         11    1    1    0    0    0 -0.20079651579E+01 -0.17511432031E+01 -0.18966415130E+02  0.19152632449E+02  0.51100000000E-03 0. -1.
         22    1    1    0    0    0 -0.43814636070E+01 -0.12855646403E+02  0.60161103410E+02  0.61675142734E+02  0.00000000000E+00 0.  1.
</event>
<event>
 4    1  0.1974401E-002  0.9118800E+02  0.7818608E-02  0.1130116E+00
         25   -1    0    0    0    0  0.00000000000E+00  0.00000000000E+00  0.99999998245E-14  0.12500000000E+03  0.12500000000E+03 0.  0.
        -11    1    1    0    0    0 -0.56712604537E+01 -0.12919656529E+02  0.44563465889E+01  0.14796612624E+02  0.51100000000E-03 0. -1.
         11    1    1    0    0    0 -0.18524913850E+02 -0.41559792903E+02  0.14325935917E+02  0.47703472195E+02  0.51100000000E-03 0.  1.
         22    1    1    0    0    0  0.24196174304E+02  0.54479449433E+02 -0.18782282506E+02  0.62499915180E+02  0.00000000000E+00 0.  1.
</event>
<event>
 4    1  0.1974401E-002  0.9118800E+02  0.7818608E-02  0.1130116E+00
         25   -1    0    0    0    0  0.00000000000E+00  0.00000000000E+00  0.99999998245E-14  0.12500000000E+03  0.12500000000E+03 0.  0.
        -11    1    1    0    0    0  0.10866564225E+00 -0.13327103489E+00 -0.87738961266E-01  0.19304863892E+00  0.51100000000E-03 0.  1.
         11    1    1    0    0    0  0.44283690663E+00 -0.32877490238E+02 -0.52952613140E+02  0.62330608111E+02  0.51100000000E-03 0. -1.
         22    1    1    0    0    0 -0.55150254887E+00  0.33010761273E+02  0.53040352101E+02  0.62476343250E+02  0.00000000000E+00 0. -1.
</event>
<event>
 4    1  0.1974401E-002  0.9118800E+02  0.7818608E-02  0.1130116E+00
         25   -1    0    0    0    0  0.00000000000E+00  0.00000000000E+00  0.99999998245E-14  0.12500000000E+03  0.12500000000E+03 0.  0.
        -11    1    1    0    0    0  0.16576781809E+02  0.87693624739E+01  0.15686306603E+02  0.24448959660E+02  0.51100000000E-03 0. -1.
         11    1    1    0    0    0  0.26331364946E+02  0.13748080819E+02  0.23783734742E+02  0.38052812572E+02  0.51100000000E-03 0.  1.
         22    1    1    0    0    0 -0.42908146754E+02 -0.22517443293E+02 -0.39470041345E+02  0.62498227768E+02  0.00000000000E+00 0.  1.
</event>
<event>
 4    1  0.1974401E-002  0.9118800E+02  0.7818608E-02  0.1130116E+00
         25   -1    0    0    0    0  0.00000000000E+00  0.00000000000E+00  0.99999998245E-14  0.12500000000E+03  0.12500000000E+03 0.  0.
        -11    1    1    0    0    0  0.24911330821E+02  0.84099541456E+01 -0.16197545157E+02  0.30881421622E+02  0.51100000000E-03 0. -1.
         11    1    1    0    0    0  0.25593403857E+02  0.85858085719E+01 -0.16462132026E+02  0.31618668867E+02  0.51100000000E-03 0.  1.
         22    1    1    0    0    0 -0.50504734678E+02 -0.16995762717E+02  0.32659677182E+02  0.62499909511E+02  0.00000000000E+00 0.  1.
</event>
<event>
 4    1  0.1974401E-002  0.9118800E+02  0.7818608E-02  0.1130116E+00
         25   -1    0    0    0    0  0.00000000000E+00  0.00000000000E+00  0.99999998245E-14  0.12500000000E+03  0.12500000000E+03 0.  0.
        -11    1    1    0    0    0  0.46363321798E+01  0.67170957882E+01  0.15768989858E+01  0.83127349640E+01  0.51100000000E-03 0.  1.
         11    1    1    0    0    0  0.30496189044E+02  0.43708339469E+02  0.97900207510E+01  0.54187461575E+02  0.51100000000E-03 0. -1.
         22    1    1    0    0    0 -0.35132521224E+02 -0.50425435257E+02 -0.11366919737E+02  0.62499803461E+02  0.00000000000E+00 0. -1.
</event>
<event>
 4    1  0.1974401E-002  0.9118800E+02  0.7818608E-02  0.1130116E+00
         25   -1    0    0    0    0  0.00000000000E+00  0.00000000000E+00  0.99999998245E-14  0.12500000000E+03  0.12500000000E+03 0.  0.
        -11    1    1    0    0    0  0.53699963265E+02  0.77506933296E+01 -0.25134711695E+02  0.59795593768E+02  0.51100000000E-03 0. -1.
         11    1    1    0    0    0  0.26057190807E+01  0.35388849083E+00  0.34216429830E+01  0.43153968480E+01  0.51100000000E-03 0.  1.
         22    1    1    0    0    0 -0.56305682346E+02 -0.81045818205E+01  0.21713068712E+02  0.60889009384E+02  0.00000000000E+00 0. -1.
</event>
<event>
 4    1  0.1974401E-002  0.9118800E+02  0.7818608E-02  0.1130116E+00
         25   -1    0    0    0    0  0.00000000000E+00  0.00000000000E+00  0.99999998245E-14  0.12500000000E+03  0.12500000000E+03 0.  0.
        -11    1    1    0    0    0  0.38627526195E+02  0.52334851785E+01 -0.17022259408E+02  0.42535073324E+02  0.51100000000E-03 0.  1.
         11    1    1    0    0    0  0.18082793978E+02  0.24787887330E+01 -0.80914109271E+01  0.19965038510E+02  0.51100000000E-03 0. -1.
         22    1    1    0    0    0 -0.56710320173E+02 -0.77122739115E+01  0.25113670335E+02  0.62499888166E+02  0.00000000000E+00 0. -1.
</event>
<event>
 4    1  0.1974401E-002  0.9118800E+02  0.7818608E-02  0.1130116E+00
         25   -1    0    0    0    0  0.00000000000E+00  0.00000000000E+00  0.99999998245E-14  0.12500000000E+03  0.12500000000E+03 0.  0.
        -11    1    1    0    0    0  0.32469020053E+01 -0.17790957637E+02  0.27435835060E+02  0.32860091174E+02  0.51100000000E-03 0. -1.
         11    1    1    0    0    0  0.29288844185E+01 -0.16047616236E+02  0.24747117901E+02  0.29639908831E+02  0.51100000000E-03 0. -1.
         22    1    1    0    0    0 -0.61757864238E+01  0.33838573873E+02 -0.52182952961E+02  0.62499999996E+02  0.00000000000E+00 0. -1.
</event>
<event>
 4    1  0.1974401E-002  0.9118800E+02  0.7818608E-02  0.1130116E+00
         25   -1    0    0    0    0  0.00000000000E+00  0.00000000000E+00  0.99999998245E-14  0.12500000000E+03  0.12500000000E+03 0.  0.
        -11    1    1    0    0    0 -0.31152098159E+02  0.95176626973E+01  0.13135904316E+02  0.35122515647E+02  0.51100000000E-03 0. -1.
         11    1    1    0    0    0 -0.24279247399E+02  0.74399684835E+01  0.10231901458E+02  0.27377486974E+02  0.51100000000E-03 0.  1.
         22    1    1    0    0    0  0.55431345558E+02 -0.16957631181E+02 -0.23367805774E+02  0.62499997379E+02  0.00000000000E+00 0. -1.
</event>
<event>
 4    1  0.1974401E-002  0.9118800E+02  0.7818608E-02  0.1130116E+00
         25   -1    0    0    0    0  0.00000000000E+00  0.00000000000E+00  0.99999998245E-14  0.12500000000E+03  0.12500000000E+03 0.  0.
        -11    1    1    0    0    0 -0.16898244239E+02 -0.55230337257E+01 -0.18889511208E+02  0.25939703041E+02  0.51100000000E-03 0.  1.
         11    1    1    0    0    0 -0.23815687813E+02 -0.77846921828E+01 -0.26624554381E+02  0.36560296972E+02  0.51100000000E-03 0. -1.
         22    1    1    0    0    0  0.40713932052E+02  0.13307725909E+02  0.45514065589E+02  0.62499999988E+02  0.00000000000E+00 0. -1.
</event>
<event>
 4    1  0.1974401E-002  0.9118800E+02  0.7818608E-02  0.1130116E+00
         25   -1    0    0    0    0  0.00000000000E+00  0.00000000000E+00  0.99999998245E-14  0.12500000000E+03  0.12500000000E+03 0.  0.
        -11    1    1    0    0    0 -0.22694300086E+02  0.23445557760E+02 -0.36704711467E+02  0.49111722422E+02  0.51100000000E-03 0. -1.
         11    1    1    0    0    0 -0.60801875453E+01  0.64914988141E+01 -0.10007303619E+02  0.13388590793E+02  0.51100000000E-03 0.  1.
         22    1    1    0    0    0  0.28774487632E+02 -0.29937056574E+02  0.46712015086E+02  0.62499686785E+02  0.00000000000E+00 0. -1.
</event>
<event>
 4    1  0.1974401E-002  0.9118800E+02  0.7818608E-02  0.1130116E+00
         25   -1    0    0    0    0  0.00000000000E+00  0.00000000000E+00  0.99999998245E-14  0.12500000000E+03  0.12500000000E+03 0.  0.
        -11    1    1    0    0    0  0.28056840159E+01  0.28094074742E+01 -0.32257760017E+01  0.51156880503E+01  0.51100000000E-03 0.  1.
         11    1    1    0    0    0  0.15957833421E+02  0.55128829173E+02 -0.80332972624E+01  0.57951480728E+02  0.51100000000E-03 0. -1.
         22    1    1    0    0    0 -0.18763517437E+02 -0.57938236647E+02  0.11259073264E+02  0.61932831221E+02  0.00000000000E+00 0. -1.
</event>
<event>
 4    1  0.1974401E-002  0.9118800E+02  0.7818608E-02  0.1130116E+00
         25   -1    0    0    0    0  0.00000000000E+00  0.00000000000E+00  0.99999998245E-14  0.12500000000E+03  0.12500000000E+03 0.  0.
        -11    1    1    0    0    0  0.80135630151E+01  0.54315250993E+01  0.50467468467E+01  0.10917339928E+02  0.51100000000E-03 0. -1.
         11    1    1    0    0    0  0.37833801988E+02  0.25704146311E+02  0.23846830631E+02  0.51582662221E+02  0.51100000000E-03 0.  1.
         22    1    1    0    0    0 -0.45847365003E+02 -0.31135671410E+02 -0.28893577478E+02  0.62499997851E+02  0.00000000000E+00 0.  1.
</event>
<event>
 4    1  0.1974401E-002  0.9118800E+02  0.7818608E-02  0.1130116E+00
         25   -1    0    0    0    0  0.00000000000E+00  0.00000000000E+00  0.99999998245E-14  0.12500000000E+03  0.12500000000E+03 0.  0.
        -11    1    1    0    0    0  0.20416747551E+02  0.20148597861E+02 -0.16869732312E+02  0.33277581716E+02  0.51100000000E-03 0. -1.
         11    1    1    0    0    0  0.17924929124E+02  0.17691696366E+02 -0.14820612072E+02  0.29222418566E+02  0.51100000000E-03 0. -1.
         22    1    1    0    0    0 -0.38341676675E+02 -0.37840294227E+02  0.31690344384E+02  0.62499999717E+02  0.00000000000E+00 0. -1.
</event>
<event>
 4    1  0.1974401E-002  0.9118800E+02  0.7818608E-02  0.1130116E+00
         25   -1    0    0    0    0  0.00000000000E+00  0.00000000000E+00  0.99999998245E-14  0.12500000000E+03  0.12500000000E+03 0.  0.
        -11    1    1    0    0    0 -0.11548280253E+02  0.83381344326E+01  0.69945349071E+01  0.15868546923E+02  0.51100000000E-03 0.  1.
         11    1    1    0    0    0 -0.33934412203E+02  0.24534329889E+02  0.20518650805E+02  0.46631456184E+02  0.51100000000E-03 0. -1.
         22    1    1    0    0    0  0.45482692456E+02 -0.32872464322E+02 -0.27513185712E+02  0.62499996893E+02  0.00000000000E+00 0. -1.
</event>
<event>
 4    1  0.1974401E-002  0.9118800E+02  0.7818608E-02  0.1130116E+00
         25   -1    0    0    0    0  0.00000000000E+00  0.00000000000E+00  0.99999998245E-14  0.12500000000E+03  0.12500000000E+03 0.  0.
        -11    1    1    0    0    0  0.56987888675E+01  0.30937062434E+02  0.66152170301E+01  0.32145592594E+02  0.51100000000E-03 0.  1.
         11    1    1    0    0    0 -0.27993303776E+01  0.29640410442E+02  0.72510609153E+01  0.30642585831E+02  0.51100000000E-03 0. -1.
         22    1    1    0    0    0 -0.28994584899E+01 -0.60577472876E+02 -0.13866277945E+02  0.62211821575E+02  0.00000000000E+00 0. -1.
</event>
<event>
 4    1  0.1974401E-002  0.9118800E+02  0.7818608E-02  0.1130116E+00
         25   -1    0    0    0    0  0.00000000000E+00  0.00000000000E+00  0.99999998245E-14  0.12500000000E+03  0.12500000000E+03 0.  0.
        -11    1    1    0    0    0  0.42080223133E+02 -0.90180907461E+00  0.36747614425E+01  0.42249997757E+02  0.51100000000E-03 0. -1.
         11    1    1    0    0    0  0.20167319461E+02 -0.43911329225E+00  0.17745625633E+01  0.20250004131E+02  0.51100000000E-03 0.  1.
         22    1    1    0    0    0 -0.62247542595E+02  0.13409223669E+01 -0.54493240058E+01  0.62499998112E+02  0.00000000000E+00 0.  1.
</event>
<event>
 4    1  0.1974401E-002  0.9118800E+02  0.7818608E-02  0.1130116E+00
         25   -1    0    0    0    0  0.00000000000E+00  0.00000000000E+00  0.99999998245E-14  0.12500000000E+03  0.12500000000E+03 0.  0.
        -11    1    1    0    0    0 -0.23596364546E+02 -0.32301776840E+02  0.28045012494E+02  0.48854026782E+02  0.51100000000E-03 0.  1.
         11    1    1    0    0    0 -0.16734286932E+01  0.30594329044E+02  0.83943302237E+01  0.31769137751E+02  0.51100000000E-03 0. -1.
         22    1    1    0    0    0  0.25269793239E+02  0.17074477954E+01 -0.36439342718E+02  0.44376835467E+02  0.00000000000E+00 0.  1.
</event>
<event>
 4    1  0.1974401E-002  0.9118800E+02  0.7818608E-02  0.1130116E+00
         25   -1    0    0    0    0  0.00000000000E+00  0.00000000000E+00  0.99999998245E-14  0.12500000000E+03  0.12500000000E+03 0.  0.
        -11    1    1    0    0    0 -0.37772305692E+02  0.19372068423E+02 -0.37713856483E+02  0.56783440221E+02  0.51100000000E-03 0.  1.
         11    1    1    0    0    0 -0.38014587761E+01  0.19519647088E+01 -0.37970781628E+01  0.57165599696E+01  0.51100000000E-03 0.  1.
         22    1    1    0    0    0  0.41573764468E+02 -0.21324033131E+02  0.41510934646E+02  0.62499999809E+02  0.00000000000E+00 0.  1.
</event>
<event>
 4    1  0.1974401E-002  0.9118800E+02  0.7818608E-02  0.1130116E+00
         25   -1    0    0    0    0  0.00000000000E+00  0.00000000000E+00  0.99999998245E-14  0.12500000000E+03  0.12500000000E+03 0.  0.
        -11    1    1    0    0    0  0.23406845598E+02  0.10944163408E+01 -0.14070426255E+02  0.27332308048E+02  0.51100000000E-03 0.  1.
         11    1    1    0    0    0  0.30118671164E+02  0.14098851608E+01 -0.18100951130E+02  0.35167692005E+02  0.51100000000E-03 0. -1.
         22    1    1    0    0    0 -0.53525516762E+02 -0.25043015016E+01  0.32171377385E+02  0.62499999948E+02  0.00000000000E+00 0. -1.
</event>
<event>
 4    1  0.1974401E-002  0.9118800E+02  0.7818608E-02  0.1130116E+00
         25   -1    0    0    0    0  0.00000000000E+00  0.00000000000E+00  0.99999998245E-14  0.12500000000E+03  0.12500000000E+03 0.  0.
        -11    1    1    0    0    0  0.43459619140E+02 -0.23911034782E+02  0.14196704565E+02  0.51594791413E+02  0.51100000000E-03 0. -1.
         11    1    1    0    0    0  0.92085985202E+01 -0.50905039303E+01  0.28670873003E+01  0.10905581453E+02  0.51100000000E-03 0.  1.
         22    1    1    0    0    0 -0.52668217660E+02  0.29001538713E+02 -0.17063791866E+02  0.62499627135E+02  0.00000000000E+00 0. -1.
</event>
<event>
 4    1  0.1974401E-002  0.9118800E+02  0.7818608E-02  0.1130116E+00
         25   -1    0    0    0    0  0.00000000000E+00  0.00000000000E+00  0.99999998245E-14  0.12500000000E+03  0.12500000000E+03 0.  0.
        -11    1    1    0    0    0 -0.84716054707E+01  0.10940222712E+02  0.13733663948E+02  0.19495386580E+02  0.51100000000E-03 0. -1.
         11    1    1    0    0    0 -0.18724077745E+02  0.24325357524E+02  0.30117993591E+02  0.43004739789E+02  0.51100000000E-03 0.  1.
         22    1    1    0    0    0  0.27195683216E+02 -0.35265580236E+02 -0.43851657538E+02  0.62499873631E+02  0.00000000000E+00 0.  1.
</event>
<event>
 4    1  0.1974401E-002  0.9118800E+02  0.7818608E-02  0.1130116E+00
         25   -1    0    0    0    0  0.00000000000E+00  0.00000000000E+00  0.99999998245E-14  0.12500000000E+03  0.12500000000E+03 0.  0.
        -11    1    1    0    0    0  0.51332486039E+01  0.18102019941E+02  0.10686482247E+02  0.21638721549E+02  0.51100000000E-03 0.  1.
         11    1    1    0    0    0 -0.38858196216E+02  0.25352446201E+02  0.35802952700E+01  0.46535195885E+02  0.51100000000E-03 0. -1.
         22    1    1    0    0    0  0.33724947612E+02 -0.43454466142E+02 -0.14266777517E+02  0.56826082567E+02  0.00000000000E+00 0. -1.
</event>
<event>
 4    1  0.1974401E-002  0.9118800E+02  0.7818608E-02  0.1130116E+00
         25   -1    0    0    0    0  0.00000000000E+00  0.00000000000E+00  0.99999998245E-14  0.12500000000E+03  0.12500000000E+03 0.  0.
        -11    1    1    0    0    0 -0.13426225163E+02 -0.14819647627E+02  0.53440464511E+01  0.20698896363E+02  0.51100000000E-03 0.  1.
         11    1    1    0    0    0 -0.27169107030E+02 -0.29898527748E+02  0.10735506784E+02  0.41801117742E+02  0.51100000000E-03 0. -1.
         22    1    1    0    0    0  0.40595332192E+02  0.44718175375E+02 -0.16079553235E+02  0.62499985895E+02  0.00000000000E+00 0. -1.
</event>
<event>
 4    1  0.1974401E-002  0.9118800E+02  0.7818608E-02  0.1130116E+00
         25   -1    0    0    0    0  0.00000000000E+00  0.00000000000E+00  0.99999998245E-14  0.12500000000E+03  0.12500000000E+03 0.  0.
        -11    1    1    0    0    0  0.50507725502E+02  0.21528121822E+02  0.24556965722E+02  0.60145946915E+02  0.51100000000E-03 0.  1.
         11    1    1    0    0    0  0.19772005315E+01  0.84127718074E+00  0.96150794578E+00  0.23540533188E+01  0.51100000000E-03 0. -1.
         22    1    1    0    0    0 -0.52484926034E+02 -0.22369399002E+02 -0.25518473667E+02  0.62499999766E+02  0.00000000000E+00 0.  1.
</event>
<event>
 4    1  0.1974401E-002  0.9118800E+02  0.7818608E-02  0.1130116E+00
         25   -1    0    0    0    0  0.00000000000E+00  0.00000000000E+00  0.99999998245E-14  0.12500000000E+03  0.12500000000E+03 0.  0.
        -11    1    1    0    0    0 -0.27450946212E+02  0.10027115106E+02 -0.34640229883E+02  0.45321551296E+02  0.51100000000E-03 0. -1.
         11    1    1    0    0    0 -0.15499365800E+02 -0.22278860707E+01 -0.89103943957E+01  0.18016352158E+02  0.51100000000E-03 0.  1.
         22    1    1    0    0    0  0.42950312011E+02 -0.77992290349E+01  0.43550624278E+02  0.61662096546E+02  0.00000000000E+00 0. -1.
</event>
<event>
 4    1  0.1974401E-002  0.9118800E+02  0.7818608E-02  0.1130116E+00
         25   -1    0    0    0    0  0.00000000000E+00  0.00000000000E+00  0.99999998245E-14  0.12500000000E+03  0.12500000000E+03 0.  0.
        -11    1    1    0    0    0  0.21205060284E+02  0.21712601023E+02  0.59843917447E+01  0.30933874146E+02  0.51100000000E-03 0.  1.
         11    1    1    0    0    0  0.21669024518E+02  0.22141098601E+02  0.60536283886E+01  0.31566141477E+02  0.51100000000E-03 0. -1.
         22    1    1    0    0    0 -0.42874084802E+02 -0.43853699625E+02 -0.12038020133E+02  0.62499984377E+02  0.00000000000E+00 0. -1.
</event>
<event>
 4    1  0.1974401E-002  0.9118800E+02  0.7818608E-02  0.1130116E+00
         25   -1    0    0    0    0  0.00000000000E+00  0.00000000000E+00  0.99999998245E-14  0.12500000000E+03  0.12500000000E+03 0.  0.
        -11    1    1    0    0    0 -0.34396062208E+01  0.60815693135E+01  0.43924964412E+01  0.82529026115E+01  0.51100000000E-03 0.  1.
         11    1    1    0    0    0  0.48241157110E+02 -0.21617665817E+02  0.27512276954E+02  0.59594111271E+02  0.51100000000E-03 0. -1.
         22    1    1    0    0    0 -0.44801550890E+02  0.15536096504E+02 -0.31904773396E+02  0.57152986117E+02  0.00000000000E+00 0. -1.
</event>
<event>
 4    1  0.1974401E-002  0.9118800E+02  0.7818608E-02  0.1130116E+00
         25   -1    0    0    0    0  0.00000000000E+00  0.00000000000E+00  0.99999998245E-14  0.12500000000E+03  0.12500000000E+03 0.  0.
        -11    1    1    0    0    0  0.49175635219E+01 -0.45290928086E+02 -0.12799525874E+02  0.47321015001E+02  0.51100000000E-03 0.  1.
         11    1    1    0    0    0  0.15775545868E+01 -0.14528192886E+02 -0.41042075213E+01  0.15178985033E+02  0.51100000000E-03 0.  1.
         22    1    1    0    0    0 -0.64951181087E+01  0.59819120972E+02  0.16903733395E+02  0.62499999966E+02  0.00000000000E+00 0.  1.
</event>
<event>
 4    1  0.1974401E-002  0.9118800E+02  0.7818608E-02  0.1130116E+00
         25   -1    0    0    0    0  0.00000000000E+00  0.00000000000E+00  0.99999998245E-14  0.12500000000E+03  0.12500000000E+03 0.  0.
        -11    1    1    0    0    0  0.31199832902E+02  0.78134033949E+01  0.45642754744E+02  0.55836725428E+02  0.51100000000E-03 0.  1.
         11    1    1    0    0    0  0.14967636421E+01  0.24911357364E+01  0.62939236048E+01  0.69324983419E+01  0.51100000000E-03 0. -1.
         22    1    1    0    0    0 -0.32696596544E+02 -0.10304539131E+02 -0.51936678349E+02  0.62230776230E+02  0.00000000000E+00 0.  1.
</event>
<event>
 4    1  0.1974401E-002  0.9118800E+02  0.7818608E-02  0.1130116E+00
         25   -1    0    0    0    0  0.00000000000E+00  0.00000000000E+00  0.99999998245E-14  0.12500000000E+03  0.12500000000E+03 0.  0.
        -11    1    1    0    0    0  0.67817525773E+01  0.83752456461E+01  0.99056192339E+01  0.14637561283E+02  0.51100000000E-03 0.  1.
         11    1    1    0    0    0 -0.21065938203E+02 -0.46194120780E+02 -0.36006126293E+02  0.62242362406E+02  0.51100000000E-03 0. -1.
         22    1    1    0    0    0  0.14284185625E+02  0.37818875134E+02  0.26100507060E+02  0.48120076311E+02  0.00000000000E+00 0. -1.
</event>
<event>
 4    1  0.1974401E-002  0.9118800E+02  0.7818608E-02  0.1130116E+00
         25   -1    0    0    0    0  0.00000000000E+00  0.00000000000E+00  0.99999998245E-14  0.12500000000E+03  0.12500000000E+03 0.  0.
        -11    1    1    0    0    0  0.69962184628E-01 -0.55081410153E+01 -0.61333290584E+01  0.82439212607E+01  0.51100000000E-03 0. -1.
         11    1    1    0    0    0  0.46282922857E+00 -0.36249675033E+02 -0.40366680946E+02  0.54256078754E+02  0.51100000000E-03 0. -1.
         22    1    1    0    0    0 -0.53279141319E+00  0.41757816049E+02  0.46500010004E+02  0.62499999986E+02  0.00000000000E+00 0. -1.
</event>
<event>
 4    1  0.1974401E-002  0.9118800E+02  0.7818608E-02  0.1130116E+00
         25   -1    0    0    0    0  0.00000000000E+00  0.00000000000E+00  0.99999998245E-14  0.12500000000E+03  0.12500000000E+03 0.  0.
        -11    1    1    0    0    0  0.14765208133E+02  0.33217319375E+01 -0.71764599426E+00  0.15151247154E+02  0.51100000000E-03 0. -1.
         11    1    1    0    0    0  0.46259726224E+02  0.98120676641E+01 -0.23893339302E+01  0.47349211811E+02  0.51100000000E-03 0.  1.
         22    1    1    0    0    0 -0.61024934358E+02 -0.13133799602E+02  0.31069799245E+01  0.62499541035E+02  0.00000000000E+00 0.  1.
</event>
<event>
 4    1  0.1974401E-002  0.9118800E+02  0.7818608E-02  0.1130116E+00
         25   -1    0    0    0    0  0.00000000000E+00  0.00000000000E+00  0.99999998245E-14  0.12500000000E+03  0.12500000000E+03 0.  0.
        -11    1    1    0    0    0 -0.11432305006E+02 -0.11761446046E+02  0.30806086820E+01  0.16688899333E+02  0.51100000000E-03 0.  1.
         11    1    1    0    0    0 -0.31382196380E+02 -0.32284809443E+02  0.84561086908E+01  0.45811100673E+02  0.51100000000E-03 0.  1.
         22    1    1    0    0    0  0.42814501386E+02  0.44046255489E+02 -0.11536717373E+02  0.62499999994E+02  0.00000000000E+00 0.  1.
</event>
<event>
 4    1  0.1974401E-002  0.9118800E+02  0.7818608E-02  0.1130116E+00
         25   -1    0    0    0    0  0.00000000000E+00  0.00000000000E+00  0.99999998245E-14  0.12500000000E+03  0.12500000000E+03 0.  0.
        -11    1    1    0    0    0 -0.11203529315E+02 -0.33591516803E+02 -0.72515276158E+01  0.36145452318E+02  0.51100000000E-03 0.  1.
         11    1    1    0    0    0 -0.81842804059E+01 -0.24483592731E+02 -0.53041114984E+01  0.26354550989E+02  0.51100000000E-03 0. -1.
         22    1    1    0    0    0  0.19387809721E+02  0.58075109534E+02  0.12555639114E+02  0.62499996694E+02  0.00000000000E+00 0. -1.
</event>
<event>
 4    1  0.1974401E-002  0.9118800E+02  0.7818608E-02  0.1130116E+00
         25   -1    0    0    0    0  0.00000000000E+00  0.00000000000E+00  0.99999998245E-14  0.12500000000E+03  0.12500000000E+03 0.  0.
        -11    1    1    0    0    0 -0.10506531166E+02  0.18150006431E+01  0.11322873935E+02  0.15552777851E+02  0.51100000000E-03 0. -1.
         11    1    1    0    0    0 -0.29244138599E+02  0.76206514891E+01  0.35950924404E+02  0.46965550537E+02  0.51100000000E-03 0.  1.
         22    1    1    0    0    0  0.39750669765E+02 -0.94356521322E+01 -0.47273798339E+02  0.62481671611E+02  0.00000000000E+00 0.  1.
</event>
<event>
 4    1  0.1974401E-002  0.9118800E+02  0.7818608E-02  0.1130116E+00
         25   -1    0    0    0    0  0.00000000000E+00  0.00000000000E+00  0.99999998245E-14  0.12500000000E+03  0.12500000000E+03 0.  0.
        -11    1    1    0    0    0  0.32794899039E+02  0.40552079689E+02 -0.17517768271E+02  0.55016804483E+02  0.51100000000E-03 0.  1.
         11    1    1    0    0    0  0.44614651299E+01  0.55183049287E+01 -0.23752646522E+01  0.74831973661E+01  0.51100000000E-03 0. -1.
         22    1    1    0    0    0 -0.37256364169E+02 -0.46070384618E+02  0.19893032923E+02  0.62499998151E+02  0.00000000000E+00 0.  1.
</event>
<event>
 4    1  0.1974401E-002  0.9118800E+02  0.7818608E-02  0.1130116E+00
         25   -1    0    0    0    0  0.00000000000E+00  0.00000000000E+00  0.99999998245E-14  0.12500000000E+03  0.12500000000E+03 0.  0.
        -11    1    1    0    0    0  0.19324205985E+02  0.75488352662E+01 -0.46311968240E+02  0.50746509765E+02  0.51100000000E-03 0.  1.
         11    1    1    0    0    0  0.44828972971E+01  0.17395014325E+01 -0.10724847470E+02  0.11753492541E+02  0.51100000000E-03 0. -1.
         22    1    1    0    0    0 -0.23807103282E+02 -0.92883366987E+01  0.57036815710E+02  0.62499997693E+02  0.00000000000E+00 0.  1.
</event>
<event>
 4    1  0.1974401E-002  0.9118800E+02  0.7818608E-02  0.1130116E+00
         25   -1    0    0    0    0  0.00000000000E+00  0.00000000000E+00  0.99999998245E-14  0.12500000000E+03  0.12500000000E+03 0.  0.
        -11    1    1    0    0    0 -0.16573677519E+02  0.12538201372E+02  0.34796468499E+02  0.40530081427E+02  0.51100000000E-03 0. -1.
         11    1    1    0    0    0 -0.89830402067E+01  0.67950817052E+01  0.18862904776E+02  0.21969918607E+02  0.51100000000E-03 0.  1.
         22    1    1    0    0    0  0.25556717726E+02 -0.19333283077E+02 -0.53659373276E+02  0.62499999966E+02  0.00000000000E+00 0. -1.
</event>
<event>
 4    1  0.1974401E-002  0.9118800E+02  0.7818608E-02  0.1130116E+00
         25   -1    0    0    0    0  0.00000000000E+00  0.00000000000E+00  0.99999998245E-14  0.12500000000E+03  0.12500000000E+03 0.  0.
        -11    1    1    0    0    0  0.10126307760E+02  0.13000773799E+01 -0.29585665389E+01  0.10629460300E+02  0.51100000000E-03 0.  1.
         11    1    1    0    0    0  0.49677507199E+02  0.55339295924E+01 -0.13862308792E+02  0.51871405452E+02  0.51100000000E-03 0. -1.
         22    1    1    0    0    0 -0.59803814959E+02 -0.68340069723E+01  0.16820875331E+02  0.62499134248E+02  0.00000000000E+00 0. -1.
</event>
<event>
 4    1  0.1974401E-002  0.9118800E+02  0.7818608E-02  0.1130116E+00
         25   -1    0    0    0    0  0.00000000000E+00  0.00000000000E+00  0.99999998245E-14  0.12500000000E+03  0.12500000000E+03 0.  0.
        -11    1    1    0    0    0 -0.18199120015E+02 -0.21154449130E+02  0.42868376387E+02  0.51150917701E+02  0.51100000000E-03 0. -1.
         11    1    1    0    0    0 -0.60279475119E+01  0.80369255825E+00  0.10309958270E+02  0.11969850154E+02  0.51100000000E-03 0.  1.
         22    1    1    0    0    0  0.24227067526E+02  0.20350756572E+02 -0.53178334657E+02  0.61879232145E+02  0.00000000000E+00 0. -1.
</event>
<event>
 4    1  0.1974401E-002  0.9118800E+02  0.7818608E-02  0.1130116E+00
         25   -1    0    0    0    0  0.00000000000E+00  0.00000000000E+00  0.99999998245E-14  0.12500000000E+03  0.12500000000E+03 0.  0.
        -11    1    1    0    0    0  0.33358729789E+01  0.23632289384E+00  0.30218224975E+01  0.45072506597E+01  0.51100000000E-03 0. -1.
         11    1    1    0    0    0  0.42751262034E+02  0.34101587392E+01  0.39036729298E+02  0.57992808371E+02  0.51100000000E-03 0.  1.
         22    1    1    0    0    0 -0.46087135013E+02 -0.36464816330E+01 -0.42058551796E+02  0.62499940970E+02  0.00000000000E+00 0.  1.
</event>
<event>
 4    1  0.1974401E-002  0.9118800E+02  0.7818608E-02  0.1130116E+00
         25   -1    0    0    0    0  0.00000000000E+00  0.00000000000E+00  0.99999998245E-14  0.12500000000E+03  0.12500000000E+03 0.  0.
        -11    1    1    0    0    0 -0.25316514731E+02  0.92210986738E+01 -0.23088663498E+02  0.35482967199E+02  0.51100000000E-03 0. -1.
         11    1    1    0    0    0 -0.19216068217E+02  0.69048463428E+01 -0.17691644437E+02  0.27017188305E+02  0.51100000000E-03 0.  1.
         22    1    1    0    0    0  0.44532582948E+02 -0.16125945017E+02  0.40780307936E+02  0.62499844496E+02  0.00000000000E+00 0. -1.
</event>
<event>
 4    1  0.1974401E-002  0.9118800E+02  0.7818608E-02  0.1130116E+00
         25   -1    0    0    0    0  0.00000000000E+00  0.00000000000E+00  0.99999998245E-14  0.12500000000E+03  0.12500000000E+03 0.  0.
        -11    1    1    0    0    0  0.24292438978E+02  0.26769179191E+02  0.20884953015E+02  0.41747967720E+02  0.51100000000E-03 0. -1.
         11    1    1    0    0    0  0.12075502837E+02  0.13306751272E+02  0.10380724723E+02  0.20752032291E+02  0.51100000000E-03 0. -1.
         22    1    1    0    0    0 -0.36367941815E+02 -0.40075930462E+02 -0.31265677737E+02  0.62499999989E+02  0.00000000000E+00 0. -1.
</event>
<event>
 4    1  0.1974401E-002  0.9118800E+02  0.7818608E-02  0.1130116E+00
         25   -1    0    0    0    0  0.00000000000E+00  0.00000000000E+00  0.99999998245E-14  0.12500000000E+03  0.12500000000E+03 0.  0.
        -11    1    1    0    0    0  0.75067407187E+01 -0.15818136119E+02  0.21250895568E+02  0.27534798877E+02  0.51100000000E-03 0.  1.
         11    1    1    0    0    0  0.85041533496E+01 -0.20330235345E+02  0.27151026300E+02  0.34968804995E+02  0.51100000000E-03 0. -1.
         22    1    1    0    0    0 -0.16010894068E+02  0.36148371464E+02 -0.48401921868E+02  0.62496396128E+02  0.00000000000E+00 0. -1.
</event>
<event>
 4    1  0.1974401E-002  0.9118800E+02  0.7818608E-02  0.1130116E+00
         25   -1    0    0    0    0  0.00000000000E+00  0.00000000000E+00  0.99999998245E-14  0.12500000000E+03  0.12500000000E+03 0.  0.
        -11    1    1    0    0    0 -0.48556228792E+01 -0.65730328800E+01  0.93043740121E+01  0.12383586347E+02  0.51100000000E-03 0.  1.
         11    1    1    0    0    0 -0.19630324850E+02 -0.26608378384E+02  0.37660317489E+02  0.50116414153E+02  0.51100000000E-03 0. -1.
         22    1    1    0    0    0  0.24485947729E+02  0.33181411264E+02 -0.46964691501E+02  0.62499999500E+02  0.00000000000E+00 0. -1.
</event>
<event>
 4    1  0.1974401E-002  0.9118800E+02  0.7818608E-02  0.1130116E+00
         25   -1    0    0    0    0  0.00000000000E+00  0.00000000000E+00  0.99999998245E-14  0.12500000000E+03  0.12500000000E+03 0.  0.
        -11    1    1    0    0    0 -0.13184305867E+00 -0.18093321441E-01  0.68873921511E-01  0.14984604962E+00  0.51100000000E-03 0.  1.
         11    1    1    0    0    0 -0.67695162889E+01 -0.38504719779E+02  0.48615874214E+02  0.62385439182E+02  0.51100000000E-03 0. -1.
         22    1    1    0    0    0  0.69013593475E+01  0.38522813101E+02 -0.48684748136E+02  0.62464714768E+02  0.00000000000E+00 0. -1.
</event>
<event>
 4    1  0.1974401E-002  0.9118800E+02  0.7818608E-02  0.1130116E+00
         25   -1    0    0    0    0  0.00000000000E+00  0.00000000000E+00  0.99999998245E-14  0.12500000000E+03  0.12500000000E+03 0.  0.
        -11    1    1    0    0    0  0.27111910081E+01 -0.74353231384E+00  0.55363467991E+01  0.62092296724E+01  0.51100000000E-03 0.  1.
         11    1    1    0    0    0  0.24129663141E+02 -0.57356189373E+01  0.50532948328E+02  0.56291356663E+02  0.51100000000E-03 0. -1.
         22    1    1    0    0    0 -0.26840854149E+02  0.64791512511E+01 -0.56069295127E+02  0.62499413665E+02  0.00000000000E+00 0. -1.
</event>
<event>
 4    1  0.1974401E-002  0.9118800E+02  0.7818608E-02  0.1130116E+00
         25   -1    0    0    0    0  0.00000000000E+00  0.00000000000E+00  0.99999998245E-14  0.12500000000E+03  0.12500000000E+03 0.  0.
        -11    1    1    0    0    0  0.11209148718E+02 -0.99666998745E+01  0.19079950521E+01  0.15120203926E+02  0.51100000000E-03 0. -1.
         11    1    1    0    0    0 -0.26822083330E+02 -0.35185220489E+02  0.29071695376E+02  0.52939468900E+02  0.51100000000E-03 0.  1.
         22    1    1    0    0    0  0.15612934612E+02  0.45151920363E+02 -0.30979690429E+02  0.56940327175E+02  0.00000000000E+00 0.  1.
</event>
<event>
 4    1  0.1974401E-002  0.9118800E+02  0.7818608E-02  0.1130116E+00
         25   -1    0    0    0    0  0.00000000000E+00  0.00000000000E+00  0.99999998245E-14  0.12500000000E+03  0.12500000000E+03 0.  0.
        -11    1    1    0    0    0  0.15630704238E+02  0.21897956958E+02  0.28223777614E+02  0.38992576946E+02  0.51100000000E-03 0. -1.
         11    1    1    0    0    0  0.96172884475E+01  0.12919113981E+02  0.17124355315E+02  0.23508281272E+02  0.51100000000E-03 0.  1.
         22    1    1    0    0    0 -0.25247992685E+02 -0.34817070938E+02 -0.45348132929E+02  0.62499141782E+02  0.00000000000E+00 0.  1.
</event>
<event>
 4    1  0.1974401E-002  0.9118800E+02  0.7818608E-02  0.1130116E+00
         25   -1    0    0    0    0  0.00000000000E+00  0.00000000000E+00  0.99999998245E-14  0.12500000000E+03  0.12500000000E+03 0.  0.
        -11    1    1    0    0    0  0.49707722745E+01  0.26723595799E+02  0.24970661410E+02  0.36910609328E+02  0.51100000000E-03 0. -1.
         11    1    1    0    0    0 -0.30946702234E+01  0.28309494027E+02 -0.24034070902E+01  0.28579377211E+02  0.51100000000E-03 0.  1.
         22    1    1    0    0    0 -0.18761020511E+01 -0.55033089825E+02 -0.22567254320E+02  0.59510013462E+02  0.00000000000E+00 0.  1.
</event>
<event>
 4    1  0.1974401E-002  0.9118800E+02  0.7818608E-02  0.1130116E+00
         25   -1    0    0    0    0  0.00000000000E+00  0.00000000000E+00  0.99999998245E-14  0.12500000000E+03  0.12500000000E+03 0.  0.
        -11    1    1    0    0    0 -0.29849492960E+01 -0.91300657882E+01 -0.24727994948E+02  0.26528131446E+02  0.51100000000E-03 0. -1.
         11    1    1    0    0    0 -0.80458011381E+01 -0.12266969388E+02 -0.32897480239E+02  0.36020239592E+02  0.51100000000E-03 0.  1.
         22    1    1    0    0    0  0.11030750434E+02  0.21397035176E+02  0.57625475187E+02  0.62451628962E+02  0.00000000000E+00 0.  1.
</event>
<event>
 4    1  0.1974401E-002  0.9118800E+02  0.7818608E-02  0.1130116E+00
         25   -1    0    0    0    0  0.00000000000E+00  0.00000000000E+00  0.99999998245E-14  0.12500000000E+03  0.12500000000E+03 0.  0.
        -11    1    1    0    0    0 -0.23639641339E+02 -0.35320193661E+02  0.34894052294E+02  0.54990395604E+02  0.51100000000E-03 0.  1.
         11    1    1    0    0    0 -0.18952443694E+01 -0.62814840189E+01  0.39223526070E+01  0.76442032243E+01  0.51100000000E-03 0. -1.
         22    1    1    0    0    0  0.25534885708E+02  0.41601677680E+02 -0.38816404901E+02  0.62365401172E+02  0.00000000000E+00 0.  1.
</event>
<event>
 4    1  0.1974401E-002  0.9118800E+02  0.7818608E-02  0.1130116E+00
         25   -1    0    0    0    0  0.00000000000E+00  0.00000000000E+00  0.99999998245E-14  0.12500000000E+03  0.12500000000E+03 0.  0.
        -11    1    1    0    0    0  0.16449945169E+02  0.16579945144E+02 -0.40856164369E+01  0.23710494279E+02  0.51100000000E-03 0. -1.
         11    1    1    0    0    0  0.22010835108E+02  0.31678064461E+02 -0.50642653255E+01  0.38905313438E+02  0.51100000000E-03 0.  1.
         22    1    1    0    0    0 -0.38460780277E+02 -0.48258009604E+02  0.91498817623E+01  0.62384192283E+02  0.00000000000E+00 0. -1.
</event>
<event>
 4    1  0.1974401E-002  0.9118800E+02  0.7818608E-02  0.1130116E+00
         25   -1    0    0    0    0  0.00000000000E+00  0.00000000000E+00  0.99999998245E-14  0.12500000000E+03  0.12500000000E+03 0.  0.
        -11    1    1    0    0    0  0.70702935464E+01  0.31080469585E+00 -0.53790883694E+01  0.88893330649E+01  0.51100000000E-03 0. -1.
         11    1    1    0    0    0  0.42265156860E+02  0.22218445460E+01 -0.32906801227E+02  0.53610984367E+02  0.51100000000E-03 0.  1.
         22    1    1    0    0    0 -0.49335450406E+02 -0.25326492419E+01  0.38285889596E+02  0.62499682568E+02  0.00000000000E+00 0.  1.
</event>
<event>
 4    1  0.1974401E-002  0.9118800E+02  0.7818608E-02  0.1130116E+00
         25   -1    0    0    0    0  0.00000000000E+00  0.00000000000E+00  0.99999998245E-14  0.12500000000E+03  0.12500000000E+03 0.  0.
        -11    1    1    0    0    0 -0.32964387411E+02 -0.17423786686E+01  0.37582383320E+02  0.50021218069E+02  0.51100000000E-03 0. -1.
         11    1    1    0    0    0 -0.14872339981E+02 -0.66087206751E+01 -0.82361428957E+01  0.18239948891E+02  0.51100000000E-03 0.  1.
         22    1    1    0    0    0  0.47836727391E+02  0.83510993437E+01 -0.29346240425E+02  0.56738833041E+02  0.00000000000E+00 0. -1.
</event>
<event>
 4    1  0.1974401E-002  0.9118800E+02  0.7818608E-02  0.1130116E+00
         25   -1    0    0    0    0  0.00000000000E+00  0.00000000000E+00  0.99999998245E-14  0.12500000000E+03  0.12500000000E+03 0.  0.
        -11    1    1    0    0    0 -0.10858763902E+01 -0.87603338028E+00 -0.40869887873E+00  0.14538215340E+01  0.51100000000E-03 0. -1.
         11    1    1    0    0    0  0.21048265744E+02 -0.53898621291E+02 -0.20831878874E+02  0.61498439375E+02  0.51100000000E-03 0.  1.
         22    1    1    0    0    0 -0.19962389354E+02  0.54774654671E+02  0.21240577752E+02  0.62047739091E+02  0.00000000000E+00 0.  1.
</event>
<event>
 4    1  0.1974401E-002  0.9118800E+02  0.7818608E-02  0.1130116E+00
         25   -1    0    0    0    0  0.00000000000E+00  0.00000000000E+00  0.99999998245E-14  0.12500000000E+03  0.12500000000E+03 0.  0.
        -11    1    1    0    0    0  0.10967468972E+02  0.18661813698E+02  0.40153978141E+02  0.45616780103E+02  0.51100000000E-03 0.  1.
         11    1    1    0    0    0  0.30792220089E+01  0.62443976455E+01  0.15400845646E+02  0.16901483870E+02  0.51100000000E-03 0. -1.
         22    1    1    0    0    0 -0.14046690981E+02 -0.24906211343E+02 -0.55554823787E+02  0.62481736027E+02  0.00000000000E+00 0.  1.
</event>
<event>
 4    1  0.1974401E-002  0.9118800E+02  0.7818608E-02  0.1130116E+00
         25   -1    0    0    0    0  0.00000000000E+00  0.00000000000E+00  0.99999998245E-14  0.12500000000E+03  0.12500000000E+03 0.  0.
        -11    1    1    0    0    0 -0.26590944151E+01  0.13204052167E+02  0.32706811487E+01  0.13860560313E+02  0.51100000000E-03 0.  1.
         11    1    1    0    0    0 -0.93141282446E+01  0.46320295095E+02  0.11553054274E+02  0.48639446810E+02  0.51100000000E-03 0. -1.
         22    1    1    0    0    0  0.11973222660E+02 -0.59524347262E+02 -0.14823735422E+02  0.62499992878E+02  0.00000000000E+00 0. -1.
</event>
<event>
 4    1  0.1974401E-002  0.9118800E+02  0.7818608E-02  0.1130116E+00
         25   -1    0    0    0    0  0.00000000000E+00  0.00000000000E+00  0.99999998245E-14  0.12500000000E+03  0.12500000000E+03 0.  0.
        -11    1    1    0    0    0 -0.33212032498E+02  0.34231645107E+02 -0.98466681702E+01  0.48701144788E+02  0.51100000000E-03 0.  1.
         11    1    1    0    0    0 -0.79242645852E+01  0.11296222612E+02 -0.15659757195E+01  0.13887076537E+02  0.51100000000E-03 0. -1.
         22    1    1    0    0    0  0.41136297083E+02 -0.45527867720E+02  0.11412643890E+02  0.62411778675E+02  0.00000000000E+00 0.  1.
</event>
<event>
 4    1  0.1974401E-002  0.9118800E+02  0.7818608E-02  0.1130116E+00
         25   -1    0    0    0    0  0.00000000000E+00  0.00000000000E+00  0.99999998245E-14  0.12500000000E+03  0.12500000000E+03 0.  0.
        -11    1    1    0    0    0  0.19282396112E+02  0.41721286380E+02 -0.60270004091E+01  0.46355164451E+02  0.51100000000E-03 0.  1.
         11    1    1    0    0    0  0.67164055186E+01  0.14530803425E+02 -0.20979428587E+01  0.16144835575E+02  0.51100000000E-03 0. -1.
         22    1    1    0    0    0 -0.25998801631E+02 -0.56252089805E+02  0.81249432677E+01  0.62499999974E+02  0.00000000000E+00 0.  1.
</event>
<event>
 4    1  0.1974401E-002  0.9118800E+02  0.7818608E-02  0.1130116E+00
         25   -1    0    0    0    0  0.00000000000E+00  0.00000000000E+00  0.99999998245E-14  0.12500000000E+03  0.12500000000E+03 0.  0.
        -11    1    1    0    0    0  0.47567676345E+02  0.36543943709E+02 -0.14272824811E+02  0.61659201933E+02  0.51100000000E-03 0. -1.
         11    1    1    0    0    0  0.64911528092E+00  0.49791263232E+00 -0.19409779459E+00  0.84079834225E+00  0.51100000000E-03 0.  1.
         22    1    1    0    0    0 -0.48216791626E+02 -0.37041856342E+02  0.14466922606E+02  0.62499999725E+02  0.00000000000E+00 0. -1.
</event>
<event>
 4    1  0.1974401E-002  0.9118800E+02  0.7818608E-02  0.1130116E+00
         25   -1    0    0    0    0  0.00000000000E+00  0.00000000000E+00  0.99999998245E-14  0.12500000000E+03  0.12500000000E+03 0.  0.
        -11    1    1    0    0    0  0.21346460856E+02 -0.31115140690E+02  0.34448950809E+02  0.51093576733E+02  0.51100000000E-03 0.  1.
         11    1    1    0    0    0  0.48727273727E+01 -0.69030641549E+01  0.76626697278E+01  0.11406676746E+02  0.51100000000E-03 0. -1.
         22    1    1    0    0    0 -0.26219188229E+02  0.38018204845E+02 -0.42111620536E+02  0.62499746521E+02  0.00000000000E+00 0.  1.
</event>
<event>
 4    1  0.1974401E-002  0.9118800E+02  0.7818608E-02  0.1130116E+00
         25   -1    0    0    0    0  0.00000000000E+00  0.00000000000E+00  0.99999998245E-14  0.12500000000E+03  0.12500000000E+03 0.  0.
        -11    1    1    0    0    0 -0.20658166176E+02  0.43413060696E+02  0.31965862275E+02  0.57734478607E+02  0.51100000000E-03 0.  1.
         11    1    1    0    0    0 -0.16266530545E+01  0.24563993889E+01  0.39233867789E+01  0.49064103166E+01  0.51100000000E-03 0. -1.
         22    1    1    0    0    0  0.22284819231E+02 -0.45869460085E+02 -0.35889249054E+02  0.62359111077E+02  0.00000000000E+00 0.  1.
</event>
<event>
 4    1  0.1974401E-002  0.9118800E+02  0.7818608E-02  0.1130116E+00
         25   -1    0    0    0    0  0.00000000000E+00  0.00000000000E+00  0.99999998245E-14  0.12500000000E+03  0.12500000000E+03 0.  0.
        -11    1    1    0    0    0  0.30739202220E+02 -0.29854051880E+02 -0.29934217423E+02  0.52270645106E+02  0.51100000000E-03 0.  1.
         11    1    1    0    0    0  0.59864551536E+01 -0.58998417307E+01 -0.58306067467E+01  0.10229455169E+02  0.51100000000E-03 0. -1.
         22    1    1    0    0    0 -0.36725657373E+02  0.35753893611E+02  0.35764824170E+02  0.62499899726E+02  0.00000000000E+00 0.  1.
</event>
<event>
 4    1  0.1974401E-002  0.9118800E+02  0.7818608E-02  0.1130116E+00
         25   -1    0    0    0    0  0.00000000000E+00  0.00000000000E+00  0.99999998245E-14  0.12500000000E+03  0.12500000000E+03 0.  0.
        -11    1    1    0    0    0 -0.23634490138E+02  0.66601405786E+01 -0.25023435605E+02  0.35058792426E+02  0.51100000000E-03 0.  1.
         11    1    1    0    0    0 -0.18499408672E+02  0.52133884590E+01 -0.19586023914E+02  0.27441207580E+02  0.51100000000E-03 0.  1.
         22    1    1    0    0    0  0.42133898809E+02 -0.11873529038E+02  0.44609459519E+02  0.62499999994E+02  0.00000000000E+00 0.  1.
</event>
<event>
 4    1  0.1974401E-002  0.9118800E+02  0.7818608E-02  0.1130116E+00
         25   -1    0    0    0    0  0.00000000000E+00  0.00000000000E+00  0.99999998245E-14  0.12500000000E+03  0.12500000000E+03 0.  0.
        -11    1    1    0    0    0  0.21847219103E+02 -0.34811097460E+02  0.12472279388E+02  0.42949636114E+02  0.51100000000E-03 0. -1.
         11    1    1    0    0    0  0.99557737802E+01 -0.15842531187E+02  0.56668849440E+01  0.19550366012E+02  0.51100000000E-03 0.  1.
         22    1    1    0    0    0 -0.31802992884E+02  0.50653628648E+02 -0.18139164332E+02  0.62499997874E+02  0.00000000000E+00 0. -1.
</event>
<event>
 4    1  0.1974401E-002  0.9118800E+02  0.7818608E-02  0.1130116E+00
         25   -1    0    0    0    0  0.00000000000E+00  0.00000000000E+00  0.99999998245E-14  0.12500000000E+03  0.12500000000E+03 0.  0.
        -11    1    1    0    0    0  0.23378623691E+02  0.25371152765E+02 -0.31864082513E+01  0.34646913803E+02  0.51100000000E-03 0.  1.
         11    1    1    0    0    0  0.22006617424E+02  0.17246313145E+02 -0.76391318984E+00  0.27969806777E+02  0.51100000000E-03 0. -1.
         22    1    1    0    0    0 -0.45385241115E+02 -0.42617465909E+02  0.39503214412E+01  0.62383279419E+02  0.00000000000E+00 0. -1.
</event>
<event>
 4    1  0.1974401E-002  0.9118800E+02  0.7818608E-02  0.1130116E+00
         25   -1    0    0    0    0  0.00000000000E+00  0.00000000000E+00  0.99999998245E-14  0.12500000000E+03  0.12500000000E+03 0.  0.
        -11    1    1    0    0    0 -0.27477085697E+02 -0.49578446654E+02  0.58722542723E+01  0.56986805328E+02  0.51100000000E-03 0. -1.
         11    1    1    0    0    0 -0.26626324182E+01 -0.47914156803E+01  0.59015385111E+00  0.55132166151E+01  0.51100000000E-03 0.  1.
         22    1    1    0    0    0  0.30139718115E+02  0.54369862334E+02 -0.64624081234E+01  0.62499978057E+02  0.00000000000E+00 0. -1.
</event>
<event>
 4    1  0.1974401E-002  0.9118800E+02  0.7818608E-02  0.1130116E+00
         25   -1    0    0    0    0  0.00000000000E+00  0.00000000000E+00  0.99999998245E-14  0.12500000000E+03  0.12500000000E+03 0.  0.
        -11    1    1    0    0    0  0.12825632884E+02  0.27177395722E+01 -0.13973597786E+02  0.19161012567E+02  0.51100000000E-03 0.  1.
         11    1    1    0    0    0  0.33625609201E+02  0.11516511046E+02 -0.25083577434E+02  0.43502844481E+02  0.51100000000E-03 0. -1.
         22    1    1    0    0    0 -0.46451242085E+02 -0.14234250618E+02  0.39057175220E+02  0.62336142951E+02  0.00000000000E+00 0. -1.
</event>
<event>
 4    1  0.1974401E-002  0.9118800E+02  0.7818608E-02  0.1130116E+00
         25   -1    0    0    0    0  0.00000000000E+00  0.00000000000E+00  0.99999998245E-14  0.12500000000E+03  0.12500000000E+03 0.  0.
        -11    1    1    0    0    0 -0.22466793011E+01  0.88719658687E+01  0.10384795561E+02  0.13842085297E+02  0.51100000000E-03 0. -1.
         11    1    1    0    0    0 -0.78845988971E+01  0.31196244520E+02  0.36499590724E+02  0.48657915031E+02  0.51100000000E-03 0.  1.
         22    1    1    0    0    0  0.10131278198E+02 -0.40068210388E+02 -0.46884386285E+02  0.62499999672E+02  0.00000000000E+00 0.  1.
</event>
<event>
 4    1  0.1974401E-002  0.9118800E+02  0.7818608E-02  0.1130116E+00
         25   -1    0    0    0    0  0.00000000000E+00  0.00000000000E+00  0.99999998245E-14  0.12500000000E+03  0.12500000000E+03 0.  0.
        -11    1    1    0    0    0 -0.13890596086E+00 -0.65149359646E-01  0.31538116865E-01  0.15663402874E+00  0.51100000000E-03 0.  1.
         11    1    1    0    0    0 -0.51426631779E+02 -0.32480886746E+02  0.13677093847E+02  0.62343960063E+02  0.51100000000E-03 0. -1.
         22    1    1    0    0    0  0.51565537740E+02  0.32546036106E+02 -0.13708631964E+02  0.62499405909E+02  0.00000000000E+00 0. -1.
</event>
<event>
 4    1  0.1974401E-002  0.9118800E+02  0.7818608E-02  0.1130116E+00
         25   -1    0    0    0    0  0.00000000000E+00  0.00000000000E+00  0.99999998245E-14  0.12500000000E+03  0.12500000000E+03 0.  0.
        -11    1    1    0    0    0 -0.32351456533E+02  0.18843909799E+02 -0.38632842433E+01  0.37638207207E+02  0.51100000000E-03 0. -1.
         11    1    1    0    0    0 -0.21369656314E+02  0.12448105582E+02 -0.25477838513E+01  0.24861792903E+02  0.51100000000E-03 0.  1.
         22    1    1    0    0    0  0.53721112847E+02 -0.31292015381E+02  0.64110680946E+01  0.62499999890E+02  0.00000000000E+00 0. -1.
</event>
<event>
 4    1  0.1974401E-002  0.9118800E+02  0.7818608E-02  0.1130116E+00
         25   -1    0    0    0    0  0.00000000000E+00  0.00000000000E+00  0.99999998245E-14  0.12500000000E+03  0.12500000000E+03 0.  0.
        -11    1    1    0    0    0 -0.36512883511E+00 -0.11232309825E+02 -0.62451640349E+01  0.12856911649E+02  0.51100000000E-03 0. -1.
         11    1    1    0    0    0 -0.46093604177E+01 -0.44185605343E+02 -0.22188400774E+02  0.49658222403E+02  0.51100000000E-03 0.  1.
         22    1    1    0    0    0  0.49744892528E+01  0.55417915168E+02  0.28433564809E+02  0.62484865949E+02  0.00000000000E+00 0.  1.
</event>
<event>
 4    1  0.1974401E-002  0.9118800E+02  0.7818608E-02  0.1130116E+00
         25   -1    0    0    0    0  0.00000000000E+00  0.00000000000E+00  0.99999998245E-14  0.12500000000E+03  0.12500000000E+03 0.  0.
        -11    1    1    0    0    0 -0.37663878584E+02 -0.31480885433E+02  0.35421606328E+02  0.60533495626E+02  0.51100000000E-03 0.  1.
         11    1    1    0    0    0 -0.12241742381E+01 -0.10226856861E+01  0.11500657099E+01  0.19665045070E+01  0.51100000000E-03 0. -1.
         22    1    1    0    0    0  0.38888052822E+02  0.32503571119E+02 -0.36571672038E+02  0.62499999867E+02  0.00000000000E+00 0.  1.
</event>
<event>
 4    1  0.1974401E-002  0.9118800E+02  0.7818608E-02  0.1130116E+00
         25   -1    0    0    0    0  0.00000000000E+00  0.00000000000E+00  0.99999998245E-14  0.12500000000E+03  0.12500000000E+03 0.  0.
        -11    1    1    0    0    0  0.78374372289E+01  0.23194061193E+02 -0.28326799217E+02  0.37440585614E+02  0.51100000000E-03 0. -1.
         11    1    1    0    0    0  0.62866402288E+01  0.14836761876E+02 -0.19204347837E+02  0.25069071072E+02  0.51100000000E-03 0.  1.
         22    1    1    0    0    0 -0.14124077458E+02 -0.38030823069E+02  0.47531147053E+02  0.62490343314E+02  0.00000000000E+00 0.  1.
</event>
<event>
 4    1  0.1974401E-002  0.9118800E+02  0.7818608E-02  0.1130116E+00
         25   -1    0    0    0    0  0.00000000000E+00  0.00000000000E+00  0.99999998245E-14  0.12500000000E+03  0.12500000000E+03 0.  0.
        -11    1    1    0    0    0  0.23647751974E+01 -0.44525736635E+02  0.12657222891E+02  0.46350174500E+02  0.51100000000E-03 0. -1.
         11    1    1    0    0    0 -0.18961445198E+02 -0.84209384489E+01  0.30793471563E+01  0.20974531878E+02  0.51100000000E-03 0.  1.
         22    1    1    0    0    0  0.16596670000E+02  0.52946675084E+02 -0.15736570047E+02  0.57675293622E+02  0.00000000000E+00 0. -1.
</event>
<event>
 4    1  0.1974401E-002  0.9118800E+02  0.7818608E-02  0.1130116E+00
         25   -1    0    0    0    0  0.00000000000E+00  0.00000000000E+00  0.99999998245E-14  0.12500000000E+03  0.12500000000E+03 0.  0.
        -11    1    1    0    0    0 -0.20035966746E+01 -0.42774725535E+01 -0.18443444137E+02  0.19038692260E+02  0.51100000000E-03 0. -1.
         11    1    1    0    0    0 -0.46053190878E+01 -0.10816862745E+02 -0.41843169584E+02  0.43463367617E+02  0.51100000000E-03 0.  1.
         22    1    1    0    0    0  0.66089157624E+01  0.15094335298E+02  0.60286613721E+02  0.62497940123E+02  0.00000000000E+00 0.  1.
</event>
<event>
 4    1  0.1974401E-002  0.9118800E+02  0.7818608E-02  0.1130116E+00
         25   -1    0    0    0    0  0.00000000000E+00  0.00000000000E+00  0.99999998245E-14  0.12500000000E+03  0.12500000000E+03 0.  0.
        -11    1    1    0    0    0 -0.44945452176E+02  0.22110744327E+02  0.12662832337E+02  0.51665520504E+02  0.51100000000E-03 0. -1.
         11    1    1    0    0    0  0.47748827057E+01 -0.11889978415E+02  0.17772948562E+02  0.21910015801E+02  0.51100000000E-03 0.  1.
         22    1    1    0    0    0  0.40170569470E+02 -0.10220765912E+02 -0.30435780899E+02  0.51424463695E+02  0.00000000000E+00 0. -1.
</event>
<event>
 4    1  0.1974401E-002  0.9118800E+02  0.7818608E-02  0.1130116E+00
         25   -1    0    0    0    0  0.00000000000E+00  0.00000000000E+00  0.99999998245E-14  0.12500000000E+03  0.12500000000E+03 0.  0.
        -11    1    1    0    0    0 -0.17268873799E+02  0.33118985541E+01  0.25228275443E+01  0.17763652029E+02  0.51100000000E-03 0.  1.
         11    1    1    0    0    0 -0.43725728054E+02  0.65685612350E+01  0.68368822725E+01  0.44741795338E+02  0.51100000000E-03 0. -1.
         22    1    1    0    0    0  0.60994601854E+02 -0.98804597891E+01 -0.93597098168E+01  0.62494552633E+02  0.00000000000E+00 0. -1.
</event>
<event>
 4    1  0.1974401E-002  0.9118800E+02  0.7818608E-02  0.1130116E+00
         25   -1    0    0    0    0  0.00000000000E+00  0.00000000000E+00  0.99999998245E-14  0.12500000000E+03  0.12500000000E+03 0.  0.
        -11    1    1    0    0    0 -0.12349097669E+02  0.38310240040E+02 -0.37297742728E+02  0.54875279663E+02  0.51100000000E-03 0. -1.
         11    1    1    0    0    0 -0.17161198922E+01  0.53235264310E+01 -0.51818297175E+01  0.76247203639E+01  0.51100000000E-03 0.  1.
         22    1    1    0    0    0  0.14065217561E+02 -0.43633766471E+02  0.42479572446E+02  0.62499999973E+02  0.00000000000E+00 0. -1.
</event>
<event>
 4    1  0.1974401E-002  0.9118800E+02  0.7818608E-02  0.1130116E+00
         25   -1    0    0    0    0  0.00000000000E+00  0.00000000000E+00  0.99999998245E-14  0.12500000000E+03  0.12500000000E+03 0.  0.
        -11    1    1    0    0    0 -0.48669083763E+02 -0.14269017840E+02 -0.20920364195E+02  0.54862976795E+02  0.51100000000E-03 0. -1.
         11    1    1    0    0    0 -0.67810847512E+01 -0.20105019595E+01 -0.28809023368E+01  0.76370692721E+01  0.51100000000E-03 0.  1.
         22    1    1    0    0    0  0.55450168514E+02  0.16279519800E+02  0.23801266532E+02  0.62499953933E+02  0.00000000000E+00 0. -1.
</event>
<event>
 4    1  0.1974401E-002  0.9118800E+02  0.7818608E-02  0.1130116E+00
         25   -1    0    0    0    0  0.00000000000E+00  0.00000000000E+00  0.99999998245E-14  0.12500000000E+03  0.12500000000E+03 0.  0.
        -11    1    1    0    0    0 -0.96229939454E+01 -0.34208766643E+01  0.15062870729E+02  0.18198749530E+02  0.51100000000E-03 0. -1.
         11    1    1    0    0    0 -0.23425102839E+02 -0.83220357305E+01  0.36668911576E+02  0.44301250526E+02  0.51100000000E-03 0.  1.
         22    1    1    0    0    0  0.33048096784E+02  0.11742912395E+02 -0.51731782305E+02  0.62499999944E+02  0.00000000000E+00 0.  1.
</event>
<event>
 4    1  0.1974401E-002  0.9118800E+02  0.7818608E-02  0.1130116E+00
         25   -1    0    0    0    0  0.00000000000E+00  0.00000000000E+00  0.99999998245E-14  0.12500000000E+03  0.12500000000E+03 0.  0.
        -11    1    1    0    0    0  0.50586575857E+01 -0.20151522269E+02 -0.22423410886E+02  0.30569318316E+02  0.51100000000E-03 0.  1.
         11    1    1    0    0    0  0.42705354120E+01 -0.21273575230E+02 -0.23431378221E+02  0.31934807990E+02  0.51100000000E-03 0. -1.
         22    1    1    0    0    0 -0.93291929978E+01  0.41425097499E+02  0.45854789106E+02  0.62495873694E+02  0.00000000000E+00 0. -1.
</event>
<event>
 4    1  0.1974401E-002  0.9118800E+02  0.7818608E-02  0.1130116E+00
         25   -1    0    0    0    0  0.00000000000E+00  0.00000000000E+00  0.99999998245E-14  0.12500000000E+03  0.12500000000E+03 0.  0.
        -11    1    1    0    0    0 -0.37990628306E+02  0.25602735932E+02  0.18360453582E+02  0.49354778718E+02  0.51100000000E-03 0. -1.
         11    1    1    0    0    0 -0.93767730882E+01  0.92423171707E+01  0.22047366730E+01  0.13349350707E+02  0.51100000000E-03 0.  1.
         22    1    1    0    0    0  0.47367401394E+02 -0.34845053103E+02 -0.20565190255E+02  0.62295870576E+02  0.00000000000E+00 0.  1.
</event>
<event>
 4    1  0.1974401E-002  0.9118800E+02  0.7818608E-02  0.1130116E+00
         25   -1    0    0    0    0  0.00000000000E+00  0.00000000000E+00  0.99999998245E-14  0.12500000000E+03  0.12500000000E+03 0.  0.
        -11    1    1    0    0    0  0.68060181859E+01 -0.37079003080E+01 -0.29355451540E+01  0.82878123683E+01  0.51100000000E-03 0.  1.
         11    1    1    0    0    0  0.44553170699E+02 -0.24335688729E+02 -0.19019811776E+02  0.54212212697E+02  0.51100000000E-03 0. -1.
         22    1    1    0    0    0 -0.51359188885E+02  0.28043589037E+02  0.21955356930E+02  0.62499974935E+02  0.00000000000E+00 0. -1.
</event>
<event>
 4    1  0.1974401E-002  0.9118800E+02  0.7818608E-02  0.1130116E+00
         25   -1    0    0    0    0  0.00000000000E+00  0.00000000000E+00  0.99999998245E-14  0.12500000000E+03  0.12500000000E+03 0.  0.
        -11    1    1    0    0    0  0.35938957029E+01 -0.16011663846E+01 -0.24592321739E+01  0.46397891397E+01  0.51100000000E-03 0. -1.
         11    1    1    0    0    0  0.44820991267E+02 -0.19962901830E+02 -0.30665376176E+02  0.57860210887E+02  0.51100000000E-03 0. -1.
         22    1    1    0    0    0 -0.48414886970E+02  0.21564068215E+02  0.33124608350E+02  0.62499999973E+02  0.00000000000E+00 0. -1.
</event>
<event>
 4    1  0.1974401E-002  0.9118800E+02  0.7818608E-02  0.1130116E+00
         25   -1    0    0    0    0  0.00000000000E+00  0.00000000000E+00  0.99999998245E-14  0.12500000000E+03  0.12500000000E+03 0.  0.
        -11    1    1    0    0    0 -0.81793332560E+01  0.50440842844E+01 -0.17423920196E+02  0.19898172631E+02  0.51100000000E-03 0. -1.
         11    1    1    0    0    0 -0.17510983292E+02  0.10799581648E+02 -0.37304828051E+02  0.42601827376E+02  0.51100000000E-03 0. -1.
         22    1    1    0    0    0  0.25690316548E+02 -0.15843665932E+02  0.54728748247E+02  0.62499999993E+02  0.00000000000E+00 0. -1.
</event>
<event>
 4    1  0.1974401E-002  0.9118800E+02  0.7818608E-02  0.1130116E+00
         25   -1    0    0    0    0  0.00000000000E+00  0.00000000000E+00  0.99999998245E-14  0.12500000000E+03  0.12500000000E+03 0.  0.
        -11    1    1    0    0    0 -0.16477469224E+01  0.17635726740E+01 -0.38834464838E+01  0.45723533712E+01  0.51100000000E-03 0.  1.
         11    1    1    0    0    0 -0.22088183052E+02  0.25630704129E+02 -0.47025669077E+02  0.57933016295E+02  0.51100000000E-03 0. -1.
         22    1    1    0    0    0  0.23735929975E+02 -0.27394276803E+02  0.50909115561E+02  0.62494630333E+02  0.00000000000E+00 0. -1.
</event>
<event>
 4    1  0.1974401E-002  0.9118800E+02  0.7818608E-02  0.1130116E+00
         25   -1    0    0    0    0  0.00000000000E+00  0.00000000000E+00  0.99999998245E-14  0.12500000000E+03  0.12500000000E+03 0.  0.
        -11    1    1    0    0    0 -0.10864240595E+02 -0.87873993514E+01  0.22892524271E+02  0.26820100276E+02  0.51100000000E-03 0. -1.
         11    1    1    0    0    0 -0.12643377174E+02 -0.17514992412E+02  0.28551648435E+02  0.35802605689E+02  0.51100000000E-03 0.  1.
         22    1    1    0    0    0  0.23507617769E+02  0.26302391764E+02 -0.51444172706E+02  0.62377294034E+02  0.00000000000E+00 0.  1.
</event>
<event>
 4    1  0.1974401E-002  0.9118800E+02  0.7818608E-02  0.1130116E+00
         25   -1    0    0    0    0  0.00000000000E+00  0.00000000000E+00  0.99999998245E-14  0.12500000000E+03  0.12500000000E+03 0.  0.
        -11    1    1    0    0    0  0.24875469093E+02  0.14372416017E+02  0.31161358964E+01  0.28897501760E+02  0.51100000000E-03 0.  1.
         11    1    1    0    0    0  0.28939267047E+02  0.16684376539E+02  0.36439831356E+01  0.33602503048E+02  0.51100000000E-03 0. -1.
         22    1    1    0    0    0 -0.53814736140E+02 -0.31056792556E+02 -0.67601190320E+01  0.62499995192E+02  0.00000000000E+00 0.  1.
</event>
<event>
 4    1  0.1974401E-002  0.9118800E+02  0.7818608E-02  0.1130116E+00
         25   -1    0    0    0    0  0.00000000000E+00  0.00000000000E+00  0.99999998245E-14  0.12500000000E+03  0.12500000000E+03 0.  0.
        -11    1    1    0    0    0 -0.30297018818E+01  0.20979547709E+00  0.16405977224E+01  0.34517631412E+01  0.51100000000E-03 0. -1.
         11    1    1    0    0    0 -0.12610011526E+02  0.56751350137E+02  0.15267445049E+02  0.60106763443E+02  0.51100000000E-03 0.  1.
         22    1    1    0    0    0  0.15639713408E+02 -0.56961145614E+02 -0.16908042771E+02  0.61441473416E+02  0.00000000000E+00 0.  1.
</event>
<event>
 4    1  0.1974401E-002  0.9118800E+02  0.7818608E-02  0.1130116E+00
         25   -1    0    0    0    0  0.00000000000E+00  0.00000000000E+00  0.99999998245E-14  0.12500000000E+03  0.12500000000E+03 0.  0.
        -11    1    1    0    0    0 -0.50274651943E+02  0.36153366297E+01 -0.16697850816E+02  0.53098300435E+02  0.51100000000E-03 0.  1.
         11    1    1    0    0    0 -0.89078061922E+01  0.64148209231E+00 -0.29379597511E+01  0.94017082592E+01  0.51100000000E-03 0. -1.
         22    1    1    0    0    0  0.59182458136E+02 -0.42568187221E+01  0.19635810567E+02  0.62499991306E+02  0.00000000000E+00 0.  1.
</event>
<event>
 4    1  0.1974401E-002  0.9118800E+02  0.7818608E-02  0.1130116E+00
         25   -1    0    0    0    0  0.00000000000E+00  0.00000000000E+00  0.99999998245E-14  0.12500000000E+03  0.12500000000E+03 0.  0.
        -11    1    1    0    0    0  0.11074561517E+01  0.11278231629E+01  0.20867232687E+01  0.26177964925E+01  0.51100000000E-03 0.  1.
         11    1    1    0    0    0  0.25326766115E+02  0.25806793102E+02  0.47733035205E+02  0.59882203551E+02  0.51100000000E-03 0.  1.
         22    1    1    0    0    0 -0.26434222266E+02 -0.26934616265E+02 -0.49819758474E+02  0.62499999956E+02  0.00000000000E+00 0.  1.
</event>
<event>
 4    1  0.1974401E-002  0.9118800E+02  0.7818608E-02  0.1130116E+00
         25   -1    0    0    0    0  0.00000000000E+00  0.00000000000E+00  0.99999998245E-14  0.12500000000E+03  0.12500000000E+03 0.  0.
        -11    1    1    0    0    0 -0.82608638959E+01 -0.16810283672E+02  0.20828916361E+01  0.18845846950E+02  0.51100000000E-03 0. -1.
         11    1    1    0    0    0 -0.11383212725E+02 -0.41941236263E+02  0.52438639605E+01  0.43773770007E+02  0.51100000000E-03 0.  1.
         22    1    1    0    0    0  0.19644076621E+02  0.58751519935E+02 -0.73267555966E+01  0.62380383042E+02  0.00000000000E+00 0.  1.
</event>
<event>
 4    1  0.1974401E-002  0.9118800E+02  0.7818608E-02  0.1130116E+00
         25   -1    0    0    0    0  0.00000000000E+00  0.00000000000E+00  0.99999998245E-14  0.12500000000E+03  0.12500000000E+03 0.  0.
        -11    1    1    0    0    0 -0.26932656948E+02 -0.91030320882E+01  0.53157667610E+01  0.28922146878E+02  0.51100000000E-03 0.  1.
         11    1    1    0    0    0 -0.31311769260E+02 -0.11549299051E+02  0.38848682655E+01  0.33599187557E+02  0.51100000000E-03 0. -1.
         22    1    1    0    0    0  0.58244426209E+02  0.20652331139E+02 -0.92006350264E+01  0.62478665565E+02  0.00000000000E+00 0.  1.
</event>
<event>
 4    1  0.1974401E-002  0.9118800E+02  0.7818608E-02  0.1130116E+00
         25   -1    0    0    0    0  0.00000000000E+00  0.00000000000E+00  0.99999998245E-14  0.12500000000E+03  0.12500000000E+03 0.  0.
        -11    1    1    0    0    0  0.30956415596E+01  0.15549811659E+02 -0.33189056354E+02  0.36781695192E+02  0.51100000000E-03 0.  1.
         11    1    1    0    0    0  0.18442320107E+01  0.10777401618E+02 -0.23279004208E+02  0.25718973823E+02  0.51100000000E-03 0. -1.
         22    1    1    0    0    0 -0.49398735703E+01 -0.26327213277E+02  0.56468060562E+02  0.62499330984E+02  0.00000000000E+00 0.  1.
</event>
<event>
 4    1  0.1974401E-002  0.9118800E+02  0.7818608E-02  0.1130116E+00
         25   -1    0    0    0    0  0.00000000000E+00  0.00000000000E+00  0.99999998245E-14  0.12500000000E+03  0.12500000000E+03 0.  0.
        -11    1    1    0    0    0  0.45202198234E+01  0.24180428431E+02  0.55751206130E+01  0.25223153579E+02  0.51100000000E-03 0. -1.
         11    1    1    0    0    0  0.11045636815E+02  0.35864365963E+02 -0.36154763166E+00  0.37528516564E+02  0.51100000000E-03 0.  1.
         22    1    1    0    0    0 -0.15565856638E+02 -0.60044794394E+02 -0.52135729813E+01  0.62248329857E+02  0.00000000000E+00 0. -1.
</event>
<event>
 4    1  0.1974401E-002  0.9118800E+02  0.7818608E-02  0.1130116E+00
         25   -1    0    0    0    0  0.00000000000E+00  0.00000000000E+00  0.99999998245E-14  0.12500000000E+03  0.12500000000E+03 0.  0.
        -11    1    1    0    0    0  0.45954610750E+01  0.88619818440E+00 -0.31745635839E+01  0.56552156389E+01  0.51100000000E-03 0. -1.
         11    1    1    0    0    0  0.45864444154E+02  0.71974131813E+01 -0.32804770545E+02  0.56846310037E+02  0.51100000000E-03 0.  1.
         22    1    1    0    0    0 -0.50459905229E+02 -0.80836113657E+01  0.35979334129E+02  0.62498474324E+02  0.00000000000E+00 0.  1.
</event>
<event>
 4    1  0.1974401E-002  0.9118800E+02  0.7818608E-02  0.1130116E+00
         25   -1    0    0    0    0  0.00000000000E+00  0.00000000000E+00  0.99999998245E-14  0.12500000000E+03  0.12500000000E+03 0.  0.
        -11    1    1    0    0    0 -0.21361122304E+02 -0.32212124997E+02  0.15384131259E+02  0.41600361029E+02  0.51100000000E-03 0.  1.
         11    1    1    0    0    0 -0.16569588394E+02  0.32181039606E+02  0.10249540826E+02  0.37619458490E+02  0.51100000000E-03 0. -1.
         22    1    1    0    0    0  0.37930710697E+02  0.31085390952E-01 -0.25633672085E+02  0.45780180481E+02  0.00000000000E+00 0.  1.
</event>
<event>
 4    1  0.1974401E-002  0.9118800E+02  0.7818608E-02  0.1130116E+00
         25   -1    0    0    0    0  0.00000000000E+00  0.00000000000E+00  0.99999998245E-14  0.12500000000E+03  0.12500000000E+03 0.  0.
        -11    1    1    0    0    0  0.40641880310E+02  0.44852817875E+01 -0.29907464553E+02  0.50659023126E+02  0.51100000000E-03 0. -1.
         11    1    1    0    0    0  0.94759490805E+01  0.10973302813E+01 -0.70151572691E+01  0.11841037813E+02  0.51100000000E-03 0.  1.
         22    1    1    0    0    0 -0.50117829391E+02 -0.55826120688E+01  0.36922621822E+02  0.62499939060E+02  0.00000000000E+00 0. -1.
</event>
<event>
 4    1  0.1974401E-002  0.9118800E+02  0.7818608E-02  0.1130116E+00
         25   -1    0    0    0    0  0.00000000000E+00  0.00000000000E+00  0.99999998245E-14  0.12500000000E+03  0.12500000000E+03 0.  0.
        -11    1    1    0    0    0 -0.73473380989E+01 -0.39612904348E+02  0.21310988493E+02  0.45577667765E+02  0.51100000000E-03 0. -1.
         11    1    1    0    0    0 -0.27210404860E+01 -0.14708631644E+02  0.79131182202E+01  0.16922332771E+02  0.51100000000E-03 0.  1.
         22    1    1    0    0    0  0.10068378585E+02  0.54321535993E+02 -0.29224106713E+02  0.62499999465E+02  0.00000000000E+00 0. -1.
</event>
<event>
 4    1  0.1974401E-002  0.9118800E+02  0.7818608E-02  0.1130116E+00
         25   -1    0    0    0    0  0.00000000000E+00  0.00000000000E+00  0.99999998245E-14  0.12500000000E+03  0.12500000000E+03 0.  0.
        -11    1    1    0    0    0  0.74865818624E+01 -0.26563283111E+02 -0.47286088082E+02  0.54750625969E+02  0.51100000000E-03 0.  1.
         11    1    1    0    0    0  0.10539872661E+01 -0.37591206431E+01 -0.66940970624E+01  0.77493750012E+01  0.51100000000E-03 0. -1.
         22    1    1    0    0    0 -0.85405691285E+01  0.30322403754E+02  0.53980185145E+02  0.62499999030E+02  0.00000000000E+00 0.  1.
</event>
<event>
 4    1  0.1974401E-002  0.9118800E+02  0.7818608E-02  0.1130116E+00
         25   -1    0    0    0    0  0.00000000000E+00  0.00000000000E+00  0.99999998245E-14  0.12500000000E+03  0.12500000000E+03 0.  0.
        -11    1    1    0    0    0 -0.49713249115E+01 -0.16744544522E+01  0.67511991536E+01  0.85496525871E+01  0.51100000000E-03 0. -1.
         11    1    1    0    0    0 -0.23483294660E+02  0.26515412046E+01  0.48692026888E+02  0.54124017604E+02  0.51100000000E-03 0.  1.
         22    1    1    0    0    0  0.28454619572E+02 -0.97708675238E+00 -0.55443226042E+02  0.62326329809E+02  0.00000000000E+00 0.  1.
</event>
<event>
 4    1  0.1974401E-002  0.9118800E+02  0.7818608E-02  0.1130116E+00
         25   -1    0    0    0    0  0.00000000000E+00  0.00000000000E+00  0.99999998245E-14  0.12500000000E+03  0.12500000000E+03 0.  0.
        -11    1    1    0    0    0  0.95261987866E+01  0.43270450425E+01  0.11916448480E+02  0.15857916848E+02  0.51100000000E-03 0. -1.
         11    1    1    0    0    0  0.27389078062E+02  0.13165531199E+02  0.35384744261E+02  0.46643037374E+02  0.51100000000E-03 0.  1.
         22    1    1    0    0    0 -0.36915276848E+02 -0.17492576242E+02 -0.47301192741E+02  0.62499045777E+02  0.00000000000E+00 0. -1.
</event>
<event>
 4    1  0.1974401E-002  0.9118800E+02  0.7818608E-02  0.1130116E+00
         25   -1    0    0    0    0  0.00000000000E+00  0.00000000000E+00  0.99999998245E-14  0.12500000000E+03  0.12500000000E+03 0.  0.
        -11    1    1    0    0    0 -0.37792055284E+01  0.20672662979E+02 -0.12827721274E+02  0.24620963068E+02  0.51100000000E-03 0.  1.
         11    1    1    0    0    0 -0.58145422495E+01  0.31808399777E+02 -0.19729121909E+02  0.37879037072E+02  0.51100000000E-03 0. -1.
         22    1    1    0    0    0  0.95937477779E+01 -0.52481062756E+02  0.32556843183E+02  0.62499999860E+02  0.00000000000E+00 0.  1.
</event>
<event>
 4    1  0.1974401E-002  0.9118800E+02  0.7818608E-02  0.1130116E+00
         25   -1    0    0    0    0  0.00000000000E+00  0.00000000000E+00  0.99999998245E-14  0.12500000000E+03  0.12500000000E+03 0.  0.
        -11    1    1    0    0    0  0.22659405872E+01  0.86822372831E+01 -0.18215549252E+01  0.91560795973E+01  0.51100000000E-03 0.  1.
         11    1    1    0    0    0  0.13135472605E+02  0.50604060230E+02 -0.10595407722E+02  0.53343923903E+02  0.51100000000E-03 0. -1.
         22    1    1    0    0    0 -0.15401413192E+02 -0.59286297513E+02  0.12416962648E+02  0.62499996500E+02  0.00000000000E+00 0. -1.
</event>
<event>
 4    1  0.1974401E-002  0.9118800E+02  0.7818608E-02  0.1130116E+00
         25   -1    0    0    0    0  0.00000000000E+00  0.00000000000E+00  0.99999998245E-14  0.12500000000E+03  0.12500000000E+03 0.  0.
        -11    1    1    0    0    0 -0.17254015064E+02  0.42263383843E+02 -0.21504337735E+02  0.50461184997E+02  0.51100000000E-03 0.  1.
         11    1    1    0    0    0 -0.41161059401E+01  0.10083215350E+02 -0.51302540595E+01  0.12038815012E+02  0.51100000000E-03 0.  1.
         22    1    1    0    0    0  0.21370121004E+02 -0.52346599193E+02  0.26634591795E+02  0.62499999991E+02  0.00000000000E+00 0.  1.
</event>
<event>
 4    1  0.1974401E-002  0.9118800E+02  0.7818608E-02  0.1130116E+00
         25   -1    0    0    0    0  0.00000000000E+00  0.00000000000E+00  0.99999998245E-14  0.12500000000E+03  0.12500000000E+03 0.  0.
        -11    1    1    0    0    0 -0.24025972095E+02  0.81431203580E+01  0.21294816322E+02  0.33121397113E+02  0.51100000000E-03 0. -1.
         11    1    1    0    0    0  0.38644547820E+01 -0.19370136999E+01  0.33180792510E+02  0.33461186839E+02  0.51100000000E-03 0.  1.
         22    1    1    0    0    0  0.20161517313E+02 -0.62061066581E+01 -0.54475608832E+02  0.58417416048E+02  0.00000000000E+00 0.  1.
</event>
<event>
 4    1  0.1974401E-002  0.9118800E+02  0.7818608E-02  0.1130116E+00
         25   -1    0    0    0    0  0.00000000000E+00  0.00000000000E+00  0.99999998245E-14  0.12500000000E+03  0.12500000000E+03 0.  0.
        -11    1    1    0    0    0 -0.30663075201E+02 -0.59323840627E+01  0.36793002694E+02  0.48261189468E+02  0.51100000000E-03 0. -1.
         11    1    1    0    0    0 -0.90459762583E+01 -0.17518922685E+01  0.10855639712E+02  0.14238810583E+02  0.51100000000E-03 0.  1.
         22    1    1    0    0    0  0.39709051459E+02  0.76842763312E+01 -0.47648642406E+02  0.62499999949E+02  0.00000000000E+00 0. -1.
</event>
<event>
 4    1  0.1974401E-002  0.9118800E+02  0.7818608E-02  0.1130116E+00
         25   -1    0    0    0    0  0.00000000000E+00  0.00000000000E+00  0.99999998245E-14  0.12500000000E+03  0.12500000000E+03 0.  0.
        -11    1    1    0    0    0  0.10519637020E+02 -0.83666738625E+01  0.57580639375E+01  0.14622561169E+02  0.51100000000E-03 0. -1.
         11    1    1    0    0    0  0.34384816992E+02 -0.27481159756E+02  0.18834030300E+02  0.47877452717E+02  0.51100000000E-03 0.  1.
         22    1    1    0    0    0 -0.44904454012E+02  0.35847833619E+02 -0.24592094237E+02  0.62499986114E+02  0.00000000000E+00 0.  1.
</event>
<event>
 4    1  0.1974401E-002  0.9118800E+02  0.7818608E-02  0.1130116E+00
         25   -1    0    0    0    0  0.00000000000E+00  0.00000000000E+00  0.99999998245E-14  0.12500000000E+03  0.12500000000E+03 0.  0.
        -11    1    1    0    0    0  0.19730636363E+02 -0.55958368978E+02  0.16869009381E+02  0.61686307620E+02  0.51100000000E-03 0. -1.
         11    1    1    0    0    0  0.22436787219E+00 -0.74619760157E+00  0.23601113985E+00  0.81415804480E+00  0.51100000000E-03 0.  1.
         22    1    1    0    0    0 -0.19955004236E+02  0.56704566580E+02 -0.17105020521E+02  0.62499534335E+02  0.00000000000E+00 0. -1.
</event>
<event>
 4    1  0.1974401E-002  0.9118800E+02  0.7818608E-02  0.1130116E+00
         25   -1    0    0    0    0  0.00000000000E+00  0.00000000000E+00  0.99999998245E-14  0.12500000000E+03  0.12500000000E+03 0.  0.
        -11    1    1    0    0    0 -0.34383862116E+02 -0.97260781062E+01  0.98435611816E+01  0.37064029278E+02  0.51100000000E-03 0.  1.
         11    1    1    0    0    0 -0.23592330156E+02 -0.66884291295E+01  0.67568884872E+01  0.25435971943E+02  0.51100000000E-03 0. -1.
         22    1    1    0    0    0  0.57976192272E+02  0.16414507236E+02 -0.16600449669E+02  0.62499998779E+02  0.00000000000E+00 0.  1.
</event>
<event>
 4    1  0.1974401E-002  0.9118800E+02  0.7818608E-02  0.1130116E+00
         25   -1    0    0    0    0  0.00000000000E+00  0.00000000000E+00  0.99999998245E-14  0.12500000000E+03  0.12500000000E+03 0.  0.
        -11    1    1    0    0    0 -0.55117864945E+01  0.16871629254E+02  0.14848603473E+02  0.23141147107E+02  0.51100000000E-03 0.  1.
         11    1    1    0    0    0 -0.92683017926E+01  0.28670206741E+02  0.25322720866E+02  0.39358891816E+02  0.51100000000E-03 0. -1.
         22    1    1    0    0    0  0.14780088287E+02 -0.45541835995E+02 -0.40171324339E+02  0.62499961077E+02  0.00000000000E+00 0. -1.
</event>
<event>
 4    1  0.1974401E-002  0.9118800E+02  0.7818608E-02  0.1130116E+00
         25   -1    0    0    0    0  0.00000000000E+00  0.00000000000E+00  0.99999998245E-14  0.12500000000E+03  0.12500000000E+03 0.  0.
        -11    1    1    0    0    0 -0.36946310266E+01  0.13146747199E+02  0.44075512664E+00  0.13663144795E+02  0.51100000000E-03 0. -1.
         11    1    1    0    0    0 -0.12105211954E+02  0.44783674065E+02 -0.16402385268E+02  0.49205201574E+02  0.51100000000E-03 0.  1.
         22    1    1    0    0    0  0.15799842980E+02 -0.57930421265E+02  0.15961630142E+02  0.62131653631E+02  0.00000000000E+00 0.  1.
</event>
<event>
 4    1  0.1974401E-002  0.9118800E+02  0.7818608E-02  0.1130116E+00
         25   -1    0    0    0    0  0.00000000000E+00  0.00000000000E+00  0.99999998245E-14  0.12500000000E+03  0.12500000000E+03 0.  0.
        -11    1    1    0    0    0  0.12891489531E+02  0.89898762345E+01 -0.78191556071E+01  0.17554132610E+02  0.51100000000E-03 0.  1.
         11    1    1    0    0    0  0.33006752621E+02  0.23016822235E+02 -0.20022766351E+02  0.44945867407E+02  0.51100000000E-03 0.  1.
         22    1    1    0    0    0 -0.45898242152E+02 -0.32006698469E+02  0.27841921958E+02  0.62499999983E+02  0.00000000000E+00 0.  1.
</event>
<event>
 4    1  0.1974401E-002  0.9118800E+02  0.7818608E-02  0.1130116E+00
         25   -1    0    0    0    0  0.00000000000E+00  0.00000000000E+00  0.99999998245E-14  0.12500000000E+03  0.12500000000E+03 0.  0.
        -11    1    1    0    0    0 -0.55385253299E+02  0.16493148702E+02  0.10962123572E+02  0.58819370879E+02  0.51100000000E-03 0.  1.
         11    1    1    0    0    0 -0.34685617235E+01  0.10290319113E+01  0.67620728468E+00  0.36806363114E+01  0.51100000000E-03 0. -1.
         22    1    1    0    0    0  0.58853815022E+02 -0.17522180613E+02 -0.11638330856E+02  0.62499992810E+02  0.00000000000E+00 0.  1.
</event>
<event>
 4    1  0.1974401E-002  0.9118800E+02  0.7818608E-02  0.1130116E+00
         25   -1    0    0    0    0  0.00000000000E+00  0.00000000000E+00  0.99999998245E-14  0.12500000000E+03  0.12500000000E+03 0.  0.
        -11    1    1    0    0    0  0.43392968596E+01  0.20068072267E+01  0.15231213590E+02  0.15963916818E+02  0.51100000000E-03 0. -1.
         11    1    1    0    0    0  0.19251484788E+02  0.74218659463E+01  0.41793039208E+02  0.46608603145E+02  0.51100000000E-03 0.  1.
         22    1    1    0    0    0 -0.23590781648E+02 -0.94286731729E+01 -0.57024252798E+02  0.62427480037E+02  0.00000000000E+00 0.  1.
</event>
<event>
 4    1  0.1974401E-002  0.9118800E+02  0.7818608E-02  0.1130116E+00
         25   -1    0    0    0    0  0.00000000000E+00  0.00000000000E+00  0.99999998245E-14  0.12500000000E+03  0.12500000000E+03 0.  0.
        -11    1    1    0    0    0 -0.20726643679E+01 -0.10793124537E+02  0.54164508540E+01  0.12252567689E+02  0.51100000000E-03 0.  1.
         11    1    1    0    0    0 -0.82364207723E+01 -0.44219024540E+02  0.22397634654E+02  0.50247535230E+02  0.51100000000E-03 0. -1.
         22    1    1    0    0    0  0.10309085140E+02  0.55012149077E+02 -0.27814085508E+02  0.62499897081E+02  0.00000000000E+00 0. -1.
</event>
<event>
 4    1  0.1974401E-002  0.9118800E+02  0.7818608E-02  0.1130116E+00
         25   -1    0    0    0    0  0.00000000000E+00  0.00000000000E+00  0.99999998245E-14  0.12500000000E+03  0.12500000000E+03 0.  0.
        -11    1    1    0    0    0  0.11220494505E+02  0.79124247081E+01 -0.10965508116E+02  0.17571235875E+02  0.51100000000E-03 0.  1.
         11    1    1    0    0    0  0.29235223130E+02  0.20196049939E+02 -0.27497240129E+02  0.44929688621E+02  0.51100000000E-03 0. -1.
         22    1    1    0    0    0 -0.40455717635E+02 -0.28108474647E+02  0.38462748245E+02  0.62499075504E+02  0.00000000000E+00 0. -1.
</event>
<event>
 4    1  0.1974401E-002  0.9118800E+02  0.7818608E-02  0.1130116E+00
         25   -1    0    0    0    0  0.00000000000E+00  0.00000000000E+00  0.99999998245E-14  0.12500000000E+03  0.12500000000E+03 0.  0.
        -11    1    1    0    0    0 -0.20317158746E+02 -0.37299641195E+01 -0.35569669700E+02  0.41132723891E+02  0.51100000000E-03 0.  1.
         11    1    1    0    0    0 -0.10546736994E+02 -0.19489841923E+01 -0.18480485696E+02  0.21367277609E+02  0.51100000000E-03 0. -1.
         22    1    1    0    0    0  0.30863895740E+02  0.56789483118E+01  0.54050155396E+02  0.62499998500E+02  0.00000000000E+00 0.  1.
</event>
<event>
 4    1  0.1974401E-002  0.9118800E+02  0.7818608E-02  0.1130116E+00
         25   -1    0    0    0    0  0.00000000000E+00  0.00000000000E+00  0.99999998245E-14  0.12500000000E+03  0.12500000000E+03 0.  0.
        -11    1    1    0    0    0  0.40678292713E+01  0.22475591541E+02 -0.58306633384E+01  0.23573206938E+02  0.51100000000E-03 0.  1.
         11    1    1    0    0    0  0.10377843089E+02  0.30762952470E+02 -0.22414914013E+02  0.39452341404E+02  0.51100000000E-03 0. -1.
         22    1    1    0    0    0 -0.14445672360E+02 -0.53238544011E+02  0.28245577351E+02  0.61974451658E+02  0.00000000000E+00 0. -1.
</event>
<event>
 4    1  0.1974401E-002  0.9118800E+02  0.7818608E-02  0.1130116E+00
         25   -1    0    0    0    0  0.00000000000E+00  0.00000000000E+00  0.99999998245E-14  0.12500000000E+03  0.12500000000E+03 0.  0.
        -11    1    1    0    0    0  0.49742273776E+01  0.15308966325E+02 -0.25021720662E+02  0.29752208205E+02  0.51100000000E-03 0. -1.
         11    1    1    0    0    0 -0.30588567245E+02 -0.11617196849E+02 -0.23480409602E+02  0.40273432236E+02  0.51100000000E-03 0.  1.
         22    1    1    0    0    0  0.25614339867E+02 -0.36917694763E+01  0.48502130264E+02  0.54974359559E+02  0.00000000000E+00 0.  1.
</event>
<event>
 4    1  0.1974401E-002  0.9118800E+02  0.7818608E-02  0.1130116E+00
         25   -1    0    0    0    0  0.00000000000E+00  0.00000000000E+00  0.99999998245E-14  0.12500000000E+03  0.12500000000E+03 0.  0.
        -11    1    1    0    0    0 -0.98494810433E+01  0.28614127120E+01 -0.40530202039E+02  0.41807860949E+02  0.51100000000E-03 0.  1.
         11    1    1    0    0    0 -0.48743979787E+01  0.14175657542E+01 -0.20059794885E+02  0.20692139072E+02  0.51100000000E-03 0. -1.
         22    1    1    0    0    0  0.14723879022E+02 -0.42789784663E+01  0.60589996923E+02  0.62499999979E+02  0.00000000000E+00 0.  1.
</event>
<event>
 4    1  0.1974401E-002  0.9118800E+02  0.7818608E-02  0.1130116E+00
         25   -1    0    0    0    0  0.00000000000E+00  0.00000000000E+00  0.99999998245E-14  0.12500000000E+03  0.12500000000E+03 0.  0.
        -11    1    1    0    0    0 -0.15285310068E+02 -0.18107100574E+02  0.86383116002E+00  0.23711895740E+02  0.51100000000E-03 0. -1.
         11    1    1    0    0    0 -0.25004686827E+02 -0.29618990966E+02  0.14135215920E+01  0.38788104268E+02  0.51100000000E-03 0. -1.
         22    1    1    0    0    0  0.40289996895E+02  0.47726091540E+02 -0.22773527520E+01  0.62499999992E+02  0.00000000000E+00 0. -1.
</event>
<event>
 4    1  0.1974401E-002  0.9118800E+02  0.7818608E-02  0.1130116E+00
         25   -1    0    0    0    0  0.00000000000E+00  0.00000000000E+00  0.99999998245E-14  0.12500000000E+03  0.12500000000E+03 0.  0.
        -11    1    1    0    0    0 -0.25176080015E+02 -0.99248586391E+01  0.26818880508E+02  0.38099739840E+02  0.51100000000E-03 0.  1.
         11    1    1    0    0    0 -0.16113385673E+02 -0.63513537863E+01  0.17186968340E+02  0.24400261756E+02  0.51100000000E-03 0. -1.
         22    1    1    0    0    0  0.41289465688E+02  0.16276212425E+02 -0.44005848848E+02  0.62499998404E+02  0.00000000000E+00 0.  1.
</event>
<event>
 4    1  0.1974401E-002  0.9118800E+02  0.7818608E-02  0.1130116E+00
         25   -1    0    0    0    0  0.00000000000E+00  0.00000000000E+00  0.99999998245E-14  0.12500000000E+03  0.12500000000E+03 0.  0.
        -11    1    1    0    0    0 -0.10766775069E+02 -0.44270084779E+02  0.17009974600E+02  0.48632325545E+02  0.51100000000E-03 0. -1.
         11    1    1    0    0    0 -0.16840135494E+02 -0.20180197249E+01  0.56859234247E+01  0.17888328388E+02  0.51100000000E-03 0.  1.
         22    1    1    0    0    0  0.27606910562E+02  0.46288104504E+02 -0.22695898025E+02  0.58479346068E+02  0.00000000000E+00 0. -1.
</event>
<event>
 4    1  0.1974401E-002  0.9118800E+02  0.7818608E-02  0.1130116E+00
         25   -1    0    0    0    0  0.00000000000E+00  0.00000000000E+00  0.99999998245E-14  0.12500000000E+03  0.12500000000E+03 0.  0.
        -11    1    1    0    0    0 -0.16022510446E+02 -0.99592707099E+01 -0.17705299874E+02  0.25872486506E+02  0.51100000000E-03 0.  1.
         11    1    1    0    0    0 -0.22604257149E+02 -0.14203795929E+02 -0.25077441233E+02  0.36627562287E+02  0.51100000000E-03 0. -1.
         22    1    1    0    0    0  0.38626767595E+02  0.24163066639E+02  0.42782741107E+02  0.62499951207E+02  0.00000000000E+00 0. -1.
</event>
<event>
 4    1  0.1974401E-002  0.9118800E+02  0.7818608E-02  0.1130116E+00
         25   -1    0    0    0    0  0.00000000000E+00  0.00000000000E+00  0.99999998245E-14  0.12500000000E+03  0.12500000000E+03 0.  0.
        -11    1    1    0    0    0 -0.21572541875E+02 -0.11494509327E+02 -0.16173283142E+02  0.29309953863E+02  0.51100000000E-03 0. -1.
         11    1    1    0    0    0 -0.24412317180E+02 -0.13162176548E+02 -0.18231338809E+02  0.33190146680E+02  0.51100000000E-03 0.  1.
         22    1    1    0    0    0  0.45984859055E+02  0.24656685875E+02  0.34404621951E+02  0.62499899457E+02  0.00000000000E+00 0. -1.
</event>
<event>
 4    1  0.1974401E-002  0.9118800E+02  0.7818608E-02  0.1130116E+00
         25   -1    0    0    0    0  0.00000000000E+00  0.00000000000E+00  0.99999998245E-14  0.12500000000E+03  0.12500000000E+03 0.  0.
        -11    1    1    0    0    0 -0.22057193654E-01 -0.74577377837E+01 -0.38794967223E+00  0.74678540813E+01  0.51100000000E-03 0.  1.
         11    1    1    0    0    0 -0.31778588931E+00 -0.50454156162E+02 -0.22520396436E+02  0.55252973837E+02  0.51100000000E-03 0. -1.
         22    1    1    0    0    0  0.33984308296E+00  0.57911893946E+02  0.22908346109E+02  0.62279172082E+02  0.00000000000E+00 0. -1.
</event>
<event>
 4    1  0.1974401E-002  0.9118800E+02  0.7818608E-02  0.1130116E+00
         25   -1    0    0    0    0  0.00000000000E+00  0.00000000000E+00  0.99999998245E-14  0.12500000000E+03  0.12500000000E+03 0.  0.
        -11    1    1    0    0    0  0.19526923877E+01 -0.38920866870E+01 -0.10372199006E+02  0.11249171473E+02  0.51100000000E-03 0. -1.
         11    1    1    0    0    0  0.89225974251E+01 -0.17774755290E+02 -0.47234447375E+02  0.51250831111E+02  0.51100000000E-03 0.  1.
         22    1    1    0    0    0 -0.10875289813E+02  0.21666841977E+02  0.57606646381E+02  0.62499997417E+02  0.00000000000E+00 0.  1.
</event>
<event>
 4    1  0.1974401E-002  0.9118800E+02  0.7818608E-02  0.1130116E+00
         25   -1    0    0    0    0  0.00000000000E+00  0.00000000000E+00  0.99999998245E-14  0.12500000000E+03  0.12500000000E+03 0.  0.
        -11    1    1    0    0    0  0.39654812677E+02 -0.14954029457E+02  0.37315883300E+02  0.56467710350E+02  0.51100000000E-03 0. -1.
         11    1    1    0    0    0  0.43232584442E+01 -0.18296285938E+01  0.37940598254E+01  0.60359750320E+01  0.51100000000E-03 0.  1.
         22    1    1    0    0    0 -0.43978071122E+02  0.16783658050E+02 -0.41109943125E+02  0.62496314618E+02  0.00000000000E+00 0. -1.
</event>
<event>
 4    1  0.1974401E-002  0.9118800E+02  0.7818608E-02  0.1130116E+00
         25   -1    0    0    0    0  0.00000000000E+00  0.00000000000E+00  0.99999998245E-14  0.12500000000E+03  0.12500000000E+03 0.  0.
        -11    1    1    0    0    0 -0.10019816949E+02 -0.57091716042E+01  0.13518604916E+02  0.17769188255E+02  0.51100000000E-03 0.  1.
         11    1    1    0    0    0 -0.25722306108E+02 -0.14604821927E+02  0.33555668410E+02  0.44731652526E+02  0.51100000000E-03 0. -1.
         22    1    1    0    0    0  0.35742123057E+02  0.20313993531E+02 -0.47074273326E+02  0.62499159219E+02  0.00000000000E+00 0. -1.
</event>
<event>
 4    1  0.1974401E-002  0.9118800E+02  0.7818608E-02  0.1130116E+00
         25   -1    0    0    0    0  0.00000000000E+00  0.00000000000E+00  0.99999998245E-14  0.12500000000E+03  0.12500000000E+03 0.  0.
        -11    1    1    0    0    0 -0.45722192278E+01 -0.37641153770E+02 -0.46549035111E+02  0.60038107197E+02  0.51100000000E-03 0. -1.
         11    1    1    0    0    0 -0.86870895999E+00 -0.70178616966E+00 -0.23398939493E+01  0.25927327359E+01  0.51100000000E-03 0.  1.
         22    1    1    0    0    0  0.54409281877E+01  0.38342939940E+02  0.48888929060E+02  0.62369160067E+02  0.00000000000E+00 0. -1.
</event>
<event>
 4    1  0.1974401E-002  0.9118800E+02  0.7818608E-02  0.1130116E+00
         25   -1    0    0    0    0  0.00000000000E+00  0.00000000000E+00  0.99999998245E-14  0.12500000000E+03  0.12500000000E+03 0.  0.
        -11    1    1    0    0    0 -0.29295387713E+02 -0.17656531606E+02  0.12799839637E+01  0.34228806710E+02  0.51100000000E-03 0. -1.
         11    1    1    0    0    0  0.22239076319E+02  0.51545961523E+02 -0.23891814487E+00  0.56139288800E+02  0.51100000000E-03 0.  1.
         22    1    1    0    0    0  0.70563113931E+01 -0.33889429917E+02 -0.10410658189E+01  0.34631904490E+02  0.00000000000E+00 0.  1.
</event>
<event>
 4    1  0.1974401E-002  0.9118800E+02  0.7818608E-02  0.1130116E+00
         25   -1    0    0    0    0  0.00000000000E+00  0.00000000000E+00  0.99999998245E-14  0.12500000000E+03  0.12500000000E+03 0.  0.
        -11    1    1    0    0    0 -0.34680084135E+02 -0.40707838634E+02 -0.13106039533E+02  0.55060009393E+02  0.51100000000E-03 0. -1.
         11    1    1    0    0    0 -0.46876743936E+01 -0.54997421305E+01 -0.17697478427E+01  0.74399907533E+01  0.51100000000E-03 0.  1.
         22    1    1    0    0    0  0.39367758529E+02  0.46207580764E+02  0.14875787376E+02  0.62499999854E+02  0.00000000000E+00 0. -1.
</event>
<event>
 4    1  0.1974401E-002  0.9118800E+02  0.7818608E-02  0.1130116E+00
         25   -1    0    0    0    0  0.00000000000E+00  0.00000000000E+00  0.99999998245E-14  0.12500000000E+03  0.12500000000E+03 0.  0.
        -11    1    1    0    0    0  0.49462777494E+02  0.92157024766E+01  0.24874146152E+02  0.56126808894E+02  0.51100000000E-03 0.  1.
         11    1    1    0    0    0  0.56243287557E+01  0.10525397025E+01  0.28065706629E+01  0.63732058592E+01  0.51100000000E-03 0. -1.
         22    1    1    0    0    0 -0.55087106250E+02 -0.10268242179E+02 -0.27680716815E+02  0.62499985247E+02  0.00000000000E+00 0.  1.
</event>
<event>
 4    1  0.1974401E-002  0.9118800E+02  0.7818608E-02  0.1130116E+00
         25   -1    0    0    0    0  0.00000000000E+00  0.00000000000E+00  0.99999998245E-14  0.12500000000E+03  0.12500000000E+03 0.  0.
        -11    1    1    0    0    0  0.11496361091E+02 -0.12368888510E+02  0.24940687141E+02  0.30119654657E+02  0.51100000000E-03 0. -1.
         11    1    1    0    0    0  0.12359818393E+02 -0.13295952942E+02  0.26813043276E+02  0.32380345355E+02  0.51100000000E-03 0. -1.
         22    1    1    0    0    0 -0.23856179484E+02  0.25664841453E+02 -0.51753730417E+02  0.62499999988E+02  0.00000000000E+00 0. -1.
</event>
<event>
 4    1  0.1974401E-002  0.9118800E+02  0.7818608E-02  0.1130116E+00
         25   -1    0    0    0    0  0.00000000000E+00  0.00000000000E+00  0.99999998245E-14  0.12500000000E+03  0.12500000000E+03 0.  0.
        -11    1    1    0    0    0 -0.13189181168E+02 -0.34098217019E+01 -0.32308202041E+02  0.35062819386E+02  0.51100000000E-03 0.  1.
         11    1    1    0    0    0 -0.10382974392E+02 -0.26675982827E+01 -0.25256244972E+02  0.27437203723E+02  0.51100000000E-03 0. -1.
         22    1    1    0    0    0  0.23572155560E+02  0.60774199847E+01  0.57564447013E+02  0.62499976890E+02  0.00000000000E+00 0.  1.
</event>
<event>
 4    1  0.1974401E-002  0.9118800E+02  0.7818608E-02  0.1130116E+00
         25   -1    0    0    0    0  0.00000000000E+00  0.00000000000E+00  0.99999998245E-14  0.12500000000E+03  0.12500000000E+03 0.  0.
        -11    1    1    0    0    0 -0.44655695467E+02  0.27645165776E+02 -0.17675659784E+02  0.55414937314E+02  0.51100000000E-03 0. -1.
         11    1    1    0    0    0 -0.40091319755E+01  0.61246626483E+01 -0.11966099811E+01  0.74173113363E+01  0.51100000000E-03 0.  1.
         22    1    1    0    0    0  0.48664827443E+02 -0.33769828424E+02  0.18872269765E+02  0.62167751350E+02  0.00000000000E+00 0. -1.
</event>
<event>
 4    1  0.1974401E-002  0.9118800E+02  0.7818608E-02  0.1130116E+00
         25   -1    0    0    0    0  0.00000000000E+00  0.00000000000E+00  0.99999998245E-14  0.12500000000E+03  0.12500000000E+03 0.  0.
        -11    1    1    0    0    0 -0.36220289226E+01  0.20781461108E+01 -0.96608047512E+01  0.10524682108E+02  0.51100000000E-03 0. -1.
         11    1    1    0    0    0 -0.17889924399E+02  0.10263843683E+02 -0.47707837818E+02  0.51975317908E+02  0.51100000000E-03 0. -1.
         22    1    1    0    0    0  0.21511953321E+02 -0.12341989793E+02  0.57368642569E+02  0.62499999984E+02  0.00000000000E+00 0. -1.
</event>
<event>
 4    1  0.1974401E-002  0.9118800E+02  0.7818608E-02  0.1130116E+00
         25   -1    0    0    0    0  0.00000000000E+00  0.00000000000E+00  0.99999998245E-14  0.12500000000E+03  0.12500000000E+03 0.  0.
        -11    1    1    0    0    0  0.42334135668E+01  0.30202659602E+02  0.22998742076E+02  0.38197703790E+02  0.51100000000E-03 0. -1.
         11    1    1    0    0    0  0.26925183781E+01  0.19217079620E+02  0.14630645866E+02  0.24302296251E+02  0.51100000000E-03 0.  1.
         22    1    1    0    0    0 -0.69259319449E+01 -0.49419739222E+02 -0.37629387942E+02  0.62499999960E+02  0.00000000000E+00 0. -1.
</event>
<event>
 4    1  0.1974401E-002  0.9118800E+02  0.7818608E-02  0.1130116E+00
         25   -1    0    0    0    0  0.00000000000E+00  0.00000000000E+00  0.99999998245E-14  0.12500000000E+03  0.12500000000E+03 0.  0.
        -11    1    1    0    0    0 -0.16622739104E+02 -0.84899218448E+01 -0.57194026885E+02  0.60162703894E+02  0.51100000000E-03 0.  1.
         11    1    1    0    0    0 -0.63910864140E+00 -0.31913285949E+00 -0.22254729357E+01  0.23373137757E+01  0.51100000000E-03 0. -1.
         22    1    1    0    0    0  0.17261847745E+02  0.88090547043E+01  0.59419499821E+02  0.62499982330E+02  0.00000000000E+00 0.  1.
</event>
<event>
 4    1  0.1974401E-002  0.9118800E+02  0.7818608E-02  0.1130116E+00
         25   -1    0    0    0    0  0.00000000000E+00  0.00000000000E+00  0.99999998245E-14  0.12500000000E+03  0.12500000000E+03 0.  0.
        -11    1    1    0    0    0  0.59440932835E+01  0.67968602539E+01 -0.14179317635E+01  0.91400265328E+01  0.51100000000E-03 0. -1.
         11    1    1    0    0    0  0.34728237618E+02  0.39652995905E+02 -0.82991767836E+01  0.53359974774E+02  0.51100000000E-03 0.  1.
         22    1    1    0    0    0 -0.40672330901E+02 -0.46449856159E+02  0.97171085471E+01  0.62499998693E+02  0.00000000000E+00 0.  1.
</event>
<event>
 4    1  0.1974401E-002  0.9118800E+02  0.7818608E-02  0.1130116E+00
         25   -1    0    0    0    0  0.00000000000E+00  0.00000000000E+00  0.99999998245E-14  0.12500000000E+03  0.12500000000E+03 0.  0.
        -11    1    1    0    0    0 -0.38179885296E+01  0.29320069141E+02 -0.59957774059E+01  0.30169402344E+02  0.51100000000E-03 0.  1.
         11    1    1    0    0    0 -0.26800921508E+01  0.32402005299E+02  0.39309153363E+00  0.32515032870E+02  0.51100000000E-03 0. -1.
         22    1    1    0    0    0  0.64980806804E+01 -0.61722074439E+02  0.56026858723E+01  0.62315564786E+02  0.00000000000E+00 0. -1.
</event>
<event>
 4    1  0.1974401E-002  0.9118800E+02  0.7818608E-02  0.1130116E+00
         25   -1    0    0    0    0  0.00000000000E+00  0.00000000000E+00  0.99999998245E-14  0.12500000000E+03  0.12500000000E+03 0.  0.
        -11    1    1    0    0    0  0.19233554496E+01  0.31575808607E+01  0.79413775330E+00  0.37815695299E+01  0.51100000000E-03 0. -1.
         11    1    1    0    0    0  0.29918908844E+02  0.49035865530E+02  0.12173647868E+02  0.58718437627E+02  0.51100000000E-03 0.  1.
         22    1    1    0    0    0 -0.31842264294E+02 -0.52193446390E+02 -0.12967785621E+02  0.62499992843E+02  0.00000000000E+00 0.  1.
</event>
<event>
 4    1  0.1974401E-002  0.9118800E+02  0.7818608E-02  0.1130116E+00
         25   -1    0    0    0    0  0.00000000000E+00  0.00000000000E+00  0.99999998245E-14  0.12500000000E+03  0.12500000000E+03 0.  0.
        -11    1    1    0    0    0  0.29230054245E+01 -0.37890083815E+02 -0.21918664632E+02  0.43870608290E+02  0.51100000000E-03 0. -1.
         11    1    1    0    0    0  0.12364312778E+01 -0.16092080703E+02 -0.93043229474E+01  0.18629392084E+02  0.51100000000E-03 0.  1.
         22    1    1    0    0    0 -0.41594367023E+01  0.53982164518E+02  0.31222987580E+02  0.62499999625E+02  0.00000000000E+00 0. -1.
</event>
<event>
 4    1  0.1974401E-002  0.9118800E+02  0.7818608E-02  0.1130116E+00
         25   -1    0    0    0    0  0.00000000000E+00  0.00000000000E+00  0.99999998245E-14  0.12500000000E+03  0.12500000000E+03 0.  0.
        -11    1    1    0    0    0 -0.44909546794E+01  0.35290380949E+01 -0.22626294014E+01  0.61434742513E+01  0.51100000000E-03 0. -1.
         11    1    1    0    0    0  0.44737452001E+02  0.99874356006E+01  0.40914005224E+02  0.61442202964E+02  0.51100000000E-03 0.  1.
         22    1    1    0    0    0 -0.40246497321E+02 -0.13516473695E+02 -0.38651375823E+02  0.57414322784E+02  0.00000000000E+00 0.  1.
</event>
<event>
 4    1  0.1974401E-002  0.9118800E+02  0.7818608E-02  0.1130116E+00
         25   -1    0    0    0    0  0.00000000000E+00  0.00000000000E+00  0.99999998245E-14  0.12500000000E+03  0.12500000000E+03 0.  0.
        -11    1    1    0    0    0  0.48174689586E+01  0.24388250564E+01  0.35606225485E+01  0.64679137298E+01  0.51100000000E-03 0.  1.
         11    1    1    0    0    0  0.48089373411E+02  0.28010035672E+02  0.85332112328E+01  0.56302447795E+02  0.51100000000E-03 0. -1.
         22    1    1    0    0    0 -0.52906842370E+02 -0.30448860729E+02 -0.12093833781E+02  0.62229638475E+02  0.00000000000E+00 0. -1.
</event>
<event>
 4    1  0.1974401E-002  0.9118800E+02  0.7818608E-02  0.1130116E+00
         25   -1    0    0    0    0  0.00000000000E+00  0.00000000000E+00  0.99999998245E-14  0.12500000000E+03  0.12500000000E+03 0.  0.
        -11    1    1    0    0    0 -0.28746103504E+02  0.84838050433E+01  0.77756539543E+00  0.29981961624E+02  0.51100000000E-03 0. -1.
         11    1    1    0    0    0 -0.31178712614E+02  0.91985702095E+01  0.83488025326E+00  0.32518038678E+02  0.51100000000E-03 0.  1.
         22    1    1    0    0    0  0.59924816117E+02 -0.17682375253E+02 -0.16124456487E+01  0.62499999698E+02  0.00000000000E+00 0.  1.
</event>
<event>
 4    1  0.1974401E-002  0.9118800E+02  0.7818608E-02  0.1130116E+00
         25   -1    0    0    0    0  0.00000000000E+00  0.00000000000E+00  0.99999998245E-14  0.12500000000E+03  0.12500000000E+03 0.  0.
        -11    1    1    0    0    0  0.38799903502E+01 -0.68808631750E+01 -0.83771771317E+01  0.11514239016E+02  0.51100000000E-03 0. -1.
         11    1    1    0    0    0  0.17114288597E+02 -0.30671215680E+02 -0.36958508687E+02  0.50985818716E+02  0.51100000000E-03 0.  1.
         22    1    1    0    0    0 -0.20994278948E+02  0.37552078855E+02  0.45335685819E+02  0.62499942268E+02  0.00000000000E+00 0.  1.
</event>
<event>
 4    1  0.1974401E-002  0.9118800E+02  0.7818608E-02  0.1130116E+00
         25   -1    0    0    0    0  0.00000000000E+00  0.00000000000E+00  0.99999998245E-14  0.12500000000E+03  0.12500000000E+03 0.  0.
        -11    1    1    0    0    0  0.55178948230E+00  0.13703658419E+00 -0.48229464041E+00  0.74555954790E+00  0.51100000000E-03 0. -1.
         11    1    1    0    0    0  0.58806911640E+02 -0.16010063648E+02  0.10954827528E+02  0.61924011830E+02  0.51100000000E-03 0.  1.
         22    1    1    0    0    0 -0.59358701123E+02  0.15873027064E+02 -0.10472532887E+02  0.62330428622E+02  0.00000000000E+00 0.  1.
</event>
<event>
 4    1  0.1974401E-002  0.9118800E+02  0.7818608E-02  0.1130116E+00
         25   -1    0    0    0    0  0.00000000000E+00  0.00000000000E+00  0.99999998245E-14  0.12500000000E+03  0.12500000000E+03 0.  0.
        -11    1    1    0    0    0 -0.65874758569E+01 -0.81583232985E+01  0.17744575478E+01  0.10634931925E+02  0.51100000000E-03 0.  1.
         11    1    1    0    0    0 -0.32128449880E+02 -0.39785569340E+02  0.86519632640E+01  0.51865068091E+02  0.51100000000E-03 0. -1.
         22    1    1    0    0    0  0.38715925737E+02  0.47943892639E+02 -0.10426420812E+02  0.62499999984E+02  0.00000000000E+00 0. -1.
</event>
<event>
 4    1  0.1974401E-002  0.9118800E+02  0.7818608E-02  0.1130116E+00
         25   -1    0    0    0    0  0.00000000000E+00  0.00000000000E+00  0.99999998245E-14  0.12500000000E+03  0.12500000000E+03 0.  0.
        -11    1    1    0    0    0  0.23292360360E+02 -0.52025421389E+02  0.40071551178E+01  0.57142241943E+02  0.51100000000E-03 0.  1.
         11    1    1    0    0    0  0.19149951823E+01 -0.50091358534E+01  0.12704279023E+00  0.53642137055E+01  0.51100000000E-03 0. -1.
         22    1    1    0    0    0 -0.25207355543E+02  0.57034557242E+02 -0.41341979081E+01  0.62493544352E+02  0.00000000000E+00 0.  1.
</event>
<event>
 4    1  0.1974401E-002  0.9118800E+02  0.7818608E-02  0.1130116E+00
         25   -1    0    0    0    0  0.00000000000E+00  0.00000000000E+00  0.99999998245E-14  0.12500000000E+03  0.12500000000E+03 0.  0.
        -11    1    1    0    0    0 -0.63422936448E+01  0.13739590913E+02  0.13834576536E+02  0.20503574208E+02  0.51100000000E-03 0.  1.
         11    1    1    0    0    0 -0.12716698867E+02  0.28102967898E+02  0.28499569378E+02  0.41996627123E+02  0.51100000000E-03 0. -1.
         22    1    1    0    0    0  0.19058992511E+02 -0.41842558810E+02 -0.42334145914E+02  0.62499798669E+02  0.00000000000E+00 0. -1.
</event>
<event>
 4    1  0.1974401E-002  0.9118800E+02  0.7818608E-02  0.1130116E+00
         25   -1    0    0    0    0  0.00000000000E+00  0.00000000000E+00  0.99999998245E-14  0.12500000000E+03  0.12500000000E+03 0.  0.
        -11    1    1    0    0    0 -0.56331856362E+02 -0.84207753202E+01 -0.22598267777E+02  0.61276987565E+02  0.51100000000E-03 0.  1.
         11    1    1    0    0    0  0.28495460836E+01  0.39152342522E+01 -0.12351727611E+01  0.49974617700E+01  0.51100000000E-03 0. -1.
         22    1    1    0    0    0  0.53482310279E+02  0.45055410680E+01  0.23833440538E+02  0.58725550665E+02  0.00000000000E+00 0.  1.
</event>
<event>
 4    1  0.1974401E-002  0.9118800E+02  0.7818608E-02  0.1130116E+00
         25   -1    0    0    0    0  0.00000000000E+00  0.00000000000E+00  0.99999998245E-14  0.12500000000E+03  0.12500000000E+03 0.  0.
        -11    1    1    0    0    0  0.12549071096E+01  0.33693331727E+01 -0.14182975580E+01  0.38650700002E+01  0.51100000000E-03 0. -1.
         11    1    1    0    0    0  0.21195181530E+02  0.50207701450E+02 -0.21637371285E+02  0.58636378140E+02  0.51100000000E-03 0.  1.
         22    1    1    0    0    0 -0.22450088640E+02 -0.53577034622E+02  0.23055668843E+02  0.62498551860E+02  0.00000000000E+00 0.  1.
</event>
<event>
 4    1  0.1974401E-002  0.9118800E+02  0.7818608E-02  0.1130116E+00
         25   -1    0    0    0    0  0.00000000000E+00  0.00000000000E+00  0.99999998245E-14  0.12500000000E+03  0.12500000000E+03 0.  0.
        -11    1    1    0    0    0  0.21718962740E+02  0.14835797687E+02  0.54842997827E+02  0.60824079495E+02  0.51100000000E-03 0.  1.
         11    1    1    0    0    0  0.60330048506E+00  0.41658745007E+00  0.15070640415E+01  0.16759352210E+01  0.51100000000E-03 0. -1.
         22    1    1    0    0    0 -0.22322263225E+02 -0.15252385137E+02 -0.56350061869E+02  0.62499985284E+02  0.00000000000E+00 0.  1.
</event>
<event>
 4    1  0.1974401E-002  0.9118800E+02  0.7818608E-02  0.1130116E+00
         25   -1    0    0    0    0  0.00000000000E+00  0.00000000000E+00  0.99999998245E-14  0.12500000000E+03  0.12500000000E+03 0.  0.
        -11    1    1    0    0    0  0.31857546210E+01 -0.26364569540E+01 -0.16945223386E+01  0.44689309676E+01  0.51100000000E-03 0. -1.
         11    1    1    0    0    0  0.41381091130E+02 -0.34241455346E+02 -0.21971186882E+02  0.58031069442E+02  0.51100000000E-03 0.  1.
         22    1    1    0    0    0 -0.44566845751E+02  0.36877912300E+02  0.23665709221E+02  0.62499999590E+02  0.00000000000E+00 0.  1.
</event>
<event>
 4    1  0.1974401E-002  0.9118800E+02  0.7818608E-02  0.1130116E+00
         25   -1    0    0    0    0  0.00000000000E+00  0.00000000000E+00  0.99999998245E-14  0.12500000000E+03  0.12500000000E+03 0.  0.
        -11    1    1    0    0    0  0.16646260679E+02  0.27811255376E+02 -0.25104702493E+02  0.40997682956E+02  0.51100000000E-03 0.  1.
         11    1    1    0    0    0  0.86319171003E+01  0.14600196203E+02 -0.13216579860E+02  0.21502411620E+02  0.51100000000E-03 0. -1.
         22    1    1    0    0    0 -0.25278177779E+02 -0.42411451579E+02  0.38321282353E+02  0.62499905425E+02  0.00000000000E+00 0.  1.
</event>
<event>
 4    1  0.1974401E-002  0.9118800E+02  0.7818608E-02  0.1130116E+00
         25   -1    0    0    0    0  0.00000000000E+00  0.00000000000E+00  0.99999998245E-14  0.12500000000E+03  0.12500000000E+03 0.  0.
        -11    1    1    0    0    0  0.15068835563E+01  0.51038076810E+01 -0.82856579195E+00  0.53857285886E+01  0.51100000000E-03 0. -1.
         11    1    1    0    0    0 -0.23017581335E+01  0.30802686396E+02  0.49970720247E+02  0.58746714478E+02  0.51100000000E-03 0.  1.
         22    1    1    0    0    0  0.79487457716E+00 -0.35906494077E+02 -0.49142154455E+02  0.60867556933E+02  0.00000000000E+00 0.  1.
</event>
<event>
 4    1  0.1974401E-002  0.9118800E+02  0.7818608E-02  0.1130116E+00
         25   -1    0    0    0    0  0.00000000000E+00  0.00000000000E+00  0.99999998245E-14  0.12500000000E+03  0.12500000000E+03 0.  0.
        -11    1    1    0    0    0  0.68309882318E+00  0.57788142263E+00 -0.74385619056E+00  0.11635691790E+01  0.51100000000E-03 0. -1.
         11    1    1    0    0    0  0.39957305196E+02  0.31607153388E+02 -0.34160711011E+02  0.61339649175E+02  0.51100000000E-03 0.  1.
         22    1    1    0    0    0 -0.40640404020E+02 -0.32185034811E+02  0.34904567201E+02  0.62496781646E+02  0.00000000000E+00 0.  1.
</event>
<event>
 4    1  0.1974401E-002  0.9118800E+02  0.7818608E-02  0.1130116E+00
         25   -1    0    0    0    0  0.00000000000E+00  0.00000000000E+00  0.99999998245E-14  0.12500000000E+03  0.12500000000E+03 0.  0.
        -11    1    1    0    0    0  0.19432309263E+01  0.38913911289E+01 -0.30700206156E+01  0.53239175606E+01  0.51100000000E-03 0.  1.
         11    1    1    0    0    0  0.20893600199E+02  0.41828820368E+02 -0.32907626991E+02  0.57176084660E+02  0.51100000000E-03 0. -1.
         22    1    1    0    0    0 -0.22836831125E+02 -0.45720211497E+02  0.35977647606E+02  0.62499997779E+02  0.00000000000E+00 0. -1.
</event>
<event>
 4    1  0.1974401E-002  0.9118800E+02  0.7818608E-02  0.1130116E+00
         25   -1    0    0    0    0  0.00000000000E+00  0.00000000000E+00  0.99999998245E-14  0.12500000000E+03  0.12500000000E+03 0.  0.
        -11    1    1    0    0    0 -0.14831266266E+02 -0.66099699220E+01  0.22679728375E+01  0.16395178025E+02  0.51100000000E-03 0.  1.
         11    1    1    0    0    0 -0.42336923277E+02 -0.17407156223E+02  0.55281144663E+01  0.46108396308E+02  0.51100000000E-03 0. -1.
         22    1    1    0    0    0  0.57168189543E+02  0.24017126145E+02 -0.77960873038E+01  0.62496425667E+02  0.00000000000E+00 0. -1.
</event>
<event>
 4    1  0.1974401E-002  0.9118800E+02  0.7818608E-02  0.1130116E+00
         25   -1    0    0    0    0  0.00000000000E+00  0.00000000000E+00  0.99999998245E-14  0.12500000000E+03  0.12500000000E+03 0.  0.
        -11    1    1    0    0    0  0.30045422163E+02 -0.43567348298E+02 -0.14239968147E+02  0.54805272773E+02  0.51100000000E-03 0. -1.
         11    1    1    0    0    0  0.42229907827E+01 -0.61145946139E+01 -0.19967280720E+01  0.76947281757E+01  0.51100000000E-03 0.  1.
         22    1    1    0    0    0 -0.34268412946E+02  0.49681942912E+02  0.16236696219E+02  0.62499999051E+02  0.00000000000E+00 0. -1.
</event>
<event>
 4    1  0.1974401E-002  0.9118800E+02  0.7818608E-02  0.1130116E+00
         25   -1    0    0    0    0  0.00000000000E+00  0.00000000000E+00  0.99999998245E-14  0.12500000000E+03  0.12500000000E+03 0.  0.
        -11    1    1    0    0    0 -0.57685111512E+01  0.80883012046E+00  0.51374858067E+00  0.58475520460E+01  0.51100000000E-03 0.  1.
         11    1    1    0    0    0 -0.52012371133E+02  0.21792591506E+02  0.62605562376E+01  0.56739742334E+02  0.51100000000E-03 0. -1.
         22    1    1    0    0    0  0.57780882284E+02 -0.22601421626E+02 -0.67743048183E+01  0.62412705620E+02  0.00000000000E+00 0. -1.
</event>
<event>
 4    1  0.1974401E-002  0.9118800E+02  0.7818608E-02  0.1130116E+00
         25   -1    0    0    0    0  0.00000000000E+00  0.00000000000E+00  0.99999998245E-14  0.12500000000E+03  0.12500000000E+03 0.  0.
        -11    1    1    0    0    0 -0.30903942062E+01 -0.33442178303E+01 -0.69637339214E+01  0.83203317022E+01  0.51100000000E-03 0. -1.
         11    1    1    0    0    0 -0.40744460456E+02 -0.35372608527E+02 -0.11850912319E+02  0.55242887460E+02  0.51100000000E-03 0.  1.
         22    1    1    0    0    0  0.43834854663E+02  0.38716826358E+02  0.18814646240E+02  0.61436780837E+02  0.00000000000E+00 0.  1.
</event>
<event>
 4    1  0.1974401E-002  0.9118800E+02  0.7818608E-02  0.1130116E+00
         25   -1    0    0    0    0  0.00000000000E+00  0.00000000000E+00  0.99999998245E-14  0.12500000000E+03  0.12500000000E+03 0.  0.
        -11    1    1    0    0    0  0.34325869015E+01  0.36416171913E+01 -0.16976982531E+01  0.52845253547E+01  0.51100000000E-03 0.  1.
         11    1    1    0    0    0  0.37338559451E+02  0.39214017347E+02 -0.18485319393E+02  0.57215506742E+02  0.51100000000E-03 0. -1.
         22    1    1    0    0    0 -0.40771146353E+02 -0.42855634539E+02  0.20183017646E+02  0.62499967903E+02  0.00000000000E+00 0. -1.
</event>
<event>
 4    1  0.1974401E-002  0.9118800E+02  0.7818608E-02  0.1130116E+00
         25   -1    0    0    0    0  0.00000000000E+00  0.00000000000E+00  0.99999998245E-14  0.12500000000E+03  0.12500000000E+03 0.  0.
        -11    1    1    0    0    0  0.27019177525E+02 -0.14851689573E+02  0.42056046327E+02  0.52147096469E+02  0.51100000000E-03 0.  1.
         11    1    1    0    0    0  0.54170805514E+01 -0.30065000820E+01  0.82947348589E+01  0.10353087998E+02  0.51100000000E-03 0. -1.
         22    1    1    0    0    0 -0.32436258076E+02  0.17858189655E+02 -0.50350781185E+02  0.62499815533E+02  0.00000000000E+00 0.  1.
</event>
<event>
 4    1  0.1974401E-002  0.9118800E+02  0.7818608E-02  0.1130116E+00
         25   -1    0    0    0    0  0.00000000000E+00  0.00000000000E+00  0.99999998245E-14  0.12500000000E+03  0.12500000000E+03 0.  0.
        -11    1    1    0    0    0 -0.31329018813E+01  0.85148352145E+01 -0.72171189866E+01  0.11593286836E+02  0.51100000000E-03 0. -1.
         11    1    1    0    0    0  0.50180001575E+02  0.14573063678E+02 -0.17975967334E+02  0.55258864853E+02  0.51100000000E-03 0.  1.
         22    1    1    0    0    0 -0.47047099694E+02 -0.23087898892E+02  0.25193086321E+02  0.58147848311E+02  0.00000000000E+00 0.  1.
</event>
<event>
 4    1  0.1974401E-002  0.9118800E+02  0.7818608E-02  0.1130116E+00
         25   -1    0    0    0    0  0.00000000000E+00  0.00000000000E+00  0.99999998245E-14  0.12500000000E+03  0.12500000000E+03 0.  0.
        -11    1    1    0    0    0 -0.13224740576E+02 -0.39434841603E+01  0.36835922423E+00  0.13805090344E+02  0.51100000000E-03 0. -1.
         11    1    1    0    0    0 -0.48456422651E+02 -0.44356987802E+01 -0.41277577534E+01  0.48833786502E+02  0.51100000000E-03 0.  1.
         22    1    1    0    0    0  0.61681163227E+02  0.83791829405E+01  0.37593985292E+01  0.62361123154E+02  0.00000000000E+00 0.  1.
</event>
<event>
 4    1  0.1974401E-002  0.9118800E+02  0.7818608E-02  0.1130116E+00
         25   -1    0    0    0    0  0.00000000000E+00  0.00000000000E+00  0.99999998245E-14  0.12500000000E+03  0.12500000000E+03 0.  0.
        -11    1    1    0    0    0 -0.16501883178E+01 -0.87305236380E+00  0.11596664784E+01  0.21977644361E+01  0.51100000000E-03 0.  1.
         11    1    1    0    0    0  0.19652826665E+02 -0.24458423150E+02 -0.53447390733E+02  0.61976379656E+02  0.51100000000E-03 0. -1.
         22    1    1    0    0    0 -0.18002638348E+02  0.25331475514E+02  0.52287724254E+02  0.60825855907E+02  0.00000000000E+00 0. -1.
</event>
<event>
 4    1  0.1974401E-002  0.9118800E+02  0.7818608E-02  0.1130116E+00
         25   -1    0    0    0    0  0.00000000000E+00  0.00000000000E+00  0.99999998245E-14  0.12500000000E+03  0.12500000000E+03 0.  0.
        -11    1    1    0    0    0  0.53165083743E+02  0.16772029034E+02 -0.14472708037E+02  0.57595888442E+02  0.51100000000E-03 0. -1.
         11    1    1    0    0    0  0.16041339038E+01 -0.29091122471E+01 -0.63711359992E+01  0.71852316475E+01  0.51100000000E-03 0.  1.
         22    1    1    0    0    0 -0.54769217646E+02 -0.13862916787E+02  0.20843844036E+02  0.60218879910E+02  0.00000000000E+00 0. -1.
</event>
<event>
 4    1  0.1974401E-002  0.9118800E+02  0.7818608E-02  0.1130116E+00
         25   -1    0    0    0    0  0.00000000000E+00  0.00000000000E+00  0.99999998245E-14  0.12500000000E+03  0.12500000000E+03 0.  0.
        -11    1    1    0    0    0  0.14693396507E+02 -0.27291197901E+02 -0.38998335648E+02  0.49815414957E+02  0.51100000000E-03 0. -1.
         11    1    1    0    0    0  0.37191575779E+01 -0.69513955016E+01 -0.99370459832E+01  0.12684593633E+02  0.51100000000E-03 0.  1.
         22    1    1    0    0    0 -0.18412554084E+02  0.34242593403E+02  0.48935381631E+02  0.62499991410E+02  0.00000000000E+00 0.  1.
</event>
<event>
 4    1  0.1974401E-002  0.9118800E+02  0.7818608E-02  0.1130116E+00
         25   -1    0    0    0    0  0.00000000000E+00  0.00000000000E+00  0.99999998245E-14  0.12500000000E+03  0.12500000000E+03 0.  0.
        -11    1    1    0    0    0  0.22263829494E+01  0.78959934514E-01 -0.51964623238E+01  0.56538691753E+01  0.51100000000E-03 0.  1.
         11    1    1    0    0    0  0.22523693990E+02  0.54486520537E+00 -0.52190734258E+02  0.56846164442E+02  0.51100000000E-03 0. -1.
         22    1    1    0    0    0 -0.24750076939E+02 -0.62382513988E+00  0.57387196582E+02  0.62499966383E+02  0.00000000000E+00 0. -1.
</event>
<event>
 4    1  0.1974401E-002  0.9118800E+02  0.7818608E-02  0.1130116E+00
         25   -1    0    0    0    0  0.00000000000E+00  0.00000000000E+00  0.99999998245E-14  0.12500000000E+03  0.12500000000E+03 0.  0.
        -11    1    1    0    0    0  0.37163278575E+01 -0.25401067606E+01  0.83691429503E+01  0.95029358139E+01  0.51100000000E-03 0.  1.
         11    1    1    0    0    0  0.20720076098E+02 -0.14162148450E+02  0.46677626494E+02  0.52997064236E+02  0.51100000000E-03 0. -1.
         22    1    1    0    0    0 -0.24436403956E+02  0.16702255211E+02 -0.55046769445E+02  0.62499999950E+02  0.00000000000E+00 0. -1.
</event>
<event>
 4    1  0.1974401E-002  0.9118800E+02  0.7818608E-02  0.1130116E+00
         25   -1    0    0    0    0  0.00000000000E+00  0.00000000000E+00  0.99999998245E-14  0.12500000000E+03  0.12500000000E+03 0.  0.
        -11    1    1    0    0    0  0.84398337966E+01 -0.75060909670E+01 -0.32906945578E+01  0.11764389787E+02  0.51100000000E-03 0.  1.
         11    1    1    0    0    0  0.36707396085E+02 -0.32103045987E+02 -0.14002955970E+02  0.50735798655E+02  0.51100000000E-03 0. -1.
         22    1    1    0    0    0 -0.45147229882E+02  0.39609136954E+02  0.17293650527E+02  0.62499811558E+02  0.00000000000E+00 0. -1.
</event>
<event>
 4    1  0.1974401E-002  0.9118800E+02  0.7818608E-02  0.1130116E+00
         25   -1    0    0    0    0  0.00000000000E+00  0.00000000000E+00  0.99999998245E-14  0.12500000000E+03  0.12500000000E+03 0.  0.
        -11    1    1    0    0    0  0.61396878664E+02  0.46081109483E+01 -0.51818661811E+01  0.61787240864E+02  0.51100000000E-03 0. -1.
         11    1    1    0    0    0  0.70755614966E+00  0.58640783676E-01 -0.63018313077E-01  0.71277346705E+00  0.51100000000E-03 0.  1.
         22    1    1    0    0    0 -0.62104434814E+02 -0.46667517320E+01  0.52448844942E+01  0.62499985669E+02  0.00000000000E+00 0. -1.
</event>
<event>
 4    1  0.1974401E-002  0.9118800E+02  0.7818608E-02  0.1130116E+00
         25   -1    0    0    0    0  0.00000000000E+00  0.00000000000E+00  0.99999998245E-14  0.12500000000E+03  0.12500000000E+03 0.  0.
        -11    1    1    0    0    0  0.37063467863E+02  0.32053116121E+02  0.35567264502E+02  0.60548602027E+02  0.51100000000E-03 0.  1.
         11    1    1    0    0    0  0.11940130021E+01  0.10335015375E+01  0.11463689081E+01  0.19513980659E+01  0.51100000000E-03 0. -1.
         22    1    1    0    0    0 -0.38257480865E+02 -0.33086617658E+02 -0.36713633410E+02  0.62499999907E+02  0.00000000000E+00 0.  1.
</event>
<event>
 4    1  0.1974401E-002  0.9118800E+02  0.7818608E-02  0.1130116E+00
         25   -1    0    0    0    0  0.00000000000E+00  0.00000000000E+00  0.99999998245E-14  0.12500000000E+03  0.12500000000E+03 0.  0.
        -11    1    1    0    0    0 -0.50603125953E+02  0.25500157967E+02  0.23398308306E+02  0.61305915248E+02  0.51100000000E-03 0. -1.
         11    1    1    0    0    0 -0.97254616135E+00  0.53531932075E+00  0.44085187296E+00  0.11944720366E+01  0.51100000000E-03 0.  1.
         22    1    1    0    0    0  0.51575672114E+02 -0.26035477287E+02 -0.23839160179E+02  0.62499612716E+02  0.00000000000E+00 0. -1.
</event>
<event>
 4    1  0.1974401E-002  0.9118800E+02  0.7818608E-02  0.1130116E+00
         25   -1    0    0    0    0  0.00000000000E+00  0.00000000000E+00  0.99999998245E-14  0.12500000000E+03  0.12500000000E+03 0.  0.
        -11    1    1    0    0    0  0.16873624074E+02  0.55921407636E+01  0.65285679153E+01  0.18937091302E+02  0.51100000000E-03 0. -1.
         11    1    1    0    0    0  0.38996097943E+02  0.12774760754E+02  0.14624175265E+02  0.43563249070E+02  0.51100000000E-03 0.  1.
         22    1    1    0    0    0 -0.55869722016E+02 -0.18366901517E+02 -0.21152743180E+02  0.62499659628E+02  0.00000000000E+00 0.  1.
</event>
<event>
 4    1  0.1974401E-002  0.9118800E+02  0.7818608E-02  0.1130116E+00
         25   -1    0    0    0    0  0.00000000000E+00  0.00000000000E+00  0.99999998245E-14  0.12500000000E+03  0.12500000000E+03 0.  0.
        -11    1    1    0    0    0 -0.20454982701E+02 -0.23290907600E+01 -0.85824074736E+01  0.22304454698E+02  0.51100000000E-03 0. -1.
         11    1    1    0    0    0 -0.36862068601E+02 -0.41978932146E+01 -0.15467625981E+02  0.40195545310E+02  0.51100000000E-03 0.  1.
         22    1    1    0    0    0  0.57317051302E+02  0.65269839746E+01  0.24050033455E+02  0.62499999992E+02  0.00000000000E+00 0.  1.
</event>
<event>
 4    1  0.1974401E-002  0.9118800E+02  0.7818608E-02  0.1130116E+00
         25   -1    0    0    0    0  0.00000000000E+00  0.00000000000E+00  0.99999998245E-14  0.12500000000E+03  0.12500000000E+03 0.  0.
        -11    1    1    0    0    0 -0.79034741726E+01 -0.24317960559E+02 -0.32412865485E+01  0.25774678436E+02  0.51100000000E-03 0. -1.
         11    1    1    0    0    0 -0.18337454830E+02 -0.26832037240E+02  0.21429134416E+02  0.38928502080E+02  0.51100000000E-03 0.  1.
         22    1    1    0    0    0  0.26240929003E+02  0.51149997799E+02 -0.18187847868E+02  0.60296819484E+02  0.00000000000E+00 0.  1.
</event>
<event>
 4    1  0.1974401E-002  0.9118800E+02  0.7818608E-02  0.1130116E+00
         25   -1    0    0    0    0  0.00000000000E+00  0.00000000000E+00  0.99999998245E-14  0.12500000000E+03  0.12500000000E+03 0.  0.
        -11    1    1    0    0    0 -0.93644883499E-01  0.15585408175E+01  0.24565201587E+01  0.29107233457E+01  0.51100000000E-03 0. -1.
         11    1    1    0    0    0 -0.45103531046E+01  0.29314522372E+02  0.51687095999E+02  0.59592284736E+02  0.51100000000E-03 0.  1.
         22    1    1    0    0    0  0.46039979881E+01 -0.30873063190E+02 -0.54143616158E+02  0.62496991918E+02  0.00000000000E+00 0.  1.
</event>
<event>
 4    1  0.1974401E-002  0.9118800E+02  0.7818608E-02  0.1130116E+00
         25   -1    0    0    0    0  0.00000000000E+00  0.00000000000E+00  0.99999998245E-14  0.12500000000E+03  0.12500000000E+03 0.  0.
        -11    1    1    0    0    0 -0.94749740864E+01 -0.18563182625E+01 -0.66833016592E+01  0.11742553928E+02  0.51100000000E-03 0.  1.
         11    1    1    0    0    0 -0.41040961585E+02 -0.80154914879E+01 -0.28769979377E+02  0.50757465906E+02  0.51100000000E-03 0. -1.
         22    1    1    0    0    0  0.50515935671E+02  0.98718097505E+01  0.35453281036E+02  0.62499980166E+02  0.00000000000E+00 0. -1.
</event>
<event>
 4    1  0.1974401E-002  0.9118800E+02  0.7818608E-02  0.1130116E+00
         25   -1    0    0    0    0  0.00000000000E+00  0.00000000000E+00  0.99999998245E-14  0.12500000000E+03  0.12500000000E+03 0.  0.
        -11    1    1    0    0    0 -0.20312767524E+02 -0.49418649864E+02 -0.48787040919E-01  0.53430458161E+02  0.51100000000E-03 0.  1.
         11    1    1    0    0    0 -0.34524985083E+01 -0.83866963617E+01 -0.13800482309E-01  0.90695431267E+01  0.51100000000E-03 0. -1.
         22    1    1    0    0    0  0.23765266032E+02  0.57805346226E+02  0.62587523228E-01  0.62499998712E+02  0.00000000000E+00 0.  1.
</event>
<event>
 4    1  0.1974401E-002  0.9118800E+02  0.7818608E-02  0.1130116E+00
         25   -1    0    0    0    0  0.00000000000E+00  0.00000000000E+00  0.99999998245E-14  0.12500000000E+03  0.12500000000E+03 0.  0.
        -11    1    1    0    0    0  0.47117115113E+02  0.15357216015E+01 -0.27248800854E+02  0.54450694446E+02  0.51100000000E-03 0.  1.
         11    1    1    0    0    0  0.66989710875E+01  0.13006243736E+00 -0.44743643572E+01  0.80568645595E+01  0.51100000000E-03 0. -1.
         22    1    1    0    0    0 -0.53816086201E+02 -0.16657840388E+01  0.31723165211E+02  0.62492440994E+02  0.00000000000E+00 0.  1.
</event>
<event>
 4    1  0.1974401E-002  0.9118800E+02  0.7818608E-02  0.1130116E+00
         25   -1    0    0    0    0  0.00000000000E+00  0.00000000000E+00  0.99999998245E-14  0.12500000000E+03  0.12500000000E+03 0.  0.
        -11    1    1    0    0    0  0.75271778311E+01  0.18977795243E+01 -0.18854361424E+02  0.20389872932E+02  0.51100000000E-03 0. -1.
         11    1    1    0    0    0  0.15542390000E+02  0.39212386899E+01 -0.38939964103E+02  0.42110127100E+02  0.51100000000E-03 0. -1.
         22    1    1    0    0    0 -0.23069567831E+02 -0.58190182142E+01  0.57794325527E+02  0.62499999968E+02  0.00000000000E+00 0. -1.
</event>
<event>
 4    1  0.1974401E-002  0.9118800E+02  0.7818608E-02  0.1130116E+00
         25   -1    0    0    0    0  0.00000000000E+00  0.00000000000E+00  0.99999998245E-14  0.12500000000E+03  0.12500000000E+03 0.  0.
        -11    1    1    0    0    0 -0.64548306198E+00 -0.18158937660E+02  0.19751852477E+01  0.18277445729E+02  0.51100000000E-03 0. -1.
         11    1    1    0    0    0 -0.16459215657E+01 -0.43930085072E+02  0.48035406736E+01  0.44222567038E+02  0.51100000000E-03 0.  1.
         22    1    1    0    0    0  0.22914046277E+01  0.62089022732E+02 -0.67787259213E+01  0.62499987233E+02  0.00000000000E+00 0.  1.
</event>
<event>
 4    1  0.1974401E-002  0.9118800E+02  0.7818608E-02  0.1130116E+00
         25   -1    0    0    0    0  0.00000000000E+00  0.00000000000E+00  0.99999998245E-14  0.12500000000E+03  0.12500000000E+03 0.  0.
        -11    1    1    0    0    0 -0.46180879665E+01  0.94966234565E+01 -0.98229593335E+01  0.14422313402E+02  0.51100000000E-03 0.  1.
         11    1    1    0    0    0 -0.15401334910E+02  0.31651382331E+02 -0.32748325742E+02  0.48077686713E+02  0.51100000000E-03 0. -1.
         22    1    1    0    0    0  0.20019422876E+02 -0.41148005788E+02  0.42571285076E+02  0.62499999885E+02  0.00000000000E+00 0. -1.
</event>
<event>
 4    1  0.1974401E-002  0.9118800E+02  0.7818608E-02  0.1130116E+00
         25   -1    0    0    0    0  0.00000000000E+00  0.00000000000E+00  0.99999998245E-14  0.12500000000E+03  0.12500000000E+03 0.  0.
        -11    1    1    0    0    0  0.15879350755E+02  0.20094790008E+02  0.81732138318E+01  0.26884117811E+02  0.51100000000E-03 0.  1.
         11    1    1    0    0    0  0.21577254840E+02  0.22091982400E+02  0.18194642031E+02  0.35842413586E+02  0.51100000000E-03 0. -1.
         22    1    1    0    0    0 -0.37456605595E+02 -0.42186772409E+02 -0.26367855863E+02  0.62273468602E+02  0.00000000000E+00 0.  1.
</event>
<event>
 4    1  0.1974401E-002  0.9118800E+02  0.7818608E-02  0.1130116E+00
         25   -1    0    0    0    0  0.00000000000E+00  0.00000000000E+00  0.99999998245E-14  0.12500000000E+03  0.12500000000E+03 0.  0.
        -11    1    1    0    0    0 -0.14235296886E+02  0.28415256823E+02 -0.27022413786E+02  0.41716679455E+02  0.51100000000E-03 0. -1.
         11    1    1    0    0    0 -0.70916896500E+01  0.14155665457E+02 -0.13463709997E+02  0.20783320566E+02  0.51100000000E-03 0.  1.
         22    1    1    0    0    0  0.21326986536E+02 -0.42570922279E+02  0.40486123782E+02  0.62499999979E+02  0.00000000000E+00 0. -1.
</event>
<event>
 4    1  0.1974401E-002  0.9118800E+02  0.7818608E-02  0.1130116E+00
         25   -1    0    0    0    0  0.00000000000E+00  0.00000000000E+00  0.99999998245E-14  0.12500000000E+03  0.12500000000E+03 0.  0.
        -11    1    1    0    0    0 -0.43260834851E+02  0.27234788601E+02  0.75957594931E+01  0.51681032349E+02  0.51100000000E-03 0.  1.
         11    1    1    0    0    0 -0.85988203620E+01  0.59987244360E+01  0.28031787568E+01  0.10852751627E+02  0.51100000000E-03 0. -1.
         22    1    1    0    0    0  0.51859655213E+02 -0.33233513037E+02 -0.10398938250E+02  0.62466216024E+02  0.00000000000E+00 0.  1.
</event>
<event>
 4    1  0.1974401E-002  0.9118800E+02  0.7818608E-02  0.1130116E+00
         25   -1    0    0    0    0  0.00000000000E+00  0.00000000000E+00  0.99999998245E-14  0.12500000000E+03  0.12500000000E+03 0.  0.
        -11    1    1    0    0    0 -0.44959097068E+02  0.15608210295E+02  0.67639432259E+01  0.48069611669E+02  0.51100000000E-03 0.  1.
         11    1    1    0    0    0 -0.13496416998E+02  0.46858843110E+01  0.20310893412E+01  0.14430388343E+02  0.51100000000E-03 0.  1.
         22    1    1    0    0    0  0.58455514066E+02 -0.20294094606E+02 -0.87950325671E+01  0.62499999988E+02  0.00000000000E+00 0.  1.
</event>
<event>
 4    1  0.1974401E-002  0.9118800E+02  0.7818608E-02  0.1130116E+00
         25   -1    0    0    0    0  0.00000000000E+00  0.00000000000E+00  0.99999998245E-14  0.12500000000E+03  0.12500000000E+03 0.  0.
        -11    1    1    0    0    0 -0.17299628314E+01  0.20111358295E+02 -0.79944357855E+00  0.20201450793E+02  0.51100000000E-03 0. -1.
         11    1    1    0    0    0  0.85951163615E+01  0.40715749112E+02 -0.96053452031E+01  0.42707269964E+02  0.51100000000E-03 0.  1.
         22    1    1    0    0    0 -0.68651535301E+01 -0.60827107407E+02  0.10404788782E+02  0.62091279243E+02  0.00000000000E+00 0.  1.
</event>
<event>
 4    1  0.1974401E-002  0.9118800E+02  0.7818608E-02  0.1130116E+00
         25   -1    0    0    0    0  0.00000000000E+00  0.00000000000E+00  0.99999998245E-14  0.12500000000E+03  0.12500000000E+03 0.  0.
        -11    1    1    0    0    0 -0.15274042909E+02  0.23097475928E+02 -0.20544677842E+02  0.34480045953E+02  0.51100000000E-03 0. -1.
         11    1    1    0    0    0 -0.12413368713E+02  0.18769969306E+02 -0.16694740330E+02  0.28019954059E+02  0.51100000000E-03 0. -1.
         22    1    1    0    0    0  0.27687411622E+02 -0.41867445234E+02  0.37239418172E+02  0.62499999988E+02  0.00000000000E+00 0. -1.
</event>
<event>
 4    1  0.1974401E-002  0.9118800E+02  0.7818608E-02  0.1130116E+00
         25   -1    0    0    0    0  0.00000000000E+00  0.00000000000E+00  0.99999998245E-14  0.12500000000E+03  0.12500000000E+03 0.  0.
        -11    1    1    0    0    0 -0.23432220201E+01  0.44169856996E+00 -0.12489317642E-01  0.23845216096E+01  0.51100000000E-03 0.  1.
         11    1    1    0    0    0 -0.52282754634E+02 -0.11008370205E+01 -0.29995707044E+02  0.60286322791E+02  0.51100000000E-03 0. -1.
         22    1    1    0    0    0  0.54625976654E+02  0.65913845058E+00  0.30008196361E+02  0.62329155600E+02  0.00000000000E+00 0. -1.
</event>
<event>
 4    1  0.1974401E-002  0.9118800E+02  0.7818608E-02  0.1130116E+00
         25   -1    0    0    0    0  0.00000000000E+00  0.00000000000E+00  0.99999998245E-14  0.12500000000E+03  0.12500000000E+03 0.  0.
        -11    1    1    0    0    0  0.17706019796E+02 -0.47461875543E+01 -0.12399540143E+01  0.18372994299E+02  0.51100000000E-03 0.  1.
         11    1    1    0    0    0  0.42507852845E+02 -0.11454674508E+02 -0.30110079214E+01  0.44127013162E+02  0.51100000000E-03 0. -1.
         22    1    1    0    0    0 -0.60213872641E+02  0.16200862062E+02  0.42509619357E+01  0.62499992539E+02  0.00000000000E+00 0. -1.
</event>
<event>
 4    1  0.1974401E-002  0.9118800E+02  0.7818608E-02  0.1130116E+00
         25   -1    0    0    0    0  0.00000000000E+00  0.00000000000E+00  0.99999998245E-14  0.12500000000E+03  0.12500000000E+03 0.  0.
        -11    1    1    0    0    0 -0.61820516188E+01  0.11975079465E+02 -0.35173970365E+02  0.37667339725E+02  0.51100000000E-03 0. -1.
         11    1    1    0    0    0 -0.44100562402E+01  0.75378488503E+01 -0.23247933117E+02  0.24834132878E+02  0.51100000000E-03 0.  1.
         22    1    1    0    0    0  0.10592107859E+02 -0.19512928316E+02  0.58421903482E+02  0.62498527397E+02  0.00000000000E+00 0.  1.
</event>
<event>
 4    1  0.1974401E-002  0.9118800E+02  0.7818608E-02  0.1130116E+00
         25   -1    0    0    0    0  0.00000000000E+00  0.00000000000E+00  0.99999998245E-14  0.12500000000E+03  0.12500000000E+03 0.  0.
        -11    1    1    0    0    0  0.34462824853E+02 -0.33248813072E+02  0.21694586846E+02  0.52572093036E+02  0.51100000000E-03 0. -1.
         11    1    1    0    0    0  0.41274438490E+01 -0.61895070222E+01  0.70173711125E+01  0.10226890412E+02  0.51100000000E-03 0.  1.
         22    1    1    0    0    0 -0.38590268702E+02  0.39438320094E+02 -0.28711957958E+02  0.62201016552E+02  0.00000000000E+00 0. -1.
</event>
<event>
 4    1  0.1974401E-002  0.9118800E+02  0.7818608E-02  0.1130116E+00
         25   -1    0    0    0    0  0.00000000000E+00  0.00000000000E+00  0.99999998245E-14  0.12500000000E+03  0.12500000000E+03 0.  0.
        -11    1    1    0    0    0 -0.37777018348E+02 -0.17538700283E+02 -0.21944546545E+02  0.47077300753E+02  0.51100000000E-03 0.  1.
         11    1    1    0    0    0 -0.12333649082E+02 -0.57181101961E+01 -0.72834248478E+01  0.15422838963E+02  0.51100000000E-03 0. -1.
         22    1    1    0    0    0  0.50110667430E+02  0.23256810479E+02  0.29227971392E+02  0.62499860285E+02  0.00000000000E+00 0.  1.
</event>
<event>
 4    1  0.1974401E-002  0.9118800E+02  0.7818608E-02  0.1130116E+00
         25   -1    0    0    0    0  0.00000000000E+00  0.00000000000E+00  0.99999998245E-14  0.12500000000E+03  0.12500000000E+03 0.  0.
        -11    1    1    0    0    0  0.69809318715E+01  0.61087352628E+01 -0.16268840942E+02  0.18727659815E+02  0.51100000000E-03 0. -1.
         11    1    1    0    0    0  0.16316543905E+02  0.14285446463E+02 -0.38022548431E+02  0.43772340297E+02  0.51100000000E-03 0.  1.
         22    1    1    0    0    0 -0.23297475777E+02 -0.20394181725E+02  0.54291389373E+02  0.62499999887E+02  0.00000000000E+00 0. -1.
</event>
<event>
 4    1  0.1974401E-002  0.9118800E+02  0.7818608E-02  0.1130116E+00
         25   -1    0    0    0    0  0.00000000000E+00  0.00000000000E+00  0.99999998245E-14  0.12500000000E+03  0.12500000000E+03 0.  0.
        -11    1    1    0    0    0  0.91191659885E+01  0.59823215055E+01 -0.38278076477E+01  0.11558523719E+02  0.51100000000E-03 0. -1.
         11    1    1    0    0    0  0.40079656104E+02  0.26053960280E+02 -0.17604154796E+02  0.50942064603E+02  0.51100000000E-03 0.  1.
         22    1    1    0    0    0 -0.49198822092E+02 -0.32036281785E+02  0.21431962444E+02  0.62499411678E+02  0.00000000000E+00 0. -1.
</event>
<event>
 4    1  0.1974401E-002  0.9118800E+02  0.7818608E-02  0.1130116E+00
         25   -1    0    0    0    0  0.00000000000E+00  0.00000000000E+00  0.99999998245E-14  0.12500000000E+03  0.12500000000E+03 0.  0.
        -11    1    1    0    0    0  0.71190428664E+01  0.77788400017E+01 -0.77537255588E+01  0.13088597458E+02  0.51100000000E-03 0. -1.
         11    1    1    0    0    0  0.35392829455E+02  0.25085167431E+02 -0.23918582595E+02  0.49538031809E+02  0.51100000000E-03 0.  1.
         22    1    1    0    0    0 -0.42511872322E+02 -0.32864007433E+02  0.31672308153E+02  0.62373370733E+02  0.00000000000E+00 0.  1.
</event>
<event>
 4    1  0.1974401E-002  0.9118800E+02  0.7818608E-02  0.1130116E+00
         25   -1    0    0    0    0  0.00000000000E+00  0.00000000000E+00  0.99999998245E-14  0.12500000000E+03  0.12500000000E+03 0.  0.
        -11    1    1    0    0    0  0.21076626064E+02  0.16866628946E+02  0.52607129074E+01  0.27502407873E+02  0.51100000000E-03 0.  1.
         11    1    1    0    0    0  0.26820460849E+02  0.21458933597E+02  0.67088414369E+01  0.34997592846E+02  0.51100000000E-03 0. -1.
         22    1    1    0    0    0 -0.47897086913E+02 -0.38325562544E+02 -0.11969554344E+02  0.62499999282E+02  0.00000000000E+00 0.  1.
</event>
<event>
 4    1  0.1974401E-002  0.9118800E+02  0.7818608E-02  0.1130116E+00
         25   -1    0    0    0    0  0.00000000000E+00  0.00000000000E+00  0.99999998245E-14  0.12500000000E+03  0.12500000000E+03 0.  0.
        -11    1    1    0    0    0 -0.11761146378E+02 -0.50540725350E+01  0.16989214357E+02  0.21272085418E+02  0.51100000000E-03 0.  1.
         11    1    1    0    0    0 -0.20220956115E+02 -0.10474260092E+02  0.34390610196E+02  0.41246954561E+02  0.51100000000E-03 0. -1.
         22    1    1    0    0    0  0.31982102492E+02  0.15528332627E+02 -0.51379824553E+02  0.62480960021E+02  0.00000000000E+00 0. -1.
</event>
<event>
 4    1  0.1974401E-002  0.9118800E+02  0.7818608E-02  0.1130116E+00
         25   -1    0    0    0    0  0.00000000000E+00  0.00000000000E+00  0.99999998245E-14  0.12500000000E+03  0.12500000000E+03 0.  0.
        -11    1    1    0    0    0  0.25754143012E+01 -0.10872891164E+01  0.55842255270E+00  0.28507529626E+01  0.51100000000E-03 0. -1.
         11    1    1    0    0    0  0.53903733673E+02 -0.23558177221E+02  0.98753219863E+01  0.59649997506E+02  0.51100000000E-03 0.  1.
         22    1    1    0    0    0 -0.56479147974E+02  0.24645466338E+02 -0.10433744539E+02  0.62499249531E+02  0.00000000000E+00 0.  1.
</event>
<event>
 4    1  0.1974401E-002  0.9118800E+02  0.7818608E-02  0.1130116E+00
         25   -1    0    0    0    0  0.00000000000E+00  0.00000000000E+00  0.99999998245E-14  0.12500000000E+03  0.12500000000E+03 0.  0.
        -11    1    1    0    0    0  0.24334587833E+02 -0.36278758173E+02 -0.43941106888E+02  0.61960804823E+02  0.51100000000E-03 0.  1.
         11    1    1    0    0    0  0.21153605811E+00 -0.31602245908E+00 -0.38224821207E+00  0.53919537764E+00  0.51100000000E-03 0.  1.
         22    1    1    0    0    0 -0.24546123891E+02  0.36594780632E+02  0.44323355100E+02  0.62499999799E+02  0.00000000000E+00 0.  1.
</event>
<event>
 4    1  0.1974401E-002  0.9118800E+02  0.7818608E-02  0.1130116E+00
         25   -1    0    0    0    0  0.00000000000E+00  0.00000000000E+00  0.99999998245E-14  0.12500000000E+03  0.12500000000E+03 0.  0.
        -11    1    1    0    0    0  0.16998428332E+01  0.12158255422E+02  0.18317091463E+02  0.22050589119E+02  0.51100000000E-03 0.  1.
         11    1    1    0    0    0  0.36349526552E+01  0.21258091600E+02  0.34224902584E+02  0.40453223560E+02  0.51100000000E-03 0. -1.
         22    1    1    0    0    0 -0.53347954884E+01 -0.33416347022E+02 -0.52541994047E+02  0.62496187321E+02  0.00000000000E+00 0. -1.
</event>
<event>
 4    1  0.1974401E-002  0.9118800E+02  0.7818608E-02  0.1130116E+00
         25   -1    0    0    0    0  0.00000000000E+00  0.00000000000E+00  0.99999998245E-14  0.12500000000E+03  0.12500000000E+03 0.  0.
        -11    1    1    0    0    0 -0.20620210911E+02 -0.66727768522E+01  0.90317711842E+00  0.21691813619E+02  0.51100000000E-03 0.  1.
         11    1    1    0    0    0 -0.34772799624E+02 -0.17748973264E+02  0.13085604655E+02  0.41175316575E+02  0.51100000000E-03 0. -1.
         22    1    1    0    0    0  0.55393010534E+02  0.24421750116E+02 -0.13988781773E+02  0.62132869806E+02  0.00000000000E+00 0. -1.
</event>
<event>
 4    1  0.1974401E-002  0.9118800E+02  0.7818608E-02  0.1130116E+00
         25   -1    0    0    0    0  0.00000000000E+00  0.00000000000E+00  0.99999998245E-14  0.12500000000E+03  0.12500000000E+03 0.  0.
        -11    1    1    0    0    0  0.57329648817E+02  0.93971244352E+00 -0.19505947873E+02  0.60564459013E+02  0.51100000000E-03 0. -1.
         11    1    1    0    0    0  0.18596178418E+01 -0.47730247242E-02 -0.54072219968E+00  0.19366419539E+01  0.51100000000E-03 0.  1.
         22    1    1    0    0    0 -0.59189266658E+02 -0.93493941880E+00  0.20046670073E+02  0.62498899033E+02  0.00000000000E+00 0. -1.
</event>
<event>
 4    1  0.1974401E-002  0.9118800E+02  0.7818608E-02  0.1130116E+00
         25   -1    0    0    0    0  0.00000000000E+00  0.00000000000E+00  0.99999998245E-14  0.12500000000E+03  0.12500000000E+03 0.  0.
        -11    1    1    0    0    0 -0.16299891523E+02 -0.13327157072E+02  0.10331007196E+02  0.23452703239E+02  0.51100000000E-03 0. -1.
         11    1    1    0    0    0 -0.27136604862E+02 -0.22184132332E+02  0.17209310069E+02  0.39047297014E+02  0.51100000000E-03 0.  1.
         22    1    1    0    0    0  0.43436496385E+02  0.35511289404E+02 -0.27540317265E+02  0.62499999747E+02  0.00000000000E+00 0.  1.
</event>
<event>
 4    1  0.1974401E-002  0.9118800E+02  0.7818608E-02  0.1130116E+00
         25   -1    0    0    0    0  0.00000000000E+00  0.00000000000E+00  0.99999998245E-14  0.12500000000E+03  0.12500000000E+03 0.  0.
        -11    1    1    0    0    0 -0.21307286583E+02 -0.51452174338E+01  0.10977618881E+02  0.24514930972E+02  0.51100000000E-03 0. -1.
         11    1    1    0    0    0 -0.33014876190E+02 -0.79717091881E+01  0.17009858085E+02  0.37985069034E+02  0.51100000000E-03 0. -1.
         22    1    1    0    0    0  0.54322162773E+02  0.13116926622E+02 -0.27987476966E+02  0.62499999994E+02  0.00000000000E+00 0. -1.
</event>
<event>
 4    1  0.1974401E-002  0.9118800E+02  0.7818608E-02  0.1130116E+00
         25   -1    0    0    0    0  0.00000000000E+00  0.00000000000E+00  0.99999998245E-14  0.12500000000E+03  0.12500000000E+03 0.  0.
        -11    1    1    0    0    0  0.10011715814E+02 -0.72623088288E+01 -0.86795478509E+00  0.12398747067E+02  0.51100000000E-03 0. -1.
         11    1    1    0    0    0  0.40389194115E+02 -0.29302889974E+02 -0.45042648766E+01  0.50102243107E+02  0.51100000000E-03 0.  1.
         22    1    1    0    0    0 -0.50400909929E+02  0.36565198802E+02  0.53722196617E+01  0.62499009826E+02  0.00000000000E+00 0.  1.
</event>
<event>
 4    1  0.1974401E-002  0.9118800E+02  0.7818608E-02  0.1130116E+00
         25   -1    0    0    0    0  0.00000000000E+00  0.00000000000E+00  0.99999998245E-14  0.12500000000E+03  0.12500000000E+03 0.  0.
        -11    1    1    0    0    0 -0.11587901852E+02  0.11201366059E+02 -0.34601806106E+02  0.38171128578E+02  0.51100000000E-03 0.  1.
         11    1    1    0    0    0 -0.73706765195E+01  0.71124189331E+01 -0.22067645025E+02  0.24328878573E+02  0.51100000000E-03 0. -1.
         22    1    1    0    0    0  0.18958578371E+02 -0.18313784992E+02  0.56669451130E+02  0.62499992848E+02  0.00000000000E+00 0. -1.
</event>
<event>
 4    1  0.1974401E-002  0.9118800E+02  0.7818608E-02  0.1130116E+00
         25   -1    0    0    0    0  0.00000000000E+00  0.00000000000E+00  0.99999998245E-14  0.12500000000E+03  0.12500000000E+03 0.  0.
        -11    1    1    0    0    0 -0.96155505844E+01 -0.27668134338E+02 -0.19324237068E+02  0.35091460632E+02  0.51100000000E-03 0. -1.
         11    1    1    0    0    0  0.77096369008E+01 -0.15436968371E+02  0.38879652864E+02  0.42536641860E+02  0.51100000000E-03 0.  1.
         22    1    1    0    0    0  0.19059136836E+01  0.43105102709E+02 -0.19555415797E+02  0.47371897508E+02  0.00000000000E+00 0.  1.
</event>
<event>
 4    1  0.1974401E-002  0.9118800E+02  0.7818608E-02  0.1130116E+00
         25   -1    0    0    0    0  0.00000000000E+00  0.00000000000E+00  0.99999998245E-14  0.12500000000E+03  0.12500000000E+03 0.  0.
        -11    1    1    0    0    0  0.73531394503E+01 -0.45049104581E+01 -0.17164207886E+01  0.87925524506E+01  0.51100000000E-03 0.  1.
         11    1    1    0    0    0  0.50154215158E+02 -0.19446598080E+02 -0.16862113669E+01  0.53818758663E+02  0.51100000000E-03 0. -1.
         22    1    1    0    0    0 -0.57507354608E+02  0.23951508538E+02  0.34026321555E+01  0.62388688886E+02  0.00000000000E+00 0. -1.
</event>
<event>
 4    1  0.1974401E-002  0.9118800E+02  0.7818608E-02  0.1130116E+00
         25   -1    0    0    0    0  0.00000000000E+00  0.00000000000E+00  0.99999998245E-14  0.12500000000E+03  0.12500000000E+03 0.  0.
        -11    1    1    0    0    0 -0.69267214606E+01 -0.69626893413E+01  0.24592566179E+01  0.10124547221E+02  0.51100000000E-03 0. -1.
         11    1    1    0    0    0 -0.35834305850E+02 -0.36017408759E+02  0.12721511126E+02  0.52375452790E+02  0.51100000000E-03 0.  1.
         22    1    1    0    0    0  0.42761027310E+02  0.42980098100E+02 -0.15180767744E+02  0.62499999989E+02  0.00000000000E+00 0.  1.
</event>
<event>
 4    1  0.1974401E-002  0.9118800E+02  0.7818608E-02  0.1130116E+00
         25   -1    0    0    0    0  0.00000000000E+00  0.00000000000E+00  0.99999998245E-14  0.12500000000E+03  0.12500000000E+03 0.  0.
        -11    1    1    0    0    0  0.53150946576E+02 -0.75055745894E+00 -0.22102600594E+02  0.57568319514E+02  0.51100000000E-03 0. -1.
         11    1    1    0    0    0  0.45534147158E+01 -0.74529188016E-01 -0.18927177791E+01  0.49316854144E+01  0.51100000000E-03 0.  1.
         22    1    1    0    0    0 -0.57704361292E+02  0.82508664696E+00  0.23995318373E+02  0.62499995071E+02  0.00000000000E+00 0. -1.
</event>
<event>
 4    1  0.1974401E-002  0.9118800E+02  0.7818608E-02  0.1130116E+00
         25   -1    0    0    0    0  0.00000000000E+00  0.00000000000E+00  0.99999998245E-14  0.12500000000E+03  0.12500000000E+03 0.  0.
        -11    1    1    0    0    0 -0.11914216544E+02 -0.44307741730E+02 -0.32525796435E+02  0.56241016768E+02  0.51100000000E-03 0.  1.
         11    1    1    0    0    0 -0.75462819538E-01  0.13211376583E+01 -0.82217186704E+01  0.83275300963E+01  0.51100000000E-03 0. -1.
         22    1    1    0    0    0  0.11989679363E+02  0.42986604072E+02  0.40747515105E+02  0.60431453136E+02  0.00000000000E+00 0.  1.
</event>
<event>
 4    1  0.1974401E-002  0.9118800E+02  0.7818608E-02  0.1130116E+00
         25   -1    0    0    0    0  0.00000000000E+00  0.00000000000E+00  0.99999998245E-14  0.12500000000E+03  0.12500000000E+03 0.  0.
        -11    1    1    0    0    0 -0.88945589580E+00  0.56532181371E+00 -0.17958469936E+01  0.20822553227E+01  0.51100000000E-03 0. -1.
         11    1    1    0    0    0 -0.10886890062E+02  0.10756577719E+02 -0.58489276613E+02  0.60458447039E+02  0.51100000000E-03 0.  1.
         22    1    1    0    0    0  0.11776345958E+02 -0.11321899533E+02  0.60285123607E+02  0.62459297638E+02  0.00000000000E+00 0.  1.
</event>
<event>
 4    1  0.1974401E-002  0.9118800E+02  0.7818608E-02  0.1130116E+00
         25   -1    0    0    0    0  0.00000000000E+00  0.00000000000E+00  0.99999998245E-14  0.12500000000E+03  0.12500000000E+03 0.  0.
        -11    1    1    0    0    0  0.12242182731E+01  0.38802802295E+02  0.42974937289E+02  0.57913741129E+02  0.51100000000E-03 0.  1.
         11    1    1    0    0    0  0.86419000091E-01  0.30774603236E+01  0.33993540933E+01  0.45862663245E+01  0.51100000000E-03 0. -1.
         22    1    1    0    0    0 -0.13106372732E+01 -0.41880262618E+02 -0.46374291383E+02  0.62499992546E+02  0.00000000000E+00 0.  1.
</event>
<event>
 4    1  0.1974401E-002  0.9118800E+02  0.7818608E-02  0.1130116E+00
         25   -1    0    0    0    0  0.00000000000E+00  0.00000000000E+00  0.99999998245E-14  0.12500000000E+03  0.12500000000E+03 0.  0.
        -11    1    1    0    0    0 -0.50781318412E+01 -0.82956812730E+01 -0.86909261035E+01  0.13043693786E+02  0.51100000000E-03 0.  1.
         11    1    1    0    0    0 -0.19271463933E+02 -0.31432770490E+02 -0.32962371420E+02  0.49456307107E+02  0.51100000000E-03 0. -1.
         22    1    1    0    0    0  0.24349595775E+02  0.39728451763E+02  0.41653297523E+02  0.62499999107E+02  0.00000000000E+00 0. -1.
</event>
<event>
 4    1  0.1974401E-002  0.9118800E+02  0.7818608E-02  0.1130116E+00
         25   -1    0    0    0    0  0.00000000000E+00  0.00000000000E+00  0.99999998245E-14  0.12500000000E+03  0.12500000000E+03 0.  0.
        -11    1    1    0    0    0  0.61322007144E+01  0.25205163981E+02 -0.52188782898E+02  0.58280127295E+02  0.51100000000E-03 0.  1.
         11    1    1    0    0    0  0.43986487203E+00  0.18250640259E+01 -0.37792848319E+01  0.42198736836E+01  0.51100000000E-03 0. -1.
         22    1    1    0    0    0 -0.65720655864E+01 -0.27030228007E+02  0.55968067730E+02  0.62499999021E+02  0.00000000000E+00 0.  1.
</event>
<event>
 4    1  0.1974401E-002  0.9118800E+02  0.7818608E-02  0.1130116E+00
         25   -1    0    0    0    0  0.00000000000E+00  0.00000000000E+00  0.99999998245E-14  0.12500000000E+03  0.12500000000E+03 0.  0.
        -11    1    1    0    0    0  0.52873792687E+02  0.14603003271E+02  0.18979900591E+02  0.58044140827E+02  0.51100000000E-03 0.  1.
         11    1    1    0    0    0  0.40601603139E+01  0.11235841976E+01  0.14516730515E+01  0.44558610990E+01  0.51100000000E-03 0. -1.
         22    1    1    0    0    0 -0.56933953001E+02 -0.15726587469E+02 -0.20431573642E+02  0.62499998074E+02  0.00000000000E+00 0.  1.
</event>
<event>
 4    1  0.1974401E-002  0.9118800E+02  0.7818608E-02  0.1130116E+00
         25   -1    0    0    0    0  0.00000000000E+00  0.00000000000E+00  0.99999998245E-14  0.12500000000E+03  0.12500000000E+03 0.  0.
        -11    1    1    0    0    0 -0.90825445675E+01 -0.11143026851E+02 -0.71539087316E+01  0.16057337065E+02  0.51100000000E-03 0. -1.
         11    1    1    0    0    0 -0.35187513010E+02  0.40605736054E+02  0.13463334152E+02  0.55391770500E+02  0.51100000000E-03 0.  1.
         22    1    1    0    0    0  0.44270057577E+02 -0.29462709203E+02 -0.63094254207E+01  0.53550892435E+02  0.00000000000E+00 0.  1.
</event>
<event>
 4    1  0.1974401E-002  0.9118800E+02  0.7818608E-02  0.1130116E+00
         25   -1    0    0    0    0  0.00000000000E+00  0.00000000000E+00  0.99999998245E-14  0.12500000000E+03  0.12500000000E+03 0.  0.
        -11    1    1    0    0    0 -0.71352983887E+01  0.36168335100E+02  0.33316805475E+02  0.49689742144E+02  0.51100000000E-03 0.  1.
         11    1    1    0    0    0 -0.19752642546E+01  0.77370699585E+01  0.10113068368E+02  0.12885576142E+02  0.51100000000E-03 0. -1.
         22    1    1    0    0    0  0.91105626433E+01 -0.43905405059E+02 -0.43429873844E+02  0.62424681714E+02  0.00000000000E+00 0.  1.
</event>
<event>
 4    1  0.1974401E-002  0.9118800E+02  0.7818608E-02  0.1130116E+00
         25   -1    0    0    0    0  0.00000000000E+00  0.00000000000E+00  0.99999998245E-14  0.12500000000E+03  0.12500000000E+03 0.  0.
        -11    1    1    0    0    0 -0.13156923181E+02  0.28867543477E+01  0.85055844560E+01  0.15930566389E+02  0.51100000000E-03 0. -1.
         11    1    1    0    0    0 -0.38461358430E+02  0.84404049355E+01  0.24863539969E+02  0.46569433621E+02  0.51100000000E-03 0. -1.
         22    1    1    0    0    0  0.51618281611E+02 -0.11327159283E+02 -0.33369124425E+02  0.62499999990E+02  0.00000000000E+00 0. -1.
</event>
<event>
 4    1  0.1974401E-002  0.9118800E+02  0.7818608E-02  0.1130116E+00
         25   -1    0    0    0    0  0.00000000000E+00  0.00000000000E+00  0.99999998245E-14  0.12500000000E+03  0.12500000000E+03 0.  0.
        -11    1    1    0    0    0 -0.21859167116E+02  0.47097112327E+02  0.29082047221E+02  0.59512407508E+02  0.51100000000E-03 0.  1.
         11    1    1    0    0    0 -0.10389732105E+01  0.24078487328E+01  0.14322700036E+01  0.29880760493E+01  0.51100000000E-03 0. -1.
         22    1    1    0    0    0  0.22898140327E+02 -0.49504961060E+02 -0.30514317224E+02  0.62499516443E+02  0.00000000000E+00 0.  1.
</event>
<event>
 4    1  0.1974401E-002  0.9118800E+02  0.7818608E-02  0.1130116E+00
         25   -1    0    0    0    0  0.00000000000E+00  0.00000000000E+00  0.99999998245E-14  0.12500000000E+03  0.12500000000E+03 0.  0.
        -11    1    1    0    0    0  0.16802749272E+02 -0.40241713515E+01 -0.71715461075E+01  0.18707148687E+02  0.51100000000E-03 0. -1.
         11    1    1    0    0    0  0.39334640423E+02 -0.94207609802E+01 -0.16788363580E+02  0.43792851318E+02  0.51100000000E-03 0. -1.
         22    1    1    0    0    0 -0.56137389695E+02  0.13444932332E+02  0.23959909687E+02  0.62499999995E+02  0.00000000000E+00 0. -1.
</event>
<event>
 4    1  0.1974401E-002  0.9118800E+02  0.7818608E-02  0.1130116E+00
         25   -1    0    0    0    0  0.00000000000E+00  0.00000000000E+00  0.99999998245E-14  0.12500000000E+03  0.12500000000E+03 0.  0.
        -11    1    1    0    0    0 -0.24783789064E+02 -0.37849596442E+01 -0.19580230987E+02  0.31811123300E+02  0.51100000000E-03 0. -1.
         11    1    1    0    0    0 -0.23959366726E+02 -0.44383762282E+01 -0.18660874958E+02  0.30691671377E+02  0.51100000000E-03 0.  1.
         22    1    1    0    0    0  0.48743155790E+02  0.82233358724E+01  0.38241105945E+02  0.62497205323E+02  0.00000000000E+00 0. -1.
</event>
<event>
 4    1  0.1974401E-002  0.9118800E+02  0.7818608E-02  0.1130116E+00
         25   -1    0    0    0    0  0.00000000000E+00  0.00000000000E+00  0.99999998245E-14  0.12500000000E+03  0.12500000000E+03 0.  0.
        -11    1    1    0    0    0  0.19035562646E+02 -0.29606568908E+02  0.45255663707E+02  0.57332160831E+02  0.51100000000E-03 0.  1.
         11    1    1    0    0    0  0.16350993890E+01 -0.26592376154E+01  0.41188854362E+01  0.51682020282E+01  0.51100000000E-03 0. -1.
         22    1    1    0    0    0 -0.20670662035E+02  0.32265806523E+02 -0.49374549143E+02  0.62499637140E+02  0.00000000000E+00 0.  1.
</event>
<event>
 4    1  0.1974401E-002  0.9118800E+02  0.7818608E-02  0.1130116E+00
         25   -1    0    0    0    0  0.00000000000E+00  0.00000000000E+00  0.99999998245E-14  0.12500000000E+03  0.12500000000E+03 0.  0.
        -11    1    1    0    0    0  0.54278195256E+01  0.49708730997E+02  0.34493556099E+02  0.60747218659E+02  0.51100000000E-03 0. -1.
         11    1    1    0    0    0  0.15934646904E+00  0.14289852598E+01  0.10024442275E+01  0.17527934449E+01  0.51100000000E-03 0.  1.
         22    1    1    0    0    0 -0.55871659946E+01 -0.51137716257E+02 -0.35496000327E+02  0.62499987896E+02  0.00000000000E+00 0. -1.
</event>
<event>
 4    1  0.1974401E-002  0.9118800E+02  0.7818608E-02  0.1130116E+00
         25   -1    0    0    0    0  0.00000000000E+00  0.00000000000E+00  0.99999998245E-14  0.12500000000E+03  0.12500000000E+03 0.  0.
        -11    1    1    0    0    0 -0.56913420599E+01  0.92013596851E+01 -0.54867809489E+01  0.12130999956E+02  0.51100000000E-03 0.  1.
         11    1    1    0    0    0 -0.23313072428E+02  0.38327244925E+02 -0.22903532903E+02  0.50369126151E+02  0.51100000000E-03 0. -1.
         22    1    1    0    0    0  0.29004414487E+02 -0.47528604610E+02  0.28390313852E+02  0.62499873892E+02  0.00000000000E+00 0. -1.
</event>
<event>
 4    1  0.1974401E-002  0.9118800E+02  0.7818608E-02  0.1130116E+00
         25   -1    0    0    0    0  0.00000000000E+00  0.00000000000E+00  0.99999998245E-14  0.12500000000E+03  0.12500000000E+03 0.  0.
        -11    1    1    0    0    0  0.18261389882E+02  0.97354653371E+01  0.28427427273E+01  0.20888725003E+02  0.51100000000E-03 0. -1.
         11    1    1    0    0    0  0.36355711199E+02  0.19407352465E+02  0.57547077676E+01  0.41611293277E+02  0.51100000000E-03 0.  1.
         22    1    1    0    0    0 -0.54617101081E+02 -0.29142817802E+02 -0.85974504949E+01  0.62499981720E+02  0.00000000000E+00 0.  1.
</event>
<event>
 4    1  0.1974401E-002  0.9118800E+02  0.7818608E-02  0.1130116E+00
         25   -1    0    0    0    0  0.00000000000E+00  0.00000000000E+00  0.99999998245E-14  0.12500000000E+03  0.12500000000E+03 0.  0.
        -11    1    1    0    0    0 -0.17202955306E+00  0.72149563192E+01 -0.10074119168E+02  0.12392460052E+02  0.51100000000E-03 0. -1.
         11    1    1    0    0    0 -0.69084746842E+00  0.29176835809E+02 -0.40730830418E+02  0.50107540000E+02  0.51100000000E-03 0.  1.
         22    1    1    0    0    0  0.86287702148E+00 -0.36391792128E+02  0.50804949586E+02  0.62499999948E+02  0.00000000000E+00 0.  1.
</event>
<event>
 4    1  0.1974401E-002  0.9118800E+02  0.7818608E-02  0.1130116E+00
         25   -1    0    0    0    0  0.00000000000E+00  0.00000000000E+00  0.99999998245E-14  0.12500000000E+03  0.12500000000E+03 0.  0.
        -11    1    1    0    0    0 -0.30192987747E+02  0.32214687339E+02 -0.87073743239E+01  0.45002455015E+02  0.51100000000E-03 0.  1.
         11    1    1    0    0    0 -0.11610940064E+02  0.12585746975E+02 -0.36018354103E+01  0.17498233473E+02  0.51100000000E-03 0. -1.
         22    1    1    0    0    0  0.41803927811E+02 -0.44800434314E+02  0.12309209734E+02  0.62499311512E+02  0.00000000000E+00 0.  1.
</event>
<event>
 4    1  0.1974401E-002  0.9118800E+02  0.7818608E-02  0.1130116E+00
         25   -1    0    0    0    0  0.00000000000E+00  0.00000000000E+00  0.99999998245E-14  0.12500000000E+03  0.12500000000E+03 0.  0.
        -11    1    1    0    0    0 -0.85895297754E+01 -0.51957185601E+02  0.91056901330E+01  0.53443827992E+02  0.51100000000E-03 0. -1.
         11    1    1    0    0    0 -0.36552924755E+01 -0.82471833026E+01  0.16900884618E+01  0.91778861825E+01  0.51100000000E-03 0.  1.
         22    1    1    0    0    0  0.12244822251E+02  0.60204368904E+02 -0.10795778595E+02  0.62378285826E+02  0.00000000000E+00 0. -1.
</event>
<event>
 4    1  0.1974401E-002  0.9118800E+02  0.7818608E-02  0.1130116E+00
         25   -1    0    0    0    0  0.00000000000E+00  0.00000000000E+00  0.99999998245E-14  0.12500000000E+03  0.12500000000E+03 0.  0.
        -11    1    1    0    0    0 -0.23779766096E+01 -0.11233904181E+01  0.23737269892E+01  0.35427897013E+01  0.51100000000E-03 0. -1.
         11    1    1    0    0    0 -0.36700536575E+02 -0.14733505468E+02  0.43739394397E+02  0.58967280679E+02  0.51100000000E-03 0.  1.
         22    1    1    0    0    0  0.39078513185E+02  0.15856895886E+02 -0.46113121386E+02  0.62489929619E+02  0.00000000000E+00 0.  1.
</event>
<event>
 4    1  0.1974401E-002  0.9118800E+02  0.7818608E-02  0.1130116E+00
         25   -1    0    0    0    0  0.00000000000E+00  0.00000000000E+00  0.99999998245E-14  0.12500000000E+03  0.12500000000E+03 0.  0.
        -11    1    1    0    0    0 -0.18137889636E+02  0.38806503238E+02 -0.26642816191E+02  0.50445687515E+02  0.51100000000E-03 0.  1.
         11    1    1    0    0    0 -0.43334420331E+01  0.92734639336E+01 -0.63663644635E+01  0.12054312503E+02  0.51100000000E-03 0.  1.
         22    1    1    0    0    0  0.22471331669E+02 -0.48079967172E+02  0.33009180654E+02  0.62499999982E+02  0.00000000000E+00 0.  1.
</event>
<event>
 4    1  0.1974401E-002  0.9118800E+02  0.7818608E-02  0.1130116E+00
         25   -1    0    0    0    0  0.00000000000E+00  0.00000000000E+00  0.99999998245E-14  0.12500000000E+03  0.12500000000E+03 0.  0.
        -11    1    1    0    0    0  0.90578367357E+01 -0.16434907988E+02 -0.13544303519E+02  0.23143006827E+02  0.51100000000E-03 0. -1.
         11    1    1    0    0    0  0.15451749292E+02 -0.27905446001E+02 -0.23054355357E+02  0.39357004128E+02  0.51100000000E-03 0.  1.
         22    1    1    0    0    0 -0.24509586028E+02  0.44340353989E+02  0.36598658877E+02  0.62499989046E+02  0.00000000000E+00 0.  1.
</event>
<event>
 4    1  0.1974401E-002  0.9118800E+02  0.7818608E-02  0.1130116E+00
         25   -1    0    0    0    0  0.00000000000E+00  0.00000000000E+00  0.99999998245E-14  0.12500000000E+03  0.12500000000E+03 0.  0.
        -11    1    1    0    0    0  0.30889850132E+02  0.37775451495E+02  0.17215333252E+02  0.51744905799E+02  0.51100000000E-03 0. -1.
         11    1    1    0    0    0  0.64212415049E+01  0.78509908175E+01  0.35779396793E+01  0.10755094230E+02  0.51100000000E-03 0.  1.
         22    1    1    0    0    0 -0.37311091637E+02 -0.45626442313E+02 -0.20793272931E+02  0.62499999972E+02  0.00000000000E+00 0. -1.
</event>
<event>
 4    1  0.1974401E-002  0.9118800E+02  0.7818608E-02  0.1130116E+00
         25   -1    0    0    0    0  0.00000000000E+00  0.00000000000E+00  0.99999998245E-14  0.12500000000E+03  0.12500000000E+03 0.  0.
        -11    1    1    0    0    0  0.10903186640E+02 -0.13193095151E+02 -0.23379710756E+02  0.28974956667E+02  0.51100000000E-03 0. -1.
         11    1    1    0    0    0  0.18887054392E+02  0.55462547266E+00 -0.28906889824E+02  0.34534572715E+02  0.51100000000E-03 0.  1.
         22    1    1    0    0    0 -0.29790241032E+02  0.12638469679E+02  0.52286600580E+02  0.61490470618E+02  0.00000000000E+00 0.  1.
</event>
<event>
 4    1  0.1974401E-002  0.9118800E+02  0.7818608E-02  0.1130116E+00
         25   -1    0    0    0    0  0.00000000000E+00  0.00000000000E+00  0.99999998245E-14  0.12500000000E+03  0.12500000000E+03 0.  0.
        -11    1    1    0    0    0  0.10622955933E+02 -0.30540545689E+02 -0.33155008155E+02  0.46312273641E+02  0.51100000000E-03 0. -1.
         11    1    1    0    0    0  0.39879607581E+01 -0.10146567609E+02 -0.11973812938E+02  0.16193482078E+02  0.51100000000E-03 0.  1.
         22    1    1    0    0    0 -0.14610916691E+02  0.40687113299E+02  0.45128821093E+02  0.62494244282E+02  0.00000000000E+00 0. -1.
</event>
<event>
 4    1  0.1974401E-002  0.9118800E+02  0.7818608E-02  0.1130116E+00
         25   -1    0    0    0    0  0.00000000000E+00  0.00000000000E+00  0.99999998245E-14  0.12500000000E+03  0.12500000000E+03 0.  0.
        -11    1    1    0    0    0  0.31083611610E+01 -0.58712355872E+02 -0.10070667945E+02  0.59650825596E+02  0.51100000000E-03 0. -1.
         11    1    1    0    0    0  0.14764808719E+00 -0.28044574089E+01 -0.48063888608E+00  0.28491744973E+01  0.51100000000E-03 0.  1.
         22    1    1    0    0    0 -0.32560092482E+01  0.61516813281E+02  0.10551306832E+02  0.62499999907E+02  0.00000000000E+00 0. -1.
</event>
<event>
 4    1  0.1974401E-002  0.9118800E+02  0.7818608E-02  0.1130116E+00
         25   -1    0    0    0    0  0.00000000000E+00  0.00000000000E+00  0.99999998245E-14  0.12500000000E+03  0.12500000000E+03 0.  0.
        -11    1    1    0    0    0 -0.10500904728E+02  0.31859797103E+01  0.94687243384E+01  0.14494005923E+02  0.51100000000E-03 0.  1.
         11    1    1    0    0    0 -0.34785078760E+02  0.10535262177E+02  0.31362111707E+02  0.48005994464E+02  0.51100000000E-03 0. -1.
         22    1    1    0    0    0  0.45285983488E+02 -0.13721241888E+02 -0.40830836046E+02  0.62499999613E+02  0.00000000000E+00 0. -1.
</event>
<event>
 4    1  0.1974401E-002  0.9118800E+02  0.7818608E-02  0.1130116E+00
         25   -1    0    0    0    0  0.00000000000E+00  0.00000000000E+00  0.99999998245E-14  0.12500000000E+03  0.12500000000E+03 0.  0.
        -11    1    1    0    0    0  0.19938081173E+01  0.40261016153E+01 -0.49474103597E+00  0.45199042002E+01  0.51100000000E-03 0.  1.
         11    1    1    0    0    0  0.32085395390E+02  0.48272068017E+02 -0.21466919901E+01  0.58002357148E+02  0.51100000000E-03 0. -1.
         22    1    1    0    0    0 -0.34079203508E+02 -0.52298169632E+02  0.26414330261E+01  0.62477738652E+02  0.00000000000E+00 0. -1.
</event>
<event>
 4    1  0.1974401E-002  0.9118800E+02  0.7818608E-02  0.1130116E+00
         25   -1    0    0    0    0  0.00000000000E+00  0.00000000000E+00  0.99999998245E-14  0.12500000000E+03  0.12500000000E+03 0.  0.
        -11    1    1    0    0    0 -0.17930699516E+02 -0.30417698633E+02  0.50673813393E+02  0.61762300308E+02  0.51100000000E-03 0. -1.
         11    1    1    0    0    0 -0.21476202637E+00 -0.36363186261E+00  0.60485547979E+00  0.73769998782E+00  0.51100000000E-03 0.  1.
         22    1    1    0    0    0  0.18145461542E+02  0.30781330496E+02 -0.51278668873E+02  0.62499999704E+02  0.00000000000E+00 0. -1.
</event>
<event>
 4    1  0.1974401E-002  0.9118800E+02  0.7818608E-02  0.1130116E+00
         25   -1    0    0    0    0  0.00000000000E+00  0.00000000000E+00  0.99999998245E-14  0.12500000000E+03  0.12500000000E+03 0.  0.
        -11    1    1    0    0    0 -0.48728556178E+02  0.30265061135E+01 -0.17016432924E+02  0.51702910133E+02  0.51100000000E-03 0. -1.
         11    1    1    0    0    0 -0.10297466763E+02  0.77934145117E+00 -0.31638362771E+01  0.10800696972E+02  0.51100000000E-03 0.  1.
         22    1    1    0    0    0  0.59026022941E+02 -0.38058475647E+01  0.20180269201E+02  0.62496392895E+02  0.00000000000E+00 0. -1.
</event>
<event>
 4    1  0.1974401E-002  0.9118800E+02  0.7818608E-02  0.1130116E+00
         25   -1    0    0    0    0  0.00000000000E+00  0.00000000000E+00  0.99999998245E-14  0.12500000000E+03  0.12500000000E+03 0.  0.
        -11    1    1    0    0    0 -0.40560024132E+01  0.71898688504E+00  0.19610442294E+01  0.45622135469E+01  0.51100000000E-03 0. -1.
         11    1    1    0    0    0 -0.51493301841E+02  0.90922540623E+01  0.24951112713E+02  0.57937787706E+02  0.51100000000E-03 0.  1.
         22    1    1    0    0    0  0.55549304254E+02 -0.98112409473E+01 -0.26912156943E+02  0.62499998747E+02  0.00000000000E+00 0.  1.
</event>
<event>
 4    1  0.1974401E-002  0.9118800E+02  0.7818608E-02  0.1130116E+00
         25   -1    0    0    0    0  0.00000000000E+00  0.00000000000E+00  0.99999998245E-14  0.12500000000E+03  0.12500000000E+03 0.  0.
        -11    1    1    0    0    0 -0.29883351451E+02 -0.32080955192E+01 -0.46558075584E+02  0.55416251887E+02  0.51100000000E-03 0.  1.
         11    1    1    0    0    0 -0.38217644712E+01 -0.41110552053E+00 -0.59501763373E+01  0.70837483106E+01  0.51100000000E-03 0. -1.
         22    1    1    0    0    0  0.33705115922E+02  0.36192010397E+01  0.52508251922E+02  0.62499999803E+02  0.00000000000E+00 0.  1.
</event>
<event>
 4    1  0.1974401E-002  0.9118800E+02  0.7818608E-02  0.1130116E+00
         25   -1    0    0    0    0  0.00000000000E+00  0.00000000000E+00  0.99999998245E-14  0.12500000000E+03  0.12500000000E+03 0.  0.
        -11    1    1    0    0    0  0.67741540925E+00  0.52490227838E-01 -0.14699682795E+00  0.69516558406E+00  0.51100000000E-03 0.  1.
         11    1    1    0    0    0  0.60220530464E+02  0.46241234212E+01 -0.13112695481E+02  0.61804834680E+02  0.51100000000E-03 0. -1.
         22    1    1    0    0    0 -0.60897945873E+02 -0.46766136490E+01  0.13259692309E+02  0.62499999736E+02  0.00000000000E+00 0. -1.
</event>
<event>
 4    1  0.1974401E-002  0.9118800E+02  0.7818608E-02  0.1130116E+00
         25   -1    0    0    0    0  0.00000000000E+00  0.00000000000E+00  0.99999998245E-14  0.12500000000E+03  0.12500000000E+03 0.  0.
        -11    1    1    0    0    0 -0.12238801682E+00 -0.51494509588E+01  0.44003566692E+01  0.67745821333E+01  0.51100000000E-03 0. -1.
         11    1    1    0    0    0 -0.31563881162E+00 -0.43148230946E+02  0.35264139606E+02  0.55726376197E+02  0.51100000000E-03 0.  1.
         22    1    1    0    0    0  0.43802682844E+00  0.48297681905E+02 -0.39664496275E+02  0.62499041670E+02  0.00000000000E+00 0.  1.
</event>
<event>
 4    1  0.1974401E-002  0.9118800E+02  0.7818608E-02  0.1130116E+00
         25   -1    0    0    0    0  0.00000000000E+00  0.00000000000E+00  0.99999998245E-14  0.12500000000E+03  0.12500000000E+03 0.  0.
        -11    1    1    0    0    0  0.16379206614E+02 -0.46304038221E+02 -0.44071602945E+01  0.49312933669E+02  0.51100000000E-03 0. -1.
         11    1    1    0    0    0  0.43782120189E+01 -0.12383660930E+02 -0.11725765742E+01  0.13187066944E+02  0.51100000000E-03 0.  1.
         22    1    1    0    0    0 -0.20757418633E+02  0.58687699151E+02  0.55797368688E+01  0.62499999387E+02  0.00000000000E+00 0. -1.
</event>
<event>
 4    1  0.1974401E-002  0.9118800E+02  0.7818608E-02  0.1130116E+00
         25   -1    0    0    0    0  0.00000000000E+00  0.00000000000E+00  0.99999998245E-14  0.12500000000E+03  0.12500000000E+03 0.  0.
        -11    1    1    0    0    0 -0.11654473401E+02 -0.54283313004E+01  0.56243280175E+02  0.57694021320E+02  0.51100000000E-03 0.  1.
         11    1    1    0    0    0  0.13171556927E+02  0.78811024452E+01 -0.52368598841E+01  0.16218088338E+02  0.51100000000E-03 0. -1.
         22    1    1    0    0    0 -0.15170835267E+01 -0.24527711448E+01 -0.51006420291E+02  0.51087890342E+02  0.00000000000E+00 0.  1.
</event>
<event>
 4    1  0.1974401E-002  0.9118800E+02  0.7818608E-02  0.1130116E+00
         25   -1    0    0    0    0  0.00000000000E+00  0.00000000000E+00  0.99999998245E-14  0.12500000000E+03  0.12500000000E+03 0.  0.
        -11    1    1    0    0    0  0.26611302536E+02  0.87552413255E+01 -0.99868781703E+01  0.29741442621E+02  0.51100000000E-03 0. -1.
         11    1    1    0    0    0  0.11762145997E+02  0.30881288243E+02  0.20791131366E+02  0.39041941368E+02  0.51100000000E-03 0.  1.
         22    1    1    0    0    0 -0.38373448533E+02 -0.39636529569E+02 -0.10804253196E+02  0.56216616011E+02  0.00000000000E+00 0.  1.
</event>
<event>
 4    1  0.1974401E-002  0.9118800E+02  0.7818608E-02  0.1130116E+00
         25   -1    0    0    0    0  0.00000000000E+00  0.00000000000E+00  0.99999998245E-14  0.12500000000E+03  0.12500000000E+03 0.  0.
        -11    1    1    0    0    0  0.70676792920E+01  0.69931710602E+01 -0.43460596307E+01  0.10851026063E+02  0.51100000000E-03 0. -1.
         11    1    1    0    0    0  0.36660613298E+02  0.32452559850E+02 -0.16516926491E+02  0.51671830518E+02  0.51100000000E-03 0.  1.
         22    1    1    0    0    0 -0.43728292590E+02 -0.39445730910E+02  0.20862986121E+02  0.62477143418E+02  0.00000000000E+00 0.  1.
</event>
<event>
 4    1  0.1974401E-002  0.9118800E+02  0.7818608E-02  0.1130116E+00
         25   -1    0    0    0    0  0.00000000000E+00  0.00000000000E+00  0.99999998245E-14  0.12500000000E+03  0.12500000000E+03 0.  0.
        -11    1    1    0    0    0 -0.13738390990E+02  0.21898429217E+02 -0.10697783891E+02  0.27977261653E+02  0.51100000000E-03 0. -1.
         11    1    1    0    0    0 -0.16952304335E+02  0.27026668095E+02 -0.13190833153E+02  0.34522738740E+02  0.51100000000E-03 0.  1.
         22    1    1    0    0    0  0.30690695326E+02 -0.48925097312E+02  0.23888617044E+02  0.62499999607E+02  0.00000000000E+00 0.  1.
</event>
<event>
 4    1  0.1974401E-002  0.9118800E+02  0.7818608E-02  0.1130116E+00
         25   -1    0    0    0    0  0.00000000000E+00  0.00000000000E+00  0.99999998245E-14  0.12500000000E+03  0.12500000000E+03 0.  0.
        -11    1    1    0    0    0  0.44852446180E+02  0.22586612038E+02  0.35268251227E+02  0.61365678653E+02  0.51100000000E-03 0. -1.
         11    1    1    0    0    0  0.14949237524E+01 -0.11525589693E+01 -0.98129133899E+00  0.21274684854E+01  0.51100000000E-03 0.  1.
         22    1    1    0    0    0 -0.46347369932E+02 -0.21434053069E+02 -0.34286959888E+02  0.61506852862E+02  0.00000000000E+00 0. -1.
</event>
<event>
 4    1  0.1974401E-002  0.9118800E+02  0.7818608E-02  0.1130116E+00
         25   -1    0    0    0    0  0.00000000000E+00  0.00000000000E+00  0.99999998245E-14  0.12500000000E+03  0.12500000000E+03 0.  0.
        -11    1    1    0    0    0  0.19592401770E+02 -0.88046780779E+01 -0.51647377249E+01  0.22092059189E+02  0.51100000000E-03 0.  1.
         11    1    1    0    0    0  0.35835272965E+02 -0.16186518400E+02 -0.93078522050E+01  0.40407997714E+02  0.51100000000E-03 0. -1.
         22    1    1    0    0    0 -0.55427674734E+02  0.24991196478E+02  0.14472589930E+02  0.62499943097E+02  0.00000000000E+00 0. -1.
</event>
<event>
 4    1  0.1974401E-002  0.9118800E+02  0.7818608E-02  0.1130116E+00
         25   -1    0    0    0    0  0.00000000000E+00  0.00000000000E+00  0.99999998245E-14  0.12500000000E+03  0.12500000000E+03 0.  0.
        -11    1    1    0    0    0  0.27868988755E+02  0.12122929300E+02 -0.63956862406E+00  0.30398272933E+02  0.51100000000E-03 0. -1.
         11    1    1    0    0    0  0.29343058565E+02  0.13008519927E+02 -0.54805237685E+00  0.32101978729E+02  0.51100000000E-03 0.  1.
         22    1    1    0    0    0 -0.57212047319E+02 -0.25131449227E+02  0.11876210009E+01  0.62499748338E+02  0.00000000000E+00 0.  1.
</event>
<event>
 4    1  0.1974401E-002  0.9118800E+02  0.7818608E-02  0.1130116E+00
         25   -1    0    0    0    0  0.00000000000E+00  0.00000000000E+00  0.99999998245E-14  0.12500000000E+03  0.12500000000E+03 0.  0.
        -11    1    1    0    0    0 -0.15758101296E+02  0.34923123973E+01 -0.10273060142E+02  0.19132427114E+02  0.51100000000E-03 0.  1.
         11    1    1    0    0    0 -0.35794701019E+02  0.88573411508E+01 -0.22829840380E+02  0.43369513778E+02  0.51100000000E-03 0. -1.
         22    1    1    0    0    0  0.51552802315E+02 -0.12349653548E+02  0.33102900522E+02  0.62498059108E+02  0.00000000000E+00 0.  1.
</event>
<event>
 4    1  0.1974401E-002  0.9118800E+02  0.7818608E-02  0.1130116E+00
         25   -1    0    0    0    0  0.00000000000E+00  0.00000000000E+00  0.99999998245E-14  0.12500000000E+03  0.12500000000E+03 0.  0.
        -11    1    1    0    0    0  0.13565556876E+02 -0.29231029453E+02 -0.46131167795E+01  0.32553928533E+02  0.51100000000E-03 0.  1.
         11    1    1    0    0    0  0.12483932736E+02 -0.26886167861E+02 -0.42488368001E+01  0.29946071749E+02  0.51100000000E-03 0. -1.
         22    1    1    0    0    0 -0.26049489611E+02  0.56117197315E+02  0.88619535795E+01  0.62499999718E+02  0.00000000000E+00 0.  1.
</event>
<event>
 4    1  0.1974401E-002  0.9118800E+02  0.7818608E-02  0.1130116E+00
         25   -1    0    0    0    0  0.00000000000E+00  0.00000000000E+00  0.99999998245E-14  0.12500000000E+03  0.12500000000E+03 0.  0.
        -11    1    1    0    0    0 -0.63449645150E+01 -0.83472613117E+01 -0.45634016894E+01  0.11435033071E+02  0.51100000000E-03 0.  1.
         11    1    1    0    0    0 -0.28005602405E+02 -0.37048305456E+02 -0.21232557397E+02  0.51065763453E+02  0.51100000000E-03 0. -1.
         22    1    1    0    0    0  0.34350566920E+02  0.45395566768E+02  0.25795959086E+02  0.62499203475E+02  0.00000000000E+00 0. -1.
</event>
<event>
 4    1  0.1974401E-002  0.9118800E+02  0.7818608E-02  0.1130116E+00
         25   -1    0    0    0    0  0.00000000000E+00  0.00000000000E+00  0.99999998245E-14  0.12500000000E+03  0.12500000000E+03 0.  0.
        -11    1    1    0    0    0  0.70109969958E+01  0.35791369103E-01  0.33637734394E+00  0.70191530740E+01  0.51100000000E-03 0. -1.
         11    1    1    0    0    0  0.55416644919E+02  0.27961670223E+00  0.26536124568E+01  0.55480846956E+02  0.51100000000E-03 0. -1.
         22    1    1    0    0    0 -0.62427641915E+02 -0.31540807134E+00 -0.29899898008E+01  0.62499999970E+02  0.00000000000E+00 0. -1.
</event>
<event>
 4    1  0.1974401E-002  0.9118800E+02  0.7818608E-02  0.1130116E+00
         25   -1    0    0    0    0  0.00000000000E+00  0.00000000000E+00  0.99999998245E-14  0.12500000000E+03  0.12500000000E+03 0.  0.
        -11    1    1    0    0    0 -0.12198469165E+02 -0.38809438104E+01  0.25937031538E+01  0.13061074654E+02  0.51100000000E-03 0.  1.
         11    1    1    0    0    0 -0.46350124161E+02 -0.14376440362E+02  0.94455966627E+01  0.49439208568E+02  0.51100000000E-03 0. -1.
         22    1    1    0    0    0  0.58548593325E+02  0.18257384173E+02 -0.12039299817E+02  0.62499716778E+02  0.00000000000E+00 0. -1.
</event>
<event>
 4    1  0.1974401E-002  0.9118800E+02  0.7818608E-02  0.1130116E+00
         25   -1    0    0    0    0  0.00000000000E+00  0.00000000000E+00  0.99999998245E-14  0.12500000000E+03  0.12500000000E+03 0.  0.
        -11    1    1    0    0    0  0.69237092843E+01 -0.16607675239E+02  0.29873032296E+02  0.34873352089E+02  0.51100000000E-03 0.  1.
         11    1    1    0    0    0  0.55903563502E+01 -0.13394593036E+02  0.23507240358E+02  0.27627116321E+02  0.51100000000E-03 0. -1.
         22    1    1    0    0    0 -0.12514065635E+02  0.30002268274E+02 -0.53380272654E+02  0.62499531590E+02  0.00000000000E+00 0. -1.
</event>
<event>
 4    1  0.1974401E-002  0.9118800E+02  0.7818608E-02  0.1130116E+00
         25   -1    0    0    0    0  0.00000000000E+00  0.00000000000E+00  0.99999998245E-14  0.12500000000E+03  0.12500000000E+03 0.  0.
        -11    1    1    0    0    0 -0.82212298023E-01 -0.42105198112E+01 -0.16876354308E+01  0.45368876502E+01  0.51100000000E-03 0.  1.
         11    1    1    0    0    0 -0.58324529110E-01  0.17115620039E+02 -0.57443908160E+02  0.59939556522E+02  0.51100000000E-03 0. -1.
         22    1    1    0    0    0  0.14053682713E+00 -0.12905100228E+02  0.59131543591E+02  0.60523555827E+02  0.00000000000E+00 0. -1.
</event>
<event>
 4    1  0.1974401E-002  0.9118800E+02  0.7818608E-02  0.1130116E+00
         25   -1    0    0    0    0  0.00000000000E+00  0.00000000000E+00  0.99999998245E-14  0.12500000000E+03  0.12500000000E+03 0.  0.
        -11    1    1    0    0    0 -0.33086935756E+02 -0.15342317588E+02 -0.27726798796E+01  0.36576218786E+02  0.51100000000E-03 0. -1.
         11    1    1    0    0    0 -0.19703091162E+02  0.27214538569E+02  0.63659943718E+01  0.34196034791E+02  0.51100000000E-03 0.  1.
         22    1    1    0    0    0  0.52790026918E+02 -0.11872220981E+02 -0.35933144922E+01  0.54227746423E+02  0.00000000000E+00 0. -1.
</event>
<event>
 4    1  0.1974401E-002  0.9118800E+02  0.7818608E-02  0.1130116E+00
         25   -1    0    0    0    0  0.00000000000E+00  0.00000000000E+00  0.99999998245E-14  0.12500000000E+03  0.12500000000E+03 0.  0.
        -11    1    1    0    0    0 -0.17716082855E+02 -0.19859266964E+01  0.98011485222E+01  0.20343697038E+02  0.51100000000E-03 0. -1.
         11    1    1    0    0    0 -0.36712358444E+02 -0.41149562182E+01  0.20308218854E+02  0.42156302975E+02  0.51100000000E-03 0. -1.
         22    1    1    0    0    0  0.54428441299E+02  0.61008829147E+01 -0.30109367376E+02  0.62499999987E+02  0.00000000000E+00 0. -1.
</event>
<event>
 4    1  0.1974401E-002  0.9118800E+02  0.7818608E-02  0.1130116E+00
         25   -1    0    0    0    0  0.00000000000E+00  0.00000000000E+00  0.99999998245E-14  0.12500000000E+03  0.12500000000E+03 0.  0.
        -11    1    1    0    0    0 -0.47154019795E+02  0.19196433678E+02 -0.36746938347E+00  0.50913060041E+02  0.51100000000E-03 0.  1.
         11    1    1    0    0    0 -0.10727824308E+02  0.43771974736E+01 -0.10655352292E+00  0.11586950678E+02  0.51100000000E-03 0. -1.
         22    1    1    0    0    0  0.57881844102E+02 -0.23573631152E+02  0.47402290639E+00  0.62499989281E+02  0.00000000000E+00 0.  1.
</event>
<event>
 4    1  0.1974401E-002  0.9118800E+02  0.7818608E-02  0.1130116E+00
         25   -1    0    0    0    0  0.00000000000E+00  0.00000000000E+00  0.99999998245E-14  0.12500000000E+03  0.12500000000E+03 0.  0.
        -11    1    1    0    0    0  0.24641269419E+02 -0.30804028829E+02  0.43536136412E+02  0.58749259779E+02  0.51100000000E-03 0.  1.
         11    1    1    0    0    0  0.15737392497E+01 -0.19666984542E+01  0.27791175328E+01  0.37507402681E+01  0.51100000000E-03 0.  1.
         22    1    1    0    0    0 -0.26215008669E+02  0.32770727283E+02 -0.46315253944E+02  0.62499999953E+02  0.00000000000E+00 0.  1.
</event>
<event>
 4    1  0.1974401E-002  0.9118800E+02  0.7818608E-02  0.1130116E+00
         25   -1    0    0    0    0  0.00000000000E+00  0.00000000000E+00  0.99999998245E-14  0.12500000000E+03  0.12500000000E+03 0.  0.
        -11    1    1    0    0    0 -0.29239821794E+01 -0.23292656156E+02  0.94472288181E+01  0.25305091093E+02  0.51100000000E-03 0.  1.
         11    1    1    0    0    0 -0.15605220223E+02 -0.33841266207E+02 -0.13148456632E+02  0.39517541786E+02  0.51100000000E-03 0. -1.
         22    1    1    0    0    0  0.18529202403E+02  0.57133922364E+02  0.37012278142E+01  0.60177367121E+02  0.00000000000E+00 0. -1.
</event>
<event>
 4    1  0.1974401E-002  0.9118800E+02  0.7818608E-02  0.1130116E+00
         25   -1    0    0    0    0  0.00000000000E+00  0.00000000000E+00  0.99999998245E-14  0.12500000000E+03  0.12500000000E+03 0.  0.
        -11    1    1    0    0    0 -0.20698474199E+02  0.37556551217E+01  0.12319287549E+02  0.24378199801E+02  0.51100000000E-03 0. -1.
         11    1    1    0    0    0 -0.34560597477E+02  0.11178328608E+02  0.12245517877E+02  0.38332005384E+02  0.51100000000E-03 0.  1.
         22    1    1    0    0    0  0.55259071676E+02 -0.14933983730E+02 -0.24564805426E+02  0.62289794815E+02  0.00000000000E+00 0.  1.
</event>
<event>
 4    1  0.1974401E-002  0.9118800E+02  0.7818608E-02  0.1130116E+00
         25   -1    0    0    0    0  0.00000000000E+00  0.00000000000E+00  0.99999998245E-14  0.12500000000E+03  0.12500000000E+03 0.  0.
        -11    1    1    0    0    0  0.45152096213E+01 -0.14459727440E+02 -0.15741280263E+02  0.21846252314E+02  0.51100000000E-03 0. -1.
         11    1    1    0    0    0  0.84027677769E+01 -0.26907716551E+02 -0.29293266886E+02  0.40653747692E+02  0.51100000000E-03 0. -1.
         22    1    1    0    0    0 -0.12917977398E+02  0.41367443991E+02  0.45034547149E+02  0.62499999994E+02  0.00000000000E+00 0. -1.
</event>
<event>
 4    1  0.1974401E-002  0.9118800E+02  0.7818608E-02  0.1130116E+00
         25   -1    0    0    0    0  0.00000000000E+00  0.00000000000E+00  0.99999998245E-14  0.12500000000E+03  0.12500000000E+03 0.  0.
        -11    1    1    0    0    0 -0.71054950905E+01 -0.32589275676E+02  0.44221536077E+02  0.55390371030E+02  0.51100000000E-03 0. -1.
         11    1    1    0    0    0 -0.88543819678E+00 -0.41580877634E+01  0.56985912786E+01  0.71096861724E+01  0.51100000000E-03 0.  1.
         22    1    1    0    0    0  0.79909332872E+01  0.36747363440E+02 -0.49920127355E+02  0.62499942798E+02  0.00000000000E+00 0. -1.
</event>
<event>
 4    1  0.1974401E-002  0.9118800E+02  0.7818608E-02  0.1130116E+00
         25   -1    0    0    0    0  0.00000000000E+00  0.00000000000E+00  0.99999998245E-14  0.12500000000E+03  0.12500000000E+03 0.  0.
        -11    1    1    0    0    0 -0.14016237011E+02  0.93203128857E+00 -0.17042916771E+01  0.14150201152E+02  0.51100000000E-03 0. -1.
         11    1    1    0    0    0 -0.33934007734E+02 -0.17113832142E+02 -0.32302342137E+02  0.49878266201E+02  0.51100000000E-03 0.  1.
         22    1    1    0    0    0  0.47950244745E+02  0.16181800853E+02  0.34006633814E+02  0.60971532647E+02  0.00000000000E+00 0.  1.
</event>
<event>
 4    1  0.1974401E-002  0.9118800E+02  0.7818608E-02  0.1130116E+00
         25   -1    0    0    0    0  0.00000000000E+00  0.00000000000E+00  0.99999998245E-14  0.12500000000E+03  0.12500000000E+03 0.  0.
        -11    1    1    0    0    0  0.40367783603E+02  0.11809900002E+02  0.45172922976E+02  0.61722156974E+02  0.51100000000E-03 0. -1.
         11    1    1    0    0    0  0.51291272338E+00  0.13870062490E+00  0.56813933125E+00  0.77788166580E+00  0.51100000000E-03 0.  1.
         22    1    1    0    0    0 -0.40880696326E+02 -0.11948600626E+02 -0.45741062307E+02  0.62499961360E+02  0.00000000000E+00 0. -1.
</event>
<event>
 4    1  0.1974401E-002  0.9118800E+02  0.7818608E-02  0.1130116E+00
         25   -1    0    0    0    0  0.00000000000E+00  0.00000000000E+00  0.99999998245E-14  0.12500000000E+03  0.12500000000E+03 0.  0.
        -11    1    1    0    0    0  0.54850790002E+02 -0.52938197471E+01 -0.18336434970E+01  0.55136158192E+02  0.51100000000E-03 0. -1.
         11    1    1    0    0    0  0.70080169962E+01 -0.92776791352E+00 -0.26070123258E+01  0.75345583181E+01  0.51100000000E-03 0.  1.
         22    1    1    0    0    0 -0.61858806998E+02  0.62215876607E+01  0.44406558228E+01  0.62329283490E+02  0.00000000000E+00 0. -1.
</event>
<event>
 4    1  0.1974401E-002  0.9118800E+02  0.7818608E-02  0.1130116E+00
         25   -1    0    0    0    0  0.00000000000E+00  0.00000000000E+00  0.99999998245E-14  0.12500000000E+03  0.12500000000E+03 0.  0.
        -11    1    1    0    0    0 -0.99401725647E+00  0.50889207704E+00 -0.23246199419E+00  0.11406490661E+01  0.51100000000E-03 0.  1.
         11    1    1    0    0    0  0.24578394830E+02 -0.46283760816E+02  0.33828944606E+02  0.62375327664E+02  0.51100000000E-03 0. -1.
         22    1    1    0    0    0 -0.23584377574E+02  0.45774868739E+02 -0.33596482612E+02  0.61484023270E+02  0.00000000000E+00 0. -1.
</event>
<event>
 4    1  0.1974401E-002  0.9118800E+02  0.7818608E-02  0.1130116E+00
         25   -1    0    0    0    0  0.00000000000E+00  0.00000000000E+00  0.99999998245E-14  0.12500000000E+03  0.12500000000E+03 0.  0.
        -11    1    1    0    0    0 -0.44734097164E+01  0.33332898194E+00 -0.82300811896E+01  0.93731925911E+01  0.51100000000E-03 0. -1.
         11    1    1    0    0    0 -0.25364667979E+02  0.18829676937E+01 -0.46642745725E+02  0.53126807528E+02  0.51100000000E-03 0.  1.
         22    1    1    0    0    0  0.29838077695E+02 -0.22162966756E+01  0.54872826915E+02  0.62499999881E+02  0.00000000000E+00 0.  1.
</event>
<event>
 4    1  0.1974401E-002  0.9118800E+02  0.7818608E-02  0.1130116E+00
         25   -1    0    0    0    0  0.00000000000E+00  0.00000000000E+00  0.99999998245E-14  0.12500000000E+03  0.12500000000E+03 0.  0.
        -11    1    1    0    0    0 -0.52026092767E+02  0.12596484417E+02 -0.86091691421E+01  0.54217188620E+02  0.51100000000E-03 0. -1.
         11    1    1    0    0    0 -0.79448263146E+01  0.19204090274E+01 -0.13405287155E+01  0.82828288344E+01  0.51100000000E-03 0.  1.
         22    1    1    0    0    0  0.59970919082E+02 -0.14516893444E+02  0.99496978576E+01  0.62499982546E+02  0.00000000000E+00 0. -1.
</event>
<event>
 4    1  0.1974401E-002  0.9118800E+02  0.7818608E-02  0.1130116E+00
         25   -1    0    0    0    0  0.00000000000E+00  0.00000000000E+00  0.99999998245E-14  0.12500000000E+03  0.12500000000E+03 0.  0.
        -11    1    1    0    0    0 -0.95604237378E+01  0.32998491226E+01 -0.81041608803E+01  0.12960251931E+02  0.51100000000E-03 0. -1.
         11    1    1    0    0    0 -0.40327339664E+02 -0.33710653921E+01 -0.29068108348E+02  0.49825829943E+02  0.51100000000E-03 0.  1.
         22    1    1    0    0    0  0.49887763402E+02  0.71216269542E-01  0.37172269229E+02  0.62213918126E+02  0.00000000000E+00 0.  1.
</event>
<event>
 4    1  0.1974401E-002  0.9118800E+02  0.7818608E-02  0.1130116E+00
         25   -1    0    0    0    0  0.00000000000E+00  0.00000000000E+00  0.99999998245E-14  0.12500000000E+03  0.12500000000E+03 0.  0.
        -11    1    1    0    0    0  0.25382473979E+02 -0.14294712461E+02  0.40756723756E+02  0.50097098931E+02  0.51100000000E-03 0. -1.
         11    1    1    0    0    0 -0.23635266501E+02  0.12695420109E+02  0.64850955570E+01  0.27601738694E+02  0.51100000000E-03 0.  1.
         22    1    1    0    0    0 -0.17472074786E+01  0.15992923518E+01 -0.47241819313E+02  0.47301162375E+02  0.00000000000E+00 0. -1.
</event>
<event>
 4    1  0.1974401E-002  0.9118800E+02  0.7818608E-02  0.1130116E+00
         25   -1    0    0    0    0  0.00000000000E+00  0.00000000000E+00  0.99999998245E-14  0.12500000000E+03  0.12500000000E+03 0.  0.
        -11    1    1    0    0    0  0.12956957027E+02 -0.15904720817E+02  0.15202183703E+02  0.25533297266E+02  0.51100000000E-03 0.  1.
         11    1    1    0    0    0 -0.29739327321E+02 -0.31025199069E+02 -0.23435039693E+02  0.48950910639E+02  0.51100000000E-03 0. -1.
         22    1    1    0    0    0  0.16782370294E+02  0.46929919886E+02  0.82328559906E+01  0.50515792095E+02  0.00000000000E+00 0. -1.
</event>
<event>
 4    1  0.1974401E-002  0.9118800E+02  0.7818608E-02  0.1130116E+00
         25   -1    0    0    0    0  0.00000000000E+00  0.00000000000E+00  0.99999998245E-14  0.12500000000E+03  0.12500000000E+03 0.  0.
        -11    1    1    0    0    0  0.53460450257E+01 -0.21028868959E+02  0.74327675006E+01  0.22935552317E+02  0.51100000000E-03 0.  1.
         11    1    1    0    0    0  0.92212448171E+01 -0.36277113294E+02  0.12817379598E+02  0.39564447740E+02  0.51100000000E-03 0. -1.
         22    1    1    0    0    0 -0.14567289843E+02  0.57305982253E+02 -0.20250147099E+02  0.62499999943E+02  0.00000000000E+00 0. -1.
</event>
<event>
 4    1  0.1974401E-002  0.9118800E+02  0.7818608E-02  0.1130116E+00
         25   -1    0    0    0    0  0.00000000000E+00  0.00000000000E+00  0.99999998245E-14  0.12500000000E+03  0.12500000000E+03 0.  0.
        -11    1    1    0    0    0 -0.18736584789E+02 -0.11121391460E+02 -0.10164350699E+02  0.24042857213E+02  0.51100000000E-03 0. -1.
         11    1    1    0    0    0 -0.17827420275E+02  0.17647093280E+02 -0.34634274869E+02  0.42764118263E+02  0.51100000000E-03 0.  1.
         22    1    1    0    0    0  0.36564005063E+02 -0.65257018196E+01  0.44798625568E+02  0.58193024524E+02  0.00000000000E+00 0.  1.
</event>
<event>
 4    1  0.1974401E-002  0.9118800E+02  0.7818608E-02  0.1130116E+00
         25   -1    0    0    0    0  0.00000000000E+00  0.00000000000E+00  0.99999998245E-14  0.12500000000E+03  0.12500000000E+03 0.  0.
        -11    1    1    0    0    0 -0.24606319609E+02  0.30969719416E+02 -0.25306843877E+02  0.46957755831E+02  0.51100000000E-03 0.  1.
         11    1    1    0    0    0  0.92756994514E+01  0.16803119979E+02 -0.44592138872E+01  0.19704518013E+02  0.51100000000E-03 0. -1.
         22    1    1    0    0    0  0.15330620158E+02 -0.47772839396E+02  0.29766057764E+02  0.58337726157E+02  0.00000000000E+00 0.  1.
</event>
<event>
 4    1  0.1974401E-002  0.9118800E+02  0.7818608E-02  0.1130116E+00
         25   -1    0    0    0    0  0.00000000000E+00  0.00000000000E+00  0.99999998245E-14  0.12500000000E+03  0.12500000000E+03 0.  0.
        -11    1    1    0    0    0  0.21623848513E+02 -0.34774126093E+02  0.33835933262E+02  0.53119686088E+02  0.51100000000E-03 0. -1.
         11    1    1    0    0    0  0.26778277500E+01 -0.40681754419E+01  0.83061783297E+01  0.96287803792E+01  0.51100000000E-03 0.  1.
         22    1    1    0    0    0 -0.24301676263E+02  0.38842301535E+02 -0.42142111592E+02  0.62251533533E+02  0.00000000000E+00 0. -1.
</event>
<event>
 4    1  0.1974401E-002  0.9118800E+02  0.7818608E-02  0.1130116E+00
         25   -1    0    0    0    0  0.00000000000E+00  0.00000000000E+00  0.99999998245E-14  0.12500000000E+03  0.12500000000E+03 0.  0.
        -11    1    1    0    0    0  0.67035828465E+01  0.83145797019E+01  0.94507605508E+01  0.14261386112E+02  0.51100000000E-03 0. -1.
         11    1    1    0    0    0  0.22687480330E+02  0.27757945889E+02  0.32276380900E+02  0.48238885642E+02  0.51100000000E-03 0.  1.
         22    1    1    0    0    0 -0.29391063177E+02 -0.36072525591E+02 -0.41727141451E+02  0.62499728246E+02  0.00000000000E+00 0. -1.
</event>
<event>
 4    1  0.1974401E-002  0.9118800E+02  0.7818608E-02  0.1130116E+00
         25   -1    0    0    0    0  0.00000000000E+00  0.00000000000E+00  0.99999998245E-14  0.12500000000E+03  0.12500000000E+03 0.  0.
        -11    1    1    0    0    0  0.65560814834E+01  0.85820553237E+01  0.45675733558E+02  0.46935130918E+02  0.51100000000E-03 0.  1.
         11    1    1    0    0    0  0.22150571411E+01  0.26401159335E+01  0.15179110285E+02  0.15565412927E+02  0.51100000000E-03 0. -1.
         22    1    1    0    0    0 -0.87711386245E+01 -0.11222171257E+02 -0.60854843843E+02  0.62499456155E+02  0.00000000000E+00 0.  1.
</event>
<event>
 4    1  0.1974401E-002  0.9118800E+02  0.7818608E-02  0.1130116E+00
         25   -1    0    0    0    0  0.00000000000E+00  0.00000000000E+00  0.99999998245E-14  0.12500000000E+03  0.12500000000E+03 0.  0.
        -11    1    1    0    0    0 -0.83922812824E-02  0.31237408564E+01 -0.16604912453E+01  0.35376629016E+01  0.51100000000E-03 0.  1.
         11    1    1    0    0    0 -0.16665107113E+01  0.51996349849E+02 -0.27752942185E+02  0.58962898977E+02  0.51100000000E-03 0. -1.
         22    1    1    0    0    0  0.16749029926E+01 -0.55120090705E+02  0.29413433430E+02  0.62499438122E+02  0.00000000000E+00 0. -1.
</event>
<event>
 4    1  0.1974401E-002  0.9118800E+02  0.7818608E-02  0.1130116E+00
         25   -1    0    0    0    0  0.00000000000E+00  0.00000000000E+00  0.99999998245E-14  0.12500000000E+03  0.12500000000E+03 0.  0.
        -11    1    1    0    0    0  0.25774310172E+01 -0.64529601135E+01 -0.20883787912E+02  0.22009462571E+02  0.51100000000E-03 0. -1.
         11    1    1    0    0    0  0.47540784566E+01 -0.11897986349E+02 -0.38409900394E+02  0.40490539508E+02  0.51100000000E-03 0.  1.
         22    1    1    0    0    0 -0.73315094738E+01  0.18350946462E+02  0.59293688305E+02  0.62499997921E+02  0.00000000000E+00 0. -1.
</event>
<event>
 4    1  0.1974401E-002  0.9118800E+02  0.7818608E-02  0.1130116E+00
         25   -1    0    0    0    0  0.00000000000E+00  0.00000000000E+00  0.99999998245E-14  0.12500000000E+03  0.12500000000E+03 0.  0.
        -11    1    1    0    0    0 -0.91812762698E+01 -0.28718243899E+02  0.49571604955E+01  0.30554980069E+02  0.51100000000E-03 0. -1.
         11    1    1    0    0    0 -0.96079376108E+01 -0.30021436808E+02  0.51850929599E+01  0.31945020307E+02  0.51100000000E-03 0.  1.
         22    1    1    0    0    0  0.18789213881E+02  0.58739680707E+02 -0.10142253455E+02  0.62499999624E+02  0.00000000000E+00 0. -1.
</event>
<event>
 4    1  0.1974401E-002  0.9118800E+02  0.7818608E-02  0.1130116E+00
         25   -1    0    0    0    0  0.00000000000E+00  0.00000000000E+00  0.99999998245E-14  0.12500000000E+03  0.12500000000E+03 0.  0.
        -11    1    1    0    0    0  0.30436927587E+02 -0.35896734197E+02 -0.15171230324E+02  0.49448440994E+02  0.51100000000E-03 0.  1.
         11    1    1    0    0    0  0.76959748849E+01 -0.91702439917E+01 -0.52663078242E+01  0.13078815033E+02  0.51100000000E-03 0. -1.
         22    1    1    0    0    0 -0.38132902472E+02  0.45066978189E+02  0.20437538148E+02  0.62472743973E+02  0.00000000000E+00 0.  1.
</event>
<event>
 4    1  0.1974401E-002  0.9118800E+02  0.7818608E-02  0.1130116E+00
         25   -1    0    0    0    0  0.00000000000E+00  0.00000000000E+00  0.99999998245E-14  0.12500000000E+03  0.12500000000E+03 0.  0.
        -11    1    1    0    0    0 -0.25949153760E+01 -0.50576267431E+01  0.88475447802E+00  0.57529092491E+01  0.51100000000E-03 0. -1.
         11    1    1    0    0    0 -0.25595023787E+02 -0.49890702686E+02  0.87203701280E+01  0.56747090785E+02  0.51100000000E-03 0. -1.
         22    1    1    0    0    0  0.28189939163E+02  0.54948329429E+02 -0.96051246060E+01  0.62499999966E+02  0.00000000000E+00 0. -1.
</event>
<event>
 4    1  0.1974401E-002  0.9118800E+02  0.7818608E-02  0.1130116E+00
         25   -1    0    0    0    0  0.00000000000E+00  0.00000000000E+00  0.99999998245E-14  0.12500000000E+03  0.12500000000E+03 0.  0.
        -11    1    1    0    0    0  0.10542137081E+02  0.28528711161E+01 -0.40455952656E+02  0.41904172029E+02  0.51100000000E-03 0.  1.
         11    1    1    0    0    0  0.45437131356E+01  0.12606149140E+01 -0.20052586903E+02  0.20599532052E+02  0.51100000000E-03 0. -1.
         22    1    1    0    0    0 -0.15085850217E+02 -0.41134860302E+01  0.60508539559E+02  0.62496295919E+02  0.00000000000E+00 0.  1.
</event>
<event>
 4    1  0.1974401E-002  0.9118800E+02  0.7818608E-02  0.1130116E+00
         25   -1    0    0    0    0  0.00000000000E+00  0.00000000000E+00  0.99999998245E-14  0.12500000000E+03  0.12500000000E+03 0.  0.
        -11    1    1    0    0    0  0.59382923163E+01 -0.34805077915E+01  0.13467626309E+02  0.15124622600E+02  0.51100000000E-03 0.  1.
         11    1    1    0    0    0  0.27745414450E+02 -0.26390591495E+01  0.38570115405E+02  0.47585990152E+02  0.51100000000E-03 0. -1.
         22    1    1    0    0    0 -0.33683706766E+02  0.61195669410E+01 -0.52037741714E+02  0.62289387248E+02  0.00000000000E+00 0. -1.
</event>
<event>
 4    1  0.1974401E-002  0.9118800E+02  0.7818608E-02  0.1130116E+00
         25   -1    0    0    0    0  0.00000000000E+00  0.00000000000E+00  0.99999998245E-14  0.12500000000E+03  0.12500000000E+03 0.  0.
        -11    1    1    0    0    0 -0.99023938813E+01  0.14453767303E+02 -0.12344006511E+02  0.21432295510E+02  0.51100000000E-03 0.  1.
         11    1    1    0    0    0 -0.19406350995E+02  0.27579113884E+02 -0.23438953273E+02  0.41068217789E+02  0.51100000000E-03 0. -1.
         22    1    1    0    0    0  0.29308744876E+02 -0.42032881187E+02  0.35782959783E+02  0.62499486701E+02  0.00000000000E+00 0.  1.
</event>
<event>
 4    1  0.1974401E-002  0.9118800E+02  0.7818608E-02  0.1130116E+00
         25   -1    0    0    0    0  0.00000000000E+00  0.00000000000E+00  0.99999998245E-14  0.12500000000E+03  0.12500000000E+03 0.  0.
        -11    1    1    0    0    0  0.25306203168E+01  0.86765217772E+01  0.72123376103E+01  0.11563039540E+02  0.51100000000E-03 0.  1.
         11    1    1    0    0    0  0.12354427773E+02  0.36251373952E+02  0.33594360995E+02  0.50944823976E+02  0.51100000000E-03 0. -1.
         22    1    1    0    0    0 -0.14885048090E+02 -0.44927895729E+02 -0.40806698605E+02  0.62492136484E+02  0.00000000000E+00 0. -1.
</event>
<event>
 4    1  0.1974401E-002  0.9118800E+02  0.7818608E-02  0.1130116E+00
         25   -1    0    0    0    0  0.00000000000E+00  0.00000000000E+00  0.99999998245E-14  0.12500000000E+03  0.12500000000E+03 0.  0.
        -11    1    1    0    0    0  0.20645398878E+02  0.33696398407E+02 -0.30373835128E+02  0.49842247352E+02  0.51100000000E-03 0.  1.
         11    1    1    0    0    0  0.88983685133E+01  0.75925158597E+01 -0.55661536752E+01  0.12954123910E+02  0.51100000000E-03 0. -1.
         22    1    1    0    0    0 -0.29543767391E+02 -0.41288914267E+02  0.35939988803E+02  0.62203628738E+02  0.00000000000E+00 0.  1.
</event>
<event>
 4    1  0.1974401E-002  0.9118800E+02  0.7818608E-02  0.1130116E+00
         25   -1    0    0    0    0  0.00000000000E+00  0.00000000000E+00  0.99999998245E-14  0.12500000000E+03  0.12500000000E+03 0.  0.
        -11    1    1    0    0    0 -0.50270222340E+01 -0.96930155965E+01  0.44729804178E-01  0.10919134806E+02  0.51100000000E-03 0.  1.
         11    1    1    0    0    0 -0.22966857998E+02 -0.46183567101E+02  0.51176248582E+00  0.51581589134E+02  0.51100000000E-03 0. -1.
         22    1    1    0    0    0  0.27993880232E+02  0.55876582697E+02 -0.55649229000E+00  0.62499276060E+02  0.00000000000E+00 0. -1.
</event>
<event>
 4    1  0.1974401E-002  0.9118800E+02  0.7818608E-02  0.1130116E+00
         25   -1    0    0    0    0  0.00000000000E+00  0.00000000000E+00  0.99999998245E-14  0.12500000000E+03  0.12500000000E+03 0.  0.
        -11    1    1    0    0    0 -0.36942047134E+02  0.34631053908E+02 -0.36236896982E+02  0.62266663990E+02  0.51100000000E-03 0.  1.
         11    1    1    0    0    0  0.38421853488E+00 -0.59802224793E+00 -0.37599860502E+00  0.80413288930E+00  0.51100000000E-03 0. -1.
         22    1    1    0    0    0  0.36557828599E+02 -0.34033031661E+02  0.36612895587E+02  0.61929203121E+02  0.00000000000E+00 0.  1.
</event>
<event>
 4    1  0.1974401E-002  0.9118800E+02  0.7818608E-02  0.1130116E+00
         25   -1    0    0    0    0  0.00000000000E+00  0.00000000000E+00  0.99999998245E-14  0.12500000000E+03  0.12500000000E+03 0.  0.
        -11    1    1    0    0    0  0.21344881321E-02  0.98717153355E-03  0.41838497971E-03  0.24426858607E-02  0.51100000000E-03 0. -1.
         11    1    1    0    0    0  0.62221778112E+02 -0.37273542799E+01 -0.45307012432E+01  0.62497760723E+02  0.51100000000E-03 0. -1.
         22    1    1    0    0    0 -0.62223912600E+02  0.37263671084E+01  0.45302828582E+01  0.62499796591E+02  0.00000000000E+00 0. -1.
</event>
<event>
 4    1  0.1974401E-002  0.9118800E+02  0.7818608E-02  0.1130116E+00
         25   -1    0    0    0    0  0.00000000000E+00  0.00000000000E+00  0.99999998245E-14  0.12500000000E+03  0.12500000000E+03 0.  0.
        -11    1    1    0    0    0 -0.34756633681E+02 -0.12987874750E+02  0.39994811473E+01  0.37318953965E+02  0.51100000000E-03 0.  1.
         11    1    1    0    0    0 -0.23465508424E+02 -0.87259452900E+01  0.27043222716E+01  0.25181055697E+02  0.51100000000E-03 0. -1.
         22    1    1    0    0    0  0.58222142104E+02  0.21713820040E+02 -0.67038034188E+01  0.62499990338E+02  0.00000000000E+00 0.  1.
</event>
<event>
 4    1  0.1974401E-002  0.9118800E+02  0.7818608E-02  0.1130116E+00
         25   -1    0    0    0    0  0.00000000000E+00  0.00000000000E+00  0.99999998245E-14  0.12500000000E+03  0.12500000000E+03 0.  0.
        -11    1    1    0    0    0 -0.12425225641E+01 -0.60813265478E+01 -0.25857133136E+01  0.67240098531E+01  0.51100000000E-03 0.  1.
         11    1    1    0    0    0 -0.19470262552E+02 -0.50076302850E+02 -0.15194260885E+02  0.55835408076E+02  0.51100000000E-03 0. -1.
         22    1    1    0    0    0  0.20712785116E+02  0.56157629398E+02  0.17779974198E+02  0.62440582071E+02  0.00000000000E+00 0. -1.
</event>
<event>
 4    1  0.1974401E-002  0.9118800E+02  0.7818608E-02  0.1130116E+00
         25   -1    0    0    0    0  0.00000000000E+00  0.00000000000E+00  0.99999998245E-14  0.12500000000E+03  0.12500000000E+03 0.  0.
        -11    1    1    0    0    0 -0.33513175570E+02 -0.86832875468E+01  0.17155590666E+02  0.38637374533E+02  0.51100000000E-03 0.  1.
         11    1    1    0    0    0 -0.16413939852E+02 -0.17738727797E+02  0.66466953467E+01  0.25065084174E+02  0.51100000000E-03 0. -1.
         22    1    1    0    0    0  0.49927115422E+02  0.26422015344E+02 -0.23802286012E+02  0.61297541294E+02  0.00000000000E+00 0.  1.
</event>
<event>
 4    1  0.1974401E-002  0.9118800E+02  0.7818608E-02  0.1130116E+00
         25   -1    0    0    0    0  0.00000000000E+00  0.00000000000E+00  0.99999998245E-14  0.12500000000E+03  0.12500000000E+03 0.  0.
        -11    1    1    0    0    0  0.97628793899E+01 -0.46978117746E+02  0.15906671020E+02  0.50549772938E+02  0.51100000000E-03 0.  1.
         11    1    1    0    0    0  0.23081856107E+01 -0.11105505861E+02  0.37613755354E+01  0.11950227087E+02  0.51100000000E-03 0.  1.
         22    1    1    0    0    0 -0.12071065001E+02  0.58083623607E+02 -0.19668046556E+02  0.62499999975E+02  0.00000000000E+00 0.  1.
</event>
<event>
 4    1  0.1974401E-002  0.9118800E+02  0.7818608E-02  0.1130116E+00
         25   -1    0    0    0    0  0.00000000000E+00  0.00000000000E+00  0.99999998245E-14  0.12500000000E+03  0.12500000000E+03 0.  0.
        -11    1    1    0    0    0 -0.28640031926E+02  0.14943937936E+02  0.42105420100E+02  0.53070133897E+02  0.51100000000E-03 0.  1.
         11    1    1    0    0    0 -0.66900869136E+01  0.70839129176E+01  0.33360457203E+01  0.10298945890E+02  0.51100000000E-03 0. -1.
         22    1    1    0    0    0  0.35330118840E+02 -0.22027850853E+02 -0.45441465820E+02  0.61630920213E+02  0.00000000000E+00 0.  1.
</event>
<event>
 4    1  0.1974401E-002  0.9118800E+02  0.7818608E-02  0.1130116E+00
         25   -1    0    0    0    0  0.00000000000E+00  0.00000000000E+00  0.99999998245E-14  0.12500000000E+03  0.12500000000E+03 0.  0.
        -11    1    1    0    0    0 -0.29919906448E+02  0.11044141057E+02 -0.10891610352E+02  0.33701647287E+02  0.51100000000E-03 0.  1.
         11    1    1    0    0    0 -0.25061096890E+02  0.11312956461E+02 -0.86281825944E+01  0.28818173023E+02  0.51100000000E-03 0. -1.
         22    1    1    0    0    0  0.54981003338E+02 -0.22357097518E+02  0.19519792946E+02  0.62480179690E+02  0.00000000000E+00 0. -1.
</event>
<event>
 4    1  0.1974401E-002  0.9118800E+02  0.7818608E-02  0.1130116E+00
         25   -1    0    0    0    0  0.00000000000E+00  0.00000000000E+00  0.99999998245E-14  0.12500000000E+03  0.12500000000E+03 0.  0.
        -11    1    1    0    0    0  0.62567790303E+00 -0.40196970421E+01  0.48366837027E+01  0.63200432474E+01  0.51100000000E-03 0. -1.
         11    1    1    0    0    0  0.56178578951E+01 -0.35691860910E+02  0.43019978530E+02  0.56179959198E+02  0.51100000000E-03 0.  1.
         22    1    1    0    0    0 -0.62435357981E+01  0.39711557952E+02 -0.47856662233E+02  0.62499997554E+02  0.00000000000E+00 0.  1.
</event>
<event>
 4    1  0.1974401E-002  0.9118800E+02  0.7818608E-02  0.1130116E+00
         25   -1    0    0    0    0  0.00000000000E+00  0.00000000000E+00  0.99999998245E-14  0.12500000000E+03  0.12500000000E+03 0.  0.
        -11    1    1    0    0    0  0.36702094802E+02  0.17735904240E+02 -0.10554763163E+02  0.42107114455E+02  0.51100000000E-03 0. -1.
         11    1    1    0    0    0  0.17725575332E+02  0.87005711650E+01 -0.50969468564E+01  0.20393009267E+02  0.51100000000E-03 0.  1.
         22    1    1    0    0    0 -0.54427670135E+02 -0.26436475405E+02  0.15651710020E+02  0.62499876277E+02  0.00000000000E+00 0. -1.
</event>
<event>
 4    1  0.1974401E-002  0.9118800E+02  0.7818608E-02  0.1130116E+00
         25   -1    0    0    0    0  0.00000000000E+00  0.00000000000E+00  0.99999998245E-14  0.12500000000E+03  0.12500000000E+03 0.  0.
        -11    1    1    0    0    0 -0.49995689881E+01 -0.12311708721E+02  0.18633314849E+01  0.13418117088E+02  0.51100000000E-03 0. -1.
         11    1    1    0    0    0 -0.17307082003E+02 -0.41897683134E+02  0.19286343372E+02  0.49263718703E+02  0.51100000000E-03 0.  1.
         22    1    1    0    0    0  0.22306650991E+02  0.54209391856E+02 -0.21149674857E+02  0.62318164209E+02  0.00000000000E+00 0.  1.
</event>
<event>
 4    1  0.1974401E-002  0.9118800E+02  0.7818608E-02  0.1130116E+00
         25   -1    0    0    0    0  0.00000000000E+00  0.00000000000E+00  0.99999998245E-14  0.12500000000E+03  0.12500000000E+03 0.  0.
        -11    1    1    0    0    0  0.15578088504E+02 -0.20035677100E+02  0.83152015062E+01  0.26706699059E+02  0.51100000000E-03 0. -1.
         11    1    1    0    0    0  0.19342653997E+02 -0.27296667269E+02  0.12768068333E+02  0.35808796082E+02  0.51100000000E-03 0.  1.
         22    1    1    0    0    0 -0.34920742501E+02  0.47332344369E+02 -0.21083269840E+02  0.62484504858E+02  0.00000000000E+00 0.  1.
</event>
<event>
 4    1  0.1974401E-002  0.9118800E+02  0.7818608E-02  0.1130116E+00
         25   -1    0    0    0    0  0.00000000000E+00  0.00000000000E+00  0.99999998245E-14  0.12500000000E+03  0.12500000000E+03 0.  0.
        -11    1    1    0    0    0  0.16324900441E+02 -0.26338375158E+02  0.26306636912E+02  0.40647896947E+02  0.51100000000E-03 0. -1.
         11    1    1    0    0    0  0.87926313011E+01 -0.14149471803E+02  0.14142015775E+02  0.21852105801E+02  0.51100000000E-03 0.  1.
         22    1    1    0    0    0 -0.25117531742E+02  0.40487846961E+02 -0.40448652686E+02  0.62499997252E+02  0.00000000000E+00 0. -1.
</event>
<event>
 4    1  0.1974401E-002  0.9118800E+02  0.7818608E-02  0.1130116E+00
         25   -1    0    0    0    0  0.00000000000E+00  0.00000000000E+00  0.99999998245E-14  0.12500000000E+03  0.12500000000E+03 0.  0.
        -11    1    1    0    0    0 -0.21492046575E+02  0.30747363374E+02 -0.11908556231E+02  0.39358888860E+02  0.51100000000E-03 0. -1.
         11    1    1    0    0    0 -0.12647311667E+02  0.18070303639E+02 -0.70014795224E+01  0.23141112372E+02  0.51100000000E-03 0.  1.
         22    1    1    0    0    0  0.34139358243E+02 -0.48817667014E+02  0.18910035754E+02  0.62499998769E+02  0.00000000000E+00 0.  1.
</event>
<event>
 4    1  0.1974401E-002  0.9118800E+02  0.7818608E-02  0.1130116E+00
         25   -1    0    0    0    0  0.00000000000E+00  0.00000000000E+00  0.99999998245E-14  0.12500000000E+03  0.12500000000E+03 0.  0.
        -11    1    1    0    0    0 -0.17314728920E+02 -0.15350101873E+02  0.81338129709E+01  0.24527217102E+02  0.51100000000E-03 0. -1.
         11    1    1    0    0    0 -0.26789634635E+02 -0.23793214877E+02  0.12575011637E+02  0.37972786519E+02  0.51100000000E-03 0.  1.
         22    1    1    0    0    0  0.44104363555E+02  0.39143316750E+02 -0.20708824608E+02  0.62499996379E+02  0.00000000000E+00 0. -1.
</event>
<event>
 4    1  0.1974401E-002  0.9118800E+02  0.7818608E-02  0.1130116E+00
         25   -1    0    0    0    0  0.00000000000E+00  0.00000000000E+00  0.99999998245E-14  0.12500000000E+03  0.12500000000E+03 0.  0.
        -11    1    1    0    0    0 -0.64217880245E+01  0.13233523056E+02  0.12682611503E+02  0.19422001151E+02  0.51100000000E-03 0.  1.
         11    1    1    0    0    0 -0.14058626132E+02  0.29436755490E+02  0.28134549490E+02  0.43078073515E+02  0.51100000000E-03 0. -1.
         22    1    1    0    0    0  0.20480414156E+02 -0.42670278546E+02 -0.40817160993E+02  0.62499925334E+02  0.00000000000E+00 0. -1.
</event>
<event>
 4    1  0.1974401E-002  0.9118800E+02  0.7818608E-02  0.1130116E+00
         25   -1    0    0    0    0  0.00000000000E+00  0.00000000000E+00  0.99999998245E-14  0.12500000000E+03  0.12500000000E+03 0.  0.
        -11    1    1    0    0    0 -0.15891827238E+02  0.42160013921E+02  0.13308163741E+02  0.46980040115E+02  0.51100000000E-03 0. -1.
         11    1    1    0    0    0 -0.52480754354E+01  0.13928339624E+02  0.43963866672E+01  0.15519959937E+02  0.51100000000E-03 0. -1.
         22    1    1    0    0    0  0.21139902673E+02 -0.56088353545E+02 -0.17704550408E+02  0.62499999948E+02  0.00000000000E+00 0. -1.
</event>
<event>
 4    1  0.1974401E-002  0.9118800E+02  0.7818608E-02  0.1130116E+00
         25   -1    0    0    0    0  0.00000000000E+00  0.00000000000E+00  0.99999998245E-14  0.12500000000E+03  0.12500000000E+03 0.  0.
        -11    1    1    0    0    0 -0.42938874486E+02  0.23369607112E+01  0.38003226922E+02  0.57388618943E+02  0.51100000000E-03 0.  1.
         11    1    1    0    0    0 -0.38388415574E+01  0.22684532597E+00  0.33672615633E+01  0.51114199594E+01  0.51100000000E-03 0. -1.
         22    1    1    0    0    0  0.46777716043E+02 -0.25638060371E+01 -0.41370488486E+02  0.62499961097E+02  0.00000000000E+00 0.  1.
</event>
<event>
 4    1  0.1974401E-002  0.9118800E+02  0.7818608E-02  0.1130116E+00
         25   -1    0    0    0    0  0.00000000000E+00  0.00000000000E+00  0.99999998245E-14  0.12500000000E+03  0.12500000000E+03 0.  0.
        -11    1    1    0    0    0 -0.45731641658E+01  0.31515047542E+01  0.76235114263E+01  0.94320591300E+01  0.51100000000E-03 0.  1.
         11    1    1    0    0    0 -0.37476639823E+02  0.22664020258E+02  0.30367453193E+02  0.53294826769E+02  0.51100000000E-03 0. -1.
         22    1    1    0    0    0  0.42049803989E+02 -0.25815525013E+02 -0.37990964619E+02  0.62273114101E+02  0.00000000000E+00 0. -1.
</event>
<event>
 4    1  0.1974401E-002  0.9118800E+02  0.7818608E-02  0.1130116E+00
         25   -1    0    0    0    0  0.00000000000E+00  0.00000000000E+00  0.99999998245E-14  0.12500000000E+03  0.12500000000E+03 0.  0.
        -11    1    1    0    0    0 -0.30601083789E+02  0.30548315889E+02  0.14989965114E+01  0.43265146752E+02  0.51100000000E-03 0. -1.
         11    1    1    0    0    0 -0.13656201325E+02  0.13526441100E+02  0.72546519076E+00  0.19234935494E+02  0.51100000000E-03 0.  1.
         22    1    1    0    0    0  0.44257285114E+02 -0.44074756989E+02 -0.22244617022E+01  0.62499917753E+02  0.00000000000E+00 0.  1.
</event>
<event>
 4    1  0.1974401E-002  0.9118800E+02  0.7818608E-02  0.1130116E+00
         25   -1    0    0    0    0  0.00000000000E+00  0.00000000000E+00  0.99999998245E-14  0.12500000000E+03  0.12500000000E+03 0.  0.
        -11    1    1    0    0    0 -0.34572637062E+02 -0.16608206991E+02 -0.11643875392E+02  0.40083408129E+02  0.51100000000E-03 0. -1.
         11    1    1    0    0    0 -0.19341598633E+02 -0.92840094871E+01 -0.64971848188E+01  0.22416593868E+02  0.51100000000E-03 0.  1.
         22    1    1    0    0    0  0.53914235695E+02  0.25892216478E+02  0.18141060211E+02  0.62499998002E+02  0.00000000000E+00 0. -1.
</event>
<event>
 4    1  0.1974401E-002  0.9118800E+02  0.7818608E-02  0.1130116E+00
         25   -1    0    0    0    0  0.00000000000E+00  0.00000000000E+00  0.99999998245E-14  0.12500000000E+03  0.12500000000E+03 0.  0.
        -11    1    1    0    0    0 -0.80446333081E+01  0.13416399209E+02  0.17394685736E+02  0.23394251108E+02  0.51100000000E-03 0.  1.
         11    1    1    0    0    0 -0.15211813054E+02  0.24257226347E+02  0.26678350864E+02  0.39134980407E+02  0.51100000000E-03 0. -1.
         22    1    1    0    0    0  0.23256446362E+02 -0.37673625555E+02 -0.44073036600E+02  0.62470768484E+02  0.00000000000E+00 0. -1.
</event>
<event>
 4    1  0.1974401E-002  0.9118800E+02  0.7818608E-02  0.1130116E+00
         25   -1    0    0    0    0  0.00000000000E+00  0.00000000000E+00  0.99999998245E-14  0.12500000000E+03  0.12500000000E+03 0.  0.
        -11    1    1    0    0    0 -0.49831469000E+01 -0.65139666981E+01 -0.12609152080E+02  0.15041749619E+02  0.51100000000E-03 0. -1.
         11    1    1    0    0    0 -0.15832387533E+02 -0.20493912996E+02 -0.39769617213E+02  0.47458270285E+02  0.51100000000E-03 0.  1.
         22    1    1    0    0    0  0.20815534433E+02  0.27007879694E+02  0.52378769293E+02  0.62499980096E+02  0.00000000000E+00 0.  1.
</event>
<event>
 4    1  0.1974401E-002  0.9118800E+02  0.7818608E-02  0.1130116E+00
         25   -1    0    0    0    0  0.00000000000E+00  0.00000000000E+00  0.99999998245E-14  0.12500000000E+03  0.12500000000E+03 0.  0.
        -11    1    1    0    0    0 -0.15660581915E+02 -0.37232827144E+01  0.12018065333E+02  0.20088567761E+02  0.51100000000E-03 0.  1.
         11    1    1    0    0    0 -0.33062677800E+02 -0.78514216998E+01  0.25376053952E+02  0.42411432426E+02  0.51100000000E-03 0. -1.
         22    1    1    0    0    0  0.48723259715E+02  0.11574704414E+02 -0.37394119285E+02  0.62499999813E+02  0.00000000000E+00 0. -1.
</event>
<event>
 4    1  0.1974401E-002  0.9118800E+02  0.7818608E-02  0.1130116E+00
         25   -1    0    0    0    0  0.00000000000E+00  0.00000000000E+00  0.99999998245E-14  0.12500000000E+03  0.12500000000E+03 0.  0.
        -11    1    1    0    0    0 -0.88780531478E+01  0.27340325579E+02 -0.54287472446E+02  0.61428355792E+02  0.51100000000E-03 0.  1.
         11    1    1    0    0    0 -0.19913548394E+00  0.42768790082E+00 -0.96339845674E+00  0.10727109252E+01  0.51100000000E-03 0. -1.
         22    1    1    0    0    0  0.90771886317E+01 -0.27768013479E+02  0.55250870903E+02  0.62498933283E+02  0.00000000000E+00 0.  1.
</event>
<event>
 4    1  0.1974401E-002  0.9118800E+02  0.7818608E-02  0.1130116E+00
         25   -1    0    0    0    0  0.00000000000E+00  0.00000000000E+00  0.99999998245E-14  0.12500000000E+03  0.12500000000E+03 0.  0.
        -11    1    1    0    0    0 -0.14014808373E+01  0.12778054288E+02 -0.22887857013E+01  0.13056851082E+02  0.51100000000E-03 0. -1.
         11    1    1    0    0    0 -0.57554648760E+01  0.48290462183E+02 -0.89196135713E+01  0.49443438598E+02  0.51100000000E-03 0.  1.
         22    1    1    0    0    0  0.71569457133E+01 -0.61068516471E+02  0.11208399273E+02  0.62499710321E+02  0.00000000000E+00 0.  1.
</event>
<event>
 4    1  0.1974401E-002  0.9118800E+02  0.7818608E-02  0.1130116E+00
         25   -1    0    0    0    0  0.00000000000E+00  0.00000000000E+00  0.99999998245E-14  0.12500000000E+03  0.12500000000E+03 0.  0.
        -11    1    1    0    0    0  0.38752968525E+01  0.53652516221E+00 -0.13611712012E+01  0.41422907002E+01  0.51100000000E-03 0.  1.
         11    1    1    0    0    0  0.54589821712E+02  0.75396706359E+01 -0.19202265593E+02  0.58357709619E+02  0.51100000000E-03 0. -1.
         22    1    1    0    0    0 -0.58465118564E+02 -0.80761957982E+01  0.20563436794E+02  0.62499999681E+02  0.00000000000E+00 0. -1.
</event>
<event>
 4    1  0.1974401E-002  0.9118800E+02  0.7818608E-02  0.1130116E+00
         25   -1    0    0    0    0  0.00000000000E+00  0.00000000000E+00  0.99999998245E-14  0.12500000000E+03  0.12500000000E+03 0.  0.
        -11    1    1    0    0    0 -0.17715882022E+01 -0.89637986353E+01 -0.18426119135E+02  0.20567208789E+02  0.51100000000E-03 0. -1.
         11    1    1    0    0    0 -0.36136415339E+01 -0.18263550149E+02 -0.37573173132E+02  0.41932791567E+02  0.51100000000E-03 0.  1.
         22    1    1    0    0    0  0.53852297361E+01  0.27227348784E+02  0.55999292267E+02  0.62499999644E+02  0.00000000000E+00 0.  1.
</event>
<event>
 4    1  0.1974401E-002  0.9118800E+02  0.7818608E-02  0.1130116E+00
         25   -1    0    0    0    0  0.00000000000E+00  0.00000000000E+00  0.99999998245E-14  0.12500000000E+03  0.12500000000E+03 0.  0.
        -11    1    1    0    0    0 -0.57701299542E+00  0.81434859930E+01  0.27753009199E+01  0.86227375916E+01  0.51100000000E-03 0. -1.
         11    1    1    0    0    0 -0.54878539588E+01  0.51526627371E+02  0.14777546682E+02  0.53884002780E+02  0.51100000000E-03 0.  1.
         22    1    1    0    0    0  0.60648669542E+01 -0.59670113365E+02 -0.17552847602E+02  0.62493259629E+02  0.00000000000E+00 0.  1.
</event>
<event>
 4    1  0.1974401E-002  0.9118800E+02  0.7818608E-02  0.1130116E+00
         25   -1    0    0    0    0  0.00000000000E+00  0.00000000000E+00  0.99999998245E-14  0.12500000000E+03  0.12500000000E+03 0.  0.
        -11    1    1    0    0    0 -0.92296248723E+01  0.72462848382E+01  0.59788482814E+02  0.60929116986E+02  0.51100000000E-03 0.  1.
         11    1    1    0    0    0  0.48712118475E+00 -0.12711259897E+02 -0.32929769055E+02  0.35301318750E+02  0.51100000000E-03 0. -1.
         22    1    1    0    0    0  0.87425036876E+01  0.54649750584E+01 -0.26858713760E+02  0.28769564264E+02  0.00000000000E+00 0.  1.
</event>
<event>
 4    1  0.1974401E-002  0.9118800E+02  0.7818608E-02  0.1130116E+00
         25   -1    0    0    0    0  0.00000000000E+00  0.00000000000E+00  0.99999998245E-14  0.12500000000E+03  0.12500000000E+03 0.  0.
        -11    1    1    0    0    0  0.54831151446E+01 -0.40730438665E+01 -0.18398163195E+01  0.70738364681E+01  0.51100000000E-03 0.  1.
         11    1    1    0    0    0 -0.45756547947E+02 -0.16765032920E+02  0.36472370625E+02  0.60868397614E+02  0.51100000000E-03 0. -1.
         22    1    1    0    0    0  0.40273432802E+02  0.20838076786E+02 -0.34632554306E+02  0.57057765918E+02  0.00000000000E+00 0. -1.
</event>
<event>
 4    1  0.1974401E-002  0.9118800E+02  0.7818608E-02  0.1130116E+00
         25   -1    0    0    0    0  0.00000000000E+00  0.00000000000E+00  0.99999998245E-14  0.12500000000E+03  0.12500000000E+03 0.  0.
        -11    1    1    0    0    0 -0.85164845070E+01 -0.67535307372E+01  0.14515688112E+02  0.18134108398E+02  0.51100000000E-03 0. -1.
         11    1    1    0    0    0 -0.14166275121E+02 -0.15020385248E+02  0.39382722395E+02  0.44466775769E+02  0.51100000000E-03 0.  1.
         22    1    1    0    0    0  0.22682759628E+02  0.21773915985E+02 -0.53898410506E+02  0.62399115833E+02  0.00000000000E+00 0.  1.
</event>
<event>
 4    1  0.1974401E-002  0.9118800E+02  0.7818608E-02  0.1130116E+00
         25   -1    0    0    0    0  0.00000000000E+00  0.00000000000E+00  0.99999998245E-14  0.12500000000E+03  0.12500000000E+03 0.  0.
        -11    1    1    0    0    0  0.93794239654E+00 -0.73695869507E+01  0.51134051261E+01  0.90187282922E+01  0.51100000000E-03 0. -1.
         11    1    1    0    0    0  0.75379103296E+01 -0.44125965518E+02  0.29269441393E+02  0.53484774700E+02  0.51100000000E-03 0.  1.
         22    1    1    0    0    0 -0.84758527262E+01  0.51495552469E+02 -0.34382846519E+02  0.62496497008E+02  0.00000000000E+00 0.  1.
</event>
<event>
 4    1  0.1974401E-002  0.9118800E+02  0.7818608E-02  0.1130116E+00
         25   -1    0    0    0    0  0.00000000000E+00  0.00000000000E+00  0.99999998245E-14  0.12500000000E+03  0.12500000000E+03 0.  0.
        -11    1    1    0    0    0 -0.27226957727E+02 -0.21456292247E+02 -0.44010533464E+02  0.56023269809E+02  0.51100000000E-03 0. -1.
         11    1    1    0    0    0 -0.95015323196E+00 -0.82507397620E+01 -0.71969245462E+00  0.83363934213E+01  0.51100000000E-03 0.  1.
         22    1    1    0    0    0  0.28177110959E+02  0.29707032009E+02  0.44730225918E+02  0.60640336770E+02  0.00000000000E+00 0. -1.
</event>
<event>
 4    1  0.1974401E-002  0.9118800E+02  0.7818608E-02  0.1130116E+00
         25   -1    0    0    0    0  0.00000000000E+00  0.00000000000E+00  0.99999998245E-14  0.12500000000E+03  0.12500000000E+03 0.  0.
        -11    1    1    0    0    0 -0.41377308947E+00 -0.82342052195E+01  0.31030254102E+02  0.32106853064E+02  0.51100000000E-03 0. -1.
         11    1    1    0    0    0 -0.33645676814E+00 -0.77854392533E+01  0.29377166665E+02  0.30393160235E+02  0.51100000000E-03 0.  1.
         22    1    1    0    0    0  0.75022985760E+00  0.16019644473E+02 -0.60407420767E+02  0.62499986701E+02  0.00000000000E+00 0. -1.
</event>
<event>
 4    1  0.1974401E-002  0.9118800E+02  0.7818608E-02  0.1130116E+00
         25   -1    0    0    0    0  0.00000000000E+00  0.00000000000E+00  0.99999998245E-14  0.12500000000E+03  0.12500000000E+03 0.  0.
        -11    1    1    0    0    0  0.19399994563E+01 -0.12004844733E+01 -0.23314838805E-01  0.22815136870E+01  0.51100000000E-03 0. -1.
         11    1    1    0    0    0  0.51191692080E+02 -0.31706646415E+02 -0.60443812700E+00  0.60218486452E+02  0.51100000000E-03 0. -1.
         22    1    1    0    0    0 -0.53131691536E+02  0.32907130888E+02  0.62775296581E+00  0.62499999861E+02  0.00000000000E+00 0. -1.
</event>
<event>
 4    1  0.1974401E-002  0.9118800E+02  0.7818608E-02  0.1130116E+00
         25   -1    0    0    0    0  0.00000000000E+00  0.00000000000E+00  0.99999998245E-14  0.12500000000E+03  0.12500000000E+03 0.  0.
        -11    1    1    0    0    0  0.31844941111E+02  0.20024296294E+02 -0.43394723207E+02  0.57429737236E+02  0.51100000000E-03 0. -1.
         11    1    1    0    0    0  0.28096045814E+01  0.17746947735E+01 -0.38293823765E+01  0.50702651893E+01  0.51100000000E-03 0.  1.
         22    1    1    0    0    0 -0.34654545692E+02 -0.21798991068E+02  0.47224105584E+02  0.62499997575E+02  0.00000000000E+00 0. -1.
</event>
<event>
 4    1  0.1974401E-002  0.9118800E+02  0.7818608E-02  0.1130116E+00
         25   -1    0    0    0    0  0.00000000000E+00  0.00000000000E+00  0.99999998245E-14  0.12500000000E+03  0.12500000000E+03 0.  0.
        -11    1    1    0    0    0 -0.28865492720E+02  0.30923886888E+02  0.34252340428E+01  0.42440966986E+02  0.51100000000E-03 0. -1.
         11    1    1    0    0    0 -0.13344204957E+02  0.69608557456E+01 -0.18522394541E+02  0.23866302991E+02  0.51100000000E-03 0.  1.
         22    1    1    0    0    0  0.42209697677E+02 -0.37884742633E+02  0.15097160498E+02  0.58692730023E+02  0.00000000000E+00 0. -1.
</event>
<event>
 4    1  0.1974401E-002  0.9118800E+02  0.7818608E-02  0.1130116E+00
         25   -1    0    0    0    0  0.00000000000E+00  0.00000000000E+00  0.99999998245E-14  0.12500000000E+03  0.12500000000E+03 0.  0.
        -11    1    1    0    0    0  0.42801271754E+02 -0.39435106344E+01  0.16251679385E+02  0.45952336425E+02  0.51100000000E-03 0. -1.
         11    1    1    0    0    0  0.17130233459E+02 -0.12267090392E+01 -0.45402426854E+01  0.17764107558E+02  0.51100000000E-03 0.  1.
         22    1    1    0    0    0 -0.59931505212E+02  0.51702196736E+01 -0.11711436700E+02  0.61283556017E+02  0.00000000000E+00 0. -1.
</event>
<event>
 4    1  0.1974401E-002  0.9118800E+02  0.7818608E-02  0.1130116E+00
         25   -1    0    0    0    0  0.00000000000E+00  0.00000000000E+00  0.99999998245E-14  0.12500000000E+03  0.12500000000E+03 0.  0.
        -11    1    1    0    0    0 -0.13993389606E+02  0.11746399998E+02  0.28576348288E+02  0.33917555149E+02  0.51100000000E-03 0.  1.
         11    1    1    0    0    0  0.29724682533E+02  0.21363248372E+02  0.99196027983E+01  0.37925501350E+02  0.51100000000E-03 0. -1.
         22    1    1    0    0    0 -0.15731292927E+02 -0.33109648370E+02 -0.38495951086E+02  0.53156943501E+02  0.00000000000E+00 0.  1.
</event>
<event>
 4    1  0.1974401E-002  0.9118800E+02  0.7818608E-02  0.1130116E+00
         25   -1    0    0    0    0  0.00000000000E+00  0.00000000000E+00  0.99999998245E-14  0.12500000000E+03  0.12500000000E+03 0.  0.
        -11    1    1    0    0    0  0.56742451825E+01 -0.10740585025E+01 -0.62015876799E+01  0.84740987763E+01  0.51100000000E-03 0.  1.
         11    1    1    0    0    0  0.36277440422E+02 -0.69717231853E+01 -0.39422620929E+02  0.54025925710E+02  0.51100000000E-03 0. -1.
         22    1    1    0    0    0 -0.41951685604E+02  0.80457816878E+01  0.45624208609E+02  0.62499975513E+02  0.00000000000E+00 0. -1.
</event>
<event>
 4    1  0.1974401E-002  0.9118800E+02  0.7818608E-02  0.1130116E+00
         25   -1    0    0    0    0  0.00000000000E+00  0.00000000000E+00  0.99999998245E-14  0.12500000000E+03  0.12500000000E+03 0.  0.
        -11    1    1    0    0    0 -0.33943905455E+01  0.13349677364E+01 -0.90272991169E+01  0.97363317343E+01  0.51100000000E-03 0. -1.
         11    1    1    0    0    0 -0.17413461106E+02  0.71208057915E+01 -0.49296624858E+02  0.52764493038E+02  0.51100000000E-03 0.  1.
         22    1    1    0    0    0  0.20807851652E+02 -0.84557735279E+01  0.58323923975E+02  0.62499175228E+02  0.00000000000E+00 0.  1.
</event>
<event>
 4    1  0.1974401E-002  0.9118800E+02  0.7818608E-02  0.1130116E+00
         25   -1    0    0    0    0  0.00000000000E+00  0.00000000000E+00  0.99999998245E-14  0.12500000000E+03  0.12500000000E+03 0.  0.
        -11    1    1    0    0    0 -0.25315410775E+01 -0.87476403892E+00  0.68912521546E+01  0.73934612240E+01  0.51100000000E-03 0.  1.
         11    1    1    0    0    0 -0.18899648175E+02 -0.64609260735E+01  0.51359425756E+02  0.55106541182E+02  0.51100000000E-03 0. -1.
         22    1    1    0    0    0  0.21431189253E+02  0.73356901124E+01 -0.58250677910E+02  0.62499997594E+02  0.00000000000E+00 0. -1.
</event>
<event>
 4    1  0.1974401E-002  0.9118800E+02  0.7818608E-02  0.1130116E+00
         25   -1    0    0    0    0  0.00000000000E+00  0.00000000000E+00  0.99999998245E-14  0.12500000000E+03  0.12500000000E+03 0.  0.
        -11    1    1    0    0    0 -0.19807748606E+02 -0.12134670817E+02  0.47630475966E+01  0.23712523344E+02  0.51100000000E-03 0.  1.
         11    1    1    0    0    0 -0.28683689799E+02 -0.22608696780E+02  0.13442409058E+02  0.38917934068E+02  0.51100000000E-03 0. -1.
         22    1    1    0    0    0  0.48491438405E+02  0.34743367597E+02 -0.18205456655E+02  0.62369542588E+02  0.00000000000E+00 0. -1.
</event>
<event>
 4    1  0.1974401E-002  0.9118800E+02  0.7818608E-02  0.1130116E+00
         25   -1    0    0    0    0  0.00000000000E+00  0.00000000000E+00  0.99999998245E-14  0.12500000000E+03  0.12500000000E+03 0.  0.
        -11    1    1    0    0    0  0.58666346861E+02 -0.20762174705E+02  0.38592328449E+01  0.62351438083E+02  0.51100000000E-03 0.  1.
         11    1    1    0    0    0 -0.71815401298E+01  0.47567299084E+01 -0.59648134816E+00  0.86346272831E+01  0.51100000000E-03 0. -1.
         22    1    1    0    0    0 -0.51484806732E+02  0.16005444797E+02 -0.32627514967E+01  0.54013934634E+02  0.00000000000E+00 0.  1.
</event>
<event>
 4    1  0.1974401E-002  0.9118800E+02  0.7818608E-02  0.1130116E+00
         25   -1    0    0    0    0  0.00000000000E+00  0.00000000000E+00  0.99999998245E-14  0.12500000000E+03  0.12500000000E+03 0.  0.
        -11    1    1    0    0    0  0.46681494977E+01  0.21905029000E+02  0.44852730283E+01  0.22841619681E+02  0.51100000000E-03 0.  1.
         11    1    1    0    0    0  0.71818122089E+01  0.38155314416E+02  0.80967072107E+01  0.39660598995E+02  0.51100000000E-03 0. -1.
         22    1    1    0    0    0 -0.11849961707E+02 -0.60060343416E+02 -0.12581980239E+02  0.62497781324E+02  0.00000000000E+00 0. -1.
</event>
<event>
 4    1  0.1974401E-002  0.9118800E+02  0.7818608E-02  0.1130116E+00
         25   -1    0    0    0    0  0.00000000000E+00  0.00000000000E+00  0.99999998245E-14  0.12500000000E+03  0.12500000000E+03 0.  0.
        -11    1    1    0    0    0  0.30244605201E+02 -0.17917357459E+02 -0.25454027936E+02  0.43401329248E+02  0.51100000000E-03 0. -1.
         11    1    1    0    0    0  0.13418482833E+02 -0.77910299646E+01 -0.11136069671E+02  0.19098897284E+02  0.51100000000E-03 0.  1.
         22    1    1    0    0    0 -0.43663088035E+02  0.25708387424E+02  0.36590097607E+02  0.62499773468E+02  0.00000000000E+00 0.  1.
</event>
<event>
 4    1  0.1974401E-002  0.9118800E+02  0.7818608E-02  0.1130116E+00
         25   -1    0    0    0    0  0.00000000000E+00  0.00000000000E+00  0.99999998245E-14  0.12500000000E+03  0.12500000000E+03 0.  0.
        -11    1    1    0    0    0  0.11197658529E+02  0.31604847509E+02 -0.35181586786E+02  0.48600390859E+02  0.51100000000E-03 0. -1.
         11    1    1    0    0    0  0.32105191370E+01  0.90354418357E+01 -0.10062431201E+02  0.13899610219E+02  0.51100000000E-03 0.  1.
         22    1    1    0    0    0 -0.14408177666E+02 -0.40640289344E+02  0.45244017987E+02  0.62499998922E+02  0.00000000000E+00 0. -1.
</event>
<event>
 4    1  0.1974401E-002  0.9118800E+02  0.7818608E-02  0.1130116E+00
         25   -1    0    0    0    0  0.00000000000E+00  0.00000000000E+00  0.99999998245E-14  0.12500000000E+03  0.12500000000E+03 0.  0.
        -11    1    1    0    0    0 -0.24167354305E+02 -0.18459763891E+02  0.45851839771E+00  0.30414373845E+02  0.51100000000E-03 0.  1.
         11    1    1    0    0    0 -0.25493729236E+02 -0.19476452035E+02  0.47435721633E+00  0.32085626522E+02  0.51100000000E-03 0. -1.
         22    1    1    0    0    0  0.49661083541E+02  0.37936215926E+02 -0.93287561404E+00  0.62499999633E+02  0.00000000000E+00 0. -1.
</event>
<event>
 4    1  0.1974401E-002  0.9118800E+02  0.7818608E-02  0.1130116E+00
         25   -1    0    0    0    0  0.00000000000E+00  0.00000000000E+00  0.99999998245E-14  0.12500000000E+03  0.12500000000E+03 0.  0.
        -11    1    1    0    0    0 -0.12084506460E+02  0.12825338031E+02 -0.65017414878E+01  0.18782897397E+02  0.51100000000E-03 0. -1.
         11    1    1    0    0    0 -0.25151002340E+02  0.26017173870E+02 -0.24891849805E+02  0.43921184432E+02  0.51100000000E-03 0.  1.
         22    1    1    0    0    0  0.37235508801E+02 -0.38842511902E+02  0.31393591293E+02  0.62295918171E+02  0.00000000000E+00 0.  1.
</event>
<event>
 4    1  0.1974401E-002  0.9118800E+02  0.7818608E-02  0.1130116E+00
         25   -1    0    0    0    0  0.00000000000E+00  0.00000000000E+00  0.99999998245E-14  0.12500000000E+03  0.12500000000E+03 0.  0.
        -11    1    1    0    0    0  0.26690011180E+01  0.59827615137E+01 -0.14787623393E+02  0.16173769140E+02  0.51100000000E-03 0.  1.
         11    1    1    0    0    0  0.74892301038E+01  0.18195659830E+02 -0.41941859540E+02  0.46328071254E+02  0.51100000000E-03 0. -1.
         22    1    1    0    0    0 -0.10158231222E+02 -0.24178421343E+02  0.56729482934E+02  0.62498159606E+02  0.00000000000E+00 0. -1.
</event>
<event>
 4    1  0.1974401E-002  0.9118800E+02  0.7818608E-02  0.1130116E+00
         25   -1    0    0    0    0  0.00000000000E+00  0.00000000000E+00  0.99999998245E-14  0.12500000000E+03  0.12500000000E+03 0.  0.
        -11    1    1    0    0    0  0.83176067007E+01 -0.10479608385E+02  0.31709821715E+01  0.13749905502E+02  0.51100000000E-03 0. -1.
         11    1    1    0    0    0  0.29593386873E+02 -0.36770996311E+02  0.12198976093E+02  0.48751304950E+02  0.51100000000E-03 0.  1.
         22    1    1    0    0    0 -0.37910993574E+02  0.47250604696E+02 -0.15369958265E+02  0.62498789548E+02  0.00000000000E+00 0.  1.
</event>
<event>
 4    1  0.1974401E-002  0.9118800E+02  0.7818608E-02  0.1130116E+00
         25   -1    0    0    0    0  0.00000000000E+00  0.00000000000E+00  0.99999998245E-14  0.12500000000E+03  0.12500000000E+03 0.  0.
        -11    1    1    0    0    0 -0.22904498743E+02 -0.12872504555E+02  0.28473409071E+02  0.38743418287E+02  0.51100000000E-03 0. -1.
         11    1    1    0    0    0 -0.14042248202E+02 -0.79010934838E+01  0.17457467860E+02  0.23756582186E+02  0.51100000000E-03 0.  1.
         22    1    1    0    0    0  0.36946746945E+02  0.20773598039E+02 -0.45930876931E+02  0.62499999527E+02  0.00000000000E+00 0.  1.
</event>
<event>
 4    1  0.1974401E-002  0.9118800E+02  0.7818608E-02  0.1130116E+00
         25   -1    0    0    0    0  0.00000000000E+00  0.00000000000E+00  0.99999998245E-14  0.12500000000E+03  0.12500000000E+03 0.  0.
        -11    1    1    0    0    0  0.39868943716E+02  0.96059582172E+01  0.31976671481E+02  0.52003025158E+02  0.51100000000E-03 0.  1.
         11    1    1    0    0    0  0.79783563552E+01  0.17950750890E+01  0.65823569686E+01  0.10497803972E+02  0.51100000000E-03 0. -1.
         22    1    1    0    0    0 -0.47847300071E+02 -0.11401033306E+02 -0.38559028449E+02  0.62499170871E+02  0.00000000000E+00 0.  1.
</event>
<event>
 4    1  0.1974401E-002  0.9118800E+02  0.7818608E-02  0.1130116E+00
         25   -1    0    0    0    0  0.00000000000E+00  0.00000000000E+00  0.99999998245E-14  0.12500000000E+03  0.12500000000E+03 0.  0.
        -11    1    1    0    0    0  0.63905451638E+01  0.18641556280E+02  0.65283286137E+01  0.20759714901E+02  0.51100000000E-03 0.  1.
         11    1    1    0    0    0  0.12790647172E+02  0.37496092350E+02  0.13141325841E+02  0.41740292784E+02  0.51100000000E-03 0. -1.
         22    1    1    0    0    0 -0.19181192335E+02 -0.56137648629E+02 -0.19669654454E+02  0.62499992315E+02  0.00000000000E+00 0. -1.
</event>
<event>
 4    1  0.1974401E-002  0.9118800E+02  0.7818608E-02  0.1130116E+00
         25   -1    0    0    0    0  0.00000000000E+00  0.00000000000E+00  0.99999998245E-14  0.12500000000E+03  0.12500000000E+03 0.  0.
        -11    1    1    0    0    0  0.94668886975E+00 -0.86587728480E+00  0.74631498666E+00  0.14842336773E+01  0.51100000000E-03 0.  1.
         11    1    1    0    0    0  0.39441935499E+02 -0.35286519538E+02  0.30366504180E+02  0.61015811995E+02  0.51100000000E-03 0. -1.
         22    1    1    0    0    0 -0.40388624369E+02  0.36152396823E+02 -0.31112819166E+02  0.62499954328E+02  0.00000000000E+00 0. -1.
</event>
<event>
 4    1  0.1974401E-002  0.9118800E+02  0.7818608E-02  0.1130116E+00
         25   -1    0    0    0    0  0.00000000000E+00  0.00000000000E+00  0.99999998245E-14  0.12500000000E+03  0.12500000000E+03 0.  0.
        -11    1    1    0    0    0  0.32288949073E+02 -0.38941257317E+02  0.32766179896E+02  0.60271222809E+02  0.51100000000E-03 0.  1.
         11    1    1    0    0    0  0.12682731787E+01 -0.13840167024E+01  0.12031767694E+01  0.22297205403E+01  0.51100000000E-03 0. -1.
         22    1    1    0    0    0 -0.33557222252E+02  0.40325274019E+02 -0.33969356665E+02  0.62499056651E+02  0.00000000000E+00 0.  1.
</event>
<event>
 4    1  0.1974401E-002  0.9118800E+02  0.7818608E-02  0.1130116E+00
         25   -1    0    0    0    0  0.00000000000E+00  0.00000000000E+00  0.99999998245E-14  0.12500000000E+03  0.12500000000E+03 0.  0.
        -11    1    1    0    0    0  0.27036688048E+02 -0.22381873282E+02  0.11887000288E+02  0.37057138696E+02  0.51100000000E-03 0.  1.
         11    1    1    0    0    0  0.18589909276E+02 -0.15349413687E+02  0.81332961225E+01  0.25442871959E+02  0.51100000000E-03 0. -1.
         22    1    1    0    0    0 -0.45626597324E+02  0.37731286969E+02 -0.20020296411E+02  0.62499989345E+02  0.00000000000E+00 0.  1.
</event>
<event>
 4    1  0.1974401E-002  0.9118800E+02  0.7818608E-02  0.1130116E+00
         25   -1    0    0    0    0  0.00000000000E+00  0.00000000000E+00  0.99999998245E-14  0.12500000000E+03  0.12500000000E+03 0.  0.
        -11    1    1    0    0    0  0.42982607609E+01  0.16762838441E+01  0.68305986248E+01  0.82426968237E+01  0.51100000000E-03 0.  1.
         11    1    1    0    0    0  0.28293451064E+02  0.11032587874E+02  0.44962401854E+02  0.54257303187E+02  0.51100000000E-03 0.  1.
         22    1    1    0    0    0 -0.32591711825E+02 -0.12708871718E+02 -0.51793000479E+02  0.62499999989E+02  0.00000000000E+00 0.  1.
</event>
<event>
 4    1  0.1974401E-002  0.9118800E+02  0.7818608E-02  0.1130116E+00
         25   -1    0    0    0    0  0.00000000000E+00  0.00000000000E+00  0.99999998245E-14  0.12500000000E+03  0.12500000000E+03 0.  0.
        -11    1    1    0    0    0 -0.55040164502E+01  0.54801308642E+01  0.96561803210E+01  0.12392249595E+02  0.51100000000E-03 0.  1.
         11    1    1    0    0    0 -0.22188081355E+02  0.22312406412E+02  0.38995323381E+02  0.50107780633E+02  0.51100000000E-03 0. -1.
         22    1    1    0    0    0  0.27692097805E+02 -0.27792537276E+02 -0.48651503702E+02  0.62499969772E+02  0.00000000000E+00 0. -1.
</event>
<event>
 4    1  0.1974401E-002  0.9118800E+02  0.7818608E-02  0.1130116E+00
         25   -1    0    0    0    0  0.00000000000E+00  0.00000000000E+00  0.99999998245E-14  0.12500000000E+03  0.12500000000E+03 0.  0.
        -11    1    1    0    0    0  0.62892587206E+01  0.42970802568E+02  0.19137805665E+02  0.47458405520E+02  0.51100000000E-03 0.  1.
         11    1    1    0    0    0  0.27735020275E+01  0.13484121444E+02  0.60806141954E+01  0.15049508759E+02  0.51100000000E-03 0. -1.
         22    1    1    0    0    0 -0.90627607481E+01 -0.56454924012E+02 -0.25218419860E+02  0.62492085721E+02  0.00000000000E+00 0.  1.
</event>
<event>
 4    1  0.1974401E-002  0.9118800E+02  0.7818608E-02  0.1130116E+00
         25   -1    0    0    0    0  0.00000000000E+00  0.00000000000E+00  0.99999998245E-14  0.12500000000E+03  0.12500000000E+03 0.  0.
        -11    1    1    0    0    0  0.34749149405E+02  0.18359329815E+02  0.47076546950E+02  0.61325114339E+02  0.51100000000E-03 0. -1.
         11    1    1    0    0    0  0.66351824397E+00  0.35308781665E+00  0.90301308595E+00  0.11748873822E+01  0.51100000000E-03 0.  1.
         22    1    1    0    0    0 -0.35412667649E+02 -0.18712417632E+02 -0.47979560036E+02  0.62499998279E+02  0.00000000000E+00 0. -1.
</event>
<event>
 4    1  0.1974401E-002  0.9118800E+02  0.7818608E-02  0.1130116E+00
         25   -1    0    0    0    0  0.00000000000E+00  0.00000000000E+00  0.99999998245E-14  0.12500000000E+03  0.12500000000E+03 0.  0.
        -11    1    1    0    0    0  0.26952688538E+02 -0.16977288491E+02  0.46401909824E+02  0.56283327723E+02  0.51100000000E-03 0.  1.
         11    1    1    0    0    0  0.29279980485E+01 -0.15874649223E+01  0.52535296271E+01  0.62203529848E+01  0.51100000000E-03 0. -1.
         22    1    1    0    0    0 -0.29880686587E+02  0.18564753413E+02 -0.51655439451E+02  0.62496319292E+02  0.00000000000E+00 0.  1.
</event>
<event>
 4    1  0.1974401E-002  0.9118800E+02  0.7818608E-02  0.1130116E+00
         25   -1    0    0    0    0  0.00000000000E+00  0.00000000000E+00  0.99999998245E-14  0.12500000000E+03  0.12500000000E+03 0.  0.
        -11    1    1    0    0    0 -0.26062967391E+01 -0.53903911051E+01  0.29497983825E+01  0.66746093307E+01  0.51100000000E-03 0.  1.
         11    1    1    0    0    0 -0.37717764817E+02 -0.41158786647E+02  0.57716592052E+01  0.56124749899E+02  0.51100000000E-03 0. -1.
         22    1    1    0    0    0  0.40324061556E+02  0.46549177752E+02 -0.87214575877E+01  0.62200640770E+02  0.00000000000E+00 0. -1.
</event>
<event>
 4    1  0.1974401E-002  0.9118800E+02  0.7818608E-02  0.1130116E+00
         25   -1    0    0    0    0  0.00000000000E+00  0.00000000000E+00  0.99999998245E-14  0.12500000000E+03  0.12500000000E+03 0.  0.
        -11    1    1    0    0    0  0.41376284934E+01  0.20552358553E+01 -0.22712338734E+01  0.51480547335E+01  0.51100000000E-03 0.  1.
         11    1    1    0    0    0  0.46091898667E+02  0.22896771845E+02 -0.25308503420E+02  0.57351945297E+02  0.51100000000E-03 0.  1.
         22    1    1    0    0    0 -0.50229527161E+02 -0.24952007701E+02  0.27579737293E+02  0.62499999970E+02  0.00000000000E+00 0.  1.
</event>
<event>
 4    1  0.1974401E-002  0.9118800E+02  0.7818608E-02  0.1130116E+00
         25   -1    0    0    0    0  0.00000000000E+00  0.00000000000E+00  0.99999998245E-14  0.12500000000E+03  0.12500000000E+03 0.  0.
        -11    1    1    0    0    0 -0.27638720782E+01  0.34550862719E+01  0.22361320079E+00  0.44301933519E+01  0.51100000000E-03 0. -1.
         11    1    1    0    0    0 -0.42462104122E+02  0.39432259094E+02 -0.43156102964E+01  0.58108156366E+02  0.51100000000E-03 0.  1.
         22    1    1    0    0    0  0.45225976200E+02 -0.42887345365E+02  0.40919970956E+01  0.62461650282E+02  0.00000000000E+00 0.  1.
</event>
<event>
 4    1  0.1974401E-002  0.9118800E+02  0.7818608E-02  0.1130116E+00
         25   -1    0    0    0    0  0.00000000000E+00  0.00000000000E+00  0.99999998245E-14  0.12500000000E+03  0.12500000000E+03 0.  0.
        -11    1    1    0    0    0  0.12619066783E+01 -0.22365461059E+02  0.13077844102E+02  0.25939087560E+02  0.51100000000E-03 0.  1.
         11    1    1    0    0    0  0.46395023362E+01 -0.32173520508E+02  0.16804087412E+02  0.36592864849E+02  0.51100000000E-03 0. -1.
         22    1    1    0    0    0 -0.59014090145E+01  0.54538981567E+02 -0.29881931514E+02  0.62468047591E+02  0.00000000000E+00 0. -1.
</event>
<event>
 4    1  0.1974401E-002  0.9118800E+02  0.7818608E-02  0.1130116E+00
         25   -1    0    0    0    0  0.00000000000E+00  0.00000000000E+00  0.99999998245E-14  0.12500000000E+03  0.12500000000E+03 0.  0.
        -11    1    1    0    0    0  0.34966832271E+02 -0.67939525647E+01  0.24756628514E+02  0.43378886640E+02  0.51100000000E-03 0.  1.
         11    1    1    0    0    0  0.13352461256E+02 -0.17407858523E+01  0.13752331862E+02  0.19246952717E+02  0.51100000000E-03 0. -1.
         22    1    1    0    0    0 -0.48319293527E+02  0.85347384170E+01 -0.38508960375E+02  0.62374160643E+02  0.00000000000E+00 0.  1.
</event>
<event>
 4    1  0.1974401E-002  0.9118800E+02  0.7818608E-02  0.1130116E+00
         25   -1    0    0    0    0  0.00000000000E+00  0.00000000000E+00  0.99999998245E-14  0.12500000000E+03  0.12500000000E+03 0.  0.
        -11    1    1    0    0    0 -0.12119297420E+02  0.28083767151E+01  0.39014043214E+01  0.13037841296E+02  0.51100000000E-03 0. -1.
         11    1    1    0    0    0 -0.45965224375E+02  0.10683160449E+02  0.14818012967E+02  0.49462160058E+02  0.51100000000E-03 0.  1.
         22    1    1    0    0    0  0.58084521795E+02 -0.13491537164E+02 -0.18719417288E+02  0.62499998646E+02  0.00000000000E+00 0.  1.
</event>
<event>
 4    1  0.1974401E-002  0.9118800E+02  0.7818608E-02  0.1130116E+00
         25   -1    0    0    0    0  0.00000000000E+00  0.00000000000E+00  0.99999998245E-14  0.12500000000E+03  0.12500000000E+03 0.  0.
        -11    1    1    0    0    0  0.36507619252E+02  0.15647333560E+02  0.37656585231E+01  0.39897687845E+02  0.51100000000E-03 0.  1.
         11    1    1    0    0    0  0.20686769855E+02  0.88489662415E+01  0.21489592244E+01  0.22602315735E+02  0.51100000000E-03 0. -1.
         22    1    1    0    0    0 -0.57194389108E+02 -0.24496299802E+02 -0.59146177476E+01  0.62499996420E+02  0.00000000000E+00 0.  1.
</event>
<event>
 4    1  0.1974401E-002  0.9118800E+02  0.7818608E-02  0.1130116E+00
         25   -1    0    0    0    0  0.00000000000E+00  0.00000000000E+00  0.99999998245E-14  0.12500000000E+03  0.12500000000E+03 0.  0.
        -11    1    1    0    0    0 -0.88111855907E+00  0.84499641482E+00  0.26306862995E+01  0.29001550862E+01  0.51100000000E-03 0. -1.
         11    1    1    0    0    0 -0.35050280010E+02  0.18037432932E+02  0.44798850422E+02  0.59672507195E+02  0.51100000000E-03 0.  1.
         22    1    1    0    0    0  0.35931398569E+02 -0.18882429347E+02 -0.47429536721E+02  0.62427337719E+02  0.00000000000E+00 0.  1.
</event>
<event>
 4    1  0.1974401E-002  0.9118800E+02  0.7818608E-02  0.1130116E+00
         25   -1    0    0    0    0  0.00000000000E+00  0.00000000000E+00  0.99999998245E-14  0.12500000000E+03  0.12500000000E+03 0.  0.
        -11    1    1    0    0    0 -0.20699487527E+01  0.24179845656E+01  0.87659300833E+00  0.33014773605E+01  0.51100000000E-03 0. -1.
         11    1    1    0    0    0 -0.37645354562E+02  0.42423911766E+02  0.16958038210E+02  0.59199122205E+02  0.51100000000E-03 0.  1.
         22    1    1    0    0    0  0.39715303314E+02 -0.44841896332E+02 -0.17834631219E+02  0.62499400435E+02  0.00000000000E+00 0.  1.
</event>
<event>
 4    1  0.1974401E-002  0.9118800E+02  0.7818608E-02  0.1130116E+00
         25   -1    0    0    0    0  0.00000000000E+00  0.00000000000E+00  0.99999998245E-14  0.12500000000E+03  0.12500000000E+03 0.  0.
        -11    1    1    0    0    0 -0.66711951339E+01  0.58428874711E+02 -0.91109750389E+01  0.59510067307E+02  0.51100000000E-03 0.  1.
         11    1    1    0    0    0 -0.32188950213E+00  0.29370330029E+01 -0.45826500781E+00  0.29899469544E+01  0.51100000000E-03 0. -1.
         22    1    1    0    0    0  0.69930846360E+01 -0.61365907714E+02  0.95692400468E+01  0.62499985738E+02  0.00000000000E+00 0.  1.
</event>
<event>
 4    1  0.1974401E-002  0.9118800E+02  0.7818608E-02  0.1130116E+00
         25   -1    0    0    0    0  0.00000000000E+00  0.00000000000E+00  0.99999998245E-14  0.12500000000E+03  0.12500000000E+03 0.  0.
        -11    1    1    0    0    0  0.12455296675E+02 -0.14303490938E+02 -0.45044404905E+02  0.48874560682E+02  0.51100000000E-03 0. -1.
         11    1    1    0    0    0  0.34282177266E+01 -0.39469505899E+01 -0.12582652808E+02  0.13625499906E+02  0.51100000000E-03 0.  1.
         22    1    1    0    0    0 -0.15883514402E+02  0.18250441528E+02  0.57627057714E+02  0.62499939412E+02  0.00000000000E+00 0.  1.
</event>
<event>
 4    1  0.1974401E-002  0.9118800E+02  0.7818608E-02  0.1130116E+00
         25   -1    0    0    0    0  0.00000000000E+00  0.00000000000E+00  0.99999998245E-14  0.12500000000E+03  0.12500000000E+03 0.  0.
        -11    1    1    0    0    0  0.68606948112E+01  0.85351758797E+01 -0.13079576424E+02  0.17058536874E+02  0.51100000000E-03 0.  1.
         11    1    1    0    0    0  0.15401330582E+02  0.21261486128E+02 -0.37118825498E+02  0.45464920352E+02  0.51100000000E-03 0. -1.
         22    1    1    0    0    0 -0.22262025393E+02 -0.29796662007E+02  0.50198401922E+02  0.62476542773E+02  0.00000000000E+00 0. -1.
</event>
<event>
 4    1  0.1974401E-002  0.9118800E+02  0.7818608E-02  0.1130116E+00
         25   -1    0    0    0    0  0.00000000000E+00  0.00000000000E+00  0.99999998245E-14  0.12500000000E+03  0.12500000000E+03 0.  0.
        -11    1    1    0    0    0  0.55071348987E+01  0.29229376647E+01 -0.17816309416E+01  0.64843124892E+01  0.51100000000E-03 0. -1.
         11    1    1    0    0    0  0.53564258719E+01 -0.15530005434E+02 -0.56013213673E+02  0.58372531837E+02  0.51100000000E-03 0.  1.
         22    1    1    0    0    0 -0.10863560771E+02  0.12607067769E+02  0.57794844614E+02  0.60143155673E+02  0.00000000000E+00 0.  1.
</event>
<event>
 4    1  0.1974401E-002  0.9118800E+02  0.7818608E-02  0.1130116E+00
         25   -1    0    0    0    0  0.00000000000E+00  0.00000000000E+00  0.99999998245E-14  0.12500000000E+03  0.12500000000E+03 0.  0.
        -11    1    1    0    0    0 -0.10445008401E+02  0.35484358088E+02  0.33123040232E+02  0.49652529280E+02  0.51100000000E-03 0. -1.
         11    1    1    0    0    0 -0.31263438090E+01  0.97741625077E+01  0.77602236518E+01  0.12865820989E+02  0.51100000000E-03 0.  1.
         22    1    1    0    0    0  0.13571352210E+02 -0.45258520596E+02 -0.40883263884E+02  0.62481649731E+02  0.00000000000E+00 0. -1.
</event>
<event>
 4    1  0.1974401E-002  0.9118800E+02  0.7818608E-02  0.1130116E+00
         25   -1    0    0    0    0  0.00000000000E+00  0.00000000000E+00  0.99999998245E-14  0.12500000000E+03  0.12500000000E+03 0.  0.
        -11    1    1    0    0    0  0.34734255609E+00 -0.28344100510E+01 -0.24793901463E+01  0.37817856823E+01  0.51100000000E-03 0.  1.
         11    1    1    0    0    0 -0.22295040526E+01 -0.45876038448E+02  0.39043369676E+02  0.60282388041E+02  0.51100000000E-03 0. -1.
         22    1    1    0    0    0  0.18821614965E+01  0.48710448499E+02 -0.36563979530E+02  0.60935826276E+02  0.00000000000E+00 0. -1.
</event>
<event>
 4    1  0.1974401E-002  0.9118800E+02  0.7818608E-02  0.1130116E+00
         25   -1    0    0    0    0  0.00000000000E+00  0.00000000000E+00  0.99999998245E-14  0.12500000000E+03  0.12500000000E+03 0.  0.
        -11    1    1    0    0    0 -0.45152889300E+02 -0.29039958025E+02 -0.65753444416E+01  0.54086391348E+02  0.51100000000E-03 0.  1.
         11    1    1    0    0    0 -0.60191745235E+01 -0.58583657222E+01 -0.12130213977E+01  0.84865972010E+01  0.51100000000E-03 0. -1.
         22    1    1    0    0    0  0.51172063823E+02  0.34898323748E+02  0.77883658394E+01  0.62427011451E+02  0.00000000000E+00 0.  1.
</event>
<event>
 4    1  0.1974401E-002  0.9118800E+02  0.7818608E-02  0.1130116E+00
         25   -1    0    0    0    0  0.00000000000E+00  0.00000000000E+00  0.99999998245E-14  0.12500000000E+03  0.12500000000E+03 0.  0.
        -11    1    1    0    0    0 -0.35971241238E+02  0.43408644642E+02  0.30000093111E+01  0.56455652348E+02  0.51100000000E-03 0. -1.
         11    1    1    0    0    0  0.16953971485E+01 -0.27562306734E+02  0.87988714199E+01  0.28982326727E+02  0.51100000000E-03 0.  1.
         22    1    1    0    0    0  0.34275844090E+02 -0.15846337909E+02 -0.11798880731E+02  0.39562020925E+02  0.00000000000E+00 0. -1.
</event>
<event>
 4    1  0.1974401E-002  0.9118800E+02  0.7818608E-02  0.1130116E+00
         25   -1    0    0    0    0  0.00000000000E+00  0.00000000000E+00  0.99999998245E-14  0.12500000000E+03  0.12500000000E+03 0.  0.
        -11    1    1    0    0    0 -0.17311206217E+02 -0.88799995054E+01  0.35078797456E+02  0.40113018873E+02  0.51100000000E-03 0. -1.
         11    1    1    0    0    0 -0.76031292597E+01 -0.71407256000E+01  0.19882236785E+02  0.22452190906E+02  0.51100000000E-03 0.  1.
         22    1    1    0    0    0  0.24914335476E+02  0.16020725105E+02 -0.54961034241E+02  0.62434790221E+02  0.00000000000E+00 0. -1.
</event>
<event>
 4    1  0.1974401E-002  0.9118800E+02  0.7818608E-02  0.1130116E+00
         25   -1    0    0    0    0  0.00000000000E+00  0.00000000000E+00  0.99999998245E-14  0.12500000000E+03  0.12500000000E+03 0.  0.
        -11    1    1    0    0    0 -0.20385912189E+02 -0.16606484682E+01  0.17053429857E+02  0.26630107759E+02  0.51100000000E-03 0. -1.
         11    1    1    0    0    0 -0.27919782429E+02  0.29195914248E+02 -0.13736636370E+02  0.42668616554E+02  0.51100000000E-03 0.  1.
         22    1    1    0    0    0  0.48305694618E+02 -0.27535265779E+02 -0.33167934870E+01  0.55701275687E+02  0.00000000000E+00 0.  1.
</event>
<event>
 4    1  0.1974401E-002  0.9118800E+02  0.7818608E-02  0.1130116E+00
         25   -1    0    0    0    0  0.00000000000E+00  0.00000000000E+00  0.99999998245E-14  0.12500000000E+03  0.12500000000E+03 0.  0.
        -11    1    1    0    0    0 -0.55592128164E+01 -0.34969429848E-01 -0.12932353838E+00  0.55608268124E+01  0.51100000000E-03 0.  1.
         11    1    1    0    0    0 -0.53288470050E+02  0.13736634211E+02 -0.15223566505E+02  0.57097400441E+02  0.51100000000E-03 0. -1.
         22    1    1    0    0    0  0.58847682866E+02 -0.13701664781E+02  0.15352890043E+02  0.62341772747E+02  0.00000000000E+00 0. -1.
</event>
<event>
 4    1  0.1974401E-002  0.9118800E+02  0.7818608E-02  0.1130116E+00
         25   -1    0    0    0    0  0.00000000000E+00  0.00000000000E+00  0.99999998245E-14  0.12500000000E+03  0.12500000000E+03 0.  0.
        -11    1    1    0    0    0 -0.36882280354E+00  0.49940180959E+01 -0.52734106123E+01  0.72722147073E+01  0.51100000000E-03 0. -1.
         11    1    1    0    0    0 -0.28164029664E+01  0.37915355205E+02 -0.40057483810E+02  0.55227785538E+02  0.51100000000E-03 0.  1.
         22    1    1    0    0    0  0.31852257699E+01 -0.42909373301E+02  0.45330894422E+02  0.62499999755E+02  0.00000000000E+00 0.  1.
</event>
<event>
 4    1  0.1974401E-002  0.9118800E+02  0.7818608E-02  0.1130116E+00
         25   -1    0    0    0    0  0.00000000000E+00  0.00000000000E+00  0.99999998245E-14  0.12500000000E+03  0.12500000000E+03 0.  0.
        -11    1    1    0    0    0 -0.24048324660E+02 -0.18841218231E+02  0.15339032495E+01  0.30588662652E+02  0.51100000000E-03 0.  1.
         11    1    1    0    0    0 -0.27780976639E+02 -0.12132767207E+02  0.11880731128E+02  0.32559767744E+02  0.51100000000E-03 0. -1.
         22    1    1    0    0    0  0.51829301299E+02  0.30973985438E+02 -0.13414634378E+02  0.61851569605E+02  0.00000000000E+00 0.  1.
</event>
<event>
 4    1  0.1974401E-002  0.9118800E+02  0.7818608E-02  0.1130116E+00
         25   -1    0    0    0    0  0.00000000000E+00  0.00000000000E+00  0.99999998245E-14  0.12500000000E+03  0.12500000000E+03 0.  0.
        -11    1    1    0    0    0  0.35150548140E+02  0.25245217862E+02  0.22982423513E+02  0.49000753568E+02  0.51100000000E-03 0. -1.
         11    1    1    0    0    0  0.96840748897E+01  0.69552284041E+01  0.63303353885E+01  0.13499246461E+02  0.51100000000E-03 0.  1.
         22    1    1    0    0    0 -0.44834623030E+02 -0.32200446266E+02 -0.29312758902E+02  0.62499999971E+02  0.00000000000E+00 0. -1.
</event>
<event>
 4    1  0.1974401E-002  0.9118800E+02  0.7818608E-02  0.1130116E+00
         25   -1    0    0    0    0  0.00000000000E+00  0.00000000000E+00  0.99999998245E-14  0.12500000000E+03  0.12500000000E+03 0.  0.
        -11    1    1    0    0    0  0.12007239300E+01  0.23240705877E+02 -0.42017701224E+02  0.48031857803E+02  0.51100000000E-03 0.  1.
         11    1    1    0    0    0 -0.16250628308E+00  0.70310211008E+01 -0.12647981994E+02  0.14471804130E+02  0.51100000000E-03 0. -1.
         22    1    1    0    0    0 -0.10382176470E+01 -0.30271726978E+02  0.54665683218E+02  0.62496338067E+02  0.00000000000E+00 0.  1.
</event>
<event>
 4    1  0.1974401E-002  0.9118800E+02  0.7818608E-02  0.1130116E+00
         25   -1    0    0    0    0  0.00000000000E+00  0.00000000000E+00  0.99999998245E-14  0.12500000000E+03  0.12500000000E+03 0.  0.
        -11    1    1    0    0    0  0.30677139197E+02 -0.17883440028E+02 -0.32892605567E+02  0.48402766427E+02  0.51100000000E-03 0.  1.
         11    1    1    0    0    0  0.12648125926E+02 -0.38491380821E+01 -0.59358239364E+01  0.14492237904E+02  0.51100000000E-03 0. -1.
         22    1    1    0    0    0 -0.43325265123E+02  0.21732578111E+02  0.38828429504E+02  0.62104995668E+02  0.00000000000E+00 0.  1.
</event>
<event>
 4    1  0.1974401E-002  0.9118800E+02  0.7818608E-02  0.1130116E+00
         25   -1    0    0    0    0  0.00000000000E+00  0.00000000000E+00  0.99999998245E-14  0.12500000000E+03  0.12500000000E+03 0.  0.
        -11    1    1    0    0    0 -0.19948445678E+02  0.19556562589E+02 -0.39959085627E+02  0.48755801190E+02  0.51100000000E-03 0. -1.
         11    1    1    0    0    0 -0.56230358022E+01  0.55130111726E+01 -0.11264598399E+02  0.13744198819E+02  0.51100000000E-03 0. -1.
         22    1    1    0    0    0  0.25571481480E+02 -0.25069573762E+02  0.51223684026E+02  0.62499999991E+02  0.00000000000E+00 0. -1.
</event>
<event>
 4    1  0.1974401E-002  0.9118800E+02  0.7818608E-02  0.1130116E+00
         25   -1    0    0    0    0  0.00000000000E+00  0.00000000000E+00  0.99999998245E-14  0.12500000000E+03  0.12500000000E+03 0.  0.
        -11    1    1    0    0    0 -0.48871112070E+02 -0.72392689477E+01 -0.22591702186E+00  0.49404894986E+02  0.51100000000E-03 0.  1.
         11    1    1    0    0    0 -0.12980880359E+02 -0.16338768216E+01 -0.71477041553E+00  0.13102812880E+02  0.51100000000E-03 0. -1.
         22    1    1    0    0    0  0.61851992429E+02  0.88731457693E+01  0.94068743739E+00  0.62492292134E+02  0.00000000000E+00 0.  1.
</event>
<event>
 4    1  0.1974401E-002  0.9118800E+02  0.7818608E-02  0.1130116E+00
         25   -1    0    0    0    0  0.00000000000E+00  0.00000000000E+00  0.99999998245E-14  0.12500000000E+03  0.12500000000E+03 0.  0.
        -11    1    1    0    0    0  0.11310134865E+02 -0.27384315518E+02 -0.48244631195E+02  0.56615937036E+02  0.51100000000E-03 0.  1.
         11    1    1    0    0    0  0.12057290006E+01 -0.28349754620E+01 -0.50131626154E+01  0.58841029871E+01  0.51100000000E-03 0. -1.
         22    1    1    0    0    0 -0.12515863865E+02  0.30219290980E+02  0.53257793810E+02  0.62499959977E+02  0.00000000000E+00 0.  1.
</event>
<event>
 4    1  0.1974401E-002  0.9118800E+02  0.7818608E-02  0.1130116E+00
         25   -1    0    0    0    0  0.00000000000E+00  0.00000000000E+00  0.99999998245E-14  0.12500000000E+03  0.12500000000E+03 0.  0.
        -11    1    1    0    0    0 -0.50194733120E+01  0.59657982832E+01  0.52645462836E+01  0.94075134503E+01  0.51100000000E-03 0. -1.
         11    1    1    0    0    0 -0.29171633479E+02  0.33372043933E+02  0.29226913006E+02  0.53093219532E+02  0.51100000000E-03 0.  1.
         22    1    1    0    0    0  0.34191106791E+02 -0.39337842217E+02 -0.34491459289E+02  0.62499267018E+02  0.00000000000E+00 0.  1.
</event>
<event>
 4    1  0.1974401E-002  0.9118800E+02  0.7818608E-02  0.1130116E+00
         25   -1    0    0    0    0  0.00000000000E+00  0.00000000000E+00  0.99999998245E-14  0.12500000000E+03  0.12500000000E+03 0.  0.
        -11    1    1    0    0    0 -0.15993412194E+02 -0.87955378960E+01  0.19948313155E+02  0.27038600527E+02  0.51100000000E-03 0. -1.
         11    1    1    0    0    0 -0.21141262326E+02 -0.11309190703E+02  0.26128095120E+02  0.35461642967E+02  0.51100000000E-03 0.  1.
         22    1    1    0    0    0  0.37134674520E+02  0.20104728599E+02 -0.46076408275E+02  0.62499756505E+02  0.00000000000E+00 0.  1.
</event>
<event>
 4    1  0.1974401E-002  0.9118800E+02  0.7818608E-02  0.1130116E+00
         25   -1    0    0    0    0  0.00000000000E+00  0.00000000000E+00  0.99999998245E-14  0.12500000000E+03  0.12500000000E+03 0.  0.
        -11    1    1    0    0    0  0.42713845771E+02  0.17215106140E+02  0.18086352509E+02  0.49476748552E+02  0.51100000000E-03 0.  1.
         11    1    1    0    0    0  0.11243386583E+02  0.45319573782E+01  0.47594852001E+01  0.13023251482E+02  0.51100000000E-03 0. -1.
         22    1    1    0    0    0 -0.53957232354E+02 -0.21747063519E+02 -0.22845837709E+02  0.62499999965E+02  0.00000000000E+00 0.  1.
</event>
<event>
 4    1  0.1974401E-002  0.9118800E+02  0.7818608E-02  0.1130116E+00
         25   -1    0    0    0    0  0.00000000000E+00  0.00000000000E+00  0.99999998245E-14  0.12500000000E+03  0.12500000000E+03 0.  0.
        -11    1    1    0    0    0 -0.20163400794E+02 -0.23178608443E+01 -0.95348637191E+01  0.22424291224E+02  0.51100000000E-03 0.  1.
         11    1    1    0    0    0 -0.36098883402E+02 -0.38839471745E+01 -0.16966487341E+02  0.40075879547E+02  0.51100000000E-03 0. -1.
         22    1    1    0    0    0  0.56262284196E+02  0.62018080188E+01  0.26501351060E+02  0.62499829229E+02  0.00000000000E+00 0. -1.
</event>
<event>
 4    1  0.1974401E-002  0.9118800E+02  0.7818608E-02  0.1130116E+00
         25   -1    0    0    0    0  0.00000000000E+00  0.00000000000E+00  0.99999998245E-14  0.12500000000E+03  0.12500000000E+03 0.  0.
        -11    1    1    0    0    0 -0.82376090669E+01 -0.27395501241E+02  0.38894611504E+02  0.48282113621E+02  0.51100000000E-03 0.  1.
         11    1    1    0    0    0 -0.13312960823E+01 -0.70154999521E+01  0.12343239383E+02  0.14259914010E+02  0.51100000000E-03 0. -1.
         22    1    1    0    0    0  0.95689051492E+01  0.34411001193E+02 -0.51237850888E+02  0.62457972369E+02  0.00000000000E+00 0.  1.
</event>
<event>
 4    1  0.1974401E-002  0.9118800E+02  0.7818608E-02  0.1130116E+00
         25   -1    0    0    0    0  0.00000000000E+00  0.00000000000E+00  0.99999998245E-14  0.12500000000E+03  0.12500000000E+03 0.  0.
        -11    1    1    0    0    0  0.11985360753E+01  0.31639389316E+02  0.51796493720E+02  0.60707200619E+02  0.51100000000E-03 0. -1.
         11    1    1    0    0    0  0.44853002313E-01  0.58666921129E+00  0.17157327839E+01  0.18138169153E+01  0.51100000000E-03 0.  1.
         22    1    1    0    0    0 -0.12433890776E+01 -0.32226058527E+02 -0.53512226504E+02  0.62478982466E+02  0.00000000000E+00 0. -1.
</event>
<event>
 4    1  0.1974401E-002  0.9118800E+02  0.7818608E-02  0.1130116E+00
         25   -1    0    0    0    0  0.00000000000E+00  0.00000000000E+00  0.99999998245E-14  0.12500000000E+03  0.12500000000E+03 0.  0.
        -11    1    1    0    0    0 -0.29350926736E+01 -0.21219122401E+01 -0.18866568627E+02  0.19211056519E+02  0.51100000000E-03 0. -1.
         11    1    1    0    0    0 -0.66132889147E+01 -0.47806283558E+01 -0.42512852531E+02  0.43288943488E+02  0.51100000000E-03 0. -1.
         22    1    1    0    0    0  0.95483815883E+01  0.69025405959E+01  0.61379421157E+02  0.62499999994E+02  0.00000000000E+00 0. -1.
</event>
<event>
 4    1  0.1974401E-002  0.9118800E+02  0.7818608E-02  0.1130116E+00
         25   -1    0    0    0    0  0.00000000000E+00  0.00000000000E+00  0.99999998245E-14  0.12500000000E+03  0.12500000000E+03 0.  0.
        -11    1    1    0    0    0  0.72048131650E+00  0.26062200170E+01 -0.17209883337E+01  0.32051953466E+01  0.51100000000E-03 0. -1.
         11    1    1    0    0    0  0.16419360398E+02  0.44205368076E+02 -0.35961884364E+02  0.59304022544E+02  0.51100000000E-03 0.  1.
         22    1    1    0    0    0 -0.17139841714E+02 -0.46811588093E+02  0.37682872698E+02  0.62490782109E+02  0.00000000000E+00 0.  1.
</event>
<event>
 4    1  0.1974401E-002  0.9118800E+02  0.7818608E-02  0.1130116E+00
         25   -1    0    0    0    0  0.00000000000E+00  0.00000000000E+00  0.99999998245E-14  0.12500000000E+03  0.12500000000E+03 0.  0.
        -11    1    1    0    0    0 -0.21081213633E+02 -0.18256044397E+02 -0.24568220333E+02  0.37165819994E+02  0.51100000000E-03 0.  1.
         11    1    1    0    0    0 -0.14184342593E+02 -0.12095055794E+02 -0.17159012824E+02  0.25336094230E+02  0.51100000000E-03 0. -1.
         22    1    1    0    0    0  0.35265556226E+02  0.30351100192E+02  0.41727233157E+02  0.62498085776E+02  0.00000000000E+00 0.  1.
</event>
<event>
 4    1  0.1974401E-002  0.9118800E+02  0.7818608E-02  0.1130116E+00
         25   -1    0    0    0    0  0.00000000000E+00  0.00000000000E+00  0.99999998245E-14  0.12500000000E+03  0.12500000000E+03 0.  0.
        -11    1    1    0    0    0  0.44899164977E+02  0.16745823691E+02  0.13373361969E+02  0.49751426485E+02  0.51100000000E-03 0.  1.
         11    1    1    0    0    0  0.11508581985E+02  0.42940895928E+01  0.34116802041E+01  0.12748577443E+02  0.51100000000E-03 0. -1.
         22    1    1    0    0    0 -0.56407746962E+02 -0.21039913284E+02 -0.16785042173E+02  0.62499996072E+02  0.00000000000E+00 0.  1.
</event>
<event>
 4    1  0.1974401E-002  0.9118800E+02  0.7818608E-02  0.1130116E+00
         25   -1    0    0    0    0  0.00000000000E+00  0.00000000000E+00  0.99999998245E-14  0.12500000000E+03  0.12500000000E+03 0.  0.
        -11    1    1    0    0    0  0.25116561153E+02 -0.88411332691E+01  0.12883190767E+02  0.29580126542E+02  0.51100000000E-03 0.  1.
         11    1    1    0    0    0  0.27950930690E+02 -0.98246219238E+01  0.14350624969E+02  0.32919874842E+02  0.51100000000E-03 0. -1.
         22    1    1    0    0    0 -0.53067491843E+02  0.18665755193E+02 -0.27233815736E+02  0.62499998616E+02  0.00000000000E+00 0. -1.
</event>
<event>
 4    1  0.1974401E-002  0.9118800E+02  0.7818608E-02  0.1130116E+00
         25   -1    0    0    0    0  0.00000000000E+00  0.00000000000E+00  0.99999998245E-14  0.12500000000E+03  0.12500000000E+03 0.  0.
        -11    1    1    0    0    0  0.10921642701E+00  0.65862165136E+00 -0.12495113987E+01  0.14166826406E+01  0.51100000000E-03 0. -1.
         11    1    1    0    0    0  0.56131973541E+01  0.27049315863E+02 -0.54479649465E+02  0.61083595829E+02  0.51100000000E-03 0.  1.
         22    1    1    0    0    0 -0.57224137812E+01 -0.27707937515E+02  0.55729160864E+02  0.62499721531E+02  0.00000000000E+00 0.  1.
</event>
<event>
 4    1  0.1974401E-002  0.9118800E+02  0.7818608E-02  0.1130116E+00
         25   -1    0    0    0    0  0.00000000000E+00  0.00000000000E+00  0.99999998245E-14  0.12500000000E+03  0.12500000000E+03 0.  0.
        -11    1    1    0    0    0  0.33648913626E+01  0.11111822407E+02  0.33125926928E+02  0.35101597203E+02  0.51100000000E-03 0.  1.
         11    1    1    0    0    0  0.26494296181E+01  0.86860547200E+01  0.25849674240E+02  0.27398406568E+02  0.51100000000E-03 0. -1.
         22    1    1    0    0    0 -0.60143209807E+01 -0.19797877127E+02 -0.58975601168E+02  0.62499996229E+02  0.00000000000E+00 0.  1.
</event>
<event>
 4    1  0.1974401E-002  0.9118800E+02  0.7818608E-02  0.1130116E+00
         25   -1    0    0    0    0  0.00000000000E+00  0.00000000000E+00  0.99999998245E-14  0.12500000000E+03  0.12500000000E+03 0.  0.
        -11    1    1    0    0    0  0.39051335368E+01 -0.29222951052E+01 -0.20691985667E+00  0.48818738933E+01  0.51100000000E-03 0.  1.
         11    1    1    0    0    0  0.46084826532E+02 -0.34497347050E+02 -0.24434137241E+01  0.57618126148E+02  0.51100000000E-03 0. -1.
         22    1    1    0    0    0 -0.49989960069E+02  0.37419642155E+02  0.26503335807E+01  0.62499999958E+02  0.00000000000E+00 0. -1.
</event>
<event>
 4    1  0.1974401E-002  0.9118800E+02  0.7818608E-02  0.1130116E+00
         25   -1    0    0    0    0  0.00000000000E+00  0.00000000000E+00  0.99999998245E-14  0.12500000000E+03  0.12500000000E+03 0.  0.
        -11    1    1    0    0    0  0.15786330266E+02  0.61110459454E+01  0.63304521921E+01  0.18072845128E+02  0.51100000000E-03 0.  1.
         11    1    1    0    0    0  0.35990732857E+02  0.27138052115E+02 -0.65771779649E-01  0.45075614809E+02  0.51100000000E-03 0. -1.
         22    1    1    0    0    0 -0.51777063123E+02 -0.33249098060E+02 -0.62646804124E+01  0.61851540063E+02  0.00000000000E+00 0. -1.
</event>
<event>
 4    1  0.1974401E-002  0.9118800E+02  0.7818608E-02  0.1130116E+00
         25   -1    0    0    0    0  0.00000000000E+00  0.00000000000E+00  0.99999998245E-14  0.12500000000E+03  0.12500000000E+03 0.  0.
        -11    1    1    0    0    0 -0.43371934062E+02  0.27182759942E+02  0.23999526694E+02  0.56533214875E+02  0.51100000000E-03 0.  1.
         11    1    1    0    0    0 -0.45773027120E+01  0.28796164973E+01  0.25216547825E+01  0.59667943146E+01  0.51100000000E-03 0. -1.
         22    1    1    0    0    0  0.47949236774E+02 -0.30062376439E+02 -0.26521181476E+02  0.62499990810E+02  0.00000000000E+00 0.  1.
</event>
<event>
 4    1  0.1974401E-002  0.9118800E+02  0.7818608E-02  0.1130116E+00
         25   -1    0    0    0    0  0.00000000000E+00  0.00000000000E+00  0.99999998245E-14  0.12500000000E+03  0.12500000000E+03 0.  0.
        -11    1    1    0    0    0 -0.16911659817E+02 -0.13135269298E+02  0.49104744197E+02  0.53570658389E+02  0.51100000000E-03 0.  1.
         11    1    1    0    0    0 -0.41595103185E+01 -0.30140042434E+01  0.73945853148E+01  0.90036459231E+01  0.51100000000E-03 0. -1.
         22    1    1    0    0    0  0.21071170136E+02  0.16149273541E+02 -0.56499329512E+02  0.62425695688E+02  0.00000000000E+00 0.  1.
</event>
<event>
 4    1  0.1974401E-002  0.9118800E+02  0.7818608E-02  0.1130116E+00
         25   -1    0    0    0    0  0.00000000000E+00  0.00000000000E+00  0.99999998245E-14  0.12500000000E+03  0.12500000000E+03 0.  0.
        -11    1    1    0    0    0 -0.48468274825E+02 -0.30541507923E+02  0.17747666017E+02  0.59974469735E+02  0.51100000000E-03 0.  1.
         11    1    1    0    0    0 -0.20399084471E+01 -0.12897788899E+01  0.74401568308E+00  0.25255327468E+01  0.51100000000E-03 0. -1.
         22    1    1    0    0    0  0.50508183272E+02  0.31831286813E+02 -0.18491681700E+02  0.62499997518E+02  0.00000000000E+00 0.  1.
</event>
<event>
 4    1  0.1974401E-002  0.9118800E+02  0.7818608E-02  0.1130116E+00
         25   -1    0    0    0    0  0.00000000000E+00  0.00000000000E+00  0.99999998245E-14  0.12500000000E+03  0.12500000000E+03 0.  0.
        -11    1    1    0    0    0 -0.39042089794E+02 -0.20213603815E+02 -0.38966687560E+02  0.58747572667E+02  0.51100000000E-03 0.  1.
         11    1    1    0    0    0 -0.24551177903E+01 -0.12903911277E+01 -0.25277276614E+01  0.37526150906E+01  0.51100000000E-03 0. -1.
         22    1    1    0    0    0  0.41497207584E+02  0.21503994942E+02  0.41494415221E+02  0.62499812242E+02  0.00000000000E+00 0.  1.
</event>
<event>
 4    1  0.1974401E-002  0.9118800E+02  0.7818608E-02  0.1130116E+00
         25   -1    0    0    0    0  0.00000000000E+00  0.00000000000E+00  0.99999998245E-14  0.12500000000E+03  0.12500000000E+03 0.  0.
        -11    1    1    0    0    0  0.66565511755E+00  0.16329817377E+01 -0.22561832635E+01  0.28635797999E+01  0.51100000000E-03 0.  1.
         11    1    1    0    0    0  0.13963522478E+02  0.34106933774E+02 -0.46885396628E+02  0.59636426023E+02  0.51100000000E-03 0. -1.
         22    1    1    0    0    0 -0.14629177595E+02 -0.35739915512E+02  0.49141579892E+02  0.62499994178E+02  0.00000000000E+00 0. -1.
</event>
<event>
 4    1  0.1974401E-002  0.9118800E+02  0.7818608E-02  0.1130116E+00
         25   -1    0    0    0    0  0.00000000000E+00  0.00000000000E+00  0.99999998245E-14  0.12500000000E+03  0.12500000000E+03 0.  0.
        -11    1    1    0    0    0  0.82698811920E+01 -0.21828572648E+02 -0.32858355473E+02  0.40305694926E+02  0.51100000000E-03 0.  1.
         11    1    1    0    0    0  0.45574875259E+01 -0.12010092052E+02 -0.18099011558E+02  0.22194306101E+02  0.51100000000E-03 0. -1.
         22    1    1    0    0    0 -0.12827368718E+02  0.33838664700E+02  0.50957367031E+02  0.62499998974E+02  0.00000000000E+00 0.  1.
</event>
<event>
 4    1  0.1974401E-002  0.9118800E+02  0.7818608E-02  0.1130116E+00
         25   -1    0    0    0    0  0.00000000000E+00  0.00000000000E+00  0.99999998245E-14  0.12500000000E+03  0.12500000000E+03 0.  0.
        -11    1    1    0    0    0 -0.20314850644E+02  0.45551717265E+02  0.18538385109E+02  0.53210185352E+02  0.51100000000E-03 0.  1.
         11    1    1    0    0    0 -0.35061065813E+01  0.79346952422E+01  0.33245480900E+01  0.92900372556E+01  0.51100000000E-03 0. -1.
         22    1    1    0    0    0  0.23820957225E+02 -0.53486412507E+02 -0.21862933199E+02  0.62499777392E+02  0.00000000000E+00 0.  1.
</event>
<event>
 4    1  0.1974401E-002  0.9118800E+02  0.7818608E-02  0.1130116E+00
         25   -1    0    0    0    0  0.00000000000E+00  0.00000000000E+00  0.99999998245E-14  0.12500000000E+03  0.12500000000E+03 0.  0.
        -11    1    1    0    0    0 -0.14847859775E+01 -0.35667088984E+01  0.75312605294E+01  0.84643893571E+01  0.51100000000E-03 0.  1.
         11    1    1    0    0    0 -0.98540020382E+01 -0.26511529353E+02  0.46055615308E+02  0.54047037351E+02  0.51100000000E-03 0. -1.
         22    1    1    0    0    0  0.11338788016E+02  0.30078238252E+02 -0.53586875837E+02  0.62488573291E+02  0.00000000000E+00 0. -1.
</event>
<event>
 4    1  0.1974401E-002  0.9118800E+02  0.7818608E-02  0.1130116E+00
         25   -1    0    0    0    0  0.00000000000E+00  0.00000000000E+00  0.99999998245E-14  0.12500000000E+03  0.12500000000E+03 0.  0.
        -11    1    1    0    0    0  0.36217179108E+02 -0.17067734690E+02 -0.48150120792E+00  0.40040273146E+02  0.51100000000E-03 0.  1.
         11    1    1    0    0    0  0.20448723659E+02 -0.91609996244E+01 -0.17751695131E+01  0.22477220479E+02  0.51100000000E-03 0. -1.
         22    1    1    0    0    0 -0.56665902767E+02  0.26228734315E+02  0.22566707210E+01  0.62482506375E+02  0.00000000000E+00 0.  1.
</event>
<event>
 4    1  0.1974401E-002  0.9118800E+02  0.7818608E-02  0.1130116E+00
         25   -1    0    0    0    0  0.00000000000E+00  0.00000000000E+00  0.99999998245E-14  0.12500000000E+03  0.12500000000E+03 0.  0.
        -11    1    1    0    0    0  0.61631242563E+01 -0.86863458162E+01  0.56447278165E+01  0.12054030721E+02  0.51100000000E-03 0.  1.
         11    1    1    0    0    0  0.25249879194E+02 -0.35794166384E+02  0.25025289380E+02  0.50448427678E+02  0.51100000000E-03 0. -1.
         22    1    1    0    0    0 -0.31413003450E+02  0.44480512200E+02 -0.30670017196E+02  0.62497541601E+02  0.00000000000E+00 0. -1.
</event>
<event>
 4    1  0.1974401E-002  0.9118800E+02  0.7818608E-02  0.1130116E+00
         25   -1    0    0    0    0  0.00000000000E+00  0.00000000000E+00  0.99999998245E-14  0.12500000000E+03  0.12500000000E+03 0.  0.
        -11    1    1    0    0    0 -0.20428279115E+02  0.43812210102E+02  0.18488251261E+02  0.51755577251E+02  0.51100000000E-03 0.  1.
         11    1    1    0    0    0 -0.42444622164E+01  0.90943954687E+01  0.38365529303E+01  0.10744423069E+02  0.51100000000E-03 0. -1.
         22    1    1    0    0    0  0.24672741332E+02 -0.52906605570E+02 -0.22324804191E+02  0.62499999680E+02  0.00000000000E+00 0.  1.
</event>
<event>
 4    1  0.1974401E-002  0.9118800E+02  0.7818608E-02  0.1130116E+00
         25   -1    0    0    0    0  0.00000000000E+00  0.00000000000E+00  0.99999998245E-14  0.12500000000E+03  0.12500000000E+03 0.  0.
        -11    1    1    0    0    0 -0.22694953954E+02  0.14671226873E+02  0.22284096686E+02  0.35026943890E+02  0.51100000000E-03 0. -1.
         11    1    1    0    0    0 -0.17805101317E+02  0.11511764055E+02  0.17470732527E+02  0.27473056617E+02  0.51100000000E-03 0.  1.
         22    1    1    0    0    0  0.40500055271E+02 -0.26182990928E+02 -0.39754829213E+02  0.62499999493E+02  0.00000000000E+00 0. -1.
</event>
<event>
 4    1  0.1974401E-002  0.9118800E+02  0.7818608E-02  0.1130116E+00
         25   -1    0    0    0    0  0.00000000000E+00  0.00000000000E+00  0.99999998245E-14  0.12500000000E+03  0.12500000000E+03 0.  0.
        -11    1    1    0    0    0 -0.39287011673E+01 -0.10621035052E+02  0.74145179603E+01  0.13535736230E+02  0.51100000000E-03 0.  1.
         11    1    1    0    0    0 -0.14210446933E+02 -0.38420992788E+02  0.26821439899E+02  0.48964263778E+02  0.51100000000E-03 0.  1.
         22    1    1    0    0    0  0.18139148100E+02  0.49042027840E+02 -0.34235957859E+02  0.62499999992E+02  0.00000000000E+00 0.  1.
</event>
<event>
 4    1  0.1974401E-002  0.9118800E+02  0.7818608E-02  0.1130116E+00
         25   -1    0    0    0    0  0.00000000000E+00  0.00000000000E+00  0.99999998245E-14  0.12500000000E+03  0.12500000000E+03 0.  0.
        -11    1    1    0    0    0  0.26980483020E+00  0.57706659091E+01 -0.14041685269E+02  0.15183619632E+02  0.51100000000E-03 0.  1.
         11    1    1    0    0    0 -0.32908961198E+01  0.17839375931E+02 -0.43724628705E+02  0.47338319431E+02  0.51100000000E-03 0. -1.
         22    1    1    0    0    0  0.30210912896E+01 -0.23610041840E+02  0.57766313974E+02  0.62478060937E+02  0.00000000000E+00 0. -1.
</event>
<event>
 4    1  0.1974401E-002  0.9118800E+02  0.7818608E-02  0.1130116E+00
         25   -1    0    0    0    0  0.00000000000E+00  0.00000000000E+00  0.99999998245E-14  0.12500000000E+03  0.12500000000E+03 0.  0.
        -11    1    1    0    0    0 -0.29046736760E+01  0.76145099249E+00 -0.18725676151E+01  0.35388481900E+01  0.51100000000E-03 0.  1.
         11    1    1    0    0    0 -0.48332385682E+02  0.12695197551E+02 -0.31292654724E+02  0.58961154894E+02  0.51100000000E-03 0. -1.
         22    1    1    0    0    0  0.51237059358E+02 -0.13456648543E+02  0.33165222339E+02  0.62499996916E+02  0.00000000000E+00 0. -1.
</event>
<event>
 4    1  0.1974401E-002  0.9118800E+02  0.7818608E-02  0.1130116E+00
         25   -1    0    0    0    0  0.00000000000E+00  0.00000000000E+00  0.99999998245E-14  0.12500000000E+03  0.12500000000E+03 0.  0.
        -11    1    1    0    0    0 -0.40383470689E+02 -0.75480661184E+01  0.11741733563E+02  0.42727816634E+02  0.51100000000E-03 0. -1.
         11    1    1    0    0    0 -0.19705735769E+02  0.12774200631E+01  0.32788299299E+01  0.20017456137E+02  0.51100000000E-03 0.  1.
         22    1    1    0    0    0  0.60089206458E+02  0.62706460553E+01 -0.15020563493E+02  0.62254727229E+02  0.00000000000E+00 0. -1.
</event>
<event>
 4    1  0.1974401E-002  0.9118800E+02  0.7818608E-02  0.1130116E+00
         25   -1    0    0    0    0  0.00000000000E+00  0.00000000000E+00  0.99999998245E-14  0.12500000000E+03  0.12500000000E+03 0.  0.
        -11    1    1    0    0    0 -0.32310915030E+02  0.17902292272E+01  0.21787449536E+02  0.39011448426E+02  0.51100000000E-03 0. -1.
         11    1    1    0    0    0 -0.19454020000E+02  0.10776727125E+01  0.13118375754E+02  0.23488551579E+02  0.51100000000E-03 0. -1.
         22    1    1    0    0    0  0.51764935030E+02 -0.28679019397E+01 -0.34905825290E+02  0.62499999994E+02  0.00000000000E+00 0. -1.
</event>
<event>
 4    1  0.1974401E-002  0.9118800E+02  0.7818608E-02  0.1130116E+00
         25   -1    0    0    0    0  0.00000000000E+00  0.00000000000E+00  0.99999998245E-14  0.12500000000E+03  0.12500000000E+03 0.  0.
        -11    1    1    0    0    0 -0.41479754305E+00  0.11709262131E+01  0.91887204117E+01  0.92723086803E+01  0.51100000000E-03 0. -1.
         11    1    1    0    0    0 -0.24097466686E+01  0.68016940819E+01  0.52736303887E+02  0.53227696450E+02  0.51100000000E-03 0.  1.
         22    1    1    0    0    0  0.28245442117E+01 -0.79726202950E+01 -0.61925024299E+02  0.62499994870E+02  0.00000000000E+00 0.  1.
</event>
<event>
 4    1  0.1974401E-002  0.9118800E+02  0.7818608E-02  0.1130116E+00
         25   -1    0    0    0    0  0.00000000000E+00  0.00000000000E+00  0.99999998245E-14  0.12500000000E+03  0.12500000000E+03 0.  0.
        -11    1    1    0    0    0  0.38075440240E+01  0.71480380917E+01 -0.51883944108E+01  0.96182782700E+01  0.51100000000E-03 0. -1.
         11    1    1    0    0    0 -0.39154389107E+02  0.19211502719E+02  0.40018396671E+02  0.59191385314E+02  0.51100000000E-03 0.  1.
         22    1    1    0    0    0  0.35346845083E+02 -0.26359540810E+02 -0.34830002260E+02  0.56190336416E+02  0.00000000000E+00 0.  1.
</event>
<event>
 4    1  0.1974401E-002  0.9118800E+02  0.7818608E-02  0.1130116E+00
         25   -1    0    0    0    0  0.00000000000E+00  0.00000000000E+00  0.99999998245E-14  0.12500000000E+03  0.12500000000E+03 0.  0.
        -11    1    1    0    0    0  0.11561424751E+02  0.72432624471E+01  0.66826374512E+01  0.15191742385E+02  0.51100000000E-03 0. -1.
         11    1    1    0    0    0  0.36002739762E+02  0.22555681241E+02  0.20811420240E+02  0.47308257622E+02  0.51100000000E-03 0. -1.
         22    1    1    0    0    0 -0.47564164513E+02 -0.29798943688E+02 -0.27494057691E+02  0.62499999992E+02  0.00000000000E+00 0. -1.
</event>
<event>
 4    1  0.1974401E-002  0.9118800E+02  0.7818608E-02  0.1130116E+00
         25   -1    0    0    0    0  0.00000000000E+00  0.00000000000E+00  0.99999998245E-14  0.12500000000E+03  0.12500000000E+03 0.  0.
        -11    1    1    0    0    0 -0.64045233964E+01 -0.21856012395E+02 -0.52306164187E+00  0.22781062124E+02  0.51100000000E-03 0.  1.
         11    1    1    0    0    0 -0.11374903780E+02 -0.38035146828E+02 -0.12501546133E+01  0.39719311639E+02  0.51100000000E-03 0. -1.
         22    1    1    0    0    0  0.17779427176E+02  0.59891159224E+02  0.17732162552E+01  0.62499626237E+02  0.00000000000E+00 0.  1.
</event>
<event>
 4    1  0.1974401E-002  0.9118800E+02  0.7818608E-02  0.1130116E+00
         25   -1    0    0    0    0  0.00000000000E+00  0.00000000000E+00  0.99999998245E-14  0.12500000000E+03  0.12500000000E+03 0.  0.
        -11    1    1    0    0    0  0.35118489070E+01  0.18867768647E+02 -0.13228671660E+01  0.19237353099E+02  0.51100000000E-03 0. -1.
         11    1    1    0    0    0  0.78193161111E+01  0.42442710563E+02 -0.30220091468E+01  0.43262662007E+02  0.51100000000E-03 0.  1.
         22    1    1    0    0    0 -0.11331165018E+02 -0.61310479210E+02  0.43448763128E+01  0.62499984894E+02  0.00000000000E+00 0.  1.
</event>
<event>
 4    1  0.1974401E-002  0.9118800E+02  0.7818608E-02  0.1130116E+00
         25   -1    0    0    0    0  0.00000000000E+00  0.00000000000E+00  0.99999998245E-14  0.12500000000E+03  0.12500000000E+03 0.  0.
        -11    1    1    0    0    0 -0.19726151062E+02  0.15594344621E+02  0.18214324483E+02  0.31049416041E+02  0.51100000000E-03 0. -1.
         11    1    1    0    0    0 -0.19938851614E+02  0.15776518915E+02  0.18511736009E+02  0.31450607675E+02  0.51100000000E-03 0.  1.
         22    1    1    0    0    0  0.39665002676E+02 -0.31370863536E+02 -0.36726060491E+02  0.62499976284E+02  0.00000000000E+00 0. -1.
</event>
<event>
 4    1  0.1974401E-002  0.9118800E+02  0.7818608E-02  0.1130116E+00
         25   -1    0    0    0    0  0.00000000000E+00  0.00000000000E+00  0.99999998245E-14  0.12500000000E+03  0.12500000000E+03 0.  0.
        -11    1    1    0    0    0  0.21319668152E+01  0.12017059702E+02  0.62410335644E+01  0.13707862948E+02  0.51100000000E-03 0. -1.
         11    1    1    0    0    0  0.75809813739E+01  0.42806063328E+02  0.22154972602E+02  0.48792142272E+02  0.51100000000E-03 0.  1.
         22    1    1    0    0    0 -0.97129481891E+01 -0.54823123030E+02 -0.28396006167E+02  0.62499994780E+02  0.00000000000E+00 0.  1.
</event>
<event>
 4    1  0.1974401E-002  0.9118800E+02  0.7818608E-02  0.1130116E+00
         25   -1    0    0    0    0  0.00000000000E+00  0.00000000000E+00  0.99999998245E-14  0.12500000000E+03  0.12500000000E+03 0.  0.
        -11    1    1    0    0    0  0.15011594050E+02 -0.22021166763E+02  0.40127258392E+00  0.26654094648E+02  0.51100000000E-03 0. -1.
         11    1    1    0    0    0  0.23439075734E+02 -0.26381072045E+02  0.73466310922E+01  0.36046140185E+02  0.51100000000E-03 0.  1.
         22    1    1    0    0    0 -0.38450669785E+02  0.48402238809E+02 -0.77479036762E+01  0.62299765168E+02  0.00000000000E+00 0.  1.
</event>
<event>
 4    1  0.1974401E-002  0.9118800E+02  0.7818608E-02  0.1130116E+00
         25   -1    0    0    0    0  0.00000000000E+00  0.00000000000E+00  0.99999998245E-14  0.12500000000E+03  0.12500000000E+03 0.  0.
        -11    1    1    0    0    0 -0.16837237086E+02  0.23386740089E+02  0.48587004933E+02  0.56490080663E+02  0.51100000000E-03 0.  1.
         11    1    1    0    0    0 -0.14952292756E-01  0.11450433413E+01  0.61225826376E+01  0.62287531850E+01  0.51100000000E-03 0. -1.
         22    1    1    0    0    0  0.16852189379E+02 -0.24531783430E+02 -0.54709587571E+02  0.62281166152E+02  0.00000000000E+00 0.  1.
</event>
<event>
 4    1  0.1974401E-002  0.9118800E+02  0.7818608E-02  0.1130116E+00
         25   -1    0    0    0    0  0.00000000000E+00  0.00000000000E+00  0.99999998245E-14  0.12500000000E+03  0.12500000000E+03 0.  0.
        -11    1    1    0    0    0  0.24343602192E+01 -0.21377234416E+01 -0.57873480955E+01  0.66324482229E+01  0.51100000000E-03 0.  1.
         11    1    1    0    0    0  0.20507642831E+02 -0.17972281390E+02 -0.48760815218E+02  0.55867552424E+02  0.51100000000E-03 0. -1.
         22    1    1    0    0    0 -0.22942003050E+02  0.20110004831E+02  0.54548163314E+02  0.62499999353E+02  0.00000000000E+00 0. -1.
</event>
<event>
 4    1  0.1974401E-002  0.9118800E+02  0.7818608E-02  0.1130116E+00
         25   -1    0    0    0    0  0.00000000000E+00  0.00000000000E+00  0.99999998245E-14  0.12500000000E+03  0.12500000000E+03 0.  0.
        -11    1    1    0    0    0  0.26873526328E+02  0.45723083598E+02 -0.84505192969E+01  0.53704730403E+02  0.51100000000E-03 0. -1.
         11    1    1    0    0    0  0.67867454444E+01  0.60033078231E+01  0.55102286111E+00  0.90776233123E+01  0.51100000000E-03 0.  1.
         22    1    1    0    0    0 -0.33660271772E+02 -0.51726391421E+02  0.78994964358E+01  0.62217646285E+02  0.00000000000E+00 0. -1.
</event>
<event>
 4    1  0.1974401E-002  0.9118800E+02  0.7818608E-02  0.1130116E+00
         25   -1    0    0    0    0  0.00000000000E+00  0.00000000000E+00  0.99999998245E-14  0.12500000000E+03  0.12500000000E+03 0.  0.
        -11    1    1    0    0    0 -0.28846373058E+02 -0.31144038816E+02 -0.13956717735E+02  0.44686176415E+02  0.51100000000E-03 0. -1.
         11    1    1    0    0    0 -0.11499858060E+02 -0.12416152256E+02 -0.55610018343E+01  0.17813823674E+02  0.51100000000E-03 0. -1.
         22    1    1    0    0    0  0.40346231119E+02  0.43560191071E+02  0.19517719569E+02  0.62499999911E+02  0.00000000000E+00 0. -1.
</event>
<event>
 4    1  0.1974401E-002  0.9118800E+02  0.7818608E-02  0.1130116E+00
         25   -1    0    0    0    0  0.00000000000E+00  0.00000000000E+00  0.99999998245E-14  0.12500000000E+03  0.12500000000E+03 0.  0.
        -11    1    1    0    0    0 -0.22670389287E+02 -0.38601504505E+02  0.53345967858E+00  0.44769490504E+02  0.51100000000E-03 0. -1.
         11    1    1    0    0    0 -0.16375666340E+02 -0.65301915288E+01 -0.92668860080E+01  0.19916852814E+02  0.51100000000E-03 0.  1.
         22    1    1    0    0    0  0.39046055627E+02  0.45131696034E+02  0.87334263294E+01  0.60313656682E+02  0.00000000000E+00 0. -1.
</event>
<event>
 4    1  0.1974401E-002  0.9118800E+02  0.7818608E-02  0.1130116E+00
         25   -1    0    0    0    0  0.00000000000E+00  0.00000000000E+00  0.99999998245E-14  0.12500000000E+03  0.12500000000E+03 0.  0.
        -11    1    1    0    0    0 -0.12533626436E+02  0.28633964750E+01  0.97959912617E+01  0.16163300284E+02  0.51100000000E-03 0.  1.
         11    1    1    0    0    0 -0.35926315765E+02  0.82141902679E+01  0.28087660358E+02  0.46336699827E+02  0.51100000000E-03 0. -1.
         22    1    1    0    0    0  0.48459942201E+02 -0.11077586743E+02 -0.37883651619E+02  0.62499999889E+02  0.00000000000E+00 0. -1.
</event>
<event>
 4    1  0.1974401E-002  0.9118800E+02  0.7818608E-02  0.1130116E+00
         25   -1    0    0    0    0  0.00000000000E+00  0.00000000000E+00  0.99999998245E-14  0.12500000000E+03  0.12500000000E+03 0.  0.
        -11    1    1    0    0    0 -0.12764584519E+02 -0.19805369109E+02  0.29295199338E+02  0.37595158837E+02  0.51100000000E-03 0. -1.
         11    1    1    0    0    0 -0.52705142048E+01 -0.13183327438E+02  0.20545536507E+02  0.24973936673E+02  0.51100000000E-03 0.  1.
         22    1    1    0    0    0  0.18035098724E+02  0.32988696547E+02 -0.49840735845E+02  0.62430904490E+02  0.00000000000E+00 0. -1.
</event>
<event>
 4    1  0.1974401E-002  0.9118800E+02  0.7818608E-02  0.1130116E+00
         25   -1    0    0    0    0  0.00000000000E+00  0.00000000000E+00  0.99999998245E-14  0.12500000000E+03  0.12500000000E+03 0.  0.
        -11    1    1    0    0    0 -0.19748585055E+02  0.28845475293E+02  0.44124692133E+02  0.56294373721E+02  0.51100000000E-03 0.  1.
         11    1    1    0    0    0 -0.21780997065E+01  0.31775178411E+01  0.48650860987E+01  0.62056265575E+01  0.51100000000E-03 0. -1.
         22    1    1    0    0    0  0.21926684762E+02 -0.32022993134E+02 -0.48989778232E+02  0.62499999721E+02  0.00000000000E+00 0.  1.
</event>
<event>
 4    1  0.1974401E-002  0.9118800E+02  0.7818608E-02  0.1130116E+00
         25   -1    0    0    0    0  0.00000000000E+00  0.00000000000E+00  0.99999998245E-14  0.12500000000E+03  0.12500000000E+03 0.  0.
        -11    1    1    0    0    0 -0.13859408440E+02 -0.50736837171E+01 -0.52446011107E+01  0.15663055572E+02  0.51100000000E-03 0. -1.
         11    1    1    0    0    0 -0.39914742577E+02 -0.11683357180E+02 -0.21687591891E+02  0.46904574962E+02  0.51100000000E-03 0.  1.
         22    1    1    0    0    0  0.53774151018E+02  0.16757040897E+02  0.26932193002E+02  0.62432369467E+02  0.00000000000E+00 0.  1.
</event>
<event>
 4    1  0.1974401E-002  0.9118800E+02  0.7818608E-02  0.1130116E+00
         25   -1    0    0    0    0  0.00000000000E+00  0.00000000000E+00  0.99999998245E-14  0.12500000000E+03  0.12500000000E+03 0.  0.
        -11    1    1    0    0    0 -0.29617837898E+01 -0.17547022575E+01  0.75059926128E+00  0.35234276979E+01  0.51100000000E-03 0.  1.
         11    1    1    0    0    0 -0.49579209346E+02 -0.29006867251E+02  0.13370183209E+02  0.58976759375E+02  0.51100000000E-03 0. -1.
         22    1    1    0    0    0  0.52540993136E+02  0.30761569509E+02 -0.14120782470E+02  0.62499812927E+02  0.00000000000E+00 0. -1.
</event>
<event>
 4    1  0.1974401E-002  0.9118800E+02  0.7818608E-02  0.1130116E+00
         25   -1    0    0    0    0  0.00000000000E+00  0.00000000000E+00  0.99999998245E-14  0.12500000000E+03  0.12500000000E+03 0.  0.
        -11    1    1    0    0    0 -0.94780103638E+01 -0.27224529484E+02  0.22580249872E+02  0.36617965135E+02  0.51100000000E-03 0.  1.
         11    1    1    0    0    0 -0.67017575233E+01 -0.19240309954E+02  0.15961724598E+02  0.25882034955E+02  0.51100000000E-03 0. -1.
         22    1    1    0    0    0  0.16179767887E+02  0.46464839437E+02 -0.38541974469E+02  0.62499999911E+02  0.00000000000E+00 0.  1.
</event>
<event>
 4    1  0.1974401E-002  0.9118800E+02  0.7818608E-02  0.1130116E+00
         25   -1    0    0    0    0  0.00000000000E+00  0.00000000000E+00  0.99999998245E-14  0.12500000000E+03  0.12500000000E+03 0.  0.
        -11    1    1    0    0    0 -0.27048510816E+02  0.43802914322E+02  0.22768352338E+02  0.56291341331E+02  0.51100000000E-03 0. -1.
         11    1    1    0    0    0 -0.29614258435E+01  0.47988827421E+01  0.25985074671E+01  0.62089902494E+01  0.51100000000E-03 0.  1.
         22    1    1    0    0    0  0.30009936660E+02 -0.48601797064E+02 -0.25366859805E+02  0.62499668419E+02  0.00000000000E+00 0. -1.
</event>
<event>
 4    1  0.1974401E-002  0.9118800E+02  0.7818608E-02  0.1130116E+00
         25   -1    0    0    0    0  0.00000000000E+00  0.00000000000E+00  0.99999998245E-14  0.12500000000E+03  0.12500000000E+03 0.  0.
        -11    1    1    0    0    0  0.63806379867E+01 -0.25262375115E+01 -0.39497011352E-01  0.68626508986E+01  0.51100000000E-03 0. -1.
         11    1    1    0    0    0  0.51729478371E+02 -0.20481051863E+02 -0.31968429974E+00  0.55637349112E+02  0.51100000000E-03 0. -1.
         22    1    1    0    0    0 -0.58110116357E+02  0.23007289375E+02  0.35918131109E+00  0.62499999989E+02  0.00000000000E+00 0. -1.
</event>
<event>
 4    1  0.1974401E-002  0.9118800E+02  0.7818608E-02  0.1130116E+00
         25   -1    0    0    0    0  0.00000000000E+00  0.00000000000E+00  0.99999998245E-14  0.12500000000E+03  0.12500000000E+03 0.  0.
        -11    1    1    0    0    0  0.25141226243E-02  0.17128316104E-01 -0.40722468562E-02  0.17791693022E-01  0.51100000000E-03 0.  1.
         11    1    1    0    0    0  0.74377149796E+01  0.60686662552E+02 -0.12877763863E+02  0.62482216816E+02  0.51100000000E-03 0. -1.
         22    1    1    0    0    0 -0.74402291022E+01 -0.60703790868E+02  0.12881836110E+02  0.62499991491E+02  0.00000000000E+00 0. -1.
</event>
<event>
 4    1  0.1974401E-002  0.9118800E+02  0.7818608E-02  0.1130116E+00
         25   -1    0    0    0    0  0.00000000000E+00  0.00000000000E+00  0.99999998245E-14  0.12500000000E+03  0.12500000000E+03 0.  0.
        -11    1    1    0    0    0  0.10276608092E+02  0.52562394816E+01 -0.13059745295E+02  0.17429677989E+02  0.51100000000E-03 0. -1.
         11    1    1    0    0    0  0.26577882421E+02  0.13588683112E+02 -0.33768295607E+02  0.45070322066E+02  0.51100000000E-03 0.  1.
         22    1    1    0    0    0 -0.36854490513E+02 -0.18844922594E+02  0.46828040901E+02  0.62499999945E+02  0.00000000000E+00 0.  1.
</event>
<event>
 4    1  0.1974401E-002  0.9118800E+02  0.7818608E-02  0.1130116E+00
         25   -1    0    0    0    0  0.00000000000E+00  0.00000000000E+00  0.99999998245E-14  0.12500000000E+03  0.12500000000E+03 0.  0.
        -11    1    1    0    0    0 -0.46241334831E+01 -0.70843113471E+01  0.24300025964E+00  0.84633992650E+01  0.51100000000E-03 0.  1.
         11    1    1    0    0    0 -0.29526843362E+02 -0.45229567589E+02  0.15511148777E+01  0.54036600752E+02  0.51100000000E-03 0.  1.
         22    1    1    0    0    0  0.34150976845E+02  0.52313878936E+02 -0.17941151374E+01  0.62499999983E+02  0.00000000000E+00 0.  1.
</event>
<event>
 4    1  0.1974401E-002  0.9118800E+02  0.7818608E-02  0.1130116E+00
         25   -1    0    0    0    0  0.00000000000E+00  0.00000000000E+00  0.99999998245E-14  0.12500000000E+03  0.12500000000E+03 0.  0.
        -11    1    1    0    0    0  0.25998781878E+02  0.39113652278E+02  0.54740774034E+01  0.47284035121E+02  0.51100000000E-03 0. -1.
         11    1    1    0    0    0  0.83694396738E+01  0.12582424920E+02  0.17778528768E+01  0.15215968534E+02  0.51100000000E-03 0.  1.
         22    1    1    0    0    0 -0.34368221551E+02 -0.51696077198E+02 -0.72519302803E+01  0.62499996345E+02  0.00000000000E+00 0. -1.
</event>
<event>
 4    1  0.1974401E-002  0.9118800E+02  0.7818608E-02  0.1130116E+00
         25   -1    0    0    0    0  0.00000000000E+00  0.00000000000E+00  0.99999998245E-14  0.12500000000E+03  0.12500000000E+03 0.  0.
        -11    1    1    0    0    0  0.95624407025E+01 -0.40018092756E+01  0.42713518817E+01  0.11211565316E+02  0.51100000000E-03 0. -1.
         11    1    1    0    0    0  0.43735791974E+02 -0.19616197525E+02  0.18253521076E+02  0.51291380727E+02  0.51100000000E-03 0.  1.
         22    1    1    0    0    0 -0.53298232676E+02  0.23618006801E+02 -0.22524872958E+02  0.62497053958E+02  0.00000000000E+00 0.  1.
</event>
<event>
 4    1  0.1974401E-002  0.9118800E+02  0.7818608E-02  0.1130116E+00
         25   -1    0    0    0    0  0.00000000000E+00  0.00000000000E+00  0.99999998245E-14  0.12500000000E+03  0.12500000000E+03 0.  0.
        -11    1    1    0    0    0  0.29567557867E+01  0.13255269775E+02  0.14477099946E+02  0.19850214222E+02  0.51100000000E-03 0.  1.
         11    1    1    0    0    0  0.63508182757E+01  0.28475455547E+02  0.31109801879E+02  0.42649785868E+02  0.51100000000E-03 0. -1.
         22    1    1    0    0    0 -0.93075740624E+01 -0.41730725321E+02 -0.45586901824E+02  0.62499999910E+02  0.00000000000E+00 0. -1.
</event>
<event>
 4    1  0.1974401E-002  0.9118800E+02  0.7818608E-02  0.1130116E+00
         25   -1    0    0    0    0  0.00000000000E+00  0.00000000000E+00  0.99999998245E-14  0.12500000000E+03  0.12500000000E+03 0.  0.
        -11    1    1    0    0    0  0.74237560139E+01  0.56708846499E+01  0.36716633310E+01  0.10037539437E+02  0.51100000000E-03 0. -1.
         11    1    1    0    0    0  0.38795159783E+02  0.29644166854E+02  0.19195539185E+02  0.52462460635E+02  0.51100000000E-03 0.  1.
         22    1    1    0    0    0 -0.46218915796E+02 -0.35315051504E+02 -0.22867202516E+02  0.62499999928E+02  0.00000000000E+00 0.  1.
</event>
<event>
 4    1  0.1974401E-002  0.9118800E+02  0.7818608E-02  0.1130116E+00
         25   -1    0    0    0    0  0.00000000000E+00  0.00000000000E+00  0.99999998245E-14  0.12500000000E+03  0.12500000000E+03 0.  0.
        -11    1    1    0    0    0 -0.52271834675E+02  0.20879730992E+02  0.20860859901E+02  0.60029020837E+02  0.51100000000E-03 0. -1.
         11    1    1    0    0    0  0.49306180131E+01  0.36821157242E+01 -0.80279427349E+01  0.10115178447E+02  0.51100000000E-03 0.  1.
         22    1    1    0    0    0  0.47341216662E+02 -0.24561846716E+02 -0.12832917166E+02  0.54855800716E+02  0.00000000000E+00 0. -1.
</event>
<event>
 4    1  0.1974401E-002  0.9118800E+02  0.7818608E-02  0.1130116E+00
         25   -1    0    0    0    0  0.00000000000E+00  0.00000000000E+00  0.99999998245E-14  0.12500000000E+03  0.12500000000E+03 0.  0.
        -11    1    1    0    0    0 -0.62685033135E+01  0.30198104600E+01 -0.55123411388E+02  0.55560812380E+02  0.51100000000E-03 0.  1.
         11    1    1    0    0    0 -0.79711857963E+00  0.32313888808E+00 -0.68857748587E+01  0.69392876030E+01  0.51100000000E-03 0. -1.
         22    1    1    0    0    0  0.70656218931E+01 -0.33429493481E+01  0.62009186247E+02  0.62499900017E+02  0.00000000000E+00 0.  1.
</event>
<event>
 4    1  0.1974401E-002  0.9118800E+02  0.7818608E-02  0.1130116E+00
         25   -1    0    0    0    0  0.00000000000E+00  0.00000000000E+00  0.99999998245E-14  0.12500000000E+03  0.12500000000E+03 0.  0.
        -11    1    1    0    0    0 -0.75799644234E+01 -0.10452360228E+02  0.21255945423E+02  0.24870120850E+02  0.51100000000E-03 0.  1.
         11    1    1    0    0    0 -0.11464873848E+02 -0.15829732826E+02  0.32155622904E+02  0.37629879860E+02  0.51100000000E-03 0. -1.
         22    1    1    0    0    0  0.19044838272E+02  0.26282093054E+02 -0.53411568327E+02  0.62499999290E+02  0.00000000000E+00 0.  1.
</event>
<event>
 4    1  0.1974401E-002  0.9118800E+02  0.7818608E-02  0.1130116E+00
         25   -1    0    0    0    0  0.00000000000E+00  0.00000000000E+00  0.99999998245E-14  0.12500000000E+03  0.12500000000E+03 0.  0.
        -11    1    1    0    0    0 -0.28028162319E+02 -0.17444031448E+02  0.25383530135E+02  0.41643675613E+02  0.51100000000E-03 0. -1.
         11    1    1    0    0    0 -0.14038075743E+02 -0.87353112769E+01  0.12712711507E+02  0.20856324407E+02  0.51100000000E-03 0.  1.
         22    1    1    0    0    0  0.42066238062E+02  0.26179342725E+02 -0.38096241642E+02  0.62499999980E+02  0.00000000000E+00 0. -1.
</event>
<event>
 4    1  0.1974401E-002  0.9118800E+02  0.7818608E-02  0.1130116E+00
         25   -1    0    0    0    0  0.00000000000E+00  0.00000000000E+00  0.99999998245E-14  0.12500000000E+03  0.12500000000E+03 0.  0.
        -11    1    1    0    0    0  0.17369775376E+02  0.29256845659E+02  0.48777976710E+01  0.34372445722E+02  0.51100000000E-03 0.  1.
         11    1    1    0    0    0  0.14215381115E+02  0.23942077637E+02  0.39823600903E+01  0.28127554710E+02  0.51100000000E-03 0. -1.
         22    1    1    0    0    0 -0.31585156491E+02 -0.53198923296E+02 -0.88601577613E+01  0.62499999568E+02  0.00000000000E+00 0. -1.
</event>
<event>
 4    1  0.1974401E-002  0.9118800E+02  0.7818608E-02  0.1130116E+00
         25   -1    0    0    0    0  0.00000000000E+00  0.00000000000E+00  0.99999998245E-14  0.12500000000E+03  0.12500000000E+03 0.  0.
        -11    1    1    0    0    0 -0.17620572133E+00 -0.18483623443E+00  0.67104293831E-01  0.26403813581E+00  0.51100000000E-03 0.  1.
         11    1    1    0    0    0  0.32561054454E+02 -0.52964420258E+02  0.44640216085E+01  0.62332812945E+02  0.51100000000E-03 0. -1.
         22    1    1    0    0    0 -0.32384848733E+02  0.53149256492E+02 -0.45311259023E+01  0.62403148920E+02  0.00000000000E+00 0. -1.
</event>
<event>
 4    1  0.1974401E-002  0.9118800E+02  0.7818608E-02  0.1130116E+00
         25   -1    0    0    0    0  0.00000000000E+00  0.00000000000E+00  0.99999998245E-14  0.12500000000E+03  0.12500000000E+03 0.  0.
        -11    1    1    0    0    0  0.11072976779E+01  0.36573313885E+01 -0.14047378011E+01  0.40712982676E+01  0.51100000000E-03 0. -1.
         11    1    1    0    0    0  0.15876741588E+02  0.52489220307E+02 -0.20167400050E+02  0.58428701824E+02  0.51100000000E-03 0.  1.
         22    1    1    0    0    0 -0.16984039266E+02 -0.56146551695E+02  0.21572137851E+02  0.62499999908E+02  0.00000000000E+00 0.  1.
</event>
<event>
 4    1  0.1974401E-002  0.9118800E+02  0.7818608E-02  0.1130116E+00
         25   -1    0    0    0    0  0.00000000000E+00  0.00000000000E+00  0.99999998245E-14  0.12500000000E+03  0.12500000000E+03 0.  0.
        -11    1    1    0    0    0 -0.89996946137E+00  0.32012752534E+02  0.88246855724E+01  0.33218990737E+02  0.51100000000E-03 0. -1.
         11    1    1    0    0    0 -0.84056230846E+00  0.28221490226E+02  0.77600989802E+01  0.29281021020E+02  0.51100000000E-03 0.  1.
         22    1    1    0    0    0  0.17405317698E+01 -0.60234242760E+02 -0.16584784553E+02  0.62499988243E+02  0.00000000000E+00 0. -1.
</event>
<event>
 4    1  0.1974401E-002  0.9118800E+02  0.7818608E-02  0.1130116E+00
         25   -1    0    0    0    0  0.00000000000E+00  0.00000000000E+00  0.99999998245E-14  0.12500000000E+03  0.12500000000E+03 0.  0.
        -11    1    1    0    0    0  0.16718184886E+02 -0.20472697680E+02  0.32933271197E+02  0.42228301034E+02  0.51100000000E-03 0. -1.
         11    1    1    0    0    0  0.20693775562E+01 -0.65496183554E+01  0.19606512787E+02  0.20774868664E+02  0.51100000000E-03 0.  1.
         22    1    1    0    0    0 -0.18787562442E+02  0.27022316036E+02 -0.52539783984E+02  0.61996830302E+02  0.00000000000E+00 0. -1.
</event>
<event>
 4    1  0.1974401E-002  0.9118800E+02  0.7818608E-02  0.1130116E+00
         25   -1    0    0    0    0  0.00000000000E+00  0.00000000000E+00  0.99999998245E-14  0.12500000000E+03  0.12500000000E+03 0.  0.
        -11    1    1    0    0    0 -0.47635821825E+01  0.16094865017E+01  0.76081914897E+00  0.50853719674E+01  0.51100000000E-03 0. -1.
         11    1    1    0    0    0 -0.53789260303E+02  0.18147196397E+02  0.85926875286E+01  0.57414628277E+02  0.51100000000E-03 0.  1.
         22    1    1    0    0    0  0.58552842485E+02 -0.19756682899E+02 -0.93535066775E+01  0.62499999755E+02  0.00000000000E+00 0.  1.
</event>
<event>
 4    1  0.1974401E-002  0.9118800E+02  0.7818608E-02  0.1130116E+00
         25   -1    0    0    0    0  0.00000000000E+00  0.00000000000E+00  0.99999998245E-14  0.12500000000E+03  0.12500000000E+03 0.  0.
        -11    1    1    0    0    0  0.40299466778E+01  0.12693517759E+02 -0.52337280882E+02  0.54005155622E+02  0.51100000000E-03 0. -1.
         11    1    1    0    0    0  0.72349877009E+01 -0.40329491617E+01 -0.64603943899E+01  0.10504590516E+02  0.51100000000E-03 0.  1.
         22    1    1    0    0    0 -0.11264934379E+02 -0.86605685977E+01  0.58797675272E+02  0.60490253863E+02  0.00000000000E+00 0. -1.
</event>
<event>
 4    1  0.1974401E-002  0.9118800E+02  0.7818608E-02  0.1130116E+00
         25   -1    0    0    0    0  0.00000000000E+00  0.00000000000E+00  0.99999998245E-14  0.12500000000E+03  0.12500000000E+03 0.  0.
        -11    1    1    0    0    0 -0.51781498303E+01  0.73203677220E+01 -0.55800503942E+02  0.56516345066E+02  0.51100000000E-03 0. -1.
         11    1    1    0    0    0 -0.91889155899E+00 -0.18118539734E+01 -0.58991994239E+01  0.62392091344E+01  0.51100000000E-03 0.  1.
         22    1    1    0    0    0  0.60970413893E+01 -0.55085137486E+01  0.61699703366E+02  0.62244445799E+02  0.00000000000E+00 0. -1.
</event>
<event>
 4    1  0.1974401E-002  0.9118800E+02  0.7818608E-02  0.1130116E+00
         25   -1    0    0    0    0  0.00000000000E+00  0.00000000000E+00  0.99999998245E-14  0.12500000000E+03  0.12500000000E+03 0.  0.
        -11    1    1    0    0    0 -0.74979790867E+01 -0.79566581881E+01 -0.40792247056E+01  0.11669111978E+02  0.51100000000E-03 0.  1.
         11    1    1    0    0    0 -0.32664539208E+02 -0.34650373730E+02 -0.17780851426E+02  0.50830888237E+02  0.51100000000E-03 0. -1.
         22    1    1    0    0    0  0.40162518294E+02  0.42607031918E+02  0.21860076131E+02  0.62499999785E+02  0.00000000000E+00 0. -1.
</event>
<event>
 4    1  0.1974401E-002  0.9118800E+02  0.7818608E-02  0.1130116E+00
         25   -1    0    0    0    0  0.00000000000E+00  0.00000000000E+00  0.99999998245E-14  0.12500000000E+03  0.12500000000E+03 0.  0.
        -11    1    1    0    0    0  0.23538381431E+02  0.23032665253E+02  0.48671861060E+02  0.58766564714E+02  0.51100000000E-03 0. -1.
         11    1    1    0    0    0  0.16203979492E+01  0.19673702966E+01  0.27606310988E+01  0.37573021868E+01  0.51100000000E-03 0.  1.
         22    1    1    0    0    0 -0.25158779380E+02 -0.25000035549E+02 -0.51432492159E+02  0.62476133099E+02  0.00000000000E+00 0. -1.
</event>
<event>
 4    1  0.1974401E-002  0.9118800E+02  0.7818608E-02  0.1130116E+00
         25   -1    0    0    0    0  0.00000000000E+00  0.00000000000E+00  0.99999998245E-14  0.12500000000E+03  0.12500000000E+03 0.  0.
        -11    1    1    0    0    0 -0.10770725912E+02 -0.48421874785E+01 -0.13636648609E+02  0.18039221208E+02  0.51100000000E-03 0.  1.
         11    1    1    0    0    0 -0.26508704813E+02 -0.11907941189E+02 -0.33648935825E+02  0.44460784706E+02  0.51100000000E-03 0. -1.
         22    1    1    0    0    0  0.37279430725E+02  0.16750128668E+02  0.47285584434E+02  0.62499994086E+02  0.00000000000E+00 0. -1.
</event>
<event>
 4    1  0.1974401E-002  0.9118800E+02  0.7818608E-02  0.1130116E+00
         25   -1    0    0    0    0  0.00000000000E+00  0.00000000000E+00  0.99999998245E-14  0.12500000000E+03  0.12500000000E+03 0.  0.
        -11    1    1    0    0    0 -0.60928296166E+01 -0.85690112233E+01 -0.23715471418E+01  0.10778439692E+02  0.51100000000E-03 0. -1.
         11    1    1    0    0    0  0.10441394454E+02  0.22158669972E+02 -0.52282132676E+02  0.57736043946E+02  0.51100000000E-03 0.  1.
         22    1    1    0    0    0 -0.43485648373E+01 -0.13589658748E+02  0.54653679818E+02  0.56485516362E+02  0.00000000000E+00 0.  1.
</event>
<event>
 4    1  0.1974401E-002  0.9118800E+02  0.7818608E-02  0.1130116E+00
         25   -1    0    0    0    0  0.00000000000E+00  0.00000000000E+00  0.99999998245E-14  0.12500000000E+03  0.12500000000E+03 0.  0.
        -11    1    1    0    0    0 -0.22407760918E+02  0.98789079017E+00  0.19237874636E+02  0.29549610799E+02  0.51100000000E-03 0. -1.
         11    1    1    0    0    0 -0.24534426610E+02  0.13237390621E-01  0.22004326854E+02  0.32956466207E+02  0.51100000000E-03 0.  1.
         22    1    1    0    0    0  0.46942187528E+02 -0.10011281808E+01 -0.41242201490E+02  0.62493922995E+02  0.00000000000E+00 0.  1.
</event>
<event>
 4    1  0.1974401E-002  0.9118800E+02  0.7818608E-02  0.1130116E+00
         25   -1    0    0    0    0  0.00000000000E+00  0.00000000000E+00  0.99999998245E-14  0.12500000000E+03  0.12500000000E+03 0.  0.
        -11    1    1    0    0    0 -0.22424420975E+02  0.27358461070E+02  0.11311069463E+02  0.37138663692E+02  0.51100000000E-03 0.  1.
         11    1    1    0    0    0 -0.15518518993E+02  0.18459113591E+02  0.78527926451E+01  0.25361972694E+02  0.51100000000E-03 0. -1.
         22    1    1    0    0    0  0.37942939969E+02 -0.45817574661E+02 -0.19163862108E+02  0.62499363614E+02  0.00000000000E+00 0.  1.
</event>
<event>
 4    1  0.1974401E-002  0.9118800E+02  0.7818608E-02  0.1130116E+00
         25   -1    0    0    0    0  0.00000000000E+00  0.00000000000E+00  0.99999998245E-14  0.12500000000E+03  0.12500000000E+03 0.  0.
        -11    1    1    0    0    0  0.88773434035E+01 -0.34944030782E+01 -0.60149026761E+02  0.60900931843E+02  0.51100000000E-03 0.  1.
         11    1    1    0    0    0  0.52658526901E+00 -0.11046939814E+00 -0.15203460570E+01  0.16127454628E+01  0.51100000000E-03 0. -1.
         22    1    1    0    0    0 -0.94039286725E+01  0.36048724764E+01  0.61669372818E+02  0.62486322694E+02  0.00000000000E+00 0.  1.
</event>
<event>
 4    1  0.1974401E-002  0.9118800E+02  0.7818608E-02  0.1130116E+00
         25   -1    0    0    0    0  0.00000000000E+00  0.00000000000E+00  0.99999998245E-14  0.12500000000E+03  0.12500000000E+03 0.  0.
        -11    1    1    0    0    0 -0.98925354070E+00  0.31670885506E+00  0.74200008900E+00  0.12765153583E+01  0.51100000000E-03 0. -1.
         11    1    1    0    0    0 -0.47452054344E+02  0.15200638156E+02  0.35574685090E+02  0.61223484720E+02  0.51100000000E-03 0. -1.
         22    1    1    0    0    0  0.48441307884E+02 -0.15517347011E+02 -0.36316685179E+02  0.62499999922E+02  0.00000000000E+00 0. -1.
</event>
<event>
 4    1  0.1974401E-002  0.9118800E+02  0.7818608E-02  0.1130116E+00
         25   -1    0    0    0    0  0.00000000000E+00  0.00000000000E+00  0.99999998245E-14  0.12500000000E+03  0.12500000000E+03 0.  0.
        -11    1    1    0    0    0  0.13587415043E+02 -0.43903774139E+02 -0.35207590909E+02  0.57894159369E+02  0.51100000000E-03 0.  1.
         11    1    1    0    0    0  0.10820174467E+01 -0.34928969134E+01 -0.28004781428E+01  0.46058407150E+01  0.51100000000E-03 0. -1.
         22    1    1    0    0    0 -0.14669432489E+02  0.47396671052E+02  0.38008069052E+02  0.62499999916E+02  0.00000000000E+00 0.  1.
</event>
<event>
 4    1  0.1974401E-002  0.9118800E+02  0.7818608E-02  0.1130116E+00
         25   -1    0    0    0    0  0.00000000000E+00  0.00000000000E+00  0.99999998245E-14  0.12500000000E+03  0.12500000000E+03 0.  0.
        -11    1    1    0    0    0 -0.27890912034E+02 -0.13548333506E+01  0.60530895736E+01  0.28572336991E+02  0.51100000000E-03 0. -1.
         11    1    1    0    0    0 -0.32812441826E+02 -0.22023479401E+01  0.83665597148E+01  0.33933847362E+02  0.51100000000E-03 0.  1.
         22    1    1    0    0    0  0.60703353860E+02  0.35571812907E+01 -0.14419649288E+02  0.62493815647E+02  0.00000000000E+00 0. -1.
</event>
<event>
 4    1  0.1974401E-002  0.9118800E+02  0.7818608E-02  0.1130116E+00
         25   -1    0    0    0    0  0.00000000000E+00  0.00000000000E+00  0.99999998245E-14  0.12500000000E+03  0.12500000000E+03 0.  0.
        -11    1    1    0    0    0  0.36298565618E+01 -0.47080590732E+00  0.79880573360E-01  0.36611334349E+01  0.51100000000E-03 0. -1.
         11    1    1    0    0    0  0.55970767227E+02 -0.18073555014E+02  0.24639516484E+01  0.58868083311E+02  0.51100000000E-03 0.  1.
         22    1    1    0    0    0 -0.59600623788E+02  0.18544360921E+02 -0.25438322217E+01  0.62470783254E+02  0.00000000000E+00 0.  1.
</event>
<event>
 4    1  0.1974401E-002  0.9118800E+02  0.7818608E-02  0.1130116E+00
         25   -1    0    0    0    0  0.00000000000E+00  0.00000000000E+00  0.99999998245E-14  0.12500000000E+03  0.12500000000E+03 0.  0.
        -11    1    1    0    0    0 -0.13882731546E+01  0.13749826435E+01  0.26817726919E+01  0.33180995545E+01  0.51100000000E-03 0. -1.
         11    1    1    0    0    0 -0.25499023282E+02  0.25127051107E+02  0.47127123252E+02  0.59182215504E+02  0.51100000000E-03 0.  1.
         22    1    1    0    0    0  0.26887296436E+02 -0.26502033751E+02 -0.49808895944E+02  0.62499684941E+02  0.00000000000E+00 0.  1.
</event>
<event>
 4    1  0.1974401E-002  0.9118800E+02  0.7818608E-02  0.1130116E+00
         25   -1    0    0    0    0  0.00000000000E+00  0.00000000000E+00  0.99999998245E-14  0.12500000000E+03  0.12500000000E+03 0.  0.
        -11    1    1    0    0    0  0.26092798340E+02 -0.19395535764E+01  0.53862310501E+01  0.26713432547E+02  0.51100000000E-03 0. -1.
         11    1    1    0    0    0  0.34957403946E+02 -0.25950299344E+01  0.72058422835E+01  0.35786567792E+02  0.51100000000E-03 0.  1.
         22    1    1    0    0    0 -0.61050202286E+02  0.45345835108E+01 -0.12592073334E+02  0.62499999661E+02  0.00000000000E+00 0.  1.
</event>
<event>
 4    1  0.1974401E-002  0.9118800E+02  0.7818608E-02  0.1130116E+00
         25   -1    0    0    0    0  0.00000000000E+00  0.00000000000E+00  0.99999998245E-14  0.12500000000E+03  0.12500000000E+03 0.  0.
        -11    1    1    0    0    0 -0.75602745076E+01 -0.78473438961E+01  0.85756668078E+01  0.13866528705E+02  0.51100000000E-03 0. -1.
         11    1    1    0    0    0 -0.26475559207E+02 -0.27580624701E+02  0.30059424871E+02  0.48633477339E+02  0.51100000000E-03 0.  1.
         22    1    1    0    0    0  0.34035833715E+02  0.35427968597E+02 -0.38635091679E+02  0.62499993957E+02  0.00000000000E+00 0. -1.
</event>
<event>
 4    1  0.1974401E-002  0.9118800E+02  0.7818608E-02  0.1130116E+00
         25   -1    0    0    0    0  0.00000000000E+00  0.00000000000E+00  0.99999998245E-14  0.12500000000E+03  0.12500000000E+03 0.  0.
        -11    1    1    0    0    0 -0.26831452031E+02 -0.94311249698E+01  0.17746119542E+02  0.33523091972E+02  0.51100000000E-03 0. -1.
         11    1    1    0    0    0 -0.23191216488E+02 -0.81464305415E+01  0.15344848097E+02  0.28976908326E+02  0.51100000000E-03 0.  1.
         22    1    1    0    0    0  0.50022668519E+02  0.17577555511E+02 -0.33090967639E+02  0.62499999702E+02  0.00000000000E+00 0.  1.
</event>
<event>
 4    1  0.1974401E-002  0.9118800E+02  0.7818608E-02  0.1130116E+00
         25   -1    0    0    0    0  0.00000000000E+00  0.00000000000E+00  0.99999998245E-14  0.12500000000E+03  0.12500000000E+03 0.  0.
        -11    1    1    0    0    0  0.31215858917E+02  0.46615667453E+02 -0.13172995253E+02  0.57627928162E+02  0.51100000000E-03 0.  1.
         11    1    1    0    0    0  0.26400302258E+01  0.39407837921E+01 -0.11124515853E+01  0.48720719699E+01  0.51100000000E-03 0. -1.
         22    1    1    0    0    0 -0.33855889143E+02 -0.50556451245E+02  0.14285446838E+02  0.62499999868E+02  0.00000000000E+00 0.  1.
</event>
<event>
 4    1  0.1974401E-002  0.9118800E+02  0.7818608E-02  0.1130116E+00
         25   -1    0    0    0    0  0.00000000000E+00  0.00000000000E+00  0.99999998245E-14  0.12500000000E+03  0.12500000000E+03 0.  0.
        -11    1    1    0    0    0 -0.10118144973E+02  0.38284155783E+02  0.11493907839E+02  0.41233037232E+02  0.51100000000E-03 0. -1.
         11    1    1    0    0    0 -0.73444212229E+01  0.19759362215E+02  0.33946573072E+01  0.21351735684E+02  0.51100000000E-03 0.  1.
         22    1    1    0    0    0  0.17462566196E+02 -0.58043517998E+02 -0.14888565147E+02  0.62415227083E+02  0.00000000000E+00 0. -1.
</event>
<event>
 4    1  0.1974401E-002  0.9118800E+02  0.7818608E-02  0.1130116E+00
         25   -1    0    0    0    0  0.00000000000E+00  0.00000000000E+00  0.99999998245E-14  0.12500000000E+03  0.12500000000E+03 0.  0.
        -11    1    1    0    0    0  0.98141802295E+01 -0.11356233923E+02 -0.21020990372E+02  0.25829522236E+02  0.51100000000E-03 0. -1.
         11    1    1    0    0    0  0.14295990116E+02 -0.15580723195E+02 -0.29961314704E+02  0.36671714546E+02  0.51100000000E-03 0.  1.
         22    1    1    0    0    0 -0.24110170346E+02  0.26936957118E+02  0.50982305076E+02  0.62498763218E+02  0.00000000000E+00 0. -1.
</event>
<event>
 4    1  0.1974401E-002  0.9118800E+02  0.7818608E-02  0.1130116E+00
         25   -1    0    0    0    0  0.00000000000E+00  0.00000000000E+00  0.99999998245E-14  0.12500000000E+03  0.12500000000E+03 0.  0.
        -11    1    1    0    0    0 -0.33411956634E+02  0.19544855129E+01  0.15850392450E+02  0.37032604564E+02  0.51100000000E-03 0.  1.
         11    1    1    0    0    0 -0.23065443441E+02  0.89726288097E+00  0.10762691567E+02  0.25468712018E+02  0.51100000000E-03 0. -1.
         22    1    1    0    0    0  0.56477400075E+02 -0.28517483939E+01 -0.26613084017E+02  0.62498683418E+02  0.00000000000E+00 0. -1.
</event>
<event>
 4    1  0.1974401E-002  0.9118800E+02  0.7818608E-02  0.1130116E+00
         25   -1    0    0    0    0  0.00000000000E+00  0.00000000000E+00  0.99999998245E-14  0.12500000000E+03  0.12500000000E+03 0.  0.
        -11    1    1    0    0    0  0.41022322608E+01 -0.10153733088E+02  0.59279943574E+02  0.60282985290E+02  0.51100000000E-03 0. -1.
         11    1    1    0    0    0  0.71679722951E-01 -0.39873950071E+00  0.21804486890E+01  0.22177664256E+01  0.51100000000E-03 0.  1.
         22    1    1    0    0    0 -0.41739119838E+01  0.10552472589E+02 -0.61460392263E+02  0.62499248284E+02  0.00000000000E+00 0. -1.
</event>
<event>
 4    1  0.1974401E-002  0.9118800E+02  0.7818608E-02  0.1130116E+00
         25   -1    0    0    0    0  0.00000000000E+00  0.00000000000E+00  0.99999998245E-14  0.12500000000E+03  0.12500000000E+03 0.  0.
        -11    1    1    0    0    0 -0.20230788080E+02  0.33837524013E+01 -0.49974074295E+02  0.54019835880E+02  0.51100000000E-03 0. -1.
         11    1    1    0    0    0 -0.10994706958E+01  0.81681311093E+01 -0.58543890587E+01  0.10109454641E+02  0.51100000000E-03 0.  1.
         22    1    1    0    0    0  0.21330258775E+02 -0.11551883511E+02  0.55828463353E+02  0.60870709479E+02  0.00000000000E+00 0. -1.
</event>
<event>
 4    1  0.1974401E-002  0.9118800E+02  0.7818608E-02  0.1130116E+00
         25   -1    0    0    0    0  0.00000000000E+00  0.00000000000E+00  0.99999998245E-14  0.12500000000E+03  0.12500000000E+03 0.  0.
        -11    1    1    0    0    0  0.24450722054E+02  0.48265092340E+02 -0.52526033641E+01  0.54359422274E+02  0.51100000000E-03 0.  1.
         11    1    1    0    0    0  0.36604727384E+01  0.72286186380E+01 -0.78550545445E+00  0.81405778150E+01  0.51100000000E-03 0. -1.
         22    1    1    0    0    0 -0.28111194792E+02 -0.55493710978E+02  0.60381088185E+01  0.62499999911E+02  0.00000000000E+00 0.  1.
</event>
<event>
 4    1  0.1974401E-002  0.9118800E+02  0.7818608E-02  0.1130116E+00
         25   -1    0    0    0    0  0.00000000000E+00  0.00000000000E+00  0.99999998245E-14  0.12500000000E+03  0.12500000000E+03 0.  0.
        -11    1    1    0    0    0 -0.11695444409E+02  0.21296814207E+02 -0.62252418895E+01  0.25081693566E+02  0.51100000000E-03 0. -1.
         11    1    1    0    0    0 -0.17440888750E+02  0.31770911621E+02 -0.93034560341E+01  0.37418307284E+02  0.51100000000E-03 0.  1.
         22    1    1    0    0    0  0.29136333159E+02 -0.53067725828E+02  0.15528697924E+02  0.62499999149E+02  0.00000000000E+00 0.  1.
</event>
<event>
 4    1  0.1974401E-002  0.9118800E+02  0.7818608E-02  0.1130116E+00
         25   -1    0    0    0    0  0.00000000000E+00  0.00000000000E+00  0.99999998245E-14  0.12500000000E+03  0.12500000000E+03 0.  0.
        -11    1    1    0    0    0  0.29981562452E+02 -0.16637904423E+02  0.57744027875E+01  0.34771506704E+02  0.51100000000E-03 0.  1.
         11    1    1    0    0    0 -0.67944758204E+00 -0.21519798426E+02  0.25095484881E+02  0.33065794032E+02  0.51100000000E-03 0. -1.
         22    1    1    0    0    0 -0.29302114869E+02  0.38157702849E+02 -0.30869887668E+02  0.57162699264E+02  0.00000000000E+00 0. -1.
</event>
<event>
 4    1  0.1974401E-002  0.9118800E+02  0.7818608E-02  0.1130116E+00
         25   -1    0    0    0    0  0.00000000000E+00  0.00000000000E+00  0.99999998245E-14  0.12500000000E+03  0.12500000000E+03 0.  0.
        -11    1    1    0    0    0 -0.58199854087E+01  0.28556008615E+02  0.38122488930E+02  0.47985852297E+02  0.51100000000E-03 0. -1.
         11    1    1    0    0    0 -0.18712073715E+01  0.80817895653E+01  0.11917395014E+02  0.14520366517E+02  0.51100000000E-03 0.  1.
         22    1    1    0    0    0  0.76911927802E+01 -0.36637798180E+02 -0.50039883944E+02  0.62493781186E+02  0.00000000000E+00 0. -1.
</event>
<event>
 4    1  0.1974401E-002  0.9118800E+02  0.7818608E-02  0.1130116E+00
         25   -1    0    0    0    0  0.00000000000E+00  0.00000000000E+00  0.99999998245E-14  0.12500000000E+03  0.12500000000E+03 0.  0.
        -11    1    1    0    0    0 -0.48649125950E+01 -0.12816836998E+01  0.20536326018E+01  0.54339207565E+01  0.51100000000E-03 0. -1.
         11    1    1    0    0    0 -0.51093211326E+02 -0.13456141958E+02  0.21562778187E+02  0.57066079272E+02  0.51100000000E-03 0.  1.
         22    1    1    0    0    0  0.55958123921E+02  0.14737825658E+02 -0.23616410789E+02  0.62499999972E+02  0.00000000000E+00 0.  1.
</event>
<event>
 4    1  0.1974401E-002  0.9118800E+02  0.7818608E-02  0.1130116E+00
         25   -1    0    0    0    0  0.00000000000E+00  0.00000000000E+00  0.99999998245E-14  0.12500000000E+03  0.12500000000E+03 0.  0.
        -11    1    1    0    0    0 -0.17993891158E+01  0.79155381217E+00  0.13250335852E+01  0.23706692917E+01  0.51100000000E-03 0.  1.
         11    1    1    0    0    0 -0.57156224508E+02  0.19281972805E+02  0.50482415147E+00  0.60323157435E+02  0.51100000000E-03 0. -1.
         22    1    1    0    0    0  0.58955613624E+02 -0.20073526617E+02 -0.18298577366E+01  0.62306173273E+02  0.00000000000E+00 0. -1.
</event>
<event>
 4    1  0.1974401E-002  0.9118800E+02  0.7818608E-02  0.1130116E+00
         25   -1    0    0    0    0  0.00000000000E+00  0.00000000000E+00  0.99999998245E-14  0.12500000000E+03  0.12500000000E+03 0.  0.
        -11    1    1    0    0    0 -0.15240519198E+02 -0.25358331070E+02  0.24091272856E+02  0.38153739111E+02  0.51100000000E-03 0.  1.
         11    1    1    0    0    0 -0.96741397338E+01 -0.16195258335E+02  0.15390451372E+02  0.24346280328E+02  0.51100000000E-03 0. -1.
         22    1    1    0    0    0  0.24914658932E+02  0.41553589404E+02 -0.39481724228E+02  0.62499980561E+02  0.00000000000E+00 0. -1.
</event>
<event>
 4    1  0.1974401E-002  0.9118800E+02  0.7818608E-02  0.1130116E+00
         25   -1    0    0    0    0  0.00000000000E+00  0.00000000000E+00  0.99999998245E-14  0.12500000000E+03  0.12500000000E+03 0.  0.
        -11    1    1    0    0    0 -0.10766926729E+02 -0.45783937181E+01 -0.16164332590E+02  0.19954299000E+02  0.51100000000E-03 0. -1.
         11    1    1    0    0    0 -0.14477676104E+02 -0.13030969276E+02 -0.38025798801E+02  0.42724356524E+02  0.51100000000E-03 0.  1.
         22    1    1    0    0    0  0.25244602833E+02  0.17609362995E+02  0.54190131391E+02  0.62321344477E+02  0.00000000000E+00 0.  1.
</event>
<event>
 4    1  0.1974401E-002  0.9118800E+02  0.7818608E-02  0.1130116E+00
         25   -1    0    0    0    0  0.00000000000E+00  0.00000000000E+00  0.99999998245E-14  0.12500000000E+03  0.12500000000E+03 0.  0.
        -11    1    1    0    0    0 -0.32722566654E+02  0.11443674284E+01  0.91198277305E+01  0.33988927658E+02  0.51100000000E-03 0. -1.
         11    1    1    0    0    0 -0.27444432320E+02  0.91060780422E+00  0.76717644289E+01  0.28511086294E+02  0.51100000000E-03 0.  1.
         22    1    1    0    0    0  0.60166998974E+02 -0.20549752326E+01 -0.16791592159E+02  0.62499986048E+02  0.00000000000E+00 0. -1.
</event>
<event>
 4    1  0.1974401E-002  0.9118800E+02  0.7818608E-02  0.1130116E+00
         25   -1    0    0    0    0  0.00000000000E+00  0.00000000000E+00  0.99999998245E-14  0.12500000000E+03  0.12500000000E+03 0.  0.
        -11    1    1    0    0    0  0.36566093487E+02  0.10735544368E+02  0.45135781913E+02  0.59072581752E+02  0.51100000000E-03 0. -1.
         11    1    1    0    0    0  0.26825661656E+01  0.36077027452E+00  0.21677357599E+01  0.34677651319E+01  0.51100000000E-03 0.  1.
         22    1    1    0    0    0 -0.39248659652E+02 -0.11096314643E+02 -0.47303517673E+02  0.62459653116E+02  0.00000000000E+00 0. -1.
</event>
<event>
 4    1  0.1974401E-002  0.9118800E+02  0.7818608E-02  0.1130116E+00
         25   -1    0    0    0    0  0.00000000000E+00  0.00000000000E+00  0.99999998245E-14  0.12500000000E+03  0.12500000000E+03 0.  0.
        -11    1    1    0    0    0 -0.14498217218E+02 -0.38571928526E+01  0.19874092583E+02  0.24900919570E+02  0.51100000000E-03 0.  1.
         11    1    1    0    0    0 -0.24918155751E+02  0.26417949948E+01  0.28328458067E+02  0.37820564559E+02  0.51100000000E-03 0. -1.
         22    1    1    0    0    0  0.39416372969E+02  0.12153978578E+01 -0.48202550650E+02  0.62278515871E+02  0.00000000000E+00 0. -1.
</event>
<event>
 4    1  0.1974401E-002  0.9118800E+02  0.7818608E-02  0.1130116E+00
         25   -1    0    0    0    0  0.00000000000E+00  0.00000000000E+00  0.99999998245E-14  0.12500000000E+03  0.12500000000E+03 0.  0.
        -11    1    1    0    0    0  0.23784757055E+01  0.13710394946E+01  0.13337464834E+01  0.30521756045E+01  0.51100000000E-03 0. -1.
         11    1    1    0    0    0  0.46280715474E+02  0.26750191605E+02  0.26010893513E+02  0.59447825505E+02  0.51100000000E-03 0.  1.
         22    1    1    0    0    0 -0.48659191179E+02 -0.28121231100E+02 -0.27344639996E+02  0.62499998891E+02  0.00000000000E+00 0.  1.
</event>
<event>
 4    1  0.1974401E-002  0.9118800E+02  0.7818608E-02  0.1130116E+00
         25   -1    0    0    0    0  0.00000000000E+00  0.00000000000E+00  0.99999998245E-14  0.12500000000E+03  0.12500000000E+03 0.  0.
        -11    1    1    0    0    0  0.30142942514E+01  0.35655118717E+01 -0.28557753712E+02  0.28936899317E+02  0.51100000000E-03 0.  1.
         11    1    1    0    0    0  0.34646695014E+01  0.41554548775E+01 -0.33124165039E+02  0.33563105485E+02  0.51100000000E-03 0. -1.
         22    1    1    0    0    0 -0.64789637528E+01 -0.77209667492E+01  0.61681918752E+02  0.62499995198E+02  0.00000000000E+00 0. -1.
</event>
<event>
 4    1  0.1974401E-002  0.9118800E+02  0.7818608E-02  0.1130116E+00
         25   -1    0    0    0    0  0.00000000000E+00  0.00000000000E+00  0.99999998245E-14  0.12500000000E+03  0.12500000000E+03 0.  0.
        -11    1    1    0    0    0  0.27605298950E+02 -0.19841923978E+01  0.80315768200E+01  0.28818323617E+02  0.51100000000E-03 0.  1.
         11    1    1    0    0    0  0.32264910752E+02 -0.23105291289E+01  0.93857514662E+01  0.33681676644E+02  0.51100000000E-03 0. -1.
         22    1    1    0    0    0 -0.59870209702E+02  0.42947215267E+01 -0.17417328286E+02  0.62499999739E+02  0.00000000000E+00 0.  1.
</event>
<event>
 4    1  0.1974401E-002  0.9118800E+02  0.7818608E-02  0.1130116E+00
         25   -1    0    0    0    0  0.00000000000E+00  0.00000000000E+00  0.99999998245E-14  0.12500000000E+03  0.12500000000E+03 0.  0.
        -11    1    1    0    0    0  0.35557388835E+02 -0.87391684642E+01  0.18500634812E+02  0.41024071652E+02  0.51100000000E-03 0. -1.
         11    1    1    0    0    0  0.18614340408E+02 -0.45750506682E+01  0.96845619923E+01  0.21475928355E+02  0.51100000000E-03 0. -1.
         22    1    1    0    0    0 -0.54171729243E+02  0.13314219132E+02 -0.28185196804E+02  0.62499999993E+02  0.00000000000E+00 0. -1.
</event>
<event>
 4    1  0.1974401E-002  0.9118800E+02  0.7818608E-02  0.1130116E+00
         25   -1    0    0    0    0  0.00000000000E+00  0.00000000000E+00  0.99999998245E-14  0.12500000000E+03  0.12500000000E+03 0.  0.
        -11    1    1    0    0    0  0.20890385638E+02 -0.55844681634E+02 -0.39457717752E+01  0.59754546221E+02  0.51100000000E-03 0. -1.
         11    1    1    0    0    0  0.96017699984E+00 -0.25656804160E+01 -0.18127473302E+00  0.27454538164E+01  0.51100000000E-03 0.  1.
         22    1    1    0    0    0 -0.21850562637E+02  0.58410362050E+02  0.41270465083E+01  0.62499999962E+02  0.00000000000E+00 0. -1.
</event>
<event>
 4    1  0.1974401E-002  0.9118800E+02  0.7818608E-02  0.1130116E+00
         25   -1    0    0    0    0  0.00000000000E+00  0.00000000000E+00  0.99999998245E-14  0.12500000000E+03  0.12500000000E+03 0.  0.
        -11    1    1    0    0    0  0.21066673011E+02 -0.14044399351E+02 -0.44737171384E+02  0.51404906075E+02  0.51100000000E-03 0.  1.
         11    1    1    0    0    0  0.83964797198E+01  0.50689793977E+01 -0.79101332572E+01  0.12600223499E+02  0.51100000000E-03 0. -1.
         22    1    1    0    0    0 -0.29463152731E+02  0.89754199533E+01  0.52647304642E+02  0.60994870425E+02  0.00000000000E+00 0.  1.
</event>
<event>
 4    1  0.1974401E-002  0.9118800E+02  0.7818608E-02  0.1130116E+00
         25   -1    0    0    0    0  0.00000000000E+00  0.00000000000E+00  0.99999998245E-14  0.12500000000E+03  0.12500000000E+03 0.  0.
        -11    1    1    0    0    0 -0.65172304830E+01  0.89652493006E+01 -0.31954094656E+02  0.33821799978E+02  0.51100000000E-03 0.  1.
         11    1    1    0    0    0 -0.64157890201E+01  0.63421082800E+01 -0.27234231881E+02  0.28689511543E+02  0.51100000000E-03 0. -1.
         22    1    1    0    0    0  0.12933019503E+02 -0.15307357581E+02  0.59188326537E+02  0.62488688479E+02  0.00000000000E+00 0. -1.
</event>
<event>
 4    1  0.1974401E-002  0.9118800E+02  0.7818608E-02  0.1130116E+00
         25   -1    0    0    0    0  0.00000000000E+00  0.00000000000E+00  0.99999998245E-14  0.12500000000E+03  0.12500000000E+03 0.  0.
        -11    1    1    0    0    0 -0.82140211359E+01 -0.37995607376E+01  0.69843450591E+01  0.11431880037E+02  0.51100000000E-03 0. -1.
         11    1    1    0    0    0 -0.36705779975E+02 -0.17003047367E+02  0.31169458696E+02  0.51068121749E+02  0.51100000000E-03 0.  1.
         22    1    1    0    0    0  0.44919801111E+02  0.20802608104E+02 -0.38153803755E+02  0.62499998214E+02  0.00000000000E+00 0.  1.
</event>
<event>
 4    1  0.1974401E-002  0.9118800E+02  0.7818608E-02  0.1130116E+00
         25   -1    0    0    0    0  0.00000000000E+00  0.00000000000E+00  0.99999998245E-14  0.12500000000E+03  0.12500000000E+03 0.  0.
        -11    1    1    0    0    0 -0.39076828230E+02  0.25101297372E+02  0.80648539308E+00  0.46451308412E+02  0.51100000000E-03 0.  1.
         11    1    1    0    0    0 -0.13547605422E+02  0.85810745451E+01  0.66997956008E+00  0.16050586465E+02  0.51100000000E-03 0. -1.
         22    1    1    0    0    0  0.52624433652E+02 -0.33682371917E+02 -0.14764649532E+01  0.62498105122E+02  0.00000000000E+00 0.  1.
</event>
<event>
 4    1  0.1974401E-002  0.9118800E+02  0.7818608E-02  0.1130116E+00
         25   -1    0    0    0    0  0.00000000000E+00  0.00000000000E+00  0.99999998245E-14  0.12500000000E+03  0.12500000000E+03 0.  0.
        -11    1    1    0    0    0 -0.57136002730E+02  0.81655027048E+01  0.12805901834E+02  0.59120126560E+02  0.51100000000E-03 0. -1.
         11    1    1    0    0    0 -0.34412544443E+01  0.29968890971E+00 -0.53949168246E+00  0.34961546204E+01  0.51100000000E-03 0.  1.
         22    1    1    0    0    0  0.60577257174E+02 -0.84651916145E+01 -0.12266410152E+02  0.62383718820E+02  0.00000000000E+00 0. -1.
</event>
<event>
 4    1  0.1974401E-002  0.9118800E+02  0.7818608E-02  0.1130116E+00
         25   -1    0    0    0    0  0.00000000000E+00  0.00000000000E+00  0.99999998245E-14  0.12500000000E+03  0.12500000000E+03 0.  0.
        -11    1    1    0    0    0 -0.17074771441E+01 -0.10403275855E+02  0.17177011480E+02  0.20154239017E+02  0.51100000000E-03 0.  1.
         11    1    1    0    0    0 -0.61646046851E+01 -0.20230535804E+02  0.36707576509E+02  0.42364172401E+02  0.51100000000E-03 0. -1.
         22    1    1    0    0    0  0.78720818292E+01  0.30633811658E+02 -0.53884587989E+02  0.62481588582E+02  0.00000000000E+00 0.  1.
</event>
<event>
 4    1  0.1974401E-002  0.9118800E+02  0.7818608E-02  0.1130116E+00
         25   -1    0    0    0    0  0.00000000000E+00  0.00000000000E+00  0.99999998245E-14  0.12500000000E+03  0.12500000000E+03 0.  0.
        -11    1    1    0    0    0  0.36126376146E+02 -0.13493621586E+02  0.27904090372E+02  0.47600747228E+02  0.51100000000E-03 0. -1.
         11    1    1    0    0    0  0.11862834253E+02 -0.33586835203E+01  0.83920810656E+01  0.14914242065E+02  0.51100000000E-03 0.  1.
         22    1    1    0    0    0 -0.47989210398E+02  0.16852305106E+02 -0.36296171437E+02  0.62485010707E+02  0.00000000000E+00 0. -1.
</event>
<event>
 4    1  0.1974401E-002  0.9118800E+02  0.7818608E-02  0.1130116E+00
         25   -1    0    0    0    0  0.00000000000E+00  0.00000000000E+00  0.99999998245E-14  0.12500000000E+03  0.12500000000E+03 0.  0.
        -11    1    1    0    0    0  0.27102875990E+02 -0.17367282542E+02  0.45404580465E+02  0.55657562984E+02  0.51100000000E-03 0. -1.
         11    1    1    0    0    0  0.35413533611E+01 -0.21007805155E+01  0.54672104572E+01  0.68443299779E+01  0.51100000000E-03 0.  1.
         22    1    1    0    0    0 -0.30644229351E+02  0.19468063058E+02 -0.50871790922E+02  0.62498107038E+02  0.00000000000E+00 0. -1.
</event>
<event>
 4    1  0.1974401E-002  0.9118800E+02  0.7818608E-02  0.1130116E+00
         25   -1    0    0    0    0  0.00000000000E+00  0.00000000000E+00  0.99999998245E-14  0.12500000000E+03  0.12500000000E+03 0.  0.
        -11    1    1    0    0    0  0.77151491063E+01  0.46148657523E+01 -0.12586071802E+02  0.15467052573E+02  0.51100000000E-03 0.  1.
         11    1    1    0    0    0  0.25383574084E+02  0.18912295937E+02 -0.34856090984E+02  0.47084475678E+02  0.51100000000E-03 0. -1.
         22    1    1    0    0    0 -0.33098723191E+02 -0.23527161689E+02  0.47442162786E+02  0.62448471749E+02  0.00000000000E+00 0. -1.
</event>
<event>
 4    1  0.1974401E-002  0.9118800E+02  0.7818608E-02  0.1130116E+00
         25   -1    0    0    0    0  0.00000000000E+00  0.00000000000E+00  0.99999998245E-14  0.12500000000E+03  0.12500000000E+03 0.  0.
        -11    1    1    0    0    0  0.14098464209E+02  0.98950911039E+01 -0.11493426285E+02  0.20706964264E+02  0.51100000000E-03 0. -1.
         11    1    1    0    0    0 -0.29770128192E+02 -0.70273428779E+00  0.51986239492E+02  0.59910962810E+02  0.51100000000E-03 0.  1.
         22    1    1    0    0    0  0.15671663983E+02 -0.91923568161E+01 -0.40492813207E+02  0.44382072927E+02  0.00000000000E+00 0.  1.
</event>
<event>
 4    1  0.1974401E-002  0.9118800E+02  0.7818608E-02  0.1130116E+00
         25   -1    0    0    0    0  0.00000000000E+00  0.00000000000E+00  0.99999998245E-14  0.12500000000E+03  0.12500000000E+03 0.  0.
        -11    1    1    0    0    0  0.47389580090E+01 -0.32062469829E+02 -0.57512659801E+01  0.32917119485E+02  0.51100000000E-03 0.  1.
         11    1    1    0    0    0  0.18679084635E+01 -0.28978586465E+02 -0.57891050980E+01  0.29610155245E+02  0.51100000000E-03 0. -1.
         22    1    1    0    0    0 -0.66068664726E+01  0.61041056294E+02  0.11540371078E+02  0.62472725270E+02  0.00000000000E+00 0.  1.
</event>
<event>
 4    1  0.1974401E-002  0.9118800E+02  0.7818608E-02  0.1130116E+00
         25   -1    0    0    0    0  0.00000000000E+00  0.00000000000E+00  0.99999998245E-14  0.12500000000E+03  0.12500000000E+03 0.  0.
        -11    1    1    0    0    0 -0.14136840892E+02  0.32116074409E+01 -0.13839549573E+01  0.14562967566E+02  0.51100000000E-03 0. -1.
         11    1    1    0    0    0 -0.46533993010E+02  0.10571167115E+02 -0.45603730033E+01  0.47937032468E+02  0.51100000000E-03 0. -1.
         22    1    1    0    0    0  0.60670833902E+02 -0.13782774556E+02  0.59443279607E+01  0.62499999966E+02  0.00000000000E+00 0. -1.
</event>
<event>
 4    1  0.1974401E-002  0.9118800E+02  0.7818608E-02  0.1130116E+00
         25   -1    0    0    0    0  0.00000000000E+00  0.00000000000E+00  0.99999998245E-14  0.12500000000E+03  0.12500000000E+03 0.  0.
        -11    1    1    0    0    0  0.41149412148E+01 -0.14401870787E+02 -0.40083335696E+02  0.42790424444E+02  0.51100000000E-03 0.  1.
         11    1    1    0    0    0  0.18949566771E+01 -0.66326438978E+01 -0.18463058876E+02  0.19709575571E+02  0.51100000000E-03 0. -1.
         22    1    1    0    0    0 -0.60098978920E+01  0.21034514685E+02  0.58546394572E+02  0.62499999984E+02  0.00000000000E+00 0. -1.
</event>
<event>
 4    1  0.1974401E-002  0.9118800E+02  0.7818608E-02  0.1130116E+00
         25   -1    0    0    0    0  0.00000000000E+00  0.00000000000E+00  0.99999998245E-14  0.12500000000E+03  0.12500000000E+03 0.  0.
        -11    1    1    0    0    0  0.18796939472E+01  0.50506622941E+01  0.72476845396E+01  0.90316870180E+01  0.51100000000E-03 0. -1.
         11    1    1    0    0    0  0.24875601862E+02 -0.49148952876E+02  0.18772924650E+02  0.58196544888E+02  0.51100000000E-03 0.  1.
         22    1    1    0    0    0 -0.26755295809E+02  0.44098290582E+02 -0.26020609190E+02  0.57771768094E+02  0.00000000000E+00 0.  1.
</event>
<event>
 4    1  0.1974401E-002  0.9118800E+02  0.7818608E-02  0.1130116E+00
         25   -1    0    0    0    0  0.00000000000E+00  0.00000000000E+00  0.99999998245E-14  0.12500000000E+03  0.12500000000E+03 0.  0.
        -11    1    1    0    0    0 -0.11067995709E+01  0.38747981552E+01  0.15987820752E+01  0.43353397120E+01  0.51100000000E-03 0. -1.
         11    1    1    0    0    0 -0.14875643854E+02  0.51984910098E+02  0.21433900323E+02  0.58164660588E+02  0.51100000000E-03 0.  1.
         22    1    1    0    0    0  0.15982443425E+02 -0.55859708253E+02 -0.23032682399E+02  0.62499999700E+02  0.00000000000E+00 0.  1.
</event>
<event>
 4    1  0.1974401E-002  0.9118800E+02  0.7818608E-02  0.1130116E+00
         25   -1    0    0    0    0  0.00000000000E+00  0.00000000000E+00  0.99999998245E-14  0.12500000000E+03  0.12500000000E+03 0.  0.
        -11    1    1    0    0    0 -0.40331996011E+02  0.12110309776E+02  0.39505347727E+02  0.57740817490E+02  0.51100000000E-03 0. -1.
         11    1    1    0    0    0 -0.33483720901E+01  0.66605286786E+00  0.33238454506E+01  0.47647844566E+01  0.51100000000E-03 0.  1.
         22    1    1    0    0    0  0.43680368101E+02 -0.12776362644E+02 -0.42829193178E+02  0.62494398054E+02  0.00000000000E+00 0. -1.
</event>
<event>
 4    1  0.1974401E-002  0.9118800E+02  0.7818608E-02  0.1130116E+00
         25   -1    0    0    0    0  0.00000000000E+00  0.00000000000E+00  0.99999998245E-14  0.12500000000E+03  0.12500000000E+03 0.  0.
        -11    1    1    0    0    0 -0.20017907032E+00  0.41829377641E+00 -0.77632043146E+00  0.90427596286E+00  0.51100000000E-03 0. -1.
         11    1    1    0    0    0 -0.11711300745E+02  0.33709455414E+02 -0.50207834117E+02  0.61597959028E+02  0.51100000000E-03 0.  1.
         22    1    1    0    0    0  0.11911479815E+02 -0.34127749190E+02  0.50984154548E+02  0.62497765009E+02  0.00000000000E+00 0.  1.
</event>
<event>
 4    1  0.1974401E-002  0.9118800E+02  0.7818608E-02  0.1130116E+00
         25   -1    0    0    0    0  0.00000000000E+00  0.00000000000E+00  0.99999998245E-14  0.12500000000E+03  0.12500000000E+03 0.  0.
        -11    1    1    0    0    0  0.21439923911E+01  0.40599116236E+01 -0.13295533663E+02  0.14065944739E+02  0.51100000000E-03 0.  1.
         11    1    1    0    0    0 -0.28721109019E+02 -0.14648668479E+02 -0.39438231155E+02  0.50939765100E+02  0.51100000000E-03 0. -1.
         22    1    1    0    0    0  0.26577116628E+02  0.10588756855E+02  0.52733764818E+02  0.59994290161E+02  0.00000000000E+00 0. -1.
</event>
<event>
 4    1  0.1974401E-002  0.9118800E+02  0.7818608E-02  0.1130116E+00
         25   -1    0    0    0    0  0.00000000000E+00  0.00000000000E+00  0.99999998245E-14  0.12500000000E+03  0.12500000000E+03 0.  0.
        -11    1    1    0    0    0 -0.30269493221E+02  0.60822686457E+01 -0.42934912588E+01  0.31171626188E+02  0.51100000000E-03 0. -1.
         11    1    1    0    0    0 -0.30371418567E+02  0.62761516075E+01 -0.44344894885E+01  0.31328546760E+02  0.51100000000E-03 0.  1.
         22    1    1    0    0    0  0.60640911788E+02 -0.12358420253E+02  0.87279807473E+01  0.62499827053E+02  0.00000000000E+00 0. -1.
</event>
<event>
 4    1  0.1974401E-002  0.9118800E+02  0.7818608E-02  0.1130116E+00
         25   -1    0    0    0    0  0.00000000000E+00  0.00000000000E+00  0.99999998245E-14  0.12500000000E+03  0.12500000000E+03 0.  0.
        -11    1    1    0    0    0 -0.53701115713E+02 -0.61892615572E+01  0.12147377982E+02  0.55404653050E+02  0.51100000000E-03 0.  1.
         11    1    1    0    0    0 -0.68777098881E+01 -0.78737669747E+00  0.15559901128E+01  0.70953478323E+01  0.51100000000E-03 0. -1.
         22    1    1    0    0    0  0.60578825601E+02  0.69766382547E+01 -0.13703368095E+02  0.62499999118E+02  0.00000000000E+00 0.  1.
</event>
<event>
 4    1  0.1974401E-002  0.9118800E+02  0.7818608E-02  0.1130116E+00
         25   -1    0    0    0    0  0.00000000000E+00  0.00000000000E+00  0.99999998245E-14  0.12500000000E+03  0.12500000000E+03 0.  0.
        -11    1    1    0    0    0  0.27523716060E+02 -0.83257571311E+01 -0.86252922691E+01  0.30021139961E+02  0.51100000000E-03 0. -1.
         11    1    1    0    0    0  0.29776716812E+02 -0.90081909966E+01 -0.93314511447E+01  0.32478860046E+02  0.51100000000E-03 0. -1.
         22    1    1    0    0    0 -0.57300432873E+02  0.17333948128E+02  0.17956743414E+02  0.62499999993E+02  0.00000000000E+00 0. -1.
</event>
<event>
 4    1  0.1974401E-002  0.9118800E+02  0.7818608E-02  0.1130116E+00
         25   -1    0    0    0    0  0.00000000000E+00  0.00000000000E+00  0.99999998245E-14  0.12500000000E+03  0.12500000000E+03 0.  0.
        -11    1    1    0    0    0 -0.12104193766E+02  0.10070071031E+01  0.89074097812E+01  0.15062122006E+02  0.51100000000E-03 0.  1.
         11    1    1    0    0    0 -0.38118354278E+02  0.31645440004E+01  0.28059383611E+02  0.47437878119E+02  0.51100000000E-03 0. -1.
         22    1    1    0    0    0  0.50222548044E+02 -0.41715511035E+01 -0.36966793393E+02  0.62499999875E+02  0.00000000000E+00 0. -1.
</event>
<event>
 4    1  0.1974401E-002  0.9118800E+02  0.7818608E-02  0.1130116E+00
         25   -1    0    0    0    0  0.00000000000E+00  0.00000000000E+00  0.99999998245E-14  0.12500000000E+03  0.12500000000E+03 0.  0.
        -11    1    1    0    0    0  0.29126371232E+01  0.67883421909E+01  0.51813568768E+02  0.52337471790E+02  0.51100000000E-03 0. -1.
         11    1    1    0    0    0  0.74401403095E+00  0.11524492284E+01  0.10070757236E+02  0.10163751654E+02  0.51100000000E-03 0.  1.
         22    1    1    0    0    0 -0.36566511542E+01 -0.79407914193E+01 -0.61884326004E+02  0.62498776556E+02  0.00000000000E+00 0. -1.
</event>
<event>
 4    1  0.1974401E-002  0.9118800E+02  0.7818608E-02  0.1130116E+00
         25   -1    0    0    0    0  0.00000000000E+00  0.00000000000E+00  0.99999998245E-14  0.12500000000E+03  0.12500000000E+03 0.  0.
        -11    1    1    0    0    0 -0.38404382423E+01  0.24790980549E+01  0.69923270244E+00  0.46242642325E+01  0.51100000000E-03 0.  1.
         11    1    1    0    0    0 -0.48062131052E+02  0.31037966364E+02  0.87336710993E+01  0.57875735921E+02  0.51100000000E-03 0. -1.
         22    1    1    0    0    0  0.51902569295E+02 -0.33517064419E+02 -0.94329038017E+01  0.62499999846E+02  0.00000000000E+00 0. -1.
</event>
<event>
 4    1  0.1974401E-002  0.9118800E+02  0.7818608E-02  0.1130116E+00
         25   -1    0    0    0    0  0.00000000000E+00  0.00000000000E+00  0.99999998245E-14  0.12500000000E+03  0.12500000000E+03 0.  0.
        -11    1    1    0    0    0 -0.49305122526E+01  0.26328842118E+00  0.27316918942E+01  0.56428195729E+01  0.51100000000E-03 0. -1.
         11    1    1    0    0    0 -0.49644297477E+02  0.25927972420E+01  0.27594574455E+02  0.56857184323E+02  0.51100000000E-03 0.  1.
         22    1    1    0    0    0  0.54574809729E+02 -0.28560856631E+01 -0.30326266350E+02  0.62499996104E+02  0.00000000000E+00 0.  1.
</event>
<event>
 4    1  0.1974401E-002  0.9118800E+02  0.7818608E-02  0.1130116E+00
         25   -1    0    0    0    0  0.00000000000E+00  0.00000000000E+00  0.99999998245E-14  0.12500000000E+03  0.12500000000E+03 0.  0.
        -11    1    1    0    0    0 -0.39403672053E+02 -0.11241608754E+02  0.37404648855E+02  0.55480905678E+02  0.51100000000E-03 0.  1.
         11    1    1    0    0    0 -0.49856676875E+01 -0.14214558763E+01  0.47318354100E+01  0.70190943651E+01  0.51100000000E-03 0. -1.
         22    1    1    0    0    0  0.44389339740E+02  0.12663064631E+02 -0.42136484265E+02  0.62499999957E+02  0.00000000000E+00 0.  1.
</event>
<event>
 4    1  0.1974401E-002  0.9118800E+02  0.7818608E-02  0.1130116E+00
         25   -1    0    0    0    0  0.00000000000E+00  0.00000000000E+00  0.99999998245E-14  0.12500000000E+03  0.12500000000E+03 0.  0.
        -11    1    1    0    0    0  0.64651620754E+01 -0.33824137288E+02 -0.15039303346E+02  0.37577270116E+02  0.51100000000E-03 0. -1.
         11    1    1    0    0    0  0.33593535989E+01 -0.22711756030E+02 -0.97126977654E+01  0.24928810976E+02  0.51100000000E-03 0.  1.
         22    1    1    0    0    0 -0.98245156743E+01  0.56535893318E+02  0.24752001112E+02  0.62493918908E+02  0.00000000000E+00 0.  1.
</event>
<event>
 4    1  0.1974401E-002  0.9118800E+02  0.7818608E-02  0.1130116E+00
         25   -1    0    0    0    0  0.00000000000E+00  0.00000000000E+00  0.99999998245E-14  0.12500000000E+03  0.12500000000E+03 0.  0.
        -11    1    1    0    0    0  0.27861041455E+02  0.11229950962E+01  0.34294779267E+02  0.44199894051E+02  0.51100000000E-03 0. -1.
         11    1    1    0    0    0  0.11146690568E+02 -0.29691024693E+00  0.14520753707E+02  0.18308171804E+02  0.51100000000E-03 0.  1.
         22    1    1    0    0    0 -0.39007732023E+02 -0.82608484930E+00 -0.48815532973E+02  0.62491934145E+02  0.00000000000E+00 0. -1.
</event>
<event>
 4    1  0.1974401E-002  0.9118800E+02  0.7818608E-02  0.1130116E+00
         25   -1    0    0    0    0  0.00000000000E+00  0.00000000000E+00  0.99999998245E-14  0.12500000000E+03  0.12500000000E+03 0.  0.
        -11    1    1    0    0    0  0.13752668604E+02 -0.71031978156E+00 -0.11035328203E+02  0.17647065386E+02  0.51100000000E-03 0.  1.
         11    1    1    0    0    0  0.34945920143E+02 -0.17684057505E+01 -0.28061385908E+02  0.44852937171E+02  0.51100000000E-03 0. -1.
         22    1    1    0    0    0 -0.48698588746E+02  0.24787255321E+01  0.39096714111E+02  0.62499997443E+02  0.00000000000E+00 0. -1.
</event>
<event>
 4    1  0.1974401E-002  0.9118800E+02  0.7818608E-02  0.1130116E+00
         25   -1    0    0    0    0  0.00000000000E+00  0.00000000000E+00  0.99999998245E-14  0.12500000000E+03  0.12500000000E+03 0.  0.
        -11    1    1    0    0    0 -0.16151858463E+02  0.15865034901E+02 -0.45605813752E+02  0.50916324617E+02  0.51100000000E-03 0.  1.
         11    1    1    0    0    0 -0.36746097909E+01  0.36082809207E+01 -0.10375889721E+02  0.11583675413E+02  0.51100000000E-03 0. -1.
         22    1    1    0    0    0  0.19826468254E+02 -0.19473315822E+02  0.55981703473E+02  0.62499999970E+02  0.00000000000E+00 0.  1.
</event>
<event>
 4    1  0.1974401E-002  0.9118800E+02  0.7818608E-02  0.1130116E+00
         25   -1    0    0    0    0  0.00000000000E+00  0.00000000000E+00  0.99999998245E-14  0.12500000000E+03  0.12500000000E+03 0.  0.
        -11    1    1    0    0    0  0.31076561026E+02 -0.22223154578E+02 -0.13127981864E+02  0.40397588451E+02  0.51100000000E-03 0.  1.
         11    1    1    0    0    0  0.17002130859E+02 -0.12158924207E+02 -0.71836414895E+01  0.22102411564E+02  0.51100000000E-03 0.  1.
         22    1    1    0    0    0 -0.48078691885E+02  0.34382078784E+02  0.20311623353E+02  0.62499999985E+02  0.00000000000E+00 0.  1.
</event>
<event>
 4    1  0.1974401E-002  0.9118800E+02  0.7818608E-02  0.1130116E+00
         25   -1    0    0    0    0  0.00000000000E+00  0.00000000000E+00  0.99999998245E-14  0.12500000000E+03  0.12500000000E+03 0.  0.
        -11    1    1    0    0    0  0.74573462813E+01  0.17615053942E+02  0.39132321282E+01  0.19524741352E+02  0.51100000000E-03 0. -1.
         11    1    1    0    0    0  0.20641115165E+02  0.32644459779E+02  0.19560590124E+02  0.43293568527E+02  0.51100000000E-03 0.  1.
         22    1    1    0    0    0 -0.28098461446E+02 -0.50259513721E+02 -0.23473822252E+02  0.62181690121E+02  0.00000000000E+00 0.  1.
</event>
<event>
 4    1  0.1974401E-002  0.9118800E+02  0.7818608E-02  0.1130116E+00
         25   -1    0    0    0    0  0.00000000000E+00  0.00000000000E+00  0.99999998245E-14  0.12500000000E+03  0.12500000000E+03 0.  0.
        -11    1    1    0    0    0 -0.51344351175E+01 -0.31469265932E+01  0.28018876512E+01  0.66419986171E+01  0.51100000000E-03 0. -1.
         11    1    1    0    0    0 -0.42733995601E+02 -0.25823114401E+02  0.25044715162E+02  0.55859335614E+02  0.51100000000E-03 0.  1.
         22    1    1    0    0    0  0.47868430718E+02  0.28970040994E+02 -0.27846602814E+02  0.62498665769E+02  0.00000000000E+00 0.  1.
</event>
<event>
 4    1  0.1974401E-002  0.9118800E+02  0.7818608E-02  0.1130116E+00
         25   -1    0    0    0    0  0.00000000000E+00  0.00000000000E+00  0.99999998245E-14  0.12500000000E+03  0.12500000000E+03 0.  0.
        -11    1    1    0    0    0 -0.13476962679E+01 -0.11682744869E+02 -0.19165259096E+02  0.22485772599E+02  0.51100000000E-03 0. -1.
         11    1    1    0    0    0 -0.12256472535E+02  0.39591018560E+02 -0.25094969188E+02  0.48450256433E+02  0.51100000000E-03 0.  1.
         22    1    1    0    0    0  0.13604168803E+02 -0.27908273691E+02  0.44260228283E+02  0.54063970969E+02  0.00000000000E+00 0.  1.
</event>
<event>
 4    1  0.1974401E-002  0.9118800E+02  0.7818608E-02  0.1130116E+00
         25   -1    0    0    0    0  0.00000000000E+00  0.00000000000E+00  0.99999998245E-14  0.12500000000E+03  0.12500000000E+03 0.  0.
        -11    1    1    0    0    0 -0.23290834084E+02 -0.29195378280E+02  0.23953497167E+02  0.44368942877E+02  0.51100000000E-03 0. -1.
         11    1    1    0    0    0 -0.14285356828E+02 -0.49427829602E+01  0.11257438731E+02  0.18847611258E+02  0.51100000000E-03 0.  1.
         22    1    1    0    0    0  0.37576190911E+02  0.34138161240E+02 -0.35210935897E+02  0.61783445866E+02  0.00000000000E+00 0. -1.
</event>
<event>
 4    1  0.1974401E-002  0.9118800E+02  0.7818608E-02  0.1130116E+00
         25   -1    0    0    0    0  0.00000000000E+00  0.00000000000E+00  0.99999998245E-14  0.12500000000E+03  0.12500000000E+03 0.  0.
        -11    1    1    0    0    0  0.46597034391E+02 -0.59770284363E+01  0.36983357429E+02  0.59789440623E+02  0.51100000000E-03 0. -1.
         11    1    1    0    0    0  0.15350684462E+00  0.23986282859E+01  0.28209778012E+01  0.37060623337E+01  0.51100000000E-03 0.  1.
         22    1    1    0    0    0 -0.46750541236E+02  0.35784001504E+01 -0.39804335230E+02  0.61504497044E+02  0.00000000000E+00 0. -1.
</event>
<event>
 4    1  0.1974401E-002  0.9118800E+02  0.7818608E-02  0.1130116E+00
         25   -1    0    0    0    0  0.00000000000E+00  0.00000000000E+00  0.99999998245E-14  0.12500000000E+03  0.12500000000E+03 0.  0.
        -11    1    1    0    0    0 -0.32890259267E+01 -0.66942799718E+01 -0.67578531823E+01  0.10064773012E+02  0.51100000000E-03 0. -1.
         11    1    1    0    0    0 -0.17148022799E+02 -0.34860055277E+02 -0.35216117475E+02  0.52435227377E+02  0.51100000000E-03 0.  1.
         22    1    1    0    0    0  0.20437048725E+02  0.41554335249E+02  0.41973970657E+02  0.62499999611E+02  0.00000000000E+00 0.  1.
</event>
<event>
 4    1  0.1974401E-002  0.9118800E+02  0.7818608E-02  0.1130116E+00
         25   -1    0    0    0    0  0.00000000000E+00  0.00000000000E+00  0.99999998245E-14  0.12500000000E+03  0.12500000000E+03 0.  0.
        -11    1    1    0    0    0 -0.11833560074E+02  0.60209718632E+01  0.18285664107E+00  0.13278504547E+02  0.51100000000E-03 0.  1.
         11    1    1    0    0    0 -0.43896849924E+02  0.21779258072E+02  0.48322767843E+01  0.49240434752E+02  0.51100000000E-03 0. -1.
         22    1    1    0    0    0  0.55730409998E+02 -0.27800229935E+02 -0.50151334254E+01  0.62481060700E+02  0.00000000000E+00 0. -1.
</event>
<event>
 4    1  0.1974401E-002  0.9118800E+02  0.7818608E-02  0.1130116E+00
         25   -1    0    0    0    0  0.00000000000E+00  0.00000000000E+00  0.99999998245E-14  0.12500000000E+03  0.12500000000E+03 0.  0.
        -11    1    1    0    0    0  0.12134740291E+01  0.48995901278E-01 -0.55590818889E+01  0.56901943312E+01  0.51100000000E-03 0.  1.
         11    1    1    0    0    0  0.13027969446E+02  0.10880917439E+02 -0.54261010363E+02  0.56854020069E+02  0.51100000000E-03 0. -1.
         22    1    1    0    0    0 -0.14241443475E+02 -0.10929913341E+02  0.59820092252E+02  0.62455785600E+02  0.00000000000E+00 0. -1.
</event>
<event>
 4    1  0.1974401E-002  0.9118800E+02  0.7818608E-02  0.1130116E+00
         25   -1    0    0    0    0  0.00000000000E+00  0.00000000000E+00  0.99999998245E-14  0.12500000000E+03  0.12500000000E+03 0.  0.
        -11    1    1    0    0    0  0.76925319214E+00 -0.11102463008E+02  0.71797331290E+01  0.13244055398E+02  0.51100000000E-03 0. -1.
         11    1    1    0    0    0  0.29106835462E+01 -0.41394856652E+02  0.26535752823E+02  0.49255988612E+02  0.51100000000E-03 0.  1.
         22    1    1    0    0    0 -0.36799367383E+01  0.52497319660E+02 -0.33715485952E+02  0.62499955991E+02  0.00000000000E+00 0.  1.
</event>
<event>
 4    1  0.1974401E-002  0.9118800E+02  0.7818608E-02  0.1130116E+00
         25   -1    0    0    0    0  0.00000000000E+00  0.00000000000E+00  0.99999998245E-14  0.12500000000E+03  0.12500000000E+03 0.  0.
        -11    1    1    0    0    0  0.20580828584E+01 -0.20105899312E+02 -0.38763861378E+01  0.20579340658E+02  0.51100000000E-03 0.  1.
         11    1    1    0    0    0  0.42389670381E+01 -0.40944658225E+02 -0.79314805953E+01  0.41920666304E+02  0.51100000000E-03 0. -1.
         22    1    1    0    0    0 -0.62970498965E+01  0.61050557536E+02  0.11807866733E+02  0.62499993037E+02  0.00000000000E+00 0. -1.
</event>
<event>
 4    1  0.1974401E-002  0.9118800E+02  0.7818608E-02  0.1130116E+00
         25   -1    0    0    0    0  0.00000000000E+00  0.00000000000E+00  0.99999998245E-14  0.12500000000E+03  0.12500000000E+03 0.  0.
        -11    1    1    0    0    0 -0.44531091432E+02 -0.23925982076E+02  0.49590678806E+00  0.50554096236E+02  0.51100000000E-03 0.  1.
         11    1    1    0    0    0 -0.10520627987E+02 -0.56577084288E+01  0.10672922608E+00  0.11945905964E+02  0.51100000000E-03 0. -1.
         22    1    1    0    0    0  0.55051719419E+02  0.29583690505E+02 -0.60263601414E+00  0.62499997800E+02  0.00000000000E+00 0.  1.
</event>
<event>
 4    1  0.1974401E-002  0.9118800E+02  0.7818608E-02  0.1130116E+00
         25   -1    0    0    0    0  0.00000000000E+00  0.00000000000E+00  0.99999998245E-14  0.12500000000E+03  0.12500000000E+03 0.  0.
        -11    1    1    0    0    0  0.22527202469E+02 -0.22409135132E+02  0.47125269429E+02  0.56836917646E+02  0.51100000000E-03 0.  1.
         11    1    1    0    0    0  0.22464528837E+01 -0.21601517076E+01  0.47286995404E+01  0.56633387293E+01  0.51100000000E-03 0. -1.
         22    1    1    0    0    0 -0.24773655353E+02  0.24569286840E+02 -0.51853968969E+02  0.62499743625E+02  0.00000000000E+00 0.  1.
</event>
<event>
 4    1  0.1974401E-002  0.9118800E+02  0.7818608E-02  0.1130116E+00
         25   -1    0    0    0    0  0.00000000000E+00  0.00000000000E+00  0.99999998245E-14  0.12500000000E+03  0.12500000000E+03 0.  0.
        -11    1    1    0    0    0 -0.27976195483E+02 -0.16177647144E+02  0.45077306933E+01  0.32629793397E+02  0.51100000000E-03 0. -1.
         11    1    1    0    0    0 -0.25630416887E+02 -0.14785409947E+02  0.40869660351E+01  0.29870217755E+02  0.51100000000E-03 0.  1.
         22    1    1    0    0    0  0.53606612370E+02  0.30963057091E+02 -0.85946967284E+01  0.62499988849E+02  0.00000000000E+00 0. -1.
</event>
<event>
 4    1  0.1974401E-002  0.9118800E+02  0.7818608E-02  0.1130116E+00
         25   -1    0    0    0    0  0.00000000000E+00  0.00000000000E+00  0.99999998245E-14  0.12500000000E+03  0.12500000000E+03 0.  0.
        -11    1    1    0    0    0 -0.29414171970E+02  0.37283081411E+02  0.28809021805E+02  0.55544409348E+02  0.51100000000E-03 0. -1.
         11    1    1    0    0    0 -0.62002856212E+01  0.20986148697E+01  0.33763495636E+01  0.73652876924E+01  0.51100000000E-03 0.  1.
         22    1    1    0    0    0  0.35614457592E+02 -0.39381696280E+02 -0.32185371369E+02  0.62090302960E+02  0.00000000000E+00 0. -1.
</event>
<event>
 4    1  0.1974401E-002  0.9118800E+02  0.7818608E-02  0.1130116E+00
         25   -1    0    0    0    0  0.00000000000E+00  0.00000000000E+00  0.99999998245E-14  0.12500000000E+03  0.12500000000E+03 0.  0.
        -11    1    1    0    0    0 -0.31097497959E+01  0.12318153457E+01  0.16929541854E+01  0.37488674255E+01  0.51100000000E-03 0.  1.
         11    1    1    0    0    0 -0.48796617261E+02  0.19161977926E+02  0.26521784506E+02  0.58751138779E+02  0.51100000000E-03 0. -1.
         22    1    1    0    0    0  0.51906367057E+02 -0.20393793272E+02 -0.28214738692E+02  0.62499993796E+02  0.00000000000E+00 0. -1.
</event>
<event>
 4    1  0.1974401E-002  0.9118800E+02  0.7818608E-02  0.1130116E+00
         25   -1    0    0    0    0  0.00000000000E+00  0.00000000000E+00  0.99999998245E-14  0.12500000000E+03  0.12500000000E+03 0.  0.
        -11    1    1    0    0    0  0.30288476999E+02 -0.20939623026E+02  0.28674602683E+02  0.46670038469E+02  0.51100000000E-03 0.  1.
         11    1    1    0    0    0  0.10261744687E+02 -0.70986713272E+01  0.97413185413E+01  0.15829966071E+02  0.51100000000E-03 0. -1.
         22    1    1    0    0    0 -0.40550221685E+02  0.28038294353E+02 -0.38415921225E+02  0.62499995460E+02  0.00000000000E+00 0.  1.
</event>
<event>
 4    1  0.1974401E-002  0.9118800E+02  0.7818608E-02  0.1130116E+00
         25   -1    0    0    0    0  0.00000000000E+00  0.00000000000E+00  0.99999998245E-14  0.12500000000E+03  0.12500000000E+03 0.  0.
        -11    1    1    0    0    0 -0.80518923745E+01 -0.10923396904E+02 -0.10595782634E+02  0.17216973620E+02  0.51100000000E-03 0.  1.
         11    1    1    0    0    0 -0.21213467824E+02 -0.28743797675E+02 -0.27826889816E+02  0.45283031248E+02  0.51100000000E-03 0. -1.
         22    1    1    0    0    0  0.29265360199E+02  0.39667194579E+02  0.38422672450E+02  0.62499995132E+02  0.00000000000E+00 0. -1.
</event>
<event>
 4    1  0.1974401E-002  0.9118800E+02  0.7818608E-02  0.1130116E+00
         25   -1    0    0    0    0  0.00000000000E+00  0.00000000000E+00  0.99999998245E-14  0.12500000000E+03  0.12500000000E+03 0.  0.
        -11    1    1    0    0    0 -0.53845002018E+01  0.37921762913E+02 -0.40578857330E+02  0.55800507232E+02  0.51100000000E-03 0.  1.
         11    1    1    0    0    0 -0.64476335352E+00  0.45558378611E+01 -0.48694797078E+01  0.66994933603E+01  0.51100000000E-03 0. -1.
         22    1    1    0    0    0  0.60292635553E+01 -0.42477600774E+02  0.45448337038E+02  0.62499999408E+02  0.00000000000E+00 0.  1.
</event>
<event>
 4    1  0.1974401E-002  0.9118800E+02  0.7818608E-02  0.1130116E+00
         25   -1    0    0    0    0  0.00000000000E+00  0.00000000000E+00  0.99999998245E-14  0.12500000000E+03  0.12500000000E+03 0.  0.
        -11    1    1    0    0    0  0.22048473054E+02 -0.17803571570E+02 -0.17701348011E+02  0.33413171749E+02  0.51100000000E-03 0.  1.
         11    1    1    0    0    0  0.11316201487E+02 -0.24072436058E+02 -0.13276345350E+02  0.29728772931E+02  0.51100000000E-03 0. -1.
         22    1    1    0    0    0 -0.33364674540E+02  0.41876007628E+02  0.30977693361E+02  0.61858055320E+02  0.00000000000E+00 0.  1.
</event>
<event>
 4    1  0.1974401E-002  0.9118800E+02  0.7818608E-02  0.1130116E+00
         25   -1    0    0    0    0  0.00000000000E+00  0.00000000000E+00  0.99999998245E-14  0.12500000000E+03  0.12500000000E+03 0.  0.
        -11    1    1    0    0    0 -0.40533376463E+02  0.10655529174E+02 -0.11734604191E+02  0.43522360290E+02  0.51100000000E-03 0.  1.
         11    1    1    0    0    0 -0.14689302026E+02  0.56169073829E+01 -0.11409474553E+02  0.19429394031E+02  0.51100000000E-03 0. -1.
         22    1    1    0    0    0  0.55222678489E+02 -0.16272436557E+02  0.23144078744E+02  0.62048245679E+02  0.00000000000E+00 0.  1.
</event>
<event>
 4    1  0.1974401E-002  0.9118800E+02  0.7818608E-02  0.1130116E+00
         25   -1    0    0    0    0  0.00000000000E+00  0.00000000000E+00  0.99999998245E-14  0.12500000000E+03  0.12500000000E+03 0.  0.
        -11    1    1    0    0    0 -0.36618980472E+00  0.17178627011E-01 -0.43597845565E+00  0.56962053440E+00  0.51100000000E-03 0. -1.
         11    1    1    0    0    0 -0.39904642924E+02  0.18473767068E+01 -0.47324186776E+02  0.61930380120E+02  0.51100000000E-03 0.  1.
         22    1    1    0    0    0  0.40270832728E+02 -0.18645553338E+01  0.47760165232E+02  0.62499999345E+02  0.00000000000E+00 0.  1.
</event>
<event>
 4    1  0.1974401E-002  0.9118800E+02  0.7818608E-02  0.1130116E+00
         25   -1    0    0    0    0  0.00000000000E+00  0.00000000000E+00  0.99999998245E-14  0.12500000000E+03  0.12500000000E+03 0.  0.
        -11    1    1    0    0    0 -0.31352434294E+01  0.13649002676E+02 -0.12612771022E+02  0.18846936583E+02  0.51100000000E-03 0.  1.
         11    1    1    0    0    0 -0.72631699173E+01  0.31614201937E+02 -0.29212643581E+02  0.43653063428E+02  0.51100000000E-03 0. -1.
         22    1    1    0    0    0  0.10398413347E+02 -0.45263204613E+02  0.41825414604E+02  0.62499999990E+02  0.00000000000E+00 0. -1.
</event>
<event>
 4    1  0.1974401E-002  0.9118800E+02  0.7818608E-02  0.1130116E+00
         25   -1    0    0    0    0  0.00000000000E+00  0.00000000000E+00  0.99999998245E-14  0.12500000000E+03  0.12500000000E+03 0.  0.
        -11    1    1    0    0    0  0.12320638109E+02 -0.68211996115E+01  0.38904605145E+02  0.41375055158E+02  0.51100000000E-03 0.  1.
         11    1    1    0    0    0  0.62948609524E+01 -0.34848542818E+01  0.19861868476E+02  0.21124945050E+02  0.51100000000E-03 0. -1.
         22    1    1    0    0    0 -0.18615499061E+02  0.10306053893E+02 -0.58766473621E+02  0.62499999792E+02  0.00000000000E+00 0.  1.
</event>
<event>
 4    1  0.1974401E-002  0.9118800E+02  0.7818608E-02  0.1130116E+00
         25   -1    0    0    0    0  0.00000000000E+00  0.00000000000E+00  0.99999998245E-14  0.12500000000E+03  0.12500000000E+03 0.  0.
        -11    1    1    0    0    0  0.42797322825E+01  0.17265398884E+02 -0.26090235635E+02  0.31577056588E+02  0.51100000000E-03 0. -1.
         11    1    1    0    0    0  0.41433759446E+01  0.16893461611E+02 -0.25567020188E+02  0.30922954758E+02  0.51100000000E-03 0.  1.
         22    1    1    0    0    0 -0.84231082271E+01 -0.34158860495E+02  0.51657255823E+02  0.62499988653E+02  0.00000000000E+00 0.  1.
</event>
<event>
 4    1  0.1974401E-002  0.9118800E+02  0.7818608E-02  0.1130116E+00
         25   -1    0    0    0    0  0.00000000000E+00  0.00000000000E+00  0.99999998245E-14  0.12500000000E+03  0.12500000000E+03 0.  0.
        -11    1    1    0    0    0  0.39774559399E+02 -0.75828505019E+00 -0.56834204561E+01  0.40185716865E+02  0.51100000000E-03 0.  1.
         11    1    1    0    0    0  0.22091670818E+02 -0.27719760865E+00 -0.31329390339E+01  0.22314436253E+02  0.51100000000E-03 0. -1.
         22    1    1    0    0    0 -0.61866230217E+02  0.10354826588E+01  0.88163594899E+01  0.62499846882E+02  0.00000000000E+00 0.  1.
</event>
<event>
 4    1  0.1974401E-002  0.9118800E+02  0.7818608E-02  0.1130116E+00
         25   -1    0    0    0    0  0.00000000000E+00  0.00000000000E+00  0.99999998245E-14  0.12500000000E+03  0.12500000000E+03 0.  0.
        -11    1    1    0    0    0  0.16656420037E+02  0.47766342085E+02  0.19661274025E+02  0.54273616622E+02  0.51100000000E-03 0.  1.
         11    1    1    0    0    0  0.25243394410E+01  0.72403175497E+01  0.29797475851E+01  0.82263833953E+01  0.51100000000E-03 0.  1.
         22    1    1    0    0    0 -0.19180759478E+02 -0.55006659635E+02 -0.22641021610E+02  0.62499999983E+02  0.00000000000E+00 0.  1.
</event>
<event>
 4    1  0.1974401E-002  0.9118800E+02  0.7818608E-02  0.1130116E+00
         25   -1    0    0    0    0  0.00000000000E+00  0.00000000000E+00  0.99999998245E-14  0.12500000000E+03  0.12500000000E+03 0.  0.
        -11    1    1    0    0    0 -0.17145565698E+02  0.88176782648E-01  0.13010566239E+01  0.17195084962E+02  0.51100000000E-03 0. -1.
         11    1    1    0    0    0 -0.45174416402E+02  0.23270585781E+00  0.34283053465E+01  0.45304915044E+02  0.51100000000E-03 0. -1.
         22    1    1    0    0    0  0.62319982100E+02 -0.32088264045E+00 -0.47293619704E+01  0.62499999994E+02  0.00000000000E+00 0. -1.
</event>
<event>
 4    1  0.1974401E-002  0.9118800E+02  0.7818608E-02  0.1130116E+00
         25   -1    0    0    0    0  0.00000000000E+00  0.00000000000E+00  0.99999998245E-14  0.12500000000E+03  0.12500000000E+03 0.  0.
        -11    1    1    0    0    0 -0.29234420835E+02 -0.29349126117E+02  0.97253025263E+01  0.42551193577E+02  0.51100000000E-03 0.  1.
         11    1    1    0    0    0 -0.13698642546E+02 -0.13769284453E+02  0.45507088707E+01  0.19948808321E+02  0.51100000000E-03 0. -1.
         22    1    1    0    0    0  0.42933063380E+02  0.43118410570E+02 -0.14276011397E+02  0.62499998102E+02  0.00000000000E+00 0.  1.
</event>
<event>
 4    1  0.1974401E-002  0.9118800E+02  0.7818608E-02  0.1130116E+00
         25   -1    0    0    0    0  0.00000000000E+00  0.00000000000E+00  0.99999998245E-14  0.12500000000E+03  0.12500000000E+03 0.  0.
        -11    1    1    0    0    0 -0.15860572918E+02 -0.36703048464E+02 -0.45915006259E+02  0.60883982621E+02  0.51100000000E-03 0. -1.
         11    1    1    0    0    0 -0.42188223289E+00 -0.97453001996E+00 -0.12181212090E+01  0.16160176110E+01  0.51100000000E-03 0. -1.
         22    1    1    0    0    0  0.16282455150E+02  0.37677578484E+02  0.47133127468E+02  0.62499999768E+02  0.00000000000E+00 0. -1.
</event>
<event>
 4    1  0.1974401E-002  0.9118800E+02  0.7818608E-02  0.1130116E+00
         25   -1    0    0    0    0  0.00000000000E+00  0.00000000000E+00  0.99999998245E-14  0.12500000000E+03  0.12500000000E+03 0.  0.
        -11    1    1    0    0    0  0.16068979393E+01 -0.11261698187E+02  0.38643875911E+01  0.12014219024E+02  0.51100000000E-03 0. -1.
         11    1    1    0    0    0  0.70249283415E+01 -0.47454517705E+02  0.15734244996E+02  0.50486110314E+02  0.51100000000E-03 0.  1.
         22    1    1    0    0    0 -0.86318262808E+01  0.58716215892E+02 -0.19598632587E+02  0.62499670662E+02  0.00000000000E+00 0.  1.
</event>
<event>
 4    1  0.1974401E-002  0.9118800E+02  0.7818608E-02  0.1130116E+00
         25   -1    0    0    0    0  0.00000000000E+00  0.00000000000E+00  0.99999998245E-14  0.12500000000E+03  0.12500000000E+03 0.  0.
        -11    1    1    0    0    0 -0.12482556139E+02 -0.30065537698E+02 -0.21781994539E+02  0.39168942431E+02  0.51100000000E-03 0. -1.
         11    1    1    0    0    0 -0.11784738398E+02 -0.15196480695E+02 -0.13523096649E+02  0.23509300880E+02  0.51100000000E-03 0.  1.
         22    1    1    0    0    0  0.24267294537E+02  0.45262018392E+02  0.35305091188E+02  0.62321756689E+02  0.00000000000E+00 0. -1.
</event>
<event>
 4    1  0.1974401E-002  0.9118800E+02  0.7818608E-02  0.1130116E+00
         25   -1    0    0    0    0  0.00000000000E+00  0.00000000000E+00  0.99999998245E-14  0.12500000000E+03  0.12500000000E+03 0.  0.
        -11    1    1    0    0    0 -0.56648176364E+02 -0.11564358565E+02  0.20642581604E+02  0.61391094223E+02  0.51100000000E-03 0.  1.
         11    1    1    0    0    0 -0.10315777728E+01 -0.19318948923E+00  0.35840608120E+00  0.11090221190E+01  0.51100000000E-03 0. -1.
         22    1    1    0    0    0  0.57679754137E+02  0.11757548055E+02 -0.21000987685E+02  0.62499883658E+02  0.00000000000E+00 0.  1.
</event>
<event>
 4    1  0.1974401E-002  0.9118800E+02  0.7818608E-02  0.1130116E+00
         25   -1    0    0    0    0  0.00000000000E+00  0.00000000000E+00  0.99999998245E-14  0.12500000000E+03  0.12500000000E+03 0.  0.
        -11    1    1    0    0    0 -0.83829675223E+01 -0.93185620679E+01 -0.88430261839E+01  0.15339780176E+02  0.51100000000E-03 0. -1.
         11    1    1    0    0    0 -0.25810970955E+02 -0.28769112302E+02 -0.27022648947E+02  0.47160275664E+02  0.51100000000E-03 0.  1.
         22    1    1    0    0    0  0.34193938477E+02  0.38087674370E+02  0.35865675131E+02  0.62499944161E+02  0.00000000000E+00 0.  1.
</event>
<event>
 4    1  0.1974401E-002  0.9118800E+02  0.7818608E-02  0.1130116E+00
         25   -1    0    0    0    0  0.00000000000E+00  0.00000000000E+00  0.99999998245E-14  0.12500000000E+03  0.12500000000E+03 0.  0.
        -11    1    1    0    0    0  0.16109578411E+02 -0.19078631022E+02  0.94871080971E+01  0.26711755812E+02  0.51100000000E-03 0.  1.
         11    1    1    0    0    0  0.31257290987E+01 -0.37475123276E+02 -0.84542534694E+01  0.38543863960E+02  0.51100000000E-03 0. -1.
         22    1    1    0    0    0 -0.19235307510E+02  0.56553754298E+02 -0.10328546277E+01  0.59744380228E+02  0.00000000000E+00 0.  1.
</event>
<event>
 4    1  0.1974401E-002  0.9118800E+02  0.7818608E-02  0.1130116E+00
         25   -1    0    0    0    0  0.00000000000E+00  0.00000000000E+00  0.99999998245E-14  0.12500000000E+03  0.12500000000E+03 0.  0.
        -11    1    1    0    0    0  0.36463071328E+02 -0.18191735172E+02  0.29864242903E+02  0.50520964002E+02  0.51100000000E-03 0. -1.
         11    1    1    0    0    0 -0.57632334016E+01 -0.11405090682E+02  0.99059762512E+01  0.16168466794E+02  0.51100000000E-03 0.  1.
         22    1    1    0    0    0 -0.30699837927E+02  0.29596825854E+02 -0.39770219154E+02  0.58310569204E+02  0.00000000000E+00 0. -1.
</event>
<event>
 4    1  0.1974401E-002  0.9118800E+02  0.7818608E-02  0.1130116E+00
         25   -1    0    0    0    0  0.00000000000E+00  0.00000000000E+00  0.99999998245E-14  0.12500000000E+03  0.12500000000E+03 0.  0.
        -11    1    1    0    0    0  0.33076908370E+02  0.96939081867E+00  0.36575419354E+02  0.49323248951E+02  0.51100000000E-03 0. -1.
         11    1    1    0    0    0  0.61001455000E+01  0.50587069915E+01  0.11123439992E+02  0.13657716100E+02  0.51100000000E-03 0.  1.
         22    1    1    0    0    0 -0.39177053870E+02 -0.60280978102E+01 -0.47698859346E+02  0.62019034949E+02  0.00000000000E+00 0. -1.
</event>
<event>
 4    1  0.1974401E-002  0.9118800E+02  0.7818608E-02  0.1130116E+00
         25   -1    0    0    0    0  0.00000000000E+00  0.00000000000E+00  0.99999998245E-14  0.12500000000E+03  0.12500000000E+03 0.  0.
        -11    1    1    0    0    0  0.28471870162E+02  0.14869916814E+01  0.49241978193E+01  0.28932788652E+02  0.51100000000E-03 0.  1.
         11    1    1    0    0    0  0.33032276754E+02  0.17261550405E+01  0.57137342644E+01  0.33567211357E+02  0.51100000000E-03 0.  1.
         22    1    1    0    0    0 -0.61504146916E+02 -0.32131467219E+01 -0.10637932084E+02  0.62499999990E+02  0.00000000000E+00 0.  1.
</event>
<event>
 4    1  0.1974401E-002  0.9118800E+02  0.7818608E-02  0.1130116E+00
         25   -1    0    0    0    0  0.00000000000E+00  0.00000000000E+00  0.99999998245E-14  0.12500000000E+03  0.12500000000E+03 0.  0.
        -11    1    1    0    0    0 -0.10326316354E+02 -0.57101593725E+01  0.83206370588E+01  0.14438550164E+02  0.51100000000E-03 0.  1.
         11    1    1    0    0    0 -0.34372924351E+02 -0.19001809376E+02  0.27700835333E+02  0.48061449899E+02  0.51100000000E-03 0. -1.
         22    1    1    0    0    0  0.44699240704E+02  0.24711968748E+02 -0.36021472391E+02  0.62499999938E+02  0.00000000000E+00 0. -1.
</event>
<event>
 4    1  0.1974401E-002  0.9118800E+02  0.7818608E-02  0.1130116E+00
         25   -1    0    0    0    0  0.00000000000E+00  0.00000000000E+00  0.99999998245E-14  0.12500000000E+03  0.12500000000E+03 0.  0.
        -11    1    1    0    0    0 -0.45425966575E+02 -0.12464036595E+02  0.16023716289E+02  0.49755704512E+02  0.51100000000E-03 0.  1.
         11    1    1    0    0    0 -0.12115099224E+02 -0.17336583598E+01  0.36936033589E+01  0.12783736017E+02  0.51100000000E-03 0. -1.
         22    1    1    0    0    0  0.57541065799E+02  0.14197694955E+02 -0.19717319648E+02  0.62460559471E+02  0.00000000000E+00 0.  1.
</event>
<event>
 4    1  0.1974401E-002  0.9118800E+02  0.7818608E-02  0.1130116E+00
         25   -1    0    0    0    0  0.00000000000E+00  0.00000000000E+00  0.99999998245E-14  0.12500000000E+03  0.12500000000E+03 0.  0.
        -11    1    1    0    0    0 -0.97090406142E+01 -0.34327009174E+02 -0.13870072355E+02  0.38275160821E+02  0.51100000000E-03 0. -1.
         11    1    1    0    0    0 -0.56454530621E+01 -0.22066503153E+02 -0.82604622029E+01  0.24228845159E+02  0.51100000000E-03 0.  1.
         22    1    1    0    0    0  0.15354493676E+02  0.56393512327E+02  0.22130534558E+02  0.62495994020E+02  0.00000000000E+00 0.  1.
</event>
<event>
 4    1  0.1974401E-002  0.9118800E+02  0.7818608E-02  0.1130116E+00
         25   -1    0    0    0    0  0.00000000000E+00  0.00000000000E+00  0.99999998245E-14  0.12500000000E+03  0.12500000000E+03 0.  0.
        -11    1    1    0    0    0  0.39780932985E+02 -0.29457527369E+01  0.28615383000E+02  0.49092160604E+02  0.51100000000E-03 0. -1.
         11    1    1    0    0    0  0.10875722002E+02 -0.80070641723E+00  0.78005022953E+01  0.13407844576E+02  0.51100000000E-03 0.  1.
         22    1    1    0    0    0 -0.50656654987E+02  0.37464591541E+01 -0.36415885295E+02  0.62499994820E+02  0.00000000000E+00 0. -1.
</event>
<event>
 4    1  0.1974401E-002  0.9118800E+02  0.7818608E-02  0.1130116E+00
         25   -1    0    0    0    0  0.00000000000E+00  0.00000000000E+00  0.99999998245E-14  0.12500000000E+03  0.12500000000E+03 0.  0.
        -11    1    1    0    0    0  0.10767606408E+02  0.51163262722E+01 -0.14866641995E+01  0.12013671919E+02  0.51100000000E-03 0.  1.
         11    1    1    0    0    0  0.45062987606E+02  0.21677937559E+02 -0.69510740670E+01  0.50486862249E+02  0.51100000000E-03 0. -1.
         22    1    1    0    0    0 -0.55830594014E+02 -0.26794263831E+02  0.84377382665E+01  0.62499465832E+02  0.00000000000E+00 0. -1.
</event>
<event>
 4    1  0.1974401E-002  0.9118800E+02  0.7818608E-02  0.1130116E+00
         25   -1    0    0    0    0  0.00000000000E+00  0.00000000000E+00  0.99999998245E-14  0.12500000000E+03  0.12500000000E+03 0.  0.
        -11    1    1    0    0    0  0.29521062773E+02 -0.20140093412E+02 -0.30325510333E+02  0.46869532610E+02  0.51100000000E-03 0. -1.
         11    1    1    0    0    0  0.17226898769E+00  0.50335470419E+01 -0.18415387403E+02  0.19091693636E+02  0.51100000000E-03 0.  1.
         22    1    1    0    0    0 -0.29693331761E+02  0.15106546370E+02  0.48740897736E+02  0.59038773754E+02  0.00000000000E+00 0. -1.
</event>
<event>
 4    1  0.1974401E-002  0.9118800E+02  0.7818608E-02  0.1130116E+00
         25   -1    0    0    0    0  0.00000000000E+00  0.00000000000E+00  0.99999998245E-14  0.12500000000E+03  0.12500000000E+03 0.  0.
        -11    1    1    0    0    0  0.20405000624E+02  0.28711295537E+02 -0.16454913236E+02  0.38877586238E+02  0.51100000000E-03 0. -1.
         11    1    1    0    0    0  0.12396990279E+02  0.17446411863E+02 -0.99977886542E+01  0.23622413787E+02  0.51100000000E-03 0.  1.
         22    1    1    0    0    0 -0.32801990903E+02 -0.46157707400E+02  0.26452701890E+02  0.62499999975E+02  0.00000000000E+00 0. -1.
</event>
<event>
 4    1  0.1974401E-002  0.9118800E+02  0.7818608E-02  0.1130116E+00
         25   -1    0    0    0    0  0.00000000000E+00  0.00000000000E+00  0.99999998245E-14  0.12500000000E+03  0.12500000000E+03 0.  0.
        -11    1    1    0    0    0  0.17627077751E+02 -0.15182289434E+02 -0.21017769620E+02  0.31352231541E+02  0.51100000000E-03 0.  1.
         11    1    1    0    0    0  0.17446383567E+02 -0.14542393094E+02 -0.21317794621E+02  0.31149732972E+02  0.51100000000E-03 0. -1.
         22    1    1    0    0    0 -0.35073461318E+02  0.29724682528E+02  0.42335564241E+02  0.62498035488E+02  0.00000000000E+00 0. -1.
</event>
<event>
 4    1  0.1974401E-002  0.9118800E+02  0.7818608E-02  0.1130116E+00
         25   -1    0    0    0    0  0.00000000000E+00  0.00000000000E+00  0.99999998245E-14  0.12500000000E+03  0.12500000000E+03 0.  0.
        -11    1    1    0    0    0  0.50704988767E+02 -0.11374948046E+02  0.27541232703E+02  0.58812454701E+02  0.51100000000E-03 0.  1.
         11    1    1    0    0    0  0.15846659956E+01  0.74717278718E+01 -0.21907730928E+01  0.79459027627E+01  0.51100000000E-03 0. -1.
         22    1    1    0    0    0 -0.52289654762E+02  0.39032201746E+01 -0.25350459610E+02  0.58241642536E+02  0.00000000000E+00 0.  1.
</event>
<event>
 4    1  0.1974401E-002  0.9118800E+02  0.7818608E-02  0.1130116E+00
         25   -1    0    0    0    0  0.00000000000E+00  0.00000000000E+00  0.99999998245E-14  0.12500000000E+03  0.12500000000E+03 0.  0.
        -11    1    1    0    0    0  0.28590806171E+02  0.17243795437E+02  0.40450702176E+02  0.52450376409E+02  0.51100000000E-03 0. -1.
         11    1    1    0    0    0 -0.71448276792E+01  0.77610755741E+01  0.84995001075E+01  0.13547116260E+02  0.51100000000E-03 0.  1.
         22    1    1    0    0    0 -0.21445978492E+02 -0.25004871011E+02 -0.48950202284E+02  0.59002507331E+02  0.00000000000E+00 0. -1.
</event>
<event>
 4    1  0.1974401E-002  0.9118800E+02  0.7818608E-02  0.1130116E+00
         25   -1    0    0    0    0  0.00000000000E+00  0.00000000000E+00  0.99999998245E-14  0.12500000000E+03  0.12500000000E+03 0.  0.
        -11    1    1    0    0    0  0.23951519384E+02 -0.21330680942E+02  0.50188332442E+02  0.59561245318E+02  0.51100000000E-03 0.  1.
         11    1    1    0    0    0  0.10998626579E+01 -0.10424648594E+01  0.25187199487E+01  0.29394525495E+01  0.51100000000E-03 0. -1.
         22    1    1    0    0    0 -0.25051382042E+02  0.22373145801E+02 -0.52707052391E+02  0.62499302132E+02  0.00000000000E+00 0.  1.
</event>
<event>
 4    1  0.1974401E-002  0.9118800E+02  0.7818608E-02  0.1130116E+00
         25   -1    0    0    0    0  0.00000000000E+00  0.00000000000E+00  0.99999998245E-14  0.12500000000E+03  0.12500000000E+03 0.  0.
        -11    1    1    0    0    0  0.17219205066E+02  0.19207296075E+02  0.40134572864E+02  0.47709592168E+02  0.51100000000E-03 0. -1.
         11    1    1    0    0    0 -0.63078944642E+01  0.23658575457E+01  0.15352395524E+02  0.16765526030E+02  0.51100000000E-03 0.  1.
         22    1    1    0    0    0 -0.10911310601E+02 -0.21573153621E+02 -0.55486968388E+02  0.60524881801E+02  0.00000000000E+00 0. -1.
</event>
<event>
 4    1  0.1974401E-002  0.9118800E+02  0.7818608E-02  0.1130116E+00
         25   -1    0    0    0    0  0.00000000000E+00  0.00000000000E+00  0.99999998245E-14  0.12500000000E+03  0.12500000000E+03 0.  0.
        -11    1    1    0    0    0  0.34913149246E+02  0.25419321022E+02 -0.16979787552E+02  0.46404558581E+02  0.51100000000E-03 0.  1.
         11    1    1    0    0    0  0.12117662118E+02  0.88587421215E+01 -0.58095813201E+01  0.16095536107E+02  0.51100000000E-03 0. -1.
         22    1    1    0    0    0 -0.47030811364E+02 -0.34278063144E+02  0.22789368872E+02  0.62499905312E+02  0.00000000000E+00 0. -1.
</event>
<event>
 4    1  0.1974401E-002  0.9118800E+02  0.7818608E-02  0.1130116E+00
         25   -1    0    0    0    0  0.00000000000E+00  0.00000000000E+00  0.99999998245E-14  0.12500000000E+03  0.12500000000E+03 0.  0.
        -11    1    1    0    0    0  0.26687430912E+02  0.16484814174E+02  0.14407016591E+02  0.34518548555E+02  0.51100000000E-03 0. -1.
         11    1    1    0    0    0  0.21975270077E+02  0.12779986601E+02  0.11698175144E+02  0.27983706946E+02  0.51100000000E-03 0.  1.
         22    1    1    0    0    0 -0.48662700989E+02 -0.29264800775E+02 -0.26105191735E+02  0.62497744499E+02  0.00000000000E+00 0. -1.
</event>
<event>
 4    1  0.1974401E-002  0.9118800E+02  0.7818608E-02  0.1130116E+00
         25   -1    0    0    0    0  0.00000000000E+00  0.00000000000E+00  0.99999998245E-14  0.12500000000E+03  0.12500000000E+03 0.  0.
        -11    1    1    0    0    0  0.13382901214E+02 -0.11738183917E+02  0.66135833336E+01  0.18990168281E+02  0.51100000000E-03 0. -1.
         11    1    1    0    0    0  0.30670655647E+02 -0.26883630398E+02  0.15155420917E+02  0.43509832045E+02  0.51100000000E-03 0.  1.
         22    1    1    0    0    0 -0.44053556862E+02  0.38621814315E+02 -0.21769004250E+02  0.62499999673E+02  0.00000000000E+00 0.  1.
</event>
<event>
 4    1  0.1974401E-002  0.9118800E+02  0.7818608E-02  0.1130116E+00
         25   -1    0    0    0    0  0.00000000000E+00  0.00000000000E+00  0.99999998245E-14  0.12500000000E+03  0.12500000000E+03 0.  0.
        -11    1    1    0    0    0 -0.14049021166E+02 -0.88435400129E+01  0.68363323196E+01  0.17953234681E+02  0.51100000000E-03 0.  1.
         11    1    1    0    0    0 -0.33776568667E+02 -0.22411701690E+02  0.18488034748E+02  0.44552759653E+02  0.51100000000E-03 0. -1.
         22    1    1    0    0    0  0.47825589833E+02  0.31255241703E+02 -0.25324367067E+02  0.62494005666E+02  0.00000000000E+00 0. -1.
</event>
<event>
 4    1  0.1974401E-002  0.9118800E+02  0.7818608E-02  0.1130116E+00
         25   -1    0    0    0    0  0.00000000000E+00  0.00000000000E+00  0.99999998245E-14  0.12500000000E+03  0.12500000000E+03 0.  0.
        -11    1    1    0    0    0 -0.18061735871E+01  0.49584505966E+01  0.15042010447E+01  0.54873596920E+01  0.51100000000E-03 0.  1.
         11    1    1    0    0    0 -0.27131152223E+02  0.48852777043E+02  0.11484197012E+02  0.57048926608E+02  0.51100000000E-03 0. -1.
         22    1    1    0    0    0  0.28937325810E+02 -0.53811227640E+02 -0.12988398057E+02  0.62463713700E+02  0.00000000000E+00 0. -1.
</event>
<event>
 4    1  0.1974401E-002  0.9118800E+02  0.7818608E-02  0.1130116E+00
         25   -1    0    0    0    0  0.00000000000E+00  0.00000000000E+00  0.99999998245E-14  0.12500000000E+03  0.12500000000E+03 0.  0.
        -11    1    1    0    0    0  0.77795505198E+00  0.34403514311E+01 -0.61475439957E+00  0.35803847930E+01  0.51100000000E-03 0. -1.
         11    1    1    0    0    0  0.13612591280E+02  0.46996847249E+02 -0.33095776405E+02  0.59070607825E+02  0.51100000000E-03 0.  1.
         22    1    1    0    0    0 -0.14390546332E+02 -0.50437198680E+02  0.33710530805E+02  0.62349007382E+02  0.00000000000E+00 0.  1.
</event>
<event>
 4    1  0.1974401E-002  0.9118800E+02  0.7818608E-02  0.1130116E+00
         25   -1    0    0    0    0  0.00000000000E+00  0.00000000000E+00  0.99999998245E-14  0.12500000000E+03  0.12500000000E+03 0.  0.
        -11    1    1    0    0    0  0.85878366272E+00 -0.15628691094E+01 -0.38796089143E+00  0.18249885334E+01  0.51100000000E-03 0.  1.
         11    1    1    0    0    0  0.18060162937E+02 -0.56732737761E+02 -0.11774646171E+02  0.60691146899E+02  0.51100000000E-03 0. -1.
         22    1    1    0    0    0 -0.18918946600E+02  0.58295606870E+02  0.12162607063E+02  0.62483864568E+02  0.00000000000E+00 0. -1.
</event>
<event>
 4    1  0.1974401E-002  0.9118800E+02  0.7818608E-02  0.1130116E+00
         25   -1    0    0    0    0  0.00000000000E+00  0.00000000000E+00  0.99999998245E-14  0.12500000000E+03  0.12500000000E+03 0.  0.
        -11    1    1    0    0    0  0.36912042942E+02 -0.37114352859E+02  0.17239147060E+02  0.55110455396E+02  0.51100000000E-03 0. -1.
         11    1    1    0    0    0  0.16101275636E+01 -0.68485584453E+01  0.35116504331E+01  0.78630116733E+01  0.51100000000E-03 0.  1.
         22    1    1    0    0    0 -0.38522170506E+02  0.43962911304E+02 -0.20750797493E+02  0.62026532931E+02  0.00000000000E+00 0. -1.
</event>
<event>
 4    1  0.1974401E-002  0.9118800E+02  0.7818608E-02  0.1130116E+00
         25   -1    0    0    0    0  0.00000000000E+00  0.00000000000E+00  0.99999998245E-14  0.12500000000E+03  0.12500000000E+03 0.  0.
        -11    1    1    0    0    0  0.30740085377E+02  0.26705640000E+02  0.47131038852E+02  0.62285462833E+02  0.51100000000E-03 0. -1.
         11    1    1    0    0    0  0.10588427776E+00  0.91946503070E-01  0.16235894521E+00  0.21453747438E+00  0.51100000000E-03 0. -1.
         22    1    1    0    0    0 -0.30845969655E+02 -0.26797586503E+02 -0.47293397797E+02  0.62499999692E+02  0.00000000000E+00 0. -1.
</event>
<event>
 4    1  0.1974401E-002  0.9118800E+02  0.7818608E-02  0.1130116E+00
         25   -1    0    0    0    0  0.00000000000E+00  0.00000000000E+00  0.99999998245E-14  0.12500000000E+03  0.12500000000E+03 0.  0.
        -11    1    1    0    0    0  0.10268082401E+02 -0.22794301723E+02  0.52397877685E+02  0.58056449197E+02  0.51100000000E-03 0.  1.
         11    1    1    0    0    0  0.41360190978E+00 -0.41829319157E+01  0.24706369696E+01  0.48756572119E+01  0.51100000000E-03 0. -1.
         22    1    1    0    0    0 -0.10681684311E+02  0.26977233639E+02 -0.54868514654E+02  0.62067893591E+02  0.00000000000E+00 0.  1.
</event>
<event>
 4    1  0.1974401E-002  0.9118800E+02  0.7818608E-02  0.1130116E+00
         25   -1    0    0    0    0  0.00000000000E+00  0.00000000000E+00  0.99999998245E-14  0.12500000000E+03  0.12500000000E+03 0.  0.
        -11    1    1    0    0    0 -0.15275070640E+02  0.17833673940E+02 -0.56977198774E+02  0.61626040678E+02  0.51100000000E-03 0.  1.
         11    1    1    0    0    0 -0.59375090216E+00 -0.22933695418E+01  0.16537715864E+00  0.23747492193E+01  0.51100000000E-03 0. -1.
         22    1    1    0    0    0  0.15868821542E+02 -0.15540304399E+02  0.56811821615E+02  0.60999210103E+02  0.00000000000E+00 0.  1.
</event>
<event>
 4    1  0.1974401E-002  0.9118800E+02  0.7818608E-02  0.1130116E+00
         25   -1    0    0    0    0  0.00000000000E+00  0.00000000000E+00  0.99999998245E-14  0.12500000000E+03  0.12500000000E+03 0.  0.
        -11    1    1    0    0    0  0.45513380225E+01  0.13662768793E+02  0.31988613523E+02  0.35080725823E+02  0.51100000000E-03 0.  1.
         11    1    1    0    0    0  0.24667862585E+01  0.10647632291E+02  0.25153528075E+02  0.27425482361E+02  0.51100000000E-03 0. -1.
         22    1    1    0    0    0 -0.70181242811E+01 -0.24310401083E+02 -0.57142141598E+02  0.62493791817E+02  0.00000000000E+00 0. -1.
</event>
<event>
 4    1  0.1974401E-002  0.9118800E+02  0.7818608E-02  0.1130116E+00
         25   -1    0    0    0    0  0.00000000000E+00  0.00000000000E+00  0.99999998245E-14  0.12500000000E+03  0.12500000000E+03 0.  0.
        -11    1    1    0    0    0 -0.42192767531E+01  0.41897372255E+00  0.85864828138E+00  0.43260966738E+01  0.51100000000E-03 0.  1.
         11    1    1    0    0    0 -0.57204044361E+02  0.78718330894E+01  0.71268149567E+01  0.58181267941E+02  0.51100000000E-03 0. -1.
         22    1    1    0    0    0  0.61423321114E+02 -0.82908068119E+01 -0.79854632380E+01  0.62492635386E+02  0.00000000000E+00 0. -1.
</event>
<event>
 4    1  0.1974401E-002  0.9118800E+02  0.7818608E-02  0.1130116E+00
         25   -1    0    0    0    0  0.00000000000E+00  0.00000000000E+00  0.99999998245E-14  0.12500000000E+03  0.12500000000E+03 0.  0.
        -11    1    1    0    0    0  0.31104723231E+02 -0.33691153354E+01  0.42700220018E+01  0.31576697635E+02  0.51100000000E-03 0. -1.
         11    1    1    0    0    0  0.30428904527E+02 -0.36229753655E+01  0.41513120072E+01  0.30923738015E+02  0.51100000000E-03 0.  1.
         22    1    1    0    0    0 -0.61533627757E+02  0.69920907009E+01 -0.84213340090E+01  0.62499564349E+02  0.00000000000E+00 0. -1.
</event>
<event>
 4    1  0.1974401E-002  0.9118800E+02  0.7818608E-02  0.1130116E+00
         25   -1    0    0    0    0  0.00000000000E+00  0.00000000000E+00  0.99999998245E-14  0.12500000000E+03  0.12500000000E+03 0.  0.
        -11    1    1    0    0    0 -0.58026254118E+00  0.47702641103E+01 -0.20123874831E+01  0.52097819476E+01  0.51100000000E-03 0.  1.
         11    1    1    0    0    0  0.13663914941E+02  0.55966764854E+02  0.23615282656E+01  0.57658981570E+02  0.51100000000E-03 0. -1.
         22    1    1    0    0    0 -0.13083652400E+02 -0.60737028964E+02 -0.34914078251E+00  0.62131236482E+02  0.00000000000E+00 0. -1.
</event>
<event>
 4    1  0.1974401E-002  0.9118800E+02  0.7818608E-02  0.1130116E+00
         25   -1    0    0    0    0  0.00000000000E+00  0.00000000000E+00  0.99999998245E-14  0.12500000000E+03  0.12500000000E+03 0.  0.
        -11    1    1    0    0    0 -0.82810738213E+01 -0.26279450518E+02  0.75590277615E+01  0.28571394858E+02  0.51100000000E-03 0.  1.
         11    1    1    0    0    0 -0.12673219238E+02 -0.29901603974E+02  0.99438963559E+01  0.33964650463E+02  0.51100000000E-03 0. -1.
         22    1    1    0    0    0  0.20954293059E+02  0.56181054492E+02 -0.17502924117E+02  0.62463954679E+02  0.00000000000E+00 0. -1.
</event>
<event>
 4    1  0.1974401E-002  0.9118800E+02  0.7818608E-02  0.1130116E+00
         25   -1    0    0    0    0  0.00000000000E+00  0.00000000000E+00  0.99999998245E-14  0.12500000000E+03  0.12500000000E+03 0.  0.
        -11    1    1    0    0    0 -0.55522382183E+02 -0.46131821974E+01  0.13278748096E+02  0.57274265814E+02  0.51100000000E-03 0.  1.
         11    1    1    0    0    0 -0.50659481435E+01 -0.42177249111E+00  0.12110225076E+01  0.52257342452E+01  0.51100000000E-03 0. -1.
         22    1    1    0    0    0  0.60588330326E+02  0.50349546885E+01 -0.14489770604E+02  0.62499999941E+02  0.00000000000E+00 0.  1.
</event>
<event>
 4    1  0.1974401E-002  0.9118800E+02  0.7818608E-02  0.1130116E+00
         25   -1    0    0    0    0  0.00000000000E+00  0.00000000000E+00  0.99999998245E-14  0.12500000000E+03  0.12500000000E+03 0.  0.
        -11    1    1    0    0    0 -0.15869654617E+02  0.46158924695E+02  0.68304488422E+00  0.48815559171E+02  0.51100000000E-03 0. -1.
         11    1    1    0    0    0 -0.44815135295E+01  0.12926891761E+02  0.28116084748E+00  0.13684573278E+02  0.51100000000E-03 0.  1.
         22    1    1    0    0    0  0.20351168146E+02 -0.59085816456E+02 -0.96420573171E+00  0.62499867551E+02  0.00000000000E+00 0.  1.
</event>
<event>
 4    1  0.1974401E-002  0.9118800E+02  0.7818608E-02  0.1130116E+00
         25   -1    0    0    0    0  0.00000000000E+00  0.00000000000E+00  0.99999998245E-14  0.12500000000E+03  0.12500000000E+03 0.  0.
        -11    1    1    0    0    0 -0.28914901986E+01  0.12218061877E+02 -0.74622388958E+01  0.14605709884E+02  0.51100000000E-03 0.  1.
         11    1    1    0    0    0  0.50169066159E+02  0.17445066856E+02 -0.45274361959E+01  0.53308191075E+02  0.51100000000E-03 0. -1.
         22    1    1    0    0    0 -0.47277575961E+02 -0.29663128733E+02  0.11989675092E+02  0.57086099041E+02  0.00000000000E+00 0. -1.
</event>
<event>
 4    1  0.1974401E-002  0.9118800E+02  0.7818608E-02  0.1130116E+00
         25   -1    0    0    0    0  0.00000000000E+00  0.00000000000E+00  0.99999998245E-14  0.12500000000E+03  0.12500000000E+03 0.  0.
        -11    1    1    0    0    0  0.29917992107E+01  0.22528957097E+01  0.18532130904E+00  0.37497661054E+01  0.51100000000E-03 0.  1.
         11    1    1    0    0    0  0.44928912633E+02  0.37624921753E+02  0.42041458582E+01  0.58753014986E+02  0.51100000000E-03 0. -1.
         22    1    1    0    0    0 -0.47920711844E+02 -0.39877817463E+02 -0.43894671673E+01  0.62497218908E+02  0.00000000000E+00 0. -1.
</event>
<event>
 4    1  0.1974401E-002  0.9118800E+02  0.7818608E-02  0.1130116E+00
         25   -1    0    0    0    0  0.00000000000E+00  0.00000000000E+00  0.99999998245E-14  0.12500000000E+03  0.12500000000E+03 0.  0.
        -11    1    1    0    0    0  0.15238508935E+01 -0.75967759333E+01  0.97011033122E+01  0.12415495635E+02  0.51100000000E-03 0. -1.
         11    1    1    0    0    0  0.63383193606E+01 -0.30568725538E+02  0.39164277158E+02  0.50084547307E+02  0.51100000000E-03 0.  1.
         22    1    1    0    0    0 -0.78621702542E+01  0.38165501472E+02 -0.48865380471E+02  0.62499957058E+02  0.00000000000E+00 0.  1.
</event>
<event>
 4    1  0.1974401E-002  0.9118800E+02  0.7818608E-02  0.1130116E+00
         25   -1    0    0    0    0  0.00000000000E+00  0.00000000000E+00  0.99999998245E-14  0.12500000000E+03  0.12500000000E+03 0.  0.
        -11    1    1    0    0    0 -0.18215695458E+01 -0.31803574588E+01  0.29083205711E+01  0.46787945009E+01  0.51100000000E-03 0.  1.
         11    1    1    0    0    0 -0.22581906163E+02 -0.39262807127E+02  0.35941362604E+02  0.57821207663E+02  0.51100000000E-03 0. -1.
         22    1    1    0    0    0  0.24403475709E+02  0.42443164586E+02 -0.38849683176E+02  0.62499997836E+02  0.00000000000E+00 0. -1.
</event>
<event>
 4    1  0.1974401E-002  0.9118800E+02  0.7818608E-02  0.1130116E+00
         25   -1    0    0    0    0  0.00000000000E+00  0.00000000000E+00  0.99999998245E-14  0.12500000000E+03  0.12500000000E+03 0.  0.
        -11    1    1    0    0    0  0.13164648925E+01  0.59627329688E-01 -0.10494275634E+02  0.10576694028E+02  0.51100000000E-03 0.  1.
         11    1    1    0    0    0  0.65613668052E+01  0.64953557149E-01 -0.51507078864E+02  0.51923356274E+02  0.51100000000E-03 0. -1.
         22    1    1    0    0    0 -0.78778316977E+01 -0.12458088684E+00  0.62001354498E+02  0.62499949698E+02  0.00000000000E+00 0. -1.
</event>
<event>
 4    1  0.1974401E-002  0.9118800E+02  0.7818608E-02  0.1130116E+00
         25   -1    0    0    0    0  0.00000000000E+00  0.00000000000E+00  0.99999998245E-14  0.12500000000E+03  0.12500000000E+03 0.  0.
        -11    1    1    0    0    0  0.15049468483E+02 -0.11072751372E+02 -0.16192194797E+02  0.24724067165E+02  0.51100000000E-03 0. -1.
         11    1    1    0    0    0  0.16762599218E+02 -0.97947807627E+01 -0.32879355791E+02  0.38183432274E+02  0.51100000000E-03 0.  1.
         22    1    1    0    0    0 -0.31812067701E+02  0.20867532135E+02  0.49071550588E+02  0.62092500561E+02  0.00000000000E+00 0.  1.
</event>
<event>
 4    1  0.1974401E-002  0.9118800E+02  0.7818608E-02  0.1130116E+00
         25   -1    0    0    0    0  0.00000000000E+00  0.00000000000E+00  0.99999998245E-14  0.12500000000E+03  0.12500000000E+03 0.  0.
        -11    1    1    0    0    0 -0.58301640017E+01 -0.17103087868E+02  0.14015987872E+02  0.22868195013E+02  0.51100000000E-03 0. -1.
         11    1    1    0    0    0  0.97841778060E+01 -0.33555557350E+02  0.20671605163E+02  0.40608137419E+02  0.51100000000E-03 0.  1.
         22    1    1    0    0    0 -0.39540138044E+01  0.50658645217E+02 -0.34687593034E+02  0.61523667567E+02  0.00000000000E+00 0.  1.
</event>
<event>
 4    1  0.1974401E-002  0.9118800E+02  0.7818608E-02  0.1130116E+00
         25   -1    0    0    0    0  0.00000000000E+00  0.00000000000E+00  0.99999998245E-14  0.12500000000E+03  0.12500000000E+03 0.  0.
        -11    1    1    0    0    0 -0.60850667639E+01  0.26327103746E+02 -0.36210006469E+02  0.45180847689E+02  0.51100000000E-03 0. -1.
         11    1    1    0    0    0 -0.96157072068E+01  0.16036262535E+02 -0.42454988910E+01  0.19174144108E+02  0.51100000000E-03 0.  1.
         22    1    1    0    0    0  0.15700773971E+02 -0.42363366281E+02  0.40455505360E+02  0.60645008203E+02  0.00000000000E+00 0. -1.
</event>
<event>
 4    1  0.1974401E-002  0.9118800E+02  0.7818608E-02  0.1130116E+00
         25   -1    0    0    0    0  0.00000000000E+00  0.00000000000E+00  0.99999998245E-14  0.12500000000E+03  0.12500000000E+03 0.  0.
        -11    1    1    0    0    0  0.29948713221E+02  0.53814325301E+01  0.18772059127E+02  0.35752978111E+02  0.51100000000E-03 0.  1.
         11    1    1    0    0    0  0.22235188847E+02  0.74092940668E+01  0.13026264043E+02  0.26813892236E+02  0.51100000000E-03 0. -1.
         22    1    1    0    0    0 -0.52183902068E+02 -0.12790726597E+02 -0.31798323170E+02  0.62433129654E+02  0.00000000000E+00 0.  1.
</event>
<event>
 4    1  0.1974401E-002  0.9118800E+02  0.7818608E-02  0.1130116E+00
         25   -1    0    0    0    0  0.00000000000E+00  0.00000000000E+00  0.99999998245E-14  0.12500000000E+03  0.12500000000E+03 0.  0.
        -11    1    1    0    0    0  0.10042887878E+02  0.83614941205E+01  0.97609256406E+01  0.16311034623E+02  0.51100000000E-03 0. -1.
         11    1    1    0    0    0  0.28166847549E+02  0.23610360115E+02  0.27975435795E+02  0.46189234825E+02  0.51100000000E-03 0.  1.
         22    1    1    0    0    0 -0.38209735427E+02 -0.31971854235E+02 -0.37736361435E+02  0.62499730551E+02  0.00000000000E+00 0.  1.
</event>
<event>
 4    1  0.1974401E-002  0.9118800E+02  0.7818608E-02  0.1130116E+00
         25   -1    0    0    0    0  0.00000000000E+00  0.00000000000E+00  0.99999998245E-14  0.12500000000E+03  0.12500000000E+03 0.  0.
        -11    1    1    0    0    0 -0.48715998321E+00  0.63871807502E+00  0.46383456097E+01  0.47073916222E+01  0.51100000000E-03 0. -1.
         11    1    1    0    0    0 -0.61154725011E+01  0.78326863518E+01  0.56931856609E+02  0.57792614378E+02  0.51100000000E-03 0.  1.
         22    1    1    0    0    0  0.66026324843E+01 -0.84714044268E+01 -0.61570202219E+02  0.62499994000E+02  0.00000000000E+00 0.  1.
</event>
<event>
 4    1  0.1974401E-002  0.9118800E+02  0.7818608E-02  0.1130116E+00
         25   -1    0    0    0    0  0.00000000000E+00  0.00000000000E+00  0.99999998245E-14  0.12500000000E+03  0.12500000000E+03 0.  0.
        -11    1    1    0    0    0  0.17843825792E+02  0.60490032937E+01 -0.26164504665E+02  0.32242423363E+02  0.51100000000E-03 0. -1.
         11    1    1    0    0    0  0.16599683779E+02  0.56295356460E+01 -0.24663513953E+02  0.30257727838E+02  0.51100000000E-03 0.  1.
         22    1    1    0    0    0 -0.34443509571E+02 -0.11678538940E+02  0.50828018617E+02  0.62499848799E+02  0.00000000000E+00 0. -1.
</event>
<event>
 4    1  0.1974401E-002  0.9118800E+02  0.7818608E-02  0.1130116E+00
         25   -1    0    0    0    0  0.00000000000E+00  0.00000000000E+00  0.99999998245E-14  0.12500000000E+03  0.12500000000E+03 0.  0.
        -11    1    1    0    0    0 -0.63949712542E+01 -0.41912199978E+01 -0.15160709431E+02  0.16979667050E+02  0.51100000000E-03 0.  1.
         11    1    1    0    0    0 -0.17216106089E+02 -0.11182932487E+02 -0.40628186601E+02  0.45520345283E+02  0.51100000000E-03 0. -1.
         22    1    1    0    0    0  0.23611077344E+02  0.15374152485E+02  0.55788896032E+02  0.62499987668E+02  0.00000000000E+00 0. -1.
</event>
<event>
 4    1  0.1974401E-002  0.9118800E+02  0.7818608E-02  0.1130116E+00
         25   -1    0    0    0    0  0.00000000000E+00  0.00000000000E+00  0.99999998245E-14  0.12500000000E+03  0.12500000000E+03 0.  0.
        -11    1    1    0    0    0  0.43042548881E+01 -0.12486993696E+02  0.36586690663E+00  0.13213079905E+02  0.51100000000E-03 0.  1.
         11    1    1    0    0    0  0.16053078156E+02 -0.46579326713E+02  0.13658324716E+01  0.49286920110E+02  0.51100000000E-03 0.  1.
         22    1    1    0    0    0 -0.20357333044E+02  0.59066320410E+02 -0.17316993782E+01  0.62499999985E+02  0.00000000000E+00 0.  1.
</event>
<event>
 4    1  0.1974401E-002  0.9118800E+02  0.7818608E-02  0.1130116E+00
         25   -1    0    0    0    0  0.00000000000E+00  0.00000000000E+00  0.99999998245E-14  0.12500000000E+03  0.12500000000E+03 0.  0.
        -11    1    1    0    0    0 -0.63918898486E+01 -0.16823184532E+01  0.15496317365E+01  0.67888003354E+01  0.51100000000E-03 0.  1.
         11    1    1    0    0    0 -0.52798595996E+02 -0.12637415357E+02  0.12506987149E+02  0.55711944266E+02  0.51100000000E-03 0. -1.
         22    1    1    0    0    0  0.59190485845E+02  0.14319733811E+02 -0.14056618885E+02  0.62499255399E+02  0.00000000000E+00 0. -1.
</event>
<event>
 4    1  0.1974401E-002  0.9118800E+02  0.7818608E-02  0.1130116E+00
         25   -1    0    0    0    0  0.00000000000E+00  0.00000000000E+00  0.99999998245E-14  0.12500000000E+03  0.12500000000E+03 0.  0.
        -11    1    1    0    0    0 -0.44294743873E+01 -0.34062114095E+01 -0.17279598369E+01  0.58487917532E+01  0.51100000000E-03 0.  1.
         11    1    1    0    0    0 -0.23770687222E+02 -0.47641703560E+02 -0.20058036772E+02  0.56895538740E+02  0.51100000000E-03 0. -1.
         22    1    1    0    0    0  0.28200161609E+02  0.51047914969E+02  0.21785996609E+02  0.62255669507E+02  0.00000000000E+00 0. -1.
</event>
<event>
 4    1  0.1974401E-002  0.9118800E+02  0.7818608E-02  0.1130116E+00
         25   -1    0    0    0    0  0.00000000000E+00  0.00000000000E+00  0.99999998245E-14  0.12500000000E+03  0.12500000000E+03 0.  0.
        -11    1    1    0    0    0  0.34569524036E+02 -0.10425727585E+01 -0.10011227269E+02  0.36005049947E+02  0.51100000000E-03 0. -1.
         11    1    1    0    0    0  0.21774418622E+02 -0.18288428809E+02 -0.83357575326E+00  0.28447966244E+02  0.51100000000E-03 0.  1.
         22    1    1    0    0    0 -0.56343942657E+02  0.19331001568E+02  0.10844803022E+02  0.60546983809E+02  0.00000000000E+00 0. -1.
</event>
<event>
 4    1  0.1974401E-002  0.9118800E+02  0.7818608E-02  0.1130116E+00
         25   -1    0    0    0    0  0.00000000000E+00  0.00000000000E+00  0.99999998245E-14  0.12500000000E+03  0.12500000000E+03 0.  0.
        -11    1    1    0    0    0 -0.23719808152E+02  0.15103203417E+02 -0.12502375792E+02  0.30774103609E+02  0.51100000000E-03 0. -1.
         11    1    1    0    0    0 -0.24253563283E+02  0.15706686216E+02 -0.13100480727E+02  0.31726296969E+02  0.51100000000E-03 0.  1.
         22    1    1    0    0    0  0.47973371435E+02 -0.30809889634E+02  0.25602856519E+02  0.62499599422E+02  0.00000000000E+00 0.  1.
</event>
<event>
 4    1  0.1974401E-002  0.9118800E+02  0.7818608E-02  0.1130116E+00
         25   -1    0    0    0    0  0.00000000000E+00  0.00000000000E+00  0.99999998245E-14  0.12500000000E+03  0.12500000000E+03 0.  0.
        -11    1    1    0    0    0  0.21061996980E+02 -0.44555284635E+02 -0.29234853515E+02  0.57301463908E+02  0.51100000000E-03 0.  1.
         11    1    1    0    0    0  0.19087469461E+01 -0.40434009160E+01 -0.26518624033E+01  0.51985363650E+01  0.51100000000E-03 0. -1.
         22    1    1    0    0    0 -0.22970743926E+02  0.48598685551E+02  0.31886715918E+02  0.62499999727E+02  0.00000000000E+00 0.  1.
</event>
<event>
 4    1  0.1974401E-002  0.9118800E+02  0.7818608E-02  0.1130116E+00
         25   -1    0    0    0    0  0.00000000000E+00  0.00000000000E+00  0.99999998245E-14  0.12500000000E+03  0.12500000000E+03 0.  0.
        -11    1    1    0    0    0 -0.38671387027E-02  0.91886118414E+00 -0.64933982224E+00  0.11251503439E+01  0.51100000000E-03 0.  1.
         11    1    1    0    0    0 -0.25386839809E+00  0.50115327644E+02 -0.35429672325E+02  0.61374849860E+02  0.51100000000E-03 0. -1.
         22    1    1    0    0    0  0.25773553679E+00 -0.51034188828E+02  0.36079012147E+02  0.62499999796E+02  0.00000000000E+00 0. -1.
</event>
<event>
 4    1  0.1974401E-002  0.9118800E+02  0.7818608E-02  0.1130116E+00
         25   -1    0    0    0    0  0.00000000000E+00  0.00000000000E+00  0.99999998245E-14  0.12500000000E+03  0.12500000000E+03 0.  0.
        -11    1    1    0    0    0  0.12165081668E+01  0.95324702323E+01  0.17772242437E+02  0.20203971945E+02  0.51100000000E-03 0.  1.
         11    1    1    0    0    0  0.25467395178E+01  0.19956674512E+02  0.37204828313E+02  0.42296028062E+02  0.51100000000E-03 0.  1.
         22    1    1    0    0    0 -0.37632476846E+01 -0.29489144744E+02 -0.54977070750E+02  0.62499999993E+02  0.00000000000E+00 0.  1.
</event>
<event>
 4    1  0.1974401E-002  0.9118800E+02  0.7818608E-02  0.1130116E+00
         25   -1    0    0    0    0  0.00000000000E+00  0.00000000000E+00  0.99999998245E-14  0.12500000000E+03  0.12500000000E+03 0.  0.
        -11    1    1    0    0    0  0.15204850372E+02  0.19204152989E+02  0.66077472770E+01  0.25370244208E+02  0.51100000000E-03 0. -1.
         11    1    1    0    0    0  0.22252539818E+02  0.28107349066E+02  0.96654110772E+01  0.37129755876E+02  0.51100000000E-03 0.  1.
         22    1    1    0    0    0 -0.37457390190E+02 -0.47311502055E+02 -0.16273158354E+02  0.62499999915E+02  0.00000000000E+00 0.  1.
</event>
<event>
 4    1  0.1974401E-002  0.9118800E+02  0.7818608E-02  0.1130116E+00
         25   -1    0    0    0    0  0.00000000000E+00  0.00000000000E+00  0.99999998245E-14  0.12500000000E+03  0.12500000000E+03 0.  0.
        -11    1    1    0    0    0 -0.10521897062E+01  0.40848306008E+02 -0.42560590927E+02  0.59000805988E+02  0.51100000000E-03 0.  1.
         11    1    1    0    0    0  0.36114780236E+00  0.13320205812E+01 -0.33660762755E+01  0.36380181855E+01  0.51100000000E-03 0. -1.
         22    1    1    0    0    0  0.69104190380E+00 -0.42180326589E+02  0.45926667203E+02  0.62361175826E+02  0.00000000000E+00 0.  1.
</event>
<event>
 4    1  0.1974401E-002  0.9118800E+02  0.7818608E-02  0.1130116E+00
         25   -1    0    0    0    0  0.00000000000E+00  0.00000000000E+00  0.99999998245E-14  0.12500000000E+03  0.12500000000E+03 0.  0.
        -11    1    1    0    0    0  0.17722969051E+01 -0.17476384815E+01 -0.33208694056E+01  0.41501145107E+01  0.51100000000E-03 0. -1.
         11    1    1    0    0    0  0.89903877880E+01 -0.28759707929E+02 -0.50061462145E+02  0.58430282090E+02  0.51100000000E-03 0.  1.
         22    1    1    0    0    0 -0.10762684693E+02  0.30507346411E+02  0.53382331550E+02  0.62419603400E+02  0.00000000000E+00 0.  1.
</event>
<event>
 4    1  0.1974401E-002  0.9118800E+02  0.7818608E-02  0.1130116E+00
         25   -1    0    0    0    0  0.00000000000E+00  0.00000000000E+00  0.99999998245E-14  0.12500000000E+03  0.12500000000E+03 0.  0.
        -11    1    1    0    0    0  0.27539705031E+02 -0.22395131560E+02 -0.19408592040E+02  0.40455787175E+02  0.51100000000E-03 0. -1.
         11    1    1    0    0    0  0.14741556143E+02 -0.10809041450E+02 -0.12390184438E+02  0.22083150256E+02  0.51100000000E-03 0.  1.
         22    1    1    0    0    0 -0.42281261173E+02  0.33204173009E+02  0.31798776478E+02  0.62461062568E+02  0.00000000000E+00 0. -1.
</event>
<event>
 4    1  0.1974401E-002  0.9118800E+02  0.7818608E-02  0.1130116E+00
         25   -1    0    0    0    0  0.00000000000E+00  0.00000000000E+00  0.99999998245E-14  0.12500000000E+03  0.12500000000E+03 0.  0.
        -11    1    1    0    0    0 -0.39963975890E+02 -0.38125753986E+02 -0.84262849758E+01  0.55872128693E+02  0.51100000000E-03 0. -1.
         11    1    1    0    0    0  0.16970962237E+01 -0.61504960029E+01 -0.61037590318E+01  0.88297571458E+01  0.51100000000E-03 0.  1.
         22    1    1    0    0    0  0.38266879666E+02  0.44276249989E+02  0.14530044008E+02  0.60298114161E+02  0.00000000000E+00 0. -1.
</event>
<event>
 4    1  0.1974401E-002  0.9118800E+02  0.7818608E-02  0.1130116E+00
         25   -1    0    0    0    0  0.00000000000E+00  0.00000000000E+00  0.99999998245E-14  0.12500000000E+03  0.12500000000E+03 0.  0.
        -11    1    1    0    0    0  0.54351858926E+01  0.20394960080E+02 -0.46784753506E+02  0.51325518051E+02  0.51100000000E-03 0. -1.
         11    1    1    0    0    0  0.10126057670E+01  0.43923855425E+01 -0.10225663256E+02  0.11175088835E+02  0.51100000000E-03 0.  1.
         22    1    1    0    0    0 -0.64477916595E+01 -0.24787345623E+02  0.57010416761E+02  0.62499393114E+02  0.00000000000E+00 0. -1.
</event>
<event>
 4    1  0.1974401E-002  0.9118800E+02  0.7818608E-02  0.1130116E+00
         25   -1    0    0    0    0  0.00000000000E+00  0.00000000000E+00  0.99999998245E-14  0.12500000000E+03  0.12500000000E+03 0.  0.
        -11    1    1    0    0    0  0.71176362765E+01  0.89109565729E+00 -0.28045333059E+02  0.28948152001E+02  0.51100000000E-03 0. -1.
         11    1    1    0    0    0  0.82505748803E+01  0.10329716344E+01 -0.32505191711E+02  0.33551848007E+02  0.51100000000E-03 0. -1.
         22    1    1    0    0    0 -0.15368211157E+02 -0.19240672917E+01  0.60550524770E+02  0.62499999992E+02  0.00000000000E+00 0. -1.
</event>
<event>
 4    1  0.1974401E-002  0.9118800E+02  0.7818608E-02  0.1130116E+00
         25   -1    0    0    0    0  0.00000000000E+00  0.00000000000E+00  0.99999998245E-14  0.12500000000E+03  0.12500000000E+03 0.  0.
        -11    1    1    0    0    0 -0.19730490874E+02  0.25592679224E+02  0.43521228608E+02  0.54206778541E+02  0.51100000000E-03 0.  1.
         11    1    1    0    0    0 -0.30521867743E+01  0.38987670302E+01  0.66529629829E+01  0.82932590201E+01  0.51100000000E-03 0. -1.
         22    1    1    0    0    0  0.22782677649E+02 -0.29491446254E+02 -0.50174191591E+02  0.62499962439E+02  0.00000000000E+00 0.  1.
</event>
<event>
 4    1  0.1974401E-002  0.9118800E+02  0.7818608E-02  0.1130116E+00
         25   -1    0    0    0    0  0.00000000000E+00  0.00000000000E+00  0.99999998245E-14  0.12500000000E+03  0.12500000000E+03 0.  0.
        -11    1    1    0    0    0  0.18335287750E+02  0.55303616707E+02  0.48778094716E+01  0.58467647664E+02  0.51100000000E-03 0.  1.
         11    1    1    0    0    0  0.64036426065E+00 -0.33084341091E+02 -0.13988164193E+02  0.35925651414E+02  0.51100000000E-03 0. -1.
         22    1    1    0    0    0 -0.18975652011E+02 -0.22219275617E+02  0.91103547217E+01  0.30606700922E+02  0.00000000000E+00 0.  1.
</event>
<event>
 4    1  0.1974401E-002  0.9118800E+02  0.7818608E-02  0.1130116E+00
         25   -1    0    0    0    0  0.00000000000E+00  0.00000000000E+00  0.99999998245E-14  0.12500000000E+03  0.12500000000E+03 0.  0.
        -11    1    1    0    0    0  0.83820018698E+01 -0.39449676353E+02 -0.47181397224E+02  0.62069470466E+02  0.51100000000E-03 0. -1.
         11    1    1    0    0    0  0.59357115933E+00 -0.21784635520E+00 -0.95868505958E-02  0.63235743412E+00  0.51100000000E-03 0.  1.
         22    1    1    0    0    0 -0.89755730291E+01  0.39667522708E+02  0.47190984075E+02  0.62298172100E+02  0.00000000000E+00 0. -1.
</event>
<event>
 4    1  0.1974401E-002  0.9118800E+02  0.7818608E-02  0.1130116E+00
         25   -1    0    0    0    0  0.00000000000E+00  0.00000000000E+00  0.99999998245E-14  0.12500000000E+03  0.12500000000E+03 0.  0.
        -11    1    1    0    0    0  0.10891077981E+02  0.44399788928E+02 -0.29801864031E+02  0.54572043543E+02  0.51100000000E-03 0. -1.
         11    1    1    0    0    0  0.15736609207E+01  0.64538264670E+01 -0.43271524940E+01  0.79279589887E+01  0.51100000000E-03 0.  1.
         22    1    1    0    0    0 -0.12464738902E+02 -0.50853615395E+02  0.34129016525E+02  0.62499997469E+02  0.00000000000E+00 0. -1.
</event>
<event>
 4    1  0.1974401E-002  0.9118800E+02  0.7818608E-02  0.1130116E+00
         25   -1    0    0    0    0  0.00000000000E+00  0.00000000000E+00  0.99999998245E-14  0.12500000000E+03  0.12500000000E+03 0.  0.
        -11    1    1    0    0    0  0.50180940906E+02  0.29263516318E+01 -0.27396381702E+02  0.57247288973E+02  0.51100000000E-03 0. -1.
         11    1    1    0    0    0  0.46083015780E+01  0.26503781917E+00 -0.25068544041E+01  0.52527143216E+01  0.51100000000E-03 0.  1.
         22    1    1    0    0    0 -0.54789242484E+02 -0.31913894510E+01  0.29903236106E+02  0.62499996706E+02  0.00000000000E+00 0. -1.
</event>
<event>
 4    1  0.1974401E-002  0.9118800E+02  0.7818608E-02  0.1130116E+00
         25   -1    0    0    0    0  0.00000000000E+00  0.00000000000E+00  0.99999998245E-14  0.12500000000E+03  0.12500000000E+03 0.  0.
        -11    1    1    0    0    0 -0.66527439185E+01 -0.52945797938E+02  0.11848702534E+02  0.54661762439E+02  0.51100000000E-03 0.  1.
         11    1    1    0    0    0 -0.96340584769E+00 -0.75921742894E+01  0.16937408068E+01  0.78382408390E+01  0.51100000000E-03 0. -1.
         22    1    1    0    0    0  0.76161497662E+01  0.60537972227E+02 -0.13542443341E+02  0.62499996722E+02  0.00000000000E+00 0.  1.
</event>
<event>
 4    1  0.1974401E-002  0.9118800E+02  0.7818608E-02  0.1130116E+00
         25   -1    0    0    0    0  0.00000000000E+00  0.00000000000E+00  0.99999998245E-14  0.12500000000E+03  0.12500000000E+03 0.  0.
        -11    1    1    0    0    0 -0.16532086333E+01  0.62805902305E+01  0.13633116481E+02  0.15101019094E+02  0.51100000000E-03 0.  1.
         11    1    1    0    0    0 -0.55893615047E+01  0.18841203186E+02  0.43134173813E+02  0.47400304328E+02  0.51100000000E-03 0. -1.
         22    1    1    0    0    0  0.72425701379E+01 -0.25121793417E+02 -0.56767290294E+02  0.62498676578E+02  0.00000000000E+00 0. -1.
</event>
<event>
 4    1  0.1974401E-002  0.9118800E+02  0.7818608E-02  0.1130116E+00
         25   -1    0    0    0    0  0.00000000000E+00  0.00000000000E+00  0.99999998245E-14  0.12500000000E+03  0.12500000000E+03 0.  0.
        -11    1    1    0    0    0 -0.12654003000E+02  0.45155827426E+02  0.20802435812E+01  0.46941452429E+02  0.51100000000E-03 0.  1.
         11    1    1    0    0    0 -0.41983760347E+01  0.14965207583E+02  0.69615188116E+00  0.15558548359E+02  0.51100000000E-03 0. -1.
         22    1    1    0    0    0  0.16852379035E+02 -0.60121035010E+02 -0.27763954624E+01  0.62499999212E+02  0.00000000000E+00 0.  1.
</event>
<event>
 4    1  0.1974401E-002  0.9118800E+02  0.7818608E-02  0.1130116E+00
         25   -1    0    0    0    0  0.00000000000E+00  0.00000000000E+00  0.99999998245E-14  0.12500000000E+03  0.12500000000E+03 0.  0.
        -11    1    1    0    0    0 -0.67877168239E+01  0.50343631812E+01 -0.10635766531E+00  0.84515811856E+01  0.51100000000E-03 0.  1.
         11    1    1    0    0    0 -0.33286810274E+02  0.16848943756E+02  0.40871377178E+02  0.55338667463E+02  0.51100000000E-03 0. -1.
         22    1    1    0    0    0  0.40074527098E+02 -0.21883306937E+02 -0.40765019512E+02  0.61209751351E+02  0.00000000000E+00 0. -1.
</event>
<event>
 4    1  0.1974401E-002  0.9118800E+02  0.7818608E-02  0.1130116E+00
         25   -1    0    0    0    0  0.00000000000E+00  0.00000000000E+00  0.99999998245E-14  0.12500000000E+03  0.12500000000E+03 0.  0.
        -11    1    1    0    0    0  0.14552321902E+02  0.22182621400E+02 -0.49302173193E+02  0.55986989977E+02  0.51100000000E-03 0.  1.
         11    1    1    0    0    0  0.16263442581E+01  0.25817968905E+01 -0.57541959714E+01  0.65131745231E+01  0.51100000000E-03 0. -1.
         22    1    1    0    0    0 -0.16178666160E+02 -0.24764418290E+02  0.55056369164E+02  0.62499835500E+02  0.00000000000E+00 0.  1.
</event>
<event>
 4    1  0.1974401E-002  0.9118800E+02  0.7818608E-02  0.1130116E+00
         25   -1    0    0    0    0  0.00000000000E+00  0.00000000000E+00  0.99999998245E-14  0.12500000000E+03  0.12500000000E+03 0.  0.
        -11    1    1    0    0    0 -0.99178348204E+00  0.35635886443E+00 -0.14870518543E-01  0.10539675085E+01  0.51100000000E-03 0.  1.
         11    1    1    0    0    0 -0.58356006052E+02  0.18898699457E+02 -0.36230931088E+01  0.61446815113E+02  0.51100000000E-03 0. -1.
         22    1    1    0    0    0  0.59347789534E+02 -0.19255058322E+02  0.36379636273E+01  0.62499217379E+02  0.00000000000E+00 0. -1.
</event>
<event>
 4    1  0.1974401E-002  0.9118800E+02  0.7818608E-02  0.1130116E+00
         25   -1    0    0    0    0  0.00000000000E+00  0.00000000000E+00  0.99999998245E-14  0.12500000000E+03  0.12500000000E+03 0.  0.
        -11    1    1    0    0    0  0.14896200813E+01 -0.16149746945E+02  0.56624308503E+01  0.17178370638E+02  0.51100000000E-03 0.  1.
         11    1    1    0    0    0  0.39369279999E+01 -0.42602939784E+02  0.14951262078E+02  0.45321629697E+02  0.51100000000E-03 0. -1.
         22    1    1    0    0    0 -0.54265480812E+01  0.58752686730E+02 -0.20613692928E+02  0.62499999665E+02  0.00000000000E+00 0. -1.
</event>
<event>
 4    1  0.1974401E-002  0.9118800E+02  0.7818608E-02  0.1130116E+00
         25   -1    0    0    0    0  0.00000000000E+00  0.00000000000E+00  0.99999998245E-14  0.12500000000E+03  0.12500000000E+03 0.  0.
        -11    1    1    0    0    0  0.99417879716E+00 -0.10476701334E+01 -0.16446651630E+01  0.21888188479E+01  0.51100000000E-03 0.  1.
         11    1    1    0    0    0  0.26642971132E+02 -0.28287988487E+02 -0.46123828063E+02  0.60311406209E+02  0.51100000000E-03 0. -1.
         22    1    1    0    0    0 -0.27637149929E+02  0.29335658620E+02  0.47768493226E+02  0.62499774944E+02  0.00000000000E+00 0. -1.
</event>
<event>
 4    1  0.1974401E-002  0.9118800E+02  0.7818608E-02  0.1130116E+00
         25   -1    0    0    0    0  0.00000000000E+00  0.00000000000E+00  0.99999998245E-14  0.12500000000E+03  0.12500000000E+03 0.  0.
        -11    1    1    0    0    0 -0.98489008616E+01 -0.18002134860E+02 -0.77771166718E+01  0.21944503906E+02  0.51100000000E-03 0. -1.
         11    1    1    0    0    0 -0.18229687806E+02 -0.33252258783E+02 -0.14377559818E+02  0.40555498496E+02  0.51100000000E-03 0.  1.
         22    1    1    0    0    0  0.28078588668E+02  0.51254393643E+02  0.22154676490E+02  0.62499997598E+02  0.00000000000E+00 0.  1.
</event>
<event>
 4    1  0.1974401E-002  0.9118800E+02  0.7818608E-02  0.1130116E+00
         25   -1    0    0    0    0  0.00000000000E+00  0.00000000000E+00  0.99999998245E-14  0.12500000000E+03  0.12500000000E+03 0.  0.
        -11    1    1    0    0    0 -0.10387806836E+02  0.21939604006E+02  0.15065096891E+02  0.28569387453E+02  0.51100000000E-03 0.  1.
         11    1    1    0    0    0 -0.12336985611E+02  0.26057040919E+02  0.17891782262E+02  0.33930612553E+02  0.51100000000E-03 0.  1.
         22    1    1    0    0    0  0.22724792448E+02 -0.47996644925E+02 -0.32956879153E+02  0.62499999995E+02  0.00000000000E+00 0.  1.
</event>
<event>
 4    1  0.1974401E-002  0.9118800E+02  0.7818608E-02  0.1130116E+00
         25   -1    0    0    0    0  0.00000000000E+00  0.00000000000E+00  0.99999998245E-14  0.12500000000E+03  0.12500000000E+03 0.  0.
        -11    1    1    0    0    0  0.15797816342E+02 -0.23967291451E+01 -0.23630767128E+01  0.16152381979E+02  0.51100000000E-03 0. -1.
         11    1    1    0    0    0  0.45253039738E+02 -0.82541592313E+01 -0.57033927614E+01  0.46351887118E+02  0.51100000000E-03 0.  1.
         22    1    1    0    0    0 -0.61050856080E+02  0.10650888376E+02  0.80664694742E+01  0.62495730903E+02  0.00000000000E+00 0.  1.
</event>
<event>
 4    1  0.1974401E-002  0.9118800E+02  0.7818608E-02  0.1130116E+00
         25   -1    0    0    0    0  0.00000000000E+00  0.00000000000E+00  0.99999998245E-14  0.12500000000E+03  0.12500000000E+03 0.  0.
        -11    1    1    0    0    0 -0.29328214495E+01  0.45545101962E+01 -0.53187406722E+01  0.75917064868E+01  0.51100000000E-03 0. -1.
         11    1    1    0    0    0 -0.39227964442E+02  0.18137852885E+02 -0.34369147568E+02  0.55218232554E+02  0.51100000000E-03 0.  1.
         22    1    1    0    0    0  0.42160785891E+02 -0.22692363081E+02  0.39687888241E+02  0.62190060960E+02  0.00000000000E+00 0.  1.
</event>
<event>
 4    1  0.1974401E-002  0.9118800E+02  0.7818608E-02  0.1130116E+00
         25   -1    0    0    0    0  0.00000000000E+00  0.00000000000E+00  0.99999998245E-14  0.12500000000E+03  0.12500000000E+03 0.  0.
        -11    1    1    0    0    0 -0.87028331180E+00  0.32659735808E+01  0.56322874418E+01  0.65686100936E+01  0.51100000000E-03 0. -1.
         11    1    1    0    0    0 -0.77503814667E+01  0.27733612326E+02  0.47948984285E+02  0.55931446967E+02  0.51100000000E-03 0.  1.
         22    1    1    0    0    0  0.86206647785E+01 -0.30999585907E+02 -0.53581271727E+02  0.62499942940E+02  0.00000000000E+00 0.  1.
</event>
<event>
 4    1  0.1974401E-002  0.9118800E+02  0.7818608E-02  0.1130116E+00
         25   -1    0    0    0    0  0.00000000000E+00  0.00000000000E+00  0.99999998245E-14  0.12500000000E+03  0.12500000000E+03 0.  0.
        -11    1    1    0    0    0 -0.24518312739E+02 -0.48812709498E+02 -0.14526470570E+02  0.56522974228E+02  0.51100000000E-03 0.  1.
         11    1    1    0    0    0 -0.25942301725E+01 -0.51609174196E+01 -0.15361443665E+01  0.59770258972E+01  0.51100000000E-03 0. -1.
         22    1    1    0    0    0  0.27112542912E+02  0.53973626917E+02  0.16062614937E+02  0.62499999875E+02  0.00000000000E+00 0.  1.
</event>
<event>
 4    1  0.1974401E-002  0.9118800E+02  0.7818608E-02  0.1130116E+00
         25   -1    0    0    0    0  0.00000000000E+00  0.00000000000E+00  0.99999998245E-14  0.12500000000E+03  0.12500000000E+03 0.  0.
        -11    1    1    0    0    0  0.35698967072E+02 -0.72537582926E+01  0.49549342600E+02  0.61499354563E+02  0.51100000000E-03 0.  1.
         11    1    1    0    0    0 -0.17975847704E+01  0.35767438203E+01 -0.92114063335E+00  0.41076645056E+01  0.51100000000E-03 0. -1.
         22    1    1    0    0    0 -0.33901382302E+02  0.36770144723E+01 -0.48628201966E+02  0.59392980931E+02  0.00000000000E+00 0.  1.
</event>
<event>
 4    1  0.1974401E-002  0.9118800E+02  0.7818608E-02  0.1130116E+00
         25   -1    0    0    0    0  0.00000000000E+00  0.00000000000E+00  0.99999998245E-14  0.12500000000E+03  0.12500000000E+03 0.  0.
        -11    1    1    0    0    0  0.36303798840E+02  0.74930790481E+01  0.50262051812E+02  0.62453069552E+02  0.51100000000E-03 0. -1.
         11    1    1    0    0    0 -0.10353220362E-01  0.24260725817E-02  0.54602757586E-01  0.55630901997E-01  0.51100000000E-03 0.  1.
         22    1    1    0    0    0 -0.36293445619E+02 -0.74955051207E+01 -0.50316654570E+02  0.62491299546E+02  0.00000000000E+00 0. -1.
</event>
<event>
 4    1  0.1974401E-002  0.9118800E+02  0.7818608E-02  0.1130116E+00
         25   -1    0    0    0    0  0.00000000000E+00  0.00000000000E+00  0.99999998245E-14  0.12500000000E+03  0.12500000000E+03 0.  0.
        -11    1    1    0    0    0 -0.12623480576E+01 -0.15145064349E+01  0.36961861760E+01  0.41891580142E+01  0.51100000000E-03 0. -1.
         11    1    1    0    0    0 -0.17547442017E+02 -0.21121738722E+02  0.51440390779E+02  0.58310842660E+02  0.51100000000E-03 0.  1.
         22    1    1    0    0    0  0.18809790075E+02  0.22636245157E+02 -0.55136576955E+02  0.62499999326E+02  0.00000000000E+00 0.  1.
</event>
<event>
 4    1  0.1974401E-002  0.9118800E+02  0.7818608E-02  0.1130116E+00
         25   -1    0    0    0    0  0.00000000000E+00  0.00000000000E+00  0.99999998245E-14  0.12500000000E+03  0.12500000000E+03 0.  0.
        -11    1    1    0    0    0  0.22734594580E+02  0.39118457564E+02 -0.13519340062E+02  0.47221690661E+02  0.51100000000E-03 0. -1.
         11    1    1    0    0    0  0.73591411629E+01  0.12675857458E+02 -0.43120776965E+01  0.15278361669E+02  0.51100000000E-03 0.  1.
         22    1    1    0    0    0 -0.30093735743E+02 -0.51794315022E+02  0.17831417758E+02  0.62499947671E+02  0.00000000000E+00 0. -1.
</event>
<event>
 4    1  0.1974401E-002  0.9118800E+02  0.7818608E-02  0.1130116E+00
         25   -1    0    0    0    0  0.00000000000E+00  0.00000000000E+00  0.99999998245E-14  0.12500000000E+03  0.12500000000E+03 0.  0.
        -11    1    1    0    0    0  0.22489013827E+02 -0.85027450316E+01 -0.55315143582E+02  0.60314322724E+02  0.51100000000E-03 0.  1.
         11    1    1    0    0    0  0.16892172530E+00 -0.20483332228E+00 -0.22220408905E+01  0.22378465585E+01  0.51100000000E-03 0. -1.
         22    1    1    0    0    0 -0.22657935552E+02  0.87075783539E+01  0.57537184472E+02  0.62447830717E+02  0.00000000000E+00 0.  1.
</event>
<event>
 4    1  0.1974401E-002  0.9118800E+02  0.7818608E-02  0.1130116E+00
         25   -1    0    0    0    0  0.00000000000E+00  0.00000000000E+00  0.99999998245E-14  0.12500000000E+03  0.12500000000E+03 0.  0.
        -11    1    1    0    0    0  0.74206090853E+01  0.69071865329E+00 -0.18358428980E+02  0.19813491523E+02  0.51100000000E-03 0.  1.
         11    1    1    0    0    0  0.16061992248E+02  0.13898525333E+01 -0.39524944705E+02  0.42686538150E+02  0.51100000000E-03 0. -1.
         22    1    1    0    0    0 -0.23482601333E+02 -0.20805711866E+01  0.57883373685E+02  0.62499970328E+02  0.00000000000E+00 0.  1.
</event>
<event>
 4    1  0.1974401E-002  0.9118800E+02  0.7818608E-02  0.1130116E+00
         25   -1    0    0    0    0  0.00000000000E+00  0.00000000000E+00  0.99999998245E-14  0.12500000000E+03  0.12500000000E+03 0.  0.
        -11    1    1    0    0    0 -0.10737624016E+02 -0.54670524320E+01 -0.16676994322E+01  0.12164146228E+02  0.51100000000E-03 0. -1.
         11    1    1    0    0    0 -0.44308972607E+02 -0.23029030669E+02 -0.63344805720E+01  0.50336338280E+02  0.51100000000E-03 0.  1.
         22    1    1    0    0    0  0.55046596623E+02  0.28496083101E+02  0.80021800043E+01  0.62499515492E+02  0.00000000000E+00 0.  1.
</event>
<event>
 4    1  0.1974401E-002  0.9118800E+02  0.7818608E-02  0.1130116E+00
         25   -1    0    0    0    0  0.00000000000E+00  0.00000000000E+00  0.99999998245E-14  0.12500000000E+03  0.12500000000E+03 0.  0.
        -11    1    1    0    0    0  0.29105157322E+02  0.18396214715E+02 -0.11103067772E+02  0.36177465539E+02  0.51100000000E-03 0. -1.
         11    1    1    0    0    0  0.21187612934E+02  0.13253370026E+02 -0.82658492835E+01  0.26322823244E+02  0.51100000000E-03 0.  1.
         22    1    1    0    0    0 -0.50292770257E+02 -0.31649584740E+02  0.19368917056E+02  0.62499711217E+02  0.00000000000E+00 0. -1.
</event>
<event>
 4    1  0.1974401E-002  0.9118800E+02  0.7818608E-02  0.1130116E+00
         25   -1    0    0    0    0  0.00000000000E+00  0.00000000000E+00  0.99999998245E-14  0.12500000000E+03  0.12500000000E+03 0.  0.
        -11    1    1    0    0    0  0.19971592285E+01 -0.99654895634E+01  0.19207647416E+02  0.21730930646E+02  0.51100000000E-03 0.  1.
         11    1    1    0    0    0  0.40211012030E+01 -0.18711778682E+02  0.35997645257E+02  0.40769233261E+02  0.51100000000E-03 0. -1.
         22    1    1    0    0    0 -0.60182604315E+01  0.28677268246E+02 -0.55205292673E+02  0.62499836094E+02  0.00000000000E+00 0. -1.
</event>
<event>
 4    1  0.1974401E-002  0.9118800E+02  0.7818608E-02  0.1130116E+00
         25   -1    0    0    0    0  0.00000000000E+00  0.00000000000E+00  0.99999998245E-14  0.12500000000E+03  0.12500000000E+03 0.  0.
        -11    1    1    0    0    0  0.26514263634E+01 -0.41332814973E+02 -0.31009506031E+02  0.51739937378E+02  0.51100000000E-03 0. -1.
         11    1    1    0    0    0  0.23697549530E+01 -0.78302420782E+01 -0.71169133474E+01  0.10843379796E+02  0.51100000000E-03 0.  1.
         22    1    1    0    0    0 -0.50211813164E+01  0.49163057051E+02  0.38126419379E+02  0.62416682826E+02  0.00000000000E+00 0. -1.
</event>
<event>
 4    1  0.1974401E-002  0.9118800E+02  0.7818608E-02  0.1130116E+00
         25   -1    0    0    0    0  0.00000000000E+00  0.00000000000E+00  0.99999998245E-14  0.12500000000E+03  0.12500000000E+03 0.  0.
        -11    1    1    0    0    0  0.59308751061E+01 -0.20016107049E+02 -0.61036921738E+01  0.21750284580E+02  0.51100000000E-03 0.  1.
         11    1    1    0    0    0  0.11107199605E+02 -0.37468341709E+02 -0.11545348911E+02  0.40749743499E+02  0.51100000000E-03 0. -1.
         22    1    1    0    0    0 -0.17038074711E+02  0.57484448758E+02  0.17649041085E+02  0.62499971921E+02  0.00000000000E+00 0.  1.
</event>
<event>
 4    1  0.1974401E-002  0.9118800E+02  0.7818608E-02  0.1130116E+00
         25   -1    0    0    0    0  0.00000000000E+00  0.00000000000E+00  0.99999998245E-14  0.12500000000E+03  0.12500000000E+03 0.  0.
        -11    1    1    0    0    0 -0.12800303663E+02 -0.12001347847E+02 -0.58924284410E+02  0.61481309497E+02  0.51100000000E-03 0.  1.
         11    1    1    0    0    0 -0.34144478961E+00  0.56574219671E-01 -0.97901238838E+00  0.10383885132E+01  0.51100000000E-03 0. -1.
         22    1    1    0    0    0  0.13141748453E+02  0.11944773628E+02  0.59903296798E+02  0.62480301990E+02  0.00000000000E+00 0.  1.
</event>
<event>
 4    1  0.1974401E-002  0.9118800E+02  0.7818608E-02  0.1130116E+00
         25   -1    0    0    0    0  0.00000000000E+00  0.00000000000E+00  0.99999998245E-14  0.12500000000E+03  0.12500000000E+03 0.  0.
        -11    1    1    0    0    0 -0.61046137362E+01 -0.74589495376E+01  0.20754618400E+01  0.98595019744E+01  0.51100000000E-03 0. -1.
         11    1    1    0    0    0 -0.31877590026E+02 -0.40580608326E+02  0.10400843459E+02  0.52641657106E+02  0.51100000000E-03 0.  1.
         22    1    1    0    0    0  0.37982203762E+02  0.48039557863E+02 -0.12476305299E+02  0.62498840919E+02  0.00000000000E+00 0.  1.
</event>
<event>
 4    1  0.1974401E-002  0.9118800E+02  0.7818608E-02  0.1130116E+00
         25   -1    0    0    0    0  0.00000000000E+00  0.00000000000E+00  0.99999998245E-14  0.12500000000E+03  0.12500000000E+03 0.  0.
        -11    1    1    0    0    0 -0.26099542804E+01  0.16287946742E+01  0.18892275942E+01  0.36102651704E+01  0.51100000000E-03 0. -1.
         11    1    1    0    0    0 -0.42548055172E+02  0.26555018651E+02  0.30862516744E+02  0.58889735562E+02  0.51100000000E-03 0.  1.
         22    1    1    0    0    0  0.45158009453E+02 -0.28183813325E+02 -0.32751744338E+02  0.62499999268E+02  0.00000000000E+00 0.  1.
</event>
<event>
 4    1  0.1974401E-002  0.9118800E+02  0.7818608E-02  0.1130116E+00
         25   -1    0    0    0    0  0.00000000000E+00  0.00000000000E+00  0.99999998245E-14  0.12500000000E+03  0.12500000000E+03 0.  0.
        -11    1    1    0    0    0  0.67646779612E+01 -0.10746331019E+02  0.14476699277E+02  0.19256669507E+02  0.51100000000E-03 0.  1.
         11    1    1    0    0    0  0.26252862663E+02 -0.23015040772E+02  0.26013421255E+02  0.43538523004E+02  0.51100000000E-03 0. -1.
         22    1    1    0    0    0 -0.33017540624E+02  0.33761371790E+02 -0.40490120532E+02  0.62204807489E+02  0.00000000000E+00 0. -1.
</event>
<event>
 4    1  0.1974401E-002  0.9118800E+02  0.7818608E-02  0.1130116E+00
         25   -1    0    0    0    0  0.00000000000E+00  0.00000000000E+00  0.99999998245E-14  0.12500000000E+03  0.12500000000E+03 0.  0.
        -11    1    1    0    0    0 -0.40747991266E+02 -0.17515825691E+01 -0.12910281126E+02  0.42780161205E+02  0.51100000000E-03 0. -1.
         11    1    1    0    0    0 -0.19022511040E+02  0.10101004278E+01 -0.52274221995E+01  0.19753535690E+02  0.51100000000E-03 0.  1.
         22    1    1    0    0    0  0.59770502306E+02  0.74148214123E+00  0.18137703326E+02  0.62466303105E+02  0.00000000000E+00 0. -1.
</event>
<event>
 4    1  0.1974401E-002  0.9118800E+02  0.7818608E-02  0.1130116E+00
         25   -1    0    0    0    0  0.00000000000E+00  0.00000000000E+00  0.99999998245E-14  0.12500000000E+03  0.12500000000E+03 0.  0.
        -11    1    1    0    0    0 -0.14081019858E+02  0.14925969148E+02  0.12440951309E+02  0.23996602780E+02  0.51100000000E-03 0. -1.
         11    1    1    0    0    0 -0.22231009870E+02  0.23951221220E+02  0.20363915243E+02  0.38504127598E+02  0.51100000000E-03 0.  1.
         22    1    1    0    0    0  0.36312029728E+02 -0.38877190368E+02 -0.32804866552E+02  0.62499269623E+02  0.00000000000E+00 0.  1.
</event>
<event>
 4    1  0.1974401E-002  0.9118800E+02  0.7818608E-02  0.1130116E+00
         25   -1    0    0    0    0  0.00000000000E+00  0.00000000000E+00  0.99999998245E-14  0.12500000000E+03  0.12500000000E+03 0.  0.
        -11    1    1    0    0    0 -0.76352195870E+01  0.75715860575E+01 -0.37030918609E+01  0.11372703424E+02  0.51100000000E-03 0.  1.
         11    1    1    0    0    0 -0.34413758883E+02  0.33965113075E+02 -0.16615235696E+02  0.51127309377E+02  0.51100000000E-03 0. -1.
         22    1    1    0    0    0  0.42048978470E+02 -0.41536699133E+02  0.20318327557E+02  0.62499987199E+02  0.00000000000E+00 0. -1.
</event>
<event>
 4    1  0.1974401E-002  0.9118800E+02  0.7818608E-02  0.1130116E+00
         25   -1    0    0    0    0  0.00000000000E+00  0.00000000000E+00  0.99999998245E-14  0.12500000000E+03  0.12500000000E+03 0.  0.
        -11    1    1    0    0    0  0.14030753203E+00  0.35112570933E+01  0.99875649275E+01  0.10587731864E+02  0.51100000000E-03 0.  1.
         11    1    1    0    0    0  0.89890568093E-01  0.17529271714E+02  0.48863480258E+02  0.51912649232E+02  0.51100000000E-03 0. -1.
         22    1    1    0    0    0 -0.23019810013E+00 -0.21040528807E+02 -0.58851045186E+02  0.62499618904E+02  0.00000000000E+00 0. -1.
</event>
<event>
 4    1  0.1974401E-002  0.9118800E+02  0.7818608E-02  0.1130116E+00
         25   -1    0    0    0    0  0.00000000000E+00  0.00000000000E+00  0.99999998245E-14  0.12500000000E+03  0.12500000000E+03 0.  0.
        -11    1    1    0    0    0 -0.16777230293E+02 -0.17256244932E+02 -0.14338960073E+02  0.28015339044E+02  0.51100000000E-03 0.  1.
         11    1    1    0    0    0 -0.77202834425E+01 -0.22912269572E+02 -0.25641330278E+02  0.35242767940E+02  0.51100000000E-03 0. -1.
         22    1    1    0    0    0  0.24497513736E+02  0.40168514504E+02  0.39980290352E+02  0.61741893017E+02  0.00000000000E+00 0.  1.
</event>
<event>
 4    1  0.1974401E-002  0.9118800E+02  0.7818608E-02  0.1130116E+00
         25   -1    0    0    0    0  0.00000000000E+00  0.00000000000E+00  0.99999998245E-14  0.12500000000E+03  0.12500000000E+03 0.  0.
        -11    1    1    0    0    0  0.25127918780E+01 -0.96267212879E+00  0.57134531380E+01  0.63154103328E+01  0.51100000000E-03 0.  1.
         11    1    1    0    0    0  0.32811057800E+02 -0.27574399697E+02  0.36791557899E+02  0.56484792338E+02  0.51100000000E-03 0. -1.
         22    1    1    0    0    0 -0.35323849678E+02  0.28537071826E+02 -0.42505011037E+02  0.62199797329E+02  0.00000000000E+00 0. -1.
</event>
<event>
 4    1  0.1974401E-002  0.9118800E+02  0.7818608E-02  0.1130116E+00
         25   -1    0    0    0    0  0.00000000000E+00  0.00000000000E+00  0.99999998245E-14  0.12500000000E+03  0.12500000000E+03 0.  0.
        -11    1    1    0    0    0  0.33135028892E+00  0.87442736759E+00  0.17753938206E+01  0.20065990418E+01  0.51100000000E-03 0. -1.
         11    1    1    0    0    0  0.90432796348E+01  0.27079144904E+02  0.53333045861E+02  0.60493592854E+02  0.51100000000E-03 0.  1.
         22    1    1    0    0    0 -0.93746299237E+01 -0.27953572272E+02 -0.55108439681E+02  0.62499808104E+02  0.00000000000E+00 0.  1.
</event>
<event>
 4    1  0.1974401E-002  0.9118800E+02  0.7818608E-02  0.1130116E+00
         25   -1    0    0    0    0  0.00000000000E+00  0.00000000000E+00  0.99999998245E-14  0.12500000000E+03  0.12500000000E+03 0.  0.
        -11    1    1    0    0    0 -0.39144654623E+01  0.42790012722E+00  0.12103921216E+01  0.41196101422E+01  0.51100000000E-03 0. -1.
         11    1    1    0    0    0 -0.55470764443E+02  0.60738717479E+01  0.17157281251E+02  0.58380389910E+02  0.51100000000E-03 0. -1.
         22    1    1    0    0    0  0.59385229905E+02 -0.65017718752E+01 -0.18367673373E+02  0.62499999948E+02  0.00000000000E+00 0. -1.
</event>
<event>
 4    1  0.1974401E-002  0.9118800E+02  0.7818608E-02  0.1130116E+00
         25   -1    0    0    0    0  0.00000000000E+00  0.00000000000E+00  0.99999998245E-14  0.12500000000E+03  0.12500000000E+03 0.  0.
        -11    1    1    0    0    0  0.24922986464E+01 -0.18766066975E+02 -0.13680213539E+02  0.23356478009E+02  0.51100000000E-03 0.  1.
         11    1    1    0    0    0  0.41568498529E+01 -0.31430329916E+02 -0.22958018328E+02  0.39143526223E+02  0.51100000000E-03 0. -1.
         22    1    1    0    0    0 -0.66491484993E+01  0.50196396892E+02  0.36638231867E+02  0.62499995768E+02  0.00000000000E+00 0.  1.
</event>
<event>
 4    1  0.1974401E-002  0.9118800E+02  0.7818608E-02  0.1130116E+00
         25   -1    0    0    0    0  0.00000000000E+00  0.00000000000E+00  0.99999998245E-14  0.12500000000E+03  0.12500000000E+03 0.  0.
        -11    1    1    0    0    0  0.40241529579E+02  0.44948290455E+01 -0.40696003255E+01  0.40695771747E+02  0.51100000000E-03 0. -1.
         11    1    1    0    0    0  0.17103484764E+02 -0.10789759107E+02  0.15517292384E+02  0.25489889287E+02  0.51100000000E-03 0.  1.
         22    1    1    0    0    0 -0.57345014343E+02  0.62949300617E+01 -0.11447692059E+02  0.58814338966E+02  0.00000000000E+00 0. -1.
</event>
<event>
 4    1  0.1974401E-002  0.9118800E+02  0.7818608E-02  0.1130116E+00
         25   -1    0    0    0    0  0.00000000000E+00  0.00000000000E+00  0.99999998245E-14  0.12500000000E+03  0.12500000000E+03 0.  0.
        -11    1    1    0    0    0 -0.65767673003E+01  0.28901438945E+02  0.39721240180E+02  0.49561315186E+02  0.51100000000E-03 0. -1.
         11    1    1    0    0    0 -0.19424788321E+01  0.68149923686E+01  0.10840277297E+02  0.12951021471E+02  0.51100000000E-03 0.  1.
         22    1    1    0    0    0  0.85192461324E+01 -0.35716431314E+02 -0.50561517478E+02  0.62487663343E+02  0.00000000000E+00 0. -1.
</event>
<event>
 4    1  0.1974401E-002  0.9118800E+02  0.7818608E-02  0.1130116E+00
         25   -1    0    0    0    0  0.00000000000E+00  0.00000000000E+00  0.99999998245E-14  0.12500000000E+03  0.12500000000E+03 0.  0.
        -11    1    1    0    0    0  0.27639282572E+02  0.18393182909E+02 -0.61035546189E+01  0.33756369738E+02  0.51100000000E-03 0.  1.
         11    1    1    0    0    0  0.23534809411E+02  0.15662049901E+02 -0.51970394956E+01  0.28743630267E+02  0.51100000000E-03 0.  1.
         22    1    1    0    0    0 -0.51174091983E+02 -0.34055232810E+02  0.11300594115E+02  0.62499999995E+02  0.00000000000E+00 0.  1.
</event>
<event>
 4    1  0.1974401E-002  0.9118800E+02  0.7818608E-02  0.1130116E+00
         25   -1    0    0    0    0  0.00000000000E+00  0.00000000000E+00  0.99999998245E-14  0.12500000000E+03  0.12500000000E+03 0.  0.
        -11    1    1    0    0    0  0.25106714675E+01  0.10905077295E+01 -0.13518440507E+01  0.30528938606E+01  0.51100000000E-03 0. -1.
         11    1    1    0    0    0  0.48985789315E+02  0.20567883102E+02 -0.26670716062E+02  0.59447224205E+02  0.51100000000E-03 0.  1.
         22    1    1    0    0    0 -0.51496460783E+02 -0.21658390832E+02  0.28022560113E+02  0.62499881935E+02  0.00000000000E+00 0.  1.
</event>
<event>
 4    1  0.1974401E-002  0.9118800E+02  0.7818608E-02  0.1130116E+00
         25   -1    0    0    0    0  0.00000000000E+00  0.00000000000E+00  0.99999998245E-14  0.12500000000E+03  0.12500000000E+03 0.  0.
        -11    1    1    0    0    0  0.26185900164E+01 -0.43524481974E+01 -0.65790620280E+00  0.51218804962E+01  0.51100000000E-03 0. -1.
         11    1    1    0    0    0 -0.22041878437E+02 -0.47989571523E+02 -0.25007939632E+02  0.58431501990E+02  0.51100000000E-03 0.  1.
         22    1    1    0    0    0  0.19423288421E+02  0.52342019720E+02  0.25665845834E+02  0.61446617513E+02  0.00000000000E+00 0.  1.
</event>
<event>
 4    1  0.1974401E-002  0.9118800E+02  0.7818608E-02  0.1130116E+00
         25   -1    0    0    0    0  0.00000000000E+00  0.00000000000E+00  0.99999998245E-14  0.12500000000E+03  0.12500000000E+03 0.  0.
        -11    1    1    0    0    0  0.16910979256E+02  0.12676635160E+02  0.23385492308E+02  0.31520779640E+02  0.51100000000E-03 0.  1.
         11    1    1    0    0    0  0.15372776428E+02  0.79439625002E+01  0.25843561084E+02  0.31101743441E+02  0.51100000000E-03 0. -1.
         22    1    1    0    0    0 -0.32283755684E+02 -0.20620597660E+02 -0.49229053392E+02  0.62377476919E+02  0.00000000000E+00 0. -1.
</event>
<event>
 4    1  0.1974401E-002  0.9118800E+02  0.7818608E-02  0.1130116E+00
         25   -1    0    0    0    0  0.00000000000E+00  0.00000000000E+00  0.99999998245E-14  0.12500000000E+03  0.12500000000E+03 0.  0.
        -11    1    1    0    0    0  0.12044259567E+01  0.18925759451E+00 -0.66266466866E+00  0.13876545127E+01  0.51100000000E-03 0.  1.
         11    1    1    0    0    0  0.51867145911E+02  0.84211984577E+01 -0.31203558880E+02  0.61112842312E+02  0.51100000000E-03 0. -1.
         22    1    1    0    0    0 -0.53071571867E+02 -0.86104560522E+01  0.31866223549E+02  0.62499503175E+02  0.00000000000E+00 0. -1.
</event>
<event>
 4    1  0.1974401E-002  0.9118800E+02  0.7818608E-02  0.1130116E+00
         25   -1    0    0    0    0  0.00000000000E+00  0.00000000000E+00  0.99999998245E-14  0.12500000000E+03  0.12500000000E+03 0.  0.
        -11    1    1    0    0    0  0.27123597680E+02  0.15200157551E+02  0.22344323338E+02  0.38288420265E+02  0.51100000000E-03 0.  1.
         11    1    1    0    0    0  0.17147729588E+02  0.96138234668E+01  0.14132599564E+02  0.24211579923E+02  0.51100000000E-03 0. -1.
         22    1    1    0    0    0 -0.44271327268E+02 -0.24813981018E+02 -0.36476922902E+02  0.62499999812E+02  0.00000000000E+00 0.  1.
</event>
<event>
 4    1  0.1974401E-002  0.9118800E+02  0.7818608E-02  0.1130116E+00
         25   -1    0    0    0    0  0.00000000000E+00  0.00000000000E+00  0.99999998245E-14  0.12500000000E+03  0.12500000000E+03 0.  0.
        -11    1    1    0    0    0 -0.21305783901E+01  0.11483952361E+01 -0.98984111827E+01  0.10190030427E+02  0.51100000000E-03 0.  1.
         11    1    1    0    0    0 -0.10931253583E+02  0.59197111586E+01 -0.50811393252E+02  0.52309970078E+02  0.51100000000E-03 0. -1.
         22    1    1    0    0    0  0.13061831973E+02 -0.70681063947E+01  0.60709804434E+02  0.62499999496E+02  0.00000000000E+00 0. -1.
</event>
<event>
 4    1  0.1974401E-002  0.9118800E+02  0.7818608E-02  0.1130116E+00
         25   -1    0    0    0    0  0.00000000000E+00  0.00000000000E+00  0.99999998245E-14  0.12500000000E+03  0.12500000000E+03 0.  0.
        -11    1    1    0    0    0 -0.85855403967E+01  0.12814510052E+02 -0.27318595892E+01  0.15664808612E+02  0.51100000000E-03 0.  1.
         11    1    1    0    0    0 -0.25540462560E+02  0.38514767270E+02 -0.76078310867E+01  0.46835687459E+02  0.51100000000E-03 0. -1.
         22    1    1    0    0    0  0.34126002956E+02 -0.51329277322E+02  0.10339690676E+02  0.62499503929E+02  0.00000000000E+00 0. -1.
</event>
<event>
 4    1  0.1974401E-002  0.9118800E+02  0.7818608E-02  0.1130116E+00
         25   -1    0    0    0    0  0.00000000000E+00  0.00000000000E+00  0.99999998245E-14  0.12500000000E+03  0.12500000000E+03 0.  0.
        -11    1    1    0    0    0 -0.40031102000E+00  0.53384262025E+01 -0.11724960242E+01  0.54803093361E+01  0.51100000000E-03 0. -1.
         11    1    1    0    0    0 -0.42186271956E+01  0.55560350257E+02 -0.12103566742E+02  0.57019695407E+02  0.51100000000E-03 0.  1.
         22    1    1    0    0    0  0.46189382156E+01 -0.60898776460E+02  0.13276062766E+02  0.62499995257E+02  0.00000000000E+00 0.  1.
</event>
<event>
 4    1  0.1974401E-002  0.9118800E+02  0.7818608E-02  0.1130116E+00
         25   -1    0    0    0    0  0.00000000000E+00  0.00000000000E+00  0.99999998245E-14  0.12500000000E+03  0.12500000000E+03 0.  0.
        -11    1    1    0    0    0  0.79819237046E+00 -0.48374106623E+00 -0.73317940901E+00  0.11868735343E+01  0.51100000000E-03 0. -1.
         11    1    1    0    0    0  0.23717331032E+02  0.54623005232E+01 -0.56408735555E+02  0.61435282741E+02  0.51100000000E-03 0.  1.
         22    1    1    0    0    0 -0.24515523403E+02 -0.49785594570E+01  0.57141914964E+02  0.62377843725E+02  0.00000000000E+00 0.  1.
</event>
<event>
 4    1  0.1974401E-002  0.9118800E+02  0.7818608E-02  0.1130116E+00
         25   -1    0    0    0    0  0.00000000000E+00  0.00000000000E+00  0.99999998245E-14  0.12500000000E+03  0.12500000000E+03 0.  0.
        -11    1    1    0    0    0 -0.50551260102E+02 -0.20969754241E+02  0.20807619826E+02  0.58550128385E+02  0.51100000000E-03 0.  1.
         11    1    1    0    0    0 -0.32101790469E+01 -0.17137964825E+01  0.15592233653E+01  0.39589803814E+01  0.51100000000E-03 0. -1.
         22    1    1    0    0    0  0.53761439149E+02  0.22683550723E+02 -0.22366843192E+02  0.62490891233E+02  0.00000000000E+00 0.  1.
</event>
<event>
 4    1  0.1974401E-002  0.9118800E+02  0.7818608E-02  0.1130116E+00
         25   -1    0    0    0    0  0.00000000000E+00  0.00000000000E+00  0.99999998245E-14  0.12500000000E+03  0.12500000000E+03 0.  0.
        -11    1    1    0    0    0 -0.15397845330E+01 -0.36779945463E+02  0.18841562965E+02  0.41353836822E+02  0.51100000000E-03 0.  1.
         11    1    1    0    0    0  0.20428338777E+02 -0.95068772991E+01  0.11365451894E+02  0.25236307935E+02  0.51100000000E-03 0. -1.
         22    1    1    0    0    0 -0.18888554244E+02  0.46286822762E+02 -0.30207014858E+02  0.58409855243E+02  0.00000000000E+00 0.  1.
</event>
<event>
 4    1  0.1974401E-002  0.9118800E+02  0.7818608E-02  0.1130116E+00
         25   -1    0    0    0    0  0.00000000000E+00  0.00000000000E+00  0.99999998245E-14  0.12500000000E+03  0.12500000000E+03 0.  0.
        -11    1    1    0    0    0  0.15210766638E+02 -0.49185378582E+02  0.14198718341E+02  0.53405734625E+02  0.51100000000E-03 0.  1.
         11    1    1    0    0    0  0.25901440983E+01 -0.83741015031E+01  0.24230668114E+01  0.90942660764E+01  0.51100000000E-03 0. -1.
         22    1    1    0    0    0 -0.17800910736E+02  0.57559480085E+02 -0.16621785153E+02  0.62499999299E+02  0.00000000000E+00 0.  1.
</event>
<event>
 4    1  0.1974401E-002  0.9118800E+02  0.7818608E-02  0.1130116E+00
         25   -1    0    0    0    0  0.00000000000E+00  0.00000000000E+00  0.99999998245E-14  0.12500000000E+03  0.12500000000E+03 0.  0.
        -11    1    1    0    0    0  0.67101830311E+01  0.16301128562E+01  0.88990312138E+01  0.11263950508E+02  0.51100000000E-03 0.  1.
         11    1    1    0    0    0  0.32717316939E+02  0.11197554468E+02  0.37837512476E+02  0.51259003155E+02  0.51100000000E-03 0. -1.
         22    1    1    0    0    0 -0.39427499971E+02 -0.12827667324E+02 -0.46736543690E+02  0.62477046337E+02  0.00000000000E+00 0. -1.
</event>
<event>
 4    1  0.1974401E-002  0.9118800E+02  0.7818608E-02  0.1130116E+00
         25   -1    0    0    0    0  0.00000000000E+00  0.00000000000E+00  0.99999998245E-14  0.12500000000E+03  0.12500000000E+03 0.  0.
        -11    1    1    0    0    0 -0.90574277524E+01  0.32771605499E+02  0.44210657179E+02  0.55772729294E+02  0.51100000000E-03 0. -1.
         11    1    1    0    0    0  0.77018904868E+01  0.60309514643E+01  0.76379471581E+00  0.98119761141E+01  0.51100000000E-03 0.  1.
         22    1    1    0    0    0  0.13555372656E+01 -0.38802556963E+02 -0.44974451895E+02  0.59415294592E+02  0.00000000000E+00 0. -1.
</event>
<event>
 4    1  0.1974401E-002  0.9118800E+02  0.7818608E-02  0.1130116E+00
         25   -1    0    0    0    0  0.00000000000E+00  0.00000000000E+00  0.99999998245E-14  0.12500000000E+03  0.12500000000E+03 0.  0.
        -11    1    1    0    0    0  0.57101333869E+01  0.13442095066E+02  0.47243597547E+01  0.15349759556E+02  0.51100000000E-03 0. -1.
         11    1    1    0    0    0  0.17758176890E+02  0.41111228399E+02  0.14753853890E+02  0.47150420484E+02  0.51100000000E-03 0.  1.
         22    1    1    0    0    0 -0.23468310277E+02 -0.54553323465E+02 -0.19478213645E+02  0.62499819961E+02  0.00000000000E+00 0.  1.
</event>
<event>
 4    1  0.1974401E-002  0.9118800E+02  0.7818608E-02  0.1130116E+00
         25   -1    0    0    0    0  0.00000000000E+00  0.00000000000E+00  0.99999998245E-14  0.12500000000E+03  0.12500000000E+03 0.  0.
        -11    1    1    0    0    0 -0.89422664275E+01 -0.10328228666E+02  0.87202776053E+01  0.16207395781E+02  0.51100000000E-03 0. -1.
         11    1    1    0    0    0 -0.25541283809E+02 -0.29502386684E+02  0.24904963529E+02  0.46292604240E+02  0.51100000000E-03 0.  1.
         22    1    1    0    0    0  0.34483550237E+02  0.39830615349E+02 -0.33625241134E+02  0.62499999979E+02  0.00000000000E+00 0.  1.
</event>
<event>
 4    1  0.1974401E-002  0.9118800E+02  0.7818608E-02  0.1130116E+00
         25   -1    0    0    0    0  0.00000000000E+00  0.00000000000E+00  0.99999998245E-14  0.12500000000E+03  0.12500000000E+03 0.  0.
        -11    1    1    0    0    0  0.22026996254E+02 -0.91231803806E+01 -0.41749246487E+02  0.48077235431E+02  0.51100000000E-03 0.  1.
         11    1    1    0    0    0 -0.28081981139E+01 -0.20292170124E+01 -0.15306073227E+02  0.15693297175E+02  0.51100000000E-03 0. -1.
         22    1    1    0    0    0 -0.19218798140E+02  0.11152397393E+02  0.57055319714E+02  0.61229467393E+02  0.00000000000E+00 0.  1.
</event>
<event>
 4    1  0.1974401E-002  0.9118800E+02  0.7818608E-02  0.1130116E+00
         25   -1    0    0    0    0  0.00000000000E+00  0.00000000000E+00  0.99999998245E-14  0.12500000000E+03  0.12500000000E+03 0.  0.
        -11    1    1    0    0    0 -0.47089958417E+02  0.18633004772E+02  0.46048480869E+01  0.50851329153E+02  0.51100000000E-03 0. -1.
         11    1    1    0    0    0 -0.10846061555E+02  0.41604677072E+01  0.87429972317E+00  0.11649503984E+02  0.51100000000E-03 0.  1.
         22    1    1    0    0    0  0.57936019972E+02 -0.22793472479E+02 -0.54791478101E+01  0.62499166863E+02  0.00000000000E+00 0. -1.
</event>
<event>
 4    1  0.1974401E-002  0.9118800E+02  0.7818608E-02  0.1130116E+00
         25   -1    0    0    0    0  0.00000000000E+00  0.00000000000E+00  0.99999998245E-14  0.12500000000E+03  0.12500000000E+03 0.  0.
        -11    1    1    0    0    0  0.18814930649E+02 -0.21150747348E+02 -0.17523082006E+02  0.33292854068E+02  0.51100000000E-03 0.  1.
         11    1    1    0    0    0  0.15290887990E+02 -0.18791332942E+02 -0.16333586476E+02  0.29218341785E+02  0.51100000000E-03 0. -1.
         22    1    1    0    0    0 -0.34105818639E+02  0.39942080290E+02  0.33856668482E+02  0.62488804147E+02  0.00000000000E+00 0.  1.
</event>
<event>
 4    1  0.1974401E-002  0.9118800E+02  0.7818608E-02  0.1130116E+00
         25   -1    0    0    0    0  0.00000000000E+00  0.00000000000E+00  0.99999998245E-14  0.12500000000E+03  0.12500000000E+03 0.  0.
        -11    1    1    0    0    0 -0.89286646025E+01 -0.12315000114E+02  0.92692907877E+01  0.17812917542E+02  0.51100000000E-03 0. -1.
         11    1    1    0    0    0 -0.22395868241E+02 -0.30888605465E+02  0.23264876985E+02  0.44687082734E+02  0.51100000000E-03 0. -1.
         22    1    1    0    0    0  0.31324532844E+02  0.43203605579E+02 -0.32534167773E+02  0.62499999724E+02  0.00000000000E+00 0. -1.
</event>
<event>
 4    1  0.1974401E-002  0.9118800E+02  0.7818608E-02  0.1130116E+00
         25   -1    0    0    0    0  0.00000000000E+00  0.00000000000E+00  0.99999998245E-14  0.12500000000E+03  0.12500000000E+03 0.  0.
        -11    1    1    0    0    0  0.19956188095E+01  0.27456325405E+01  0.27871866788E+02  0.28077783940E+02  0.51100000000E-03 0.  1.
         11    1    1    0    0    0  0.25536625246E+00  0.57168645397E+01  0.33977495850E+02  0.34456029612E+02  0.51100000000E-03 0. -1.
         22    1    1    0    0    0 -0.22509850620E+01 -0.84624970802E+01 -0.61849362638E+02  0.62466186448E+02  0.00000000000E+00 0.  1.
</event>
<event>
 4    1  0.1974401E-002  0.9118800E+02  0.7818608E-02  0.1130116E+00
         25   -1    0    0    0    0  0.00000000000E+00  0.00000000000E+00  0.99999998245E-14  0.12500000000E+03  0.12500000000E+03 0.  0.
        -11    1    1    0    0    0 -0.17967420372E+02 -0.72816244172E+01 -0.21208054263E+02  0.28733809613E+02  0.51100000000E-03 0. -1.
         11    1    1    0    0    0 -0.21452092869E+02 -0.80562095862E+01 -0.24802177517E+02  0.33767481564E+02  0.51100000000E-03 0.  1.
         22    1    1    0    0    0  0.39419513241E+02  0.15337834003E+02  0.46010231780E+02  0.62498708823E+02  0.00000000000E+00 0.  1.
</event>
<event>
 4    1  0.1974401E-002  0.9118800E+02  0.7818608E-02  0.1130116E+00
         25   -1    0    0    0    0  0.00000000000E+00  0.00000000000E+00  0.99999998245E-14  0.12500000000E+03  0.12500000000E+03 0.  0.
        -11    1    1    0    0    0  0.11339555855E+02 -0.18327352087E+02 -0.11861460630E+02  0.24600235976E+02  0.51100000000E-03 0. -1.
         11    1    1    0    0    0  0.16153295714E+02 -0.28796418676E+02 -0.18618698251E+02  0.37905390327E+02  0.51100000000E-03 0.  1.
         22    1    1    0    0    0 -0.27492851570E+02  0.47123770764E+02  0.30480158881E+02  0.62494373697E+02  0.00000000000E+00 0. -1.
</event>
<event>
 4    1  0.1974401E-002  0.9118800E+02  0.7818608E-02  0.1130116E+00
         25   -1    0    0    0    0  0.00000000000E+00  0.00000000000E+00  0.99999998245E-14  0.12500000000E+03  0.12500000000E+03 0.  0.
        -11    1    1    0    0    0 -0.29110723071E+01 -0.18796245643E+01 -0.53491074441E+01  0.63734042073E+01  0.51100000000E-03 0. -1.
         11    1    1    0    0    0 -0.24344485237E+02  0.13142883862E+02 -0.49297582280E+02  0.56530000678E+02  0.51100000000E-03 0.  1.
         22    1    1    0    0    0  0.27255557544E+02 -0.11263259298E+02  0.54646689724E+02  0.62096595115E+02  0.00000000000E+00 0.  1.
</event>
<event>
 4    1  0.1974401E-002  0.9118800E+02  0.7818608E-02  0.1130116E+00
         25   -1    0    0    0    0  0.00000000000E+00  0.00000000000E+00  0.99999998245E-14  0.12500000000E+03  0.12500000000E+03 0.  0.
        -11    1    1    0    0    0  0.28145052100E+02 -0.75265438306E+01 -0.19077519511E+02  0.34824482346E+02  0.51100000000E-03 0.  1.
         11    1    1    0    0    0  0.22145212989E+02 -0.69135231591E+01 -0.15099134894E+02  0.27680157796E+02  0.51100000000E-03 0. -1.
         22    1    1    0    0    0 -0.50290265089E+02  0.14440066990E+02  0.34176654405E+02  0.62495359858E+02  0.00000000000E+00 0.  1.
</event>
<event>
 4    1  0.1974401E-002  0.9118800E+02  0.7818608E-02  0.1130116E+00
         25   -1    0    0    0    0  0.00000000000E+00  0.00000000000E+00  0.99999998245E-14  0.12500000000E+03  0.12500000000E+03 0.  0.
        -11    1    1    0    0    0 -0.91594202881E+01  0.11856739119E+02  0.54213848724E+02  0.56246054406E+02  0.51100000000E-03 0.  1.
         11    1    1    0    0    0 -0.11635065045E+01  0.13708169714E+01  0.59908496835E+01  0.62548514568E+01  0.51100000000E-03 0. -1.
         22    1    1    0    0    0  0.10322926793E+02 -0.13227556090E+02 -0.60204698407E+02  0.62499094137E+02  0.00000000000E+00 0.  1.
</event>
<event>
 4    1  0.1974401E-002  0.9118800E+02  0.7818608E-02  0.1130116E+00
         25   -1    0    0    0    0  0.00000000000E+00  0.00000000000E+00  0.99999998245E-14  0.12500000000E+03  0.12500000000E+03 0.  0.
        -11    1    1    0    0    0  0.16459227891E+02 -0.11339608851E+02 -0.11069053598E+02  0.22847688275E+02  0.51100000000E-03 0.  1.
         11    1    1    0    0    0  0.28578388916E+02 -0.19710456588E+02 -0.19159334343E+02  0.39652320294E+02  0.51100000000E-03 0. -1.
         22    1    1    0    0    0 -0.45037616807E+02  0.31050065440E+02  0.30228387941E+02  0.62499991432E+02  0.00000000000E+00 0.  1.
</event>
<event>
 4    1  0.1974401E-002  0.9118800E+02  0.7818608E-02  0.1130116E+00
         25   -1    0    0    0    0  0.00000000000E+00  0.00000000000E+00  0.99999998245E-14  0.12500000000E+03  0.12500000000E+03 0.  0.
        -11    1    1    0    0    0 -0.57177914959E+02 -0.18024520709E+02  0.13316678489E+02  0.61412793717E+02  0.51100000000E-03 0.  1.
         11    1    1    0    0    0 -0.88670260534E+00 -0.35534021968E+00  0.58023440668E+00  0.11176673968E+01  0.51100000000E-03 0. -1.
         22    1    1    0    0    0  0.58064617564E+02  0.18379860929E+02 -0.13896912895E+02  0.62469538886E+02  0.00000000000E+00 0.  1.
</event>
<event>
 4    1  0.1974401E-002  0.9118800E+02  0.7818608E-02  0.1130116E+00
         25   -1    0    0    0    0  0.00000000000E+00  0.00000000000E+00  0.99999998245E-14  0.12500000000E+03  0.12500000000E+03 0.  0.
        -11    1    1    0    0    0 -0.12317068315E+01  0.12616580375E+01  0.69432042627E+00  0.18949838622E+01  0.51100000000E-03 0. -1.
         11    1    1    0    0    0 -0.39409838949E+02  0.40345844898E+02  0.22182096202E+02  0.60605016284E+02  0.51100000000E-03 0. -1.
         22    1    1    0    0    0  0.40641545781E+02 -0.41607502936E+02 -0.22876416629E+02  0.62499999854E+02  0.00000000000E+00 0. -1.
</event>
<event>
 4    1  0.1974401E-002  0.9118800E+02  0.7818608E-02  0.1130116E+00
         25   -1    0    0    0    0  0.00000000000E+00  0.00000000000E+00  0.99999998245E-14  0.12500000000E+03  0.12500000000E+03 0.  0.
        -11    1    1    0    0    0 -0.11733170319E+02 -0.34745951935E+01  0.50668847508E+01  0.13244373100E+02  0.51100000000E-03 0. -1.
         11    1    1    0    0    0 -0.11531644124E+02 -0.33430406025E+01  0.50088501147E+02  0.51507404167E+02  0.51100000000E-03 0.  1.
         22    1    1    0    0    0  0.23264814442E+02  0.68176357960E+01 -0.55155385898E+02  0.60248222732E+02  0.00000000000E+00 0.  1.
</event>
<event>
 4    1  0.1974401E-002  0.9118800E+02  0.7818608E-02  0.1130116E+00
         25   -1    0    0    0    0  0.00000000000E+00  0.00000000000E+00  0.99999998245E-14  0.12500000000E+03  0.12500000000E+03 0.  0.
        -11    1    1    0    0    0  0.14469997368E+02  0.25059232538E+02 -0.21825433657E+01  0.29019122231E+02  0.51100000000E-03 0.  1.
         11    1    1    0    0    0  0.16723819056E+02  0.28901027779E+02 -0.24525229442E+01  0.33480896039E+02  0.51100000000E-03 0. -1.
         22    1    1    0    0    0 -0.31193816424E+02 -0.53960260317E+02  0.46350663099E+01  0.62499981730E+02  0.00000000000E+00 0.  1.
</event>
<event>
 4    1  0.1974401E-002  0.9118800E+02  0.7818608E-02  0.1130116E+00
         25   -1    0    0    0    0  0.00000000000E+00  0.00000000000E+00  0.99999998245E-14  0.12500000000E+03  0.12500000000E+03 0.  0.
        -11    1    1    0    0    0  0.27975449247E+01  0.56165072700E+02  0.18888691263E+01  0.56266415168E+02  0.51100000000E-03 0.  1.
         11    1    1    0    0    0  0.24114165902E+01  0.59185329657E+01 -0.59277671240E+00  0.64183601433E+01  0.51100000000E-03 0. -1.
         22    1    1    0    0    0 -0.52089615149E+01 -0.62083605666E+02 -0.12960924139E+01  0.62315224689E+02  0.00000000000E+00 0.  1.
</event>
<event>
 4    1  0.1974401E-002  0.9118800E+02  0.7818608E-02  0.1130116E+00
         25   -1    0    0    0    0  0.00000000000E+00  0.00000000000E+00  0.99999998245E-14  0.12500000000E+03  0.12500000000E+03 0.  0.
        -11    1    1    0    0    0  0.28596288250E+01  0.14122475481E+02 -0.12857845484E+02  0.19311809379E+02  0.51100000000E-03 0.  1.
         11    1    1    0    0    0  0.65930413433E+01  0.31570073457E+02 -0.28724350213E+02  0.43188262615E+02  0.51100000000E-03 0. -1.
         22    1    1    0    0    0 -0.94526701683E+01 -0.45692548939E+02  0.41582195697E+02  0.62499928006E+02  0.00000000000E+00 0. -1.
</event>
<event>
 4    1  0.1974401E-002  0.9118800E+02  0.7818608E-02  0.1130116E+00
         25   -1    0    0    0    0  0.00000000000E+00  0.00000000000E+00  0.99999998245E-14  0.12500000000E+03  0.12500000000E+03 0.  0.
        -11    1    1    0    0    0  0.24784450534E+02  0.46316663521E+02  0.48344076007E+00  0.52533189730E+02  0.51100000000E-03 0.  1.
         11    1    1    0    0    0  0.47031746292E+01  0.87868598947E+01  0.92461854752E-01  0.99668103151E+01  0.51100000000E-03 0. -1.
         22    1    1    0    0    0 -0.29487625163E+02 -0.55103523415E+02 -0.57590261483E+00  0.62499999955E+02  0.00000000000E+00 0.  1.
</event>
<event>
 4    1  0.1974401E-002  0.9118800E+02  0.7818608E-02  0.1130116E+00
         25   -1    0    0    0    0  0.00000000000E+00  0.00000000000E+00  0.99999998245E-14  0.12500000000E+03  0.12500000000E+03 0.  0.
        -11    1    1    0    0    0 -0.17407136938E+02 -0.14232090321E+02  0.14266730919E+02  0.26628939570E+02  0.51100000000E-03 0. -1.
         11    1    1    0    0    0 -0.23396650203E+02 -0.19291551185E+02  0.19161683400E+02  0.35871120680E+02  0.51100000000E-03 0.  1.
         22    1    1    0    0    0  0.40803787141E+02  0.33523641506E+02 -0.33428414319E+02  0.62499939750E+02  0.00000000000E+00 0. -1.
</event>
<event>
 4    1  0.1974401E-002  0.9118800E+02  0.7818608E-02  0.1130116E+00
         25   -1    0    0    0    0  0.00000000000E+00  0.00000000000E+00  0.99999998245E-14  0.12500000000E+03  0.12500000000E+03 0.  0.
        -11    1    1    0    0    0 -0.63294544933E+01  0.36604723825E+01 -0.33039748624E+01  0.80235467468E+01  0.51100000000E-03 0.  1.
         11    1    1    0    0    0 -0.33795164399E+02  0.12087329342E+02 -0.41457064199E+02  0.54835251798E+02  0.51100000000E-03 0. -1.
         22    1    1    0    0    0  0.40124618893E+02 -0.15747801725E+02  0.44761039062E+02  0.62141201456E+02  0.00000000000E+00 0. -1.
</event>
<event>
 4    1  0.1974401E-002  0.9118800E+02  0.7818608E-02  0.1130116E+00
         25   -1    0    0    0    0  0.00000000000E+00  0.00000000000E+00  0.99999998245E-14  0.12500000000E+03  0.12500000000E+03 0.  0.
        -11    1    1    0    0    0 -0.13207503728E+02  0.90390338582E+01  0.17964535791E+02  0.24059651583E+02  0.51100000000E-03 0.  1.
         11    1    1    0    0    0 -0.21098406658E+02  0.14440363362E+02  0.28705287553E+02  0.38440348480E+02  0.51100000000E-03 0. -1.
         22    1    1    0    0    0  0.34305910386E+02 -0.23479397220E+02 -0.46669823344E+02  0.62499999937E+02  0.00000000000E+00 0. -1.
</event>
<event>
 4    1  0.1974401E-002  0.9118800E+02  0.7818608E-02  0.1130116E+00
         25   -1    0    0    0    0  0.00000000000E+00  0.00000000000E+00  0.99999998245E-14  0.12500000000E+03  0.12500000000E+03 0.  0.
        -11    1    1    0    0    0  0.79444903860E+01 -0.10617653329E+02  0.48292353336E+00  0.13269615862E+02  0.51100000000E-03 0.  1.
         11    1    1    0    0    0  0.29293846769E+02 -0.39522791042E+02  0.18590353051E+01  0.49230442642E+02  0.51100000000E-03 0. -1.
         22    1    1    0    0    0 -0.37238337155E+02  0.50140444371E+02 -0.23419588384E+01  0.62499941496E+02  0.00000000000E+00 0. -1.
</event>
<event>
 4    1  0.1974401E-002  0.9118800E+02  0.7818608E-02  0.1130116E+00
         25   -1    0    0    0    0  0.00000000000E+00  0.00000000000E+00  0.99999998245E-14  0.12500000000E+03  0.12500000000E+03 0.  0.
        -11    1    1    0    0    0 -0.15794198755E+02  0.29280092021E+02 -0.41248797994E+00  0.33270867883E+02  0.51100000000E-03 0. -1.
         11    1    1    0    0    0 -0.13844214640E+02  0.25739706143E+02 -0.38454857376E+00  0.29229140070E+02  0.51100000000E-03 0.  1.
         22    1    1    0    0    0  0.29638413395E+02 -0.55019798165E+02  0.79703655370E+00  0.62499992047E+02  0.00000000000E+00 0. -1.
</event>
<event>
 4    1  0.1974401E-002  0.9118800E+02  0.7818608E-02  0.1130116E+00
         25   -1    0    0    0    0  0.00000000000E+00  0.00000000000E+00  0.99999998245E-14  0.12500000000E+03  0.12500000000E+03 0.  0.
        -11    1    1    0    0    0  0.47932009269E+02  0.36990841695E+02  0.19245371597E+01  0.60576428794E+02  0.51100000000E-03 0. -1.
         11    1    1    0    0    0  0.15216253855E+01  0.11749413454E+01  0.65612731112E-01  0.19235738277E+01  0.51100000000E-03 0.  1.
         22    1    1    0    0    0 -0.49453634655E+02 -0.38165783041E+02 -0.19901498908E+01  0.62499997378E+02  0.00000000000E+00 0. -1.
</event>
<event>
 4    1  0.1974401E-002  0.9118800E+02  0.7818608E-02  0.1130116E+00
         25   -1    0    0    0    0  0.00000000000E+00  0.00000000000E+00  0.99999998245E-14  0.12500000000E+03  0.12500000000E+03 0.  0.
        -11    1    1    0    0    0  0.26584946974E+02  0.33074093219E+02  0.14306596380E+02  0.44780952961E+02  0.51100000000E-03 0.  1.
         11    1    1    0    0    0  0.10552257182E+02  0.13053615107E+02  0.56761341912E+01  0.17719071607E+02  0.51100000000E-03 0. -1.
         22    1    1    0    0    0 -0.37137204155E+02 -0.46127708326E+02 -0.19982730571E+02  0.62499975432E+02  0.00000000000E+00 0.  1.
</event>
<event>
 4    1  0.1974401E-002  0.9118800E+02  0.7818608E-02  0.1130116E+00
         25   -1    0    0    0    0  0.00000000000E+00  0.00000000000E+00  0.99999998245E-14  0.12500000000E+03  0.12500000000E+03 0.  0.
        -11    1    1    0    0    0  0.25297900192E+02  0.50807025007E+02 -0.17884052240E+02  0.59507788305E+02  0.51100000000E-03 0.  1.
         11    1    1    0    0    0  0.22341967636E+01  0.36757392184E+00 -0.29860557940E+01  0.37474358210E+01  0.51100000000E-03 0. -1.
         22    1    1    0    0    0 -0.27532096955E+02 -0.51174598929E+02  0.20870108034E+02  0.61744775874E+02  0.00000000000E+00 0.  1.
</event>
<event>
 4    1  0.1974401E-002  0.9118800E+02  0.7818608E-02  0.1130116E+00
         25   -1    0    0    0    0  0.00000000000E+00  0.00000000000E+00  0.99999998245E-14  0.12500000000E+03  0.12500000000E+03 0.  0.
        -11    1    1    0    0    0  0.32307577975E+00  0.30655304323E+02 -0.52437455087E+02  0.60741573550E+02  0.51100000000E-03 0.  1.
         11    1    1    0    0    0 -0.12849894646E+00  0.98210671453E+00 -0.14582026495E+01  0.17627821210E+01  0.51100000000E-03 0. -1.
         22    1    1    0    0    0 -0.19457683328E+00 -0.31637411038E+02  0.53895657736E+02  0.62495644329E+02  0.00000000000E+00 0.  1.
</event>
<event>
 4    1  0.1974401E-002  0.9118800E+02  0.7818608E-02  0.1130116E+00
         25   -1    0    0    0    0  0.00000000000E+00  0.00000000000E+00  0.99999998245E-14  0.12500000000E+03  0.12500000000E+03 0.  0.
        -11    1    1    0    0    0  0.67259734083E+01  0.22334915126E+02 -0.34306672653E+01  0.23576611931E+02  0.51100000000E-03 0. -1.
         11    1    1    0    0    0  0.11047331284E+02  0.36909124438E+02 -0.55413734083E+01  0.38923435290E+02  0.51100000000E-03 0.  1.
         22    1    1    0    0    0 -0.17773304692E+02 -0.59244039564E+02  0.89720406736E+01  0.62499952779E+02  0.00000000000E+00 0.  1.
</event>
<event>
 4    1  0.1974401E-002  0.9118800E+02  0.7818608E-02  0.1130116E+00
         25   -1    0    0    0    0  0.00000000000E+00  0.00000000000E+00  0.99999998245E-14  0.12500000000E+03  0.12500000000E+03 0.  0.
        -11    1    1    0    0    0  0.24277125199E+02  0.23443526435E+02  0.16439576443E+02  0.37539811049E+02  0.51100000000E-03 0.  1.
         11    1    1    0    0    0  0.16144725168E+02  0.15587466328E+02  0.10926563171E+02  0.24960189107E+02  0.51100000000E-03 0. -1.
         22    1    1    0    0    0 -0.40421850367E+02 -0.39030992763E+02 -0.27366139614E+02  0.62499999844E+02  0.00000000000E+00 0.  1.
</event>
<event>
 4    1  0.1974401E-002  0.9118800E+02  0.7818608E-02  0.1130116E+00
         25   -1    0    0    0    0  0.00000000000E+00  0.00000000000E+00  0.99999998245E-14  0.12500000000E+03  0.12500000000E+03 0.  0.
        -11    1    1    0    0    0 -0.11516986209E+02 -0.50358499877E+02  0.28767612448E+02  0.59128631029E+02  0.51100000000E-03 0. -1.
         11    1    1    0    0    0 -0.65322152113E+00 -0.28705113668E+01  0.16430472797E+01  0.33713704168E+01  0.51100000000E-03 0.  1.
         22    1    1    0    0    0  0.12170207730E+02  0.53229011244E+02 -0.30410659728E+02  0.62499998554E+02  0.00000000000E+00 0. -1.
</event>
<event>
 4    1  0.1974401E-002  0.9118800E+02  0.7818608E-02  0.1130116E+00
         25   -1    0    0    0    0  0.00000000000E+00  0.00000000000E+00  0.99999998245E-14  0.12500000000E+03  0.12500000000E+03 0.  0.
        -11    1    1    0    0    0  0.61382025079E+00  0.10345380759E+01 -0.12251039494E+01  0.17169520315E+01  0.51100000000E-03 0. -1.
         11    1    1    0    0    0  0.21509859014E+02  0.36699903245E+02 -0.43416848879E+02  0.60783054381E+02  0.51100000000E-03 0.  1.
         22    1    1    0    0    0 -0.22123679265E+02 -0.37734441321E+02  0.44641952829E+02  0.62499993587E+02  0.00000000000E+00 0.  1.
</event>
<event>
 4    1  0.1974401E-002  0.9118800E+02  0.7818608E-02  0.1130116E+00
         25   -1    0    0    0    0  0.00000000000E+00  0.00000000000E+00  0.99999998245E-14  0.12500000000E+03  0.12500000000E+03 0.  0.
        -11    1    1    0    0    0  0.68212551277E+01 -0.15768008489E+02 -0.44815750433E+02  0.47995948792E+02  0.51100000000E-03 0.  1.
         11    1    1    0    0    0  0.49826669894E+01 -0.82478629961E+01 -0.11290150135E+02  0.14843237675E+02  0.51100000000E-03 0. -1.
         22    1    1    0    0    0 -0.11803922117E+02  0.24015871485E+02  0.56105900569E+02  0.62160813534E+02  0.00000000000E+00 0. -1.
</event>
<event>
 4    1  0.1974401E-002  0.9118800E+02  0.7818608E-02  0.1130116E+00
         25   -1    0    0    0    0  0.00000000000E+00  0.00000000000E+00  0.99999998245E-14  0.12500000000E+03  0.12500000000E+03 0.  0.
        -11    1    1    0    0    0  0.12004292127E+02  0.36185045625E+01  0.47369347804E+02  0.49000527716E+02  0.51100000000E-03 0. -1.
         11    1    1    0    0    0  0.29392209652E+01  0.19465275713E+01  0.13046627374E+02  0.13514528314E+02  0.51100000000E-03 0.  1.
         22    1    1    0    0    0 -0.14943513092E+02 -0.55650321337E+01 -0.60415975178E+02  0.62484943970E+02  0.00000000000E+00 0. -1.
</event>
<event>
 4    1  0.1974401E-002  0.9118800E+02  0.7818608E-02  0.1130116E+00
         25   -1    0    0    0    0  0.00000000000E+00  0.00000000000E+00  0.99999998245E-14  0.12500000000E+03  0.12500000000E+03 0.  0.
        -11    1    1    0    0    0 -0.77104820879E+01 -0.27468064929E+01  0.93527736863E+01  0.12428630489E+02  0.51100000000E-03 0.  1.
         11    1    1    0    0    0 -0.31574970060E+02 -0.11868862906E+02  0.37005792230E+02  0.50072720116E+02  0.51100000000E-03 0. -1.
         22    1    1    0    0    0  0.39285452147E+02  0.14615669399E+02 -0.46358565917E+02  0.62498649395E+02  0.00000000000E+00 0. -1.
</event>
<event>
 4    1  0.1974401E-002  0.9118800E+02  0.7818608E-02  0.1130116E+00
         25   -1    0    0    0    0  0.00000000000E+00  0.00000000000E+00  0.99999998245E-14  0.12500000000E+03  0.12500000000E+03 0.  0.
        -11    1    1    0    0    0 -0.10404853542E+02 -0.10616360943E+02  0.20921336892E+02  0.25664575479E+02  0.51100000000E-03 0. -1.
         11    1    1    0    0    0 -0.15877490492E+02 -0.15943042721E+02  0.29172052682E+02  0.36841335121E+02  0.51100000000E-03 0.  1.
         22    1    1    0    0    0  0.26282344034E+02  0.26559403664E+02 -0.50093389574E+02  0.62494089400E+02  0.00000000000E+00 0.  1.
</event>
<event>
 4    1  0.1974401E-002  0.9118800E+02  0.7818608E-02  0.1130116E+00
         25   -1    0    0    0    0  0.00000000000E+00  0.00000000000E+00  0.99999998245E-14  0.12500000000E+03  0.12500000000E+03 0.  0.
        -11    1    1    0    0    0  0.65972468422E+01 -0.10435784827E+02  0.38060677213E+01  0.12919575172E+02  0.51100000000E-03 0. -1.
         11    1    1    0    0    0 -0.43245998376E+02 -0.15408112599E+02  0.30930175852E+02  0.55356138665E+02  0.51100000000E-03 0.  1.
         22    1    1    0    0    0  0.36648751533E+02  0.25843897427E+02 -0.34736243573E+02  0.56724286163E+02  0.00000000000E+00 0.  1.
</event>
<event>
 4    1  0.1974401E-002  0.9118800E+02  0.7818608E-02  0.1130116E+00
         25   -1    0    0    0    0  0.00000000000E+00  0.00000000000E+00  0.99999998245E-14  0.12500000000E+03  0.12500000000E+03 0.  0.
        -11    1    1    0    0    0 -0.13181098456E+02  0.13004554711E+02 -0.23357528082E+02  0.29806608631E+02  0.51100000000E-03 0. -1.
         11    1    1    0    0    0 -0.12676742582E+02  0.14826706452E+02 -0.26253658937E+02  0.32707577631E+02  0.51100000000E-03 0.  1.
         22    1    1    0    0    0  0.25857841038E+02 -0.27831261163E+02  0.49611187018E+02  0.62485813737E+02  0.00000000000E+00 0.  1.
</event>
<event>
 4    1  0.1974401E-002  0.9118800E+02  0.7818608E-02  0.1130116E+00
         25   -1    0    0    0    0  0.00000000000E+00  0.00000000000E+00  0.99999998245E-14  0.12500000000E+03  0.12500000000E+03 0.  0.
        -11    1    1    0    0    0  0.12057789975E+02  0.62495246593E+01  0.46689442172E+02  0.48624591187E+02  0.51100000000E-03 0.  1.
         11    1    1    0    0    0  0.34432948323E+01  0.17853921204E+01  0.13322277197E+02  0.13875408977E+02  0.51100000000E-03 0.  1.
         22    1    1    0    0    0 -0.15501084807E+02 -0.80349167797E+01 -0.60011719369E+02  0.62499999835E+02  0.00000000000E+00 0.  1.
</event>
<event>
 4    1  0.1974401E-002  0.9118800E+02  0.7818608E-02  0.1130116E+00
         25   -1    0    0    0    0  0.00000000000E+00  0.00000000000E+00  0.99999998245E-14  0.12500000000E+03  0.12500000000E+03 0.  0.
        -11    1    1    0    0    0  0.89137845810E+01 -0.10445469946E+02  0.55868354655E+02  0.57531178069E+02  0.51100000000E-03 0.  1.
         11    1    1    0    0    0  0.45892374052E+00 -0.49094195111E+01  0.30953913113E+01  0.58218947574E+01  0.51100000000E-03 0. -1.
         22    1    1    0    0    0 -0.93727083215E+01  0.15354889457E+02 -0.58963745966E+02  0.61646927173E+02  0.00000000000E+00 0.  1.
</event>
<event>
 4    1  0.1974401E-002  0.9118800E+02  0.7818608E-02  0.1130116E+00
         25   -1    0    0    0    0  0.00000000000E+00  0.00000000000E+00  0.99999998245E-14  0.12500000000E+03  0.12500000000E+03 0.  0.
        -11    1    1    0    0    0 -0.28259236718E+02  0.39114835805E+02  0.12750702807E+02  0.49911273899E+02  0.51100000000E-03 0.  1.
         11    1    1    0    0    0 -0.71072443194E+01  0.98707542160E+01  0.32452784504E+01  0.12588746685E+02  0.51100000000E-03 0. -1.
         22    1    1    0    0    0  0.35366481038E+02 -0.48985590021E+02 -0.15995981257E+02  0.62499979416E+02  0.00000000000E+00 0.  1.
</event>
<event>
 4    1  0.1974401E-002  0.9118800E+02  0.7818608E-02  0.1130116E+00
         25   -1    0    0    0    0  0.00000000000E+00  0.00000000000E+00  0.99999998245E-14  0.12500000000E+03  0.12500000000E+03 0.  0.
        -11    1    1    0    0    0  0.10589509411E+02 -0.46176128968E+00 -0.32604633993E+01  0.11089704906E+02  0.51100000000E-03 0. -1.
         11    1    1    0    0    0  0.49014455177E+02 -0.25870642605E+01 -0.15294763656E+02  0.51410500030E+02  0.51100000000E-03 0.  1.
         22    1    1    0    0    0 -0.59603964589E+02  0.30488255501E+01  0.18555227055E+02  0.62499795064E+02  0.00000000000E+00 0.  1.
</event>
<event>
 4    1  0.1974401E-002  0.9118800E+02  0.7818608E-02  0.1130116E+00
         25   -1    0    0    0    0  0.00000000000E+00  0.00000000000E+00  0.99999998245E-14  0.12500000000E+03  0.12500000000E+03 0.  0.
        -11    1    1    0    0    0  0.26366645930E+02  0.19889737046E+02  0.21685530403E+02  0.39510301017E+02  0.51100000000E-03 0.  1.
         11    1    1    0    0    0  0.15237822954E+02  0.11745619445E+02  0.12585253153E+02  0.22989985248E+02  0.51100000000E-03 0. -1.
         22    1    1    0    0    0 -0.41604468884E+02 -0.31635356491E+02 -0.34270783555E+02  0.62499713735E+02  0.00000000000E+00 0.  1.
</event>
<event>
 4    1  0.1974401E-002  0.9118800E+02  0.7818608E-02  0.1130116E+00
         25   -1    0    0    0    0  0.00000000000E+00  0.00000000000E+00  0.99999998245E-14  0.12500000000E+03  0.12500000000E+03 0.  0.
        -11    1    1    0    0    0 -0.45104845651E+02  0.13867677378E+02 -0.95190254325E+01  0.48139084147E+02  0.51100000000E-03 0. -1.
         11    1    1    0    0    0 -0.13435785838E+02  0.41145271653E+01 -0.29652392948E+01  0.14361139204E+02  0.51100000000E-03 0.  1.
         22    1    1    0    0    0  0.58540631489E+02 -0.17982204544E+02  0.12484264727E+02  0.62499776649E+02  0.00000000000E+00 0. -1.
</event>
<event>
 4    1  0.1974401E-002  0.9118800E+02  0.7818608E-02  0.1130116E+00
         25   -1    0    0    0    0  0.00000000000E+00  0.00000000000E+00  0.99999998245E-14  0.12500000000E+03  0.12500000000E+03 0.  0.
        -11    1    1    0    0    0 -0.65004565179E+01 -0.83693652867E+01  0.21739564193E+02  0.24184930470E+02  0.51100000000E-03 0. -1.
         11    1    1    0    0    0 -0.16807820137E+02 -0.11615970130E+02  0.32558098455E+02  0.38437785512E+02  0.51100000000E-03 0.  1.
         22    1    1    0    0    0  0.23308276655E+02  0.19985335417E+02 -0.54297662649E+02  0.62377284018E+02  0.00000000000E+00 0.  1.
</event>
<event>
 4    1  0.1974401E-002  0.9118800E+02  0.7818608E-02  0.1130116E+00
         25   -1    0    0    0    0  0.00000000000E+00  0.00000000000E+00  0.99999998245E-14  0.12500000000E+03  0.12500000000E+03 0.  0.
        -11    1    1    0    0    0 -0.17397532606E+02  0.19717604783E+02 -0.82958982476E+01  0.27573175500E+02  0.51100000000E-03 0. -1.
         11    1    1    0    0    0 -0.31428021352E+02  0.37808978381E+01  0.25421648437E+02  0.40598964569E+02  0.51100000000E-03 0.  1.
         22    1    1    0    0    0  0.48825553958E+02 -0.23498502621E+02 -0.17125750190E+02  0.56827859931E+02  0.00000000000E+00 0. -1.
</event>
<event>
 4    1  0.1974401E-002  0.9118800E+02  0.7818608E-02  0.1130116E+00
         25   -1    0    0    0    0  0.00000000000E+00  0.00000000000E+00  0.99999998245E-14  0.12500000000E+03  0.12500000000E+03 0.  0.
        -11    1    1    0    0    0 -0.30277608363E+01  0.40758675608E+01  0.11327133341E+02  0.12413056918E+02  0.51100000000E-03 0. -1.
         11    1    1    0    0    0  0.32403854616E+02  0.51899243392E+01  0.40604084982E+02  0.52207631876E+02  0.51100000000E-03 0.  1.
         22    1    1    0    0    0 -0.29376093780E+02 -0.92657919000E+01 -0.51931218323E+02  0.60379311206E+02  0.00000000000E+00 0.  1.
</event>
<event>
 4    1  0.1974401E-002  0.9118800E+02  0.7818608E-02  0.1130116E+00
         25   -1    0    0    0    0  0.00000000000E+00  0.00000000000E+00  0.99999998245E-14  0.12500000000E+03  0.12500000000E+03 0.  0.
        -11    1    1    0    0    0  0.69388677967E+01 -0.49082821154E+01  0.56497734149E+01  0.10205834582E+02  0.51100000000E-03 0.  1.
         11    1    1    0    0    0  0.35925057950E+02 -0.24640528283E+02  0.28930031731E+02  0.52294475416E+02  0.51100000000E-03 0. -1.
         22    1    1    0    0    0 -0.42863925747E+02  0.29548810398E+02 -0.34579805146E+02  0.62499690002E+02  0.00000000000E+00 0. -1.
</event>
<event>
 4    1  0.1974401E-002  0.9118800E+02  0.7818608E-02  0.1130116E+00
         25   -1    0    0    0    0  0.00000000000E+00  0.00000000000E+00  0.99999998245E-14  0.12500000000E+03  0.12500000000E+03 0.  0.
        -11    1    1    0    0    0 -0.33098262811E+01  0.37254927333E+01 -0.81543401263E+01  0.95565427469E+01  0.51100000000E-03 0.  1.
         11    1    1    0    0    0 -0.44481530619E+02  0.49174519946E+01 -0.29833332076E+02  0.53784901259E+02  0.51100000000E-03 0. -1.
         22    1    1    0    0    0  0.47791356901E+02 -0.86429447279E+01  0.37987672202E+02  0.61658555995E+02  0.00000000000E+00 0. -1.
</event>
<event>
 4    1  0.1974401E-002  0.9118800E+02  0.7818608E-02  0.1130116E+00
         25   -1    0    0    0    0  0.00000000000E+00  0.00000000000E+00  0.99999998245E-14  0.12500000000E+03  0.12500000000E+03 0.  0.
        -11    1    1    0    0    0 -0.14116090312E+02 -0.22788229427E+01 -0.10132450049E+02  0.17524941767E+02  0.51100000000E-03 0. -1.
         11    1    1    0    0    0 -0.36132570218E+02 -0.57059755528E+01 -0.26165680787E+02  0.44975144679E+02  0.51100000000E-03 0.  1.
         22    1    1    0    0    0  0.50248660530E+02  0.79847984954E+01  0.36298130836E+02  0.62499913554E+02  0.00000000000E+00 0.  1.
</event>
<event>
 4    1  0.1974401E-002  0.9118800E+02  0.7818608E-02  0.1130116E+00
         25   -1    0    0    0    0  0.00000000000E+00  0.00000000000E+00  0.99999998245E-14  0.12500000000E+03  0.12500000000E+03 0.  0.
        -11    1    1    0    0    0 -0.10948276414E+02 -0.15682881816E+02  0.25008924055E+01  0.19289167986E+02  0.51100000000E-03 0.  1.
         11    1    1    0    0    0 -0.26328391242E+02 -0.33572153883E+02  0.69319655128E+01  0.43224135016E+02  0.51100000000E-03 0. -1.
         22    1    1    0    0    0  0.37276667656E+02  0.49255035700E+02 -0.94328579183E+01  0.62486696998E+02  0.00000000000E+00 0. -1.
</event>
<event>
 4    1  0.1974401E-002  0.9118800E+02  0.7818608E-02  0.1130116E+00
         25   -1    0    0    0    0  0.00000000000E+00  0.00000000000E+00  0.99999998245E-14  0.12500000000E+03  0.12500000000E+03 0.  0.
        -11    1    1    0    0    0  0.68645867584E+01  0.25153914880E+01 -0.14460261294E+02  0.16203360845E+02  0.51100000000E-03 0.  1.
         11    1    1    0    0    0  0.12140704664E+02 -0.19737827471E+01 -0.44853823091E+02  0.46509762139E+02  0.51100000000E-03 0. -1.
         22    1    1    0    0    0 -0.19005291423E+02 -0.54160874091E+00  0.59314084385E+02  0.62286877017E+02  0.00000000000E+00 0. -1.
</event>
<event>
 4    1  0.1974401E-002  0.9118800E+02  0.7818608E-02  0.1130116E+00
         25   -1    0    0    0    0  0.00000000000E+00  0.00000000000E+00  0.99999998245E-14  0.12500000000E+03  0.12500000000E+03 0.  0.
        -11    1    1    0    0    0  0.22067337244E+02 -0.31059728247E+02 -0.41372854140E+02  0.56243996584E+02  0.51100000000E-03 0. -1.
         11    1    1    0    0    0  0.27566040421E+01 -0.33890145013E+01 -0.44835920797E+01  0.62599427580E+01  0.51100000000E-03 0.  1.
         22    1    1    0    0    0 -0.24823941286E+02  0.34448742748E+02  0.45856446219E+02  0.62496060658E+02  0.00000000000E+00 0. -1.
</event>
<event>
 4    1  0.1974401E-002  0.9118800E+02  0.7818608E-02  0.1130116E+00
         25   -1    0    0    0    0  0.00000000000E+00  0.00000000000E+00  0.99999998245E-14  0.12500000000E+03  0.12500000000E+03 0.  0.
        -11    1    1    0    0    0  0.20888528332E+01 -0.13593177181E+02  0.24272237418E+02  0.27897657277E+02  0.51100000000E-03 0. -1.
         11    1    1    0    0    0  0.36248075255E+02  0.22823131402E+01  0.16600544284E+02  0.39933820050E+02  0.51100000000E-03 0.  1.
         22    1    1    0    0    0 -0.38336928089E+02  0.11310864041E+02 -0.40872781701E+02  0.57168522673E+02  0.00000000000E+00 0.  1.
</event>
<event>
 4    1  0.1974401E-002  0.9118800E+02  0.7818608E-02  0.1130116E+00
         25   -1    0    0    0    0  0.00000000000E+00  0.00000000000E+00  0.99999998245E-14  0.12500000000E+03  0.12500000000E+03 0.  0.
        -11    1    1    0    0    0  0.21234036964E+02 -0.27258753348E+02 -0.45662768921E+02  0.57262661706E+02  0.51100000000E-03 0.  1.
         11    1    1    0    0    0  0.10427840596E+01 -0.28925081006E+01 -0.42926051892E+01  0.52801951932E+01  0.51100000000E-03 0. -1.
         22    1    1    0    0    0 -0.22276821024E+02  0.30151261448E+02  0.49955374110E+02  0.62457143101E+02  0.00000000000E+00 0.  1.
</event>
<event>
 4    1  0.1974401E-002  0.9118800E+02  0.7818608E-02  0.1130116E+00
         25   -1    0    0    0    0  0.00000000000E+00  0.00000000000E+00  0.99999998245E-14  0.12500000000E+03  0.12500000000E+03 0.  0.
        -11    1    1    0    0    0  0.60115361046E+01 -0.45916228235E+01 -0.50458579782E+01  0.90929780318E+01  0.51100000000E-03 0. -1.
         11    1    1    0    0    0  0.35298370723E+02 -0.26997473197E+02 -0.29622146181E+02  0.53407022753E+02  0.51100000000E-03 0.  1.
         22    1    1    0    0    0 -0.41309906827E+02  0.31589096021E+02  0.34668004160E+02  0.62499999215E+02  0.00000000000E+00 0.  1.
</event>
<event>
 4    1  0.1974401E-002  0.9118800E+02  0.7818608E-02  0.1130116E+00
         25   -1    0    0    0    0  0.00000000000E+00  0.00000000000E+00  0.99999998245E-14  0.12500000000E+03  0.12500000000E+03 0.  0.
        -11    1    1    0    0    0  0.47983597683E+01  0.83127849616E+01  0.51558156326E+00  0.96121004413E+01  0.51100000000E-03 0.  1.
         11    1    1    0    0    0  0.26402555560E+02  0.45733400935E+02  0.29140143029E+01  0.52887903918E+02  0.51100000000E-03 0. -1.
         22    1    1    0    0    0 -0.31200915328E+02 -0.54046185897E+02 -0.34295958662E+01  0.62499995641E+02  0.00000000000E+00 0. -1.
</event>
<event>
 4    1  0.1974401E-002  0.9118800E+02  0.7818608E-02  0.1130116E+00
         25   -1    0    0    0    0  0.00000000000E+00  0.00000000000E+00  0.99999998245E-14  0.12500000000E+03  0.12500000000E+03 0.  0.
        -11    1    1    0    0    0  0.27320943194E+01  0.32014134949E+01 -0.81850687140E+00  0.42875799112E+01  0.51100000000E-03 0. -1.
         11    1    1    0    0    0  0.38392619549E+02  0.43377713263E+02 -0.58377482177E+01  0.58221117717E+02  0.51100000000E-03 0.  1.
         22    1    1    0    0    0 -0.41124713869E+02 -0.46579126758E+02  0.66562550891E+01  0.62491302371E+02  0.00000000000E+00 0.  1.
</event>
<event>
 4    1  0.1974401E-002  0.9118800E+02  0.7818608E-02  0.1130116E+00
         25   -1    0    0    0    0  0.00000000000E+00  0.00000000000E+00  0.99999998245E-14  0.12500000000E+03  0.12500000000E+03 0.  0.
        -11    1    1    0    0    0 -0.20028244153E+02 -0.45038324290E+02 -0.26436334002E+02  0.55932646768E+02  0.51100000000E-03 0. -1.
         11    1    1    0    0    0 -0.67108472834E-01 -0.48604670191E+01 -0.48259032389E+01  0.68496704682E+01  0.51100000000E-03 0.  1.
         22    1    1    0    0    0  0.20095352626E+02  0.49898791309E+02  0.31262237240E+02  0.62217682764E+02  0.00000000000E+00 0. -1.
</event>
<event>
 4    1  0.1974401E-002  0.9118800E+02  0.7818608E-02  0.1130116E+00
         25   -1    0    0    0    0  0.00000000000E+00  0.00000000000E+00  0.99999998245E-14  0.12500000000E+03  0.12500000000E+03 0.  0.
        -11    1    1    0    0    0 -0.10805835855E+01  0.11596089088E+02  0.87365661307E+01  0.14559001719E+02  0.51100000000E-03 0.  1.
         11    1    1    0    0    0 -0.15387340874E+02 -0.13489884449E+02  0.47548928040E+02  0.51765314639E+02  0.51100000000E-03 0. -1.
         22    1    1    0    0    0  0.16467924459E+02  0.18937953607E+01 -0.56285494171E+02  0.58675683643E+02  0.00000000000E+00 0. -1.
</event>
<event>
 4    1  0.1974401E-002  0.9118800E+02  0.7818608E-02  0.1130116E+00
         25   -1    0    0    0    0  0.00000000000E+00  0.00000000000E+00  0.99999998245E-14  0.12500000000E+03  0.12500000000E+03 0.  0.
        -11    1    1    0    0    0 -0.35834880120E+02  0.89550514218E+01  0.10769592824E+02  0.38474871138E+02  0.51100000000E-03 0. -1.
         11    1    1    0    0    0 -0.22390270248E+02  0.55301580235E+01  0.67306170998E+01  0.24025154658E+02  0.51100000000E-03 0.  1.
         22    1    1    0    0    0  0.58225150368E+02 -0.14485209445E+02 -0.17500209924E+02  0.62499974204E+02  0.00000000000E+00 0. -1.
</event>
<event>
 4    1  0.1974401E-002  0.9118800E+02  0.7818608E-02  0.1130116E+00
         25   -1    0    0    0    0  0.00000000000E+00  0.00000000000E+00  0.99999998245E-14  0.12500000000E+03  0.12500000000E+03 0.  0.
        -11    1    1    0    0    0  0.34405422052E+02  0.33474946555E+02 -0.28215363083E+02  0.55681341826E+02  0.51100000000E-03 0.  1.
         11    1    1    0    0    0  0.46571737597E+01  0.37846504147E+01 -0.32603858342E+01  0.68295653038E+01  0.51100000000E-03 0. -1.
         22    1    1    0    0    0 -0.39062595811E+02 -0.37259596969E+02  0.31475748917E+02  0.62489092870E+02  0.00000000000E+00 0.  1.
</event>
<event>
 4    1  0.1974401E-002  0.9118800E+02  0.7818608E-02  0.1130116E+00
         25   -1    0    0    0    0  0.00000000000E+00  0.00000000000E+00  0.99999998245E-14  0.12500000000E+03  0.12500000000E+03 0.  0.
        -11    1    1    0    0    0 -0.42102790122E+02  0.31142573891E+02  0.25064870220E+02  0.58058182576E+02  0.51100000000E-03 0. -1.
         11    1    1    0    0    0 -0.32195275475E+01  0.23854898491E+01  0.19167232176E+01  0.44418180516E+01  0.51100000000E-03 0.  1.
         22    1    1    0    0    0  0.45322317670E+02 -0.33528063740E+02 -0.26981593438E+02  0.62499999372E+02  0.00000000000E+00 0. -1.
</event>
<event>
 4    1  0.1974401E-002  0.9118800E+02  0.7818608E-02  0.1130116E+00
         25   -1    0    0    0    0  0.00000000000E+00  0.00000000000E+00  0.99999998245E-14  0.12500000000E+03  0.12500000000E+03 0.  0.
        -11    1    1    0    0    0  0.16724876513E+02 -0.93093065856E+01 -0.16016331002E+01  0.19208068938E+02  0.51100000000E-03 0. -1.
         11    1    1    0    0    0  0.36616401240E+02 -0.22988583994E+02 -0.24419086604E+01  0.43303565119E+02  0.51100000000E-03 0.  1.
         22    1    1    0    0    0 -0.53341277753E+02  0.32297890580E+02  0.40435417605E+01  0.62488365943E+02  0.00000000000E+00 0. -1.
</event>
<event>
 4    1  0.1974401E-002  0.9118800E+02  0.7818608E-02  0.1130116E+00
         25   -1    0    0    0    0  0.00000000000E+00  0.00000000000E+00  0.99999998245E-14  0.12500000000E+03  0.12500000000E+03 0.  0.
        -11    1    1    0    0    0 -0.86055278626E+00 -0.11503943444E+01  0.77720367857E+00  0.16334026033E+01  0.51100000000E-03 0. -1.
         11    1    1    0    0    0 -0.32062209985E+02 -0.42901782225E+02  0.28917027809E+02  0.60866597776E+02  0.51100000000E-03 0. -1.
         22    1    1    0    0    0  0.32922762771E+02  0.44052176570E+02 -0.29694231487E+02  0.62499999621E+02  0.00000000000E+00 0. -1.
</event>
<event>
 4    1  0.1974401E-002  0.9118800E+02  0.7818608E-02  0.1130116E+00
         25   -1    0    0    0    0  0.00000000000E+00  0.00000000000E+00  0.99999998245E-14  0.12500000000E+03  0.12500000000E+03 0.  0.
        -11    1    1    0    0    0 -0.15514016846E+02 -0.14902516080E+02  0.13980001348E+02  0.25655606447E+02  0.51100000000E-03 0.  1.
         11    1    1    0    0    0 -0.22286004432E+02 -0.21401011863E+02  0.20070875646E+02  0.36844393763E+02  0.51100000000E-03 0. -1.
         22    1    1    0    0    0  0.37800021278E+02  0.36303527943E+02 -0.34050876993E+02  0.62499999790E+02  0.00000000000E+00 0. -1.
</event>
<event>
 4    1  0.1974401E-002  0.9118800E+02  0.7818608E-02  0.1130116E+00
         25   -1    0    0    0    0  0.00000000000E+00  0.00000000000E+00  0.99999998245E-14  0.12500000000E+03  0.12500000000E+03 0.  0.
        -11    1    1    0    0    0  0.41642158136E+01  0.54831023761E+01  0.44574535519E+01  0.82020727525E+01  0.51100000000E-03 0. -1.
         11    1    1    0    0    0  0.28294138780E+02  0.37007667032E+02  0.27899404618E+02  0.54300114979E+02  0.51100000000E-03 0.  1.
         22    1    1    0    0    0 -0.32458354593E+02 -0.42490769408E+02 -0.32356858170E+02  0.62497812269E+02  0.00000000000E+00 0.  1.
</event>
<event>
 4    1  0.1974401E-002  0.9118800E+02  0.7818608E-02  0.1130116E+00
         25   -1    0    0    0    0  0.00000000000E+00  0.00000000000E+00  0.99999998245E-14  0.12500000000E+03  0.12500000000E+03 0.  0.
        -11    1    1    0    0    0  0.12853425831E+02  0.93130647019E+01 -0.18273898680E+02  0.24204939640E+02  0.51100000000E-03 0. -1.
         11    1    1    0    0    0  0.23524851182E+02  0.28148550570E+02 -0.14161435495E+02  0.39323094714E+02  0.51100000000E-03 0.  1.
         22    1    1    0    0    0 -0.36378277014E+02 -0.37461615272E+02  0.32435334175E+02  0.61471965646E+02  0.00000000000E+00 0. -1.
</event>
<event>
 4    1  0.1974401E-002  0.9118800E+02  0.7818608E-02  0.1130116E+00
         25   -1    0    0    0    0  0.00000000000E+00  0.00000000000E+00  0.99999998245E-14  0.12500000000E+03  0.12500000000E+03 0.  0.
        -11    1    1    0    0    0  0.34744811562E+01  0.59863996453E+01  0.89236036515E+00  0.69789187774E+01  0.51100000000E-03 0.  1.
         11    1    1    0    0    0  0.27837098943E+02  0.47514999467E+02  0.70720623012E+01  0.55521106953E+02  0.51100000000E-03 0. -1.
         22    1    1    0    0    0 -0.31311580099E+02 -0.53501399112E+02 -0.79644226663E+01  0.62499974269E+02  0.00000000000E+00 0. -1.
</event>
<event>
 4    1  0.1974401E-002  0.9118800E+02  0.7818608E-02  0.1130116E+00
         25   -1    0    0    0    0  0.00000000000E+00  0.00000000000E+00  0.99999998245E-14  0.12500000000E+03  0.12500000000E+03 0.  0.
        -11    1    1    0    0    0  0.85407089012E-01 -0.10006103567E+01  0.17056654769E+02  0.17086192895E+02  0.51100000000E-03 0. -1.
         11    1    1    0    0    0  0.22641191838E+00 -0.26600437562E+01  0.45335270827E+02  0.45413807111E+02  0.51100000000E-03 0. -1.
         22    1    1    0    0    0 -0.31181900739E+00  0.36606541128E+01 -0.62391925596E+02  0.62499999994E+02  0.00000000000E+00 0. -1.
</event>
<event>
 4    1  0.1974401E-002  0.9118800E+02  0.7818608E-02  0.1130116E+00
         25   -1    0    0    0    0  0.00000000000E+00  0.00000000000E+00  0.99999998245E-14  0.12500000000E+03  0.12500000000E+03 0.  0.
        -11    1    1    0    0    0 -0.10491534470E+02 -0.10767396019E+01 -0.47758948244E+01  0.11577600587E+02  0.51100000000E-03 0.  1.
         11    1    1    0    0    0 -0.47120560456E+02 -0.11696254927E+02 -0.15595899011E+02  0.50993937514E+02  0.51100000000E-03 0. -1.
         22    1    1    0    0    0  0.57612094926E+02  0.12772994529E+02  0.20371793836E+02  0.62428461899E+02  0.00000000000E+00 0. -1.
</event>
<event>
 4    1  0.1974401E-002  0.9118800E+02  0.7818608E-02  0.1130116E+00
         25   -1    0    0    0    0  0.00000000000E+00  0.00000000000E+00  0.99999998245E-14  0.12500000000E+03  0.12500000000E+03 0.  0.
        -11    1    1    0    0    0 -0.15107848906E+02 -0.81646476794E+01 -0.81146649683E+01  0.18993587289E+02  0.51100000000E-03 0. -1.
         11    1    1    0    0    0 -0.39171996601E+02 -0.10579958418E+02 -0.16141551054E+02  0.43668415457E+02  0.51100000000E-03 0.  1.
         22    1    1    0    0    0  0.54279845507E+02  0.18744606098E+02  0.24256216022E+02  0.62337997254E+02  0.00000000000E+00 0.  1.
</event>
<event>
 4    1  0.1974401E-002  0.9118800E+02  0.7818608E-02  0.1130116E+00
         25   -1    0    0    0    0  0.00000000000E+00  0.00000000000E+00  0.99999998245E-14  0.12500000000E+03  0.12500000000E+03 0.  0.
        -11    1    1    0    0    0 -0.10152613506E+02  0.10900646625E+02 -0.43031641003E+01  0.15505382271E+02  0.51100000000E-03 0. -1.
         11    1    1    0    0    0 -0.23783339007E+02  0.35145243562E+02 -0.20523831277E+02  0.47138763348E+02  0.51100000000E-03 0.  1.
         22    1    1    0    0    0  0.33935952513E+02 -0.46045890188E+02  0.24826995377E+02  0.62355854381E+02  0.00000000000E+00 0.  1.
</event>
<event>
 4    1  0.1974401E-002  0.9118800E+02  0.7818608E-02  0.1130116E+00
         25   -1    0    0    0    0  0.00000000000E+00  0.00000000000E+00  0.99999998245E-14  0.12500000000E+03  0.12500000000E+03 0.  0.
        -11    1    1    0    0    0 -0.53769702418E+02 -0.13374649043E+02 -0.89879208854E+00  0.55415430726E+02  0.51100000000E-03 0.  1.
         11    1    1    0    0    0 -0.72130227555E+01  0.16453443407E+01  0.11271570590E+01  0.74836714631E+01  0.51100000000E-03 0. -1.
         22    1    1    0    0    0  0.60982725173E+02  0.11729304702E+02 -0.22836497043E+00  0.62100897811E+02  0.00000000000E+00 0.  1.
</event>
<event>
 4    1  0.1974401E-002  0.9118800E+02  0.7818608E-02  0.1130116E+00
         25   -1    0    0    0    0  0.00000000000E+00  0.00000000000E+00  0.99999998245E-14  0.12500000000E+03  0.12500000000E+03 0.  0.
        -11    1    1    0    0    0 -0.45294755726E+02 -0.37567031280E+02 -0.93933591879E+00  0.58853879122E+02  0.51100000000E-03 0.  1.
         11    1    1    0    0    0 -0.34914295110E+01  0.38119590917E+01  0.43025020909E+01  0.67255212921E+01  0.51100000000E-03 0. -1.
         22    1    1    0    0    0  0.48786185237E+02  0.33755072188E+02 -0.33631661721E+01  0.59420599586E+02  0.00000000000E+00 0.  1.
</event>
<event>
 4    1  0.1974401E-002  0.9118800E+02  0.7818608E-02  0.1130116E+00
         25   -1    0    0    0    0  0.00000000000E+00  0.00000000000E+00  0.99999998245E-14  0.12500000000E+03  0.12500000000E+03 0.  0.
        -11    1    1    0    0    0 -0.46185879893E+02  0.18196214574E+02 -0.11844064861E+02  0.51034494207E+02  0.51100000000E-03 0.  1.
         11    1    1    0    0    0 -0.91683856544E+01  0.43601828579E+01 -0.57354086903E+01  0.11660420368E+02  0.51100000000E-03 0. -1.
         22    1    1    0    0    0  0.55354265547E+02 -0.22556397432E+02  0.17579473551E+02  0.62305085424E+02  0.00000000000E+00 0.  1.
</event>
<event>
 4    1  0.1974401E-002  0.9118800E+02  0.7818608E-02  0.1130116E+00
         25   -1    0    0    0    0  0.00000000000E+00  0.00000000000E+00  0.99999998245E-14  0.12500000000E+03  0.12500000000E+03 0.  0.
        -11    1    1    0    0    0  0.30539539290E+02 -0.78483473452E+01  0.50351913228E+02  0.59410227925E+02  0.51100000000E-03 0.  1.
         11    1    1    0    0    0  0.16737734093E+01 -0.57765657397E+00  0.25361108775E+01  0.30930669548E+01  0.51100000000E-03 0. -1.
         22    1    1    0    0    0 -0.32213312700E+02  0.84260039192E+01 -0.52888024105E+02  0.62496705120E+02  0.00000000000E+00 0.  1.
</event>
<event>
 4    1  0.1974401E-002  0.9118800E+02  0.7818608E-02  0.1130116E+00
         25   -1    0    0    0    0  0.00000000000E+00  0.00000000000E+00  0.99999998245E-14  0.12500000000E+03  0.12500000000E+03 0.  0.
        -11    1    1    0    0    0  0.23619679697E+01 -0.73376152266E+00 -0.44104034260E+01  0.50565756499E+01  0.51100000000E-03 0. -1.
         11    1    1    0    0    0  0.27237499459E+02 -0.59797802491E+01 -0.50222899132E+02  0.57445441474E+02  0.51100000000E-03 0.  1.
         22    1    1    0    0    0 -0.29599467429E+02  0.67135417718E+01  0.54633302558E+02  0.62497982876E+02  0.00000000000E+00 0.  1.
</event>
<event>
 4    1  0.1974401E-002  0.9118800E+02  0.7818608E-02  0.1130116E+00
         25   -1    0    0    0    0  0.00000000000E+00  0.00000000000E+00  0.99999998245E-14  0.12500000000E+03  0.12500000000E+03 0.  0.
        -11    1    1    0    0    0  0.96863037123E+01  0.11995003132E+02 -0.85931606029E+01  0.17650693730E+02  0.51100000000E-03 0. -1.
         11    1    1    0    0    0 -0.16435241264E+02  0.34638910532E+02 -0.28176875846E+02  0.47580538153E+02  0.51100000000E-03 0.  1.
         22    1    1    0    0    0  0.67489375522E+01 -0.46633913664E+02  0.36770036449E+02  0.59768768117E+02  0.00000000000E+00 0.  1.
</event>
<event>
 4    1  0.1974401E-002  0.9118800E+02  0.7818608E-02  0.1130116E+00
         25   -1    0    0    0    0  0.00000000000E+00  0.00000000000E+00  0.99999998245E-14  0.12500000000E+03  0.12500000000E+03 0.  0.
        -11    1    1    0    0    0 -0.23742092874E+01  0.46761334670E+00 -0.25646704318E+01  0.35260553977E+01  0.51100000000E-03 0.  1.
         11    1    1    0    0    0 -0.15255016885E+02 -0.32367956398E+02 -0.47548332447E+02  0.59508352862E+02  0.51100000000E-03 0. -1.
         22    1    1    0    0    0  0.17629226173E+02  0.31900343051E+02  0.50113002879E+02  0.61965591741E+02  0.00000000000E+00 0. -1.
</event>
<event>
 4    1  0.1974401E-002  0.9118800E+02  0.7818608E-02  0.1130116E+00
         25   -1    0    0    0    0  0.00000000000E+00  0.00000000000E+00  0.99999998245E-14  0.12500000000E+03  0.12500000000E+03 0.  0.
        -11    1    1    0    0    0  0.19445141831E+01  0.17804680846E+02  0.19316991421E+02  0.26342626165E+02  0.51100000000E-03 0. -1.
         11    1    1    0    0    0 -0.12248918572E+02  0.28931033030E+02  0.19551230488E+02  0.37003936172E+02  0.51100000000E-03 0.  1.
         22    1    1    0    0    0  0.10304404389E+02 -0.46735713876E+02 -0.38868221909E+02  0.61653437663E+02  0.00000000000E+00 0. -1.
</event>
<event>
 4    1  0.1974401E-002  0.9118800E+02  0.7818608E-02  0.1130116E+00
         25   -1    0    0    0    0  0.00000000000E+00  0.00000000000E+00  0.99999998245E-14  0.12500000000E+03  0.12500000000E+03 0.  0.
        -11    1    1    0    0    0 -0.76816841209E+01 -0.23910839843E+02 -0.60630316479E+01  0.25835961100E+02  0.51100000000E-03 0.  1.
         11    1    1    0    0    0 -0.10899308845E+02 -0.33930596354E+02 -0.86122854852E+01  0.36664039109E+02  0.51100000000E-03 0. -1.
         22    1    1    0    0    0  0.18580992966E+02  0.57841436197E+02  0.14675317133E+02  0.62499999791E+02  0.00000000000E+00 0.  1.
</event>
<event>
 4    1  0.1974401E-002  0.9118800E+02  0.7818608E-02  0.1130116E+00
         25   -1    0    0    0    0  0.00000000000E+00  0.00000000000E+00  0.99999998245E-14  0.12500000000E+03  0.12500000000E+03 0.  0.
        -11    1    1    0    0    0 -0.13815455135E+02  0.20171564033E+02 -0.54861441120E+01  0.25057066341E+02  0.51100000000E-03 0. -1.
         11    1    1    0    0    0 -0.20185954090E+02  0.30482673961E+02 -0.80854817017E+01  0.37443840200E+02  0.51100000000E-03 0.  1.
         22    1    1    0    0    0  0.34001409225E+02 -0.50654237994E+02  0.13571625814E+02  0.62499093459E+02  0.00000000000E+00 0.  1.
</event>
<event>
 4    1  0.1974401E-002  0.9118800E+02  0.7818608E-02  0.1130116E+00
         25   -1    0    0    0    0  0.00000000000E+00  0.00000000000E+00  0.99999998245E-14  0.12500000000E+03  0.12500000000E+03 0.  0.
        -11    1    1    0    0    0 -0.17575952113E+02 -0.21567752591E+02 -0.25507540037E+02  0.37745418841E+02  0.51100000000E-03 0.  1.
         11    1    1    0    0    0 -0.11525958692E+02 -0.14141805645E+02 -0.16731733427E+02  0.24754581281E+02  0.51100000000E-03 0.  1.
         22    1    1    0    0    0  0.29101910805E+02  0.35709558235E+02  0.42239273465E+02  0.62499999878E+02  0.00000000000E+00 0.  1.
</event>
<event>
 4    1  0.1974401E-002  0.9118800E+02  0.7818608E-02  0.1130116E+00
         25   -1    0    0    0    0  0.00000000000E+00  0.00000000000E+00  0.99999998245E-14  0.12500000000E+03  0.12500000000E+03 0.  0.
        -11    1    1    0    0    0 -0.16419429203E+02 -0.89033845053E+01  0.24944853951E+02  0.31162696448E+02  0.51100000000E-03 0. -1.
         11    1    1    0    0    0 -0.11421982440E+02 -0.14671163425E+02  0.25515040451E+02  0.31570904463E+02  0.51100000000E-03 0.  1.
         22    1    1    0    0    0  0.27841411643E+02  0.23574547931E+02 -0.50459894402E+02  0.62266399089E+02  0.00000000000E+00 0. -1.
</event>
<event>
 4    1  0.1974401E-002  0.9118800E+02  0.7818608E-02  0.1130116E+00
         25   -1    0    0    0    0  0.00000000000E+00  0.00000000000E+00  0.99999998245E-14  0.12500000000E+03  0.12500000000E+03 0.  0.
        -11    1    1    0    0    0  0.46335476271E+02  0.79117933980E+01 -0.22006708000E+02  0.51902485810E+02  0.51100000000E-03 0.  1.
         11    1    1    0    0    0  0.94634320534E+01  0.16120818885E+01 -0.44890943051E+01  0.10597514906E+02  0.51100000000E-03 0. -1.
         22    1    1    0    0    0 -0.55798908324E+02 -0.95238752865E+01  0.26495802305E+02  0.62499999284E+02  0.00000000000E+00 0.  1.
</event>
<event>
 4    1  0.1974401E-002  0.9118800E+02  0.7818608E-02  0.1130116E+00
         25   -1    0    0    0    0  0.00000000000E+00  0.00000000000E+00  0.99999998245E-14  0.12500000000E+03  0.12500000000E+03 0.  0.
        -11    1    1    0    0    0 -0.55658423315E+00 -0.37660516364E+01 -0.25777146166E+01  0.45975584654E+01  0.51100000000E-03 0. -1.
         11    1    1    0    0    0 -0.70047069481E+01 -0.47500697157E+02 -0.32362187088E+02  0.57902446436E+02  0.51100000000E-03 0.  1.
         22    1    1    0    0    0  0.75612911812E+01  0.51266748794E+02  0.34939901705E+02  0.62499995099E+02  0.00000000000E+00 0.  1.
</event>
<event>
 4    1  0.1974401E-002  0.9118800E+02  0.7818608E-02  0.1130116E+00
         25   -1    0    0    0    0  0.00000000000E+00  0.00000000000E+00  0.99999998245E-14  0.12500000000E+03  0.12500000000E+03 0.  0.
        -11    1    1    0    0    0  0.36653646630E+02  0.40911861089E+02 -0.25035156080E+02  0.60365795193E+02  0.51100000000E-03 0.  1.
         11    1    1    0    0    0  0.12861012442E+01  0.14541381968E+01 -0.88675358363E+00  0.21342226887E+01  0.51100000000E-03 0. -1.
         22    1    1    0    0    0 -0.37939747875E+02 -0.42365999285E+02  0.25921909663E+02  0.62499982119E+02  0.00000000000E+00 0.  1.
</event>
<event>
 4    1  0.1974401E-002  0.9118800E+02  0.7818608E-02  0.1130116E+00
         25   -1    0    0    0    0  0.00000000000E+00  0.00000000000E+00  0.99999998245E-14  0.12500000000E+03  0.12500000000E+03 0.  0.
        -11    1    1    0    0    0  0.20998782913E+02 -0.21094362310E+02 -0.41688796357E+02  0.51223790830E+02  0.51100000000E-03 0.  1.
         11    1    1    0    0    0  0.46152517279E+01 -0.46434731768E+01 -0.91809873874E+01  0.11276210415E+02  0.51100000000E-03 0. -1.
         22    1    1    0    0    0 -0.25614034641E+02  0.25737835486E+02  0.50869783745E+02  0.62499998755E+02  0.00000000000E+00 0.  1.
</event>
<event>
 4    1  0.1974401E-002  0.9118800E+02  0.7818608E-02  0.1130116E+00
         25   -1    0    0    0    0  0.00000000000E+00  0.00000000000E+00  0.99999998245E-14  0.12500000000E+03  0.12500000000E+03 0.  0.
        -11    1    1    0    0    0  0.14395795906E+02  0.23940950026E+02  0.30717139489E+02  0.41520485144E+02  0.51100000000E-03 0.  1.
         11    1    1    0    0    0  0.66269934292E+01  0.12142237425E+02  0.15778174351E+02  0.20983368598E+02  0.51100000000E-03 0. -1.
         22    1    1    0    0    0 -0.21022789336E+02 -0.36083187451E+02 -0.46495313840E+02  0.62496146258E+02  0.00000000000E+00 0. -1.
</event>
<event>
 4    1  0.1974401E-002  0.9118800E+02  0.7818608E-02  0.1130116E+00
         25   -1    0    0    0    0  0.00000000000E+00  0.00000000000E+00  0.99999998245E-14  0.12500000000E+03  0.12500000000E+03 0.  0.
        -11    1    1    0    0    0 -0.33999493281E+02 -0.33025228834E+02  0.32059855258E+02  0.57222946466E+02  0.51100000000E-03 0. -1.
         11    1    1    0    0    0 -0.31335708897E+01 -0.30460308633E+01  0.29579935692E+01  0.52770537952E+01  0.51100000000E-03 0.  1.
         22    1    1    0    0    0  0.37133064171E+02  0.36071259697E+02 -0.35017848827E+02  0.62499999738E+02  0.00000000000E+00 0. -1.
</event>
<event>
 4    1  0.1974401E-002  0.9118800E+02  0.7818608E-02  0.1130116E+00
         25   -1    0    0    0    0  0.00000000000E+00  0.00000000000E+00  0.99999998245E-14  0.12500000000E+03  0.12500000000E+03 0.  0.
        -11    1    1    0    0    0  0.30206992855E+02 -0.29812954775E+02 -0.83645710485E+01  0.43257840200E+02  0.51100000000E-03 0.  1.
         11    1    1    0    0    0  0.13438027353E+02 -0.13260145880E+02 -0.37213797285E+01  0.19242159839E+02  0.51100000000E-03 0. -1.
         22    1    1    0    0    0 -0.43645020208E+02  0.43073100654E+02  0.12085950777E+02  0.62499999961E+02  0.00000000000E+00 0.  1.
</event>
<event>
 4    1  0.1974401E-002  0.9118800E+02  0.7818608E-02  0.1130116E+00
         25   -1    0    0    0    0  0.00000000000E+00  0.00000000000E+00  0.99999998245E-14  0.12500000000E+03  0.12500000000E+03 0.  0.
        -11    1    1    0    0    0 -0.28355802745E+01  0.33625347355E+00 -0.60812343690E+01  0.67182582269E+01  0.51100000000E-03 0. -1.
         11    1    1    0    0    0 -0.23606718115E+02 -0.22600279636E+02 -0.45602521889E+02  0.56103830374E+02  0.51100000000E-03 0.  1.
         22    1    1    0    0    0  0.26442298389E+02  0.22264026162E+02  0.51683756258E+02  0.62177911399E+02  0.00000000000E+00 0. -1.
</event>
<event>
 4    1  0.1974401E-002  0.9118800E+02  0.7818608E-02  0.1130116E+00
         25   -1    0    0    0    0  0.00000000000E+00  0.00000000000E+00  0.99999998245E-14  0.12500000000E+03  0.12500000000E+03 0.  0.
        -11    1    1    0    0    0  0.30260432311E+02  0.37929244234E+02  0.13743550806E+02  0.50430214364E+02  0.51100000000E-03 0. -1.
         11    1    1    0    0    0  0.69389764377E+01  0.92159536789E+01  0.35596138297E+01  0.12072864080E+02  0.51100000000E-03 0.  1.
         22    1    1    0    0    0 -0.37199408749E+02 -0.47145197913E+02 -0.17303164636E+02  0.62496921556E+02  0.00000000000E+00 0.  1.
</event>
<event>
 4    1  0.1974401E-002  0.9118800E+02  0.7818608E-02  0.1130116E+00
         25   -1    0    0    0    0  0.00000000000E+00  0.00000000000E+00  0.99999998245E-14  0.12500000000E+03  0.12500000000E+03 0.  0.
        -11    1    1    0    0    0  0.24462199369E+02  0.83053799450E+01  0.25125700169E+02  0.36037193887E+02  0.51100000000E-03 0.  1.
         11    1    1    0    0    0  0.17963199516E+02  0.60983641784E+01  0.18450298776E+02  0.26462806119E+02  0.51100000000E-03 0.  1.
         22    1    1    0    0    0 -0.42425398885E+02 -0.14403744123E+02 -0.43575998945E+02  0.62499999995E+02  0.00000000000E+00 0.  1.
</event>
<event>
 4    1  0.1974401E-002  0.9118800E+02  0.7818608E-02  0.1130116E+00
         25   -1    0    0    0    0  0.00000000000E+00  0.00000000000E+00  0.99999998245E-14  0.12500000000E+03  0.12500000000E+03 0.  0.
        -11    1    1    0    0    0 -0.14999260655E+02  0.37296912305E+02 -0.22977014118E+02  0.46303138833E+02  0.51100000000E-03 0. -1.
         11    1    1    0    0    0 -0.53842815175E+01 -0.19399886763E+02 -0.19674654300E+02  0.28150277370E+02  0.51100000000E-03 0.  1.
         22    1    1    0    0    0  0.20383542173E+02 -0.17897025542E+02  0.42651668419E+02  0.50546583798E+02  0.00000000000E+00 0. -1.
</event>
<event>
 4    1  0.1974401E-002  0.9118800E+02  0.7818608E-02  0.1130116E+00
         25   -1    0    0    0    0  0.00000000000E+00  0.00000000000E+00  0.99999998245E-14  0.12500000000E+03  0.12500000000E+03 0.  0.
        -11    1    1    0    0    0 -0.56923100097E+02  0.12376469892E+02 -0.19300860326E+02  0.61367251374E+02  0.51100000000E-03 0. -1.
         11    1    1    0    0    0 -0.10510190689E+01  0.22658095505E+00 -0.35656852898E+00  0.11327494822E+01  0.51100000000E-03 0.  1.
         22    1    1    0    0    0  0.57974119166E+02 -0.12603050847E+02  0.19657428855E+02  0.62499999143E+02  0.00000000000E+00 0. -1.
</event>
<event>
 4    1  0.1974401E-002  0.9118800E+02  0.7818608E-02  0.1130116E+00
         25   -1    0    0    0    0  0.00000000000E+00  0.00000000000E+00  0.99999998245E-14  0.12500000000E+03  0.12500000000E+03 0.  0.
        -11    1    1    0    0    0 -0.37848061128E+02 -0.26177687207E+02 -0.34236185438E+02  0.57357331112E+02  0.51100000000E-03 0.  1.
         11    1    1    0    0    0 -0.33955064202E+01 -0.23484259771E+01 -0.30663467526E+01  0.51426696460E+01  0.51100000000E-03 0. -1.
         22    1    1    0    0    0  0.41243567548E+02  0.28526113184E+02  0.37302532191E+02  0.62499999242E+02  0.00000000000E+00 0.  1.
</event>
<event>
 4    1  0.1974401E-002  0.9118800E+02  0.7818608E-02  0.1130116E+00
         25   -1    0    0    0    0  0.00000000000E+00  0.00000000000E+00  0.99999998245E-14  0.12500000000E+03  0.12500000000E+03 0.  0.
        -11    1    1    0    0    0  0.32854101355E+02 -0.11153167465E+02 -0.36561944840E+02  0.50403977334E+02  0.51100000000E-03 0.  1.
         11    1    1    0    0    0  0.78640366189E+01 -0.26916983327E+01 -0.87878203552E+01  0.12096036488E+02  0.51100000000E-03 0.  1.
         22    1    1    0    0    0 -0.40718137974E+02  0.13844865797E+02  0.45349765195E+02  0.62499986178E+02  0.00000000000E+00 0.  1.
</event>
<event>
 4    1  0.1974401E-002  0.9118800E+02  0.7818608E-02  0.1130116E+00
         25   -1    0    0    0    0  0.00000000000E+00  0.00000000000E+00  0.99999998245E-14  0.12500000000E+03  0.12500000000E+03 0.  0.
        -11    1    1    0    0    0 -0.44049301380E+01 -0.40560483420E+01 -0.12620687554E+02  0.13969133555E+02  0.51100000000E-03 0. -1.
         11    1    1    0    0    0 -0.15301592638E+02 -0.14086232922E+02 -0.43848424223E+02  0.48530866491E+02  0.51100000000E-03 0.  1.
         22    1    1    0    0    0  0.19706522776E+02  0.18142281264E+02  0.56469111778E+02  0.62499999955E+02  0.00000000000E+00 0. -1.
</event>
<event>
 4    1  0.1974401E-002  0.9118800E+02  0.7818608E-02  0.1130116E+00
         25   -1    0    0    0    0  0.00000000000E+00  0.00000000000E+00  0.99999998245E-14  0.12500000000E+03  0.12500000000E+03 0.  0.
        -11    1    1    0    0    0  0.19566261616E+01 -0.16250890284E+01 -0.65957861418E+01  0.70692075494E+01  0.51100000000E-03 0.  1.
         11    1    1    0    0    0  0.15387369370E+02 -0.12783660412E+02 -0.51695066351E+02  0.55430794645E+02  0.51100000000E-03 0. -1.
         22    1    1    0    0    0 -0.17343995532E+02  0.14408749441E+02  0.58290852492E+02  0.62499997806E+02  0.00000000000E+00 0. -1.
</event>
<event>
 4    1  0.1974401E-002  0.9118800E+02  0.7818608E-02  0.1130116E+00
         25   -1    0    0    0    0  0.00000000000E+00  0.00000000000E+00  0.99999998245E-14  0.12500000000E+03  0.12500000000E+03 0.  0.
        -11    1    1    0    0    0  0.14502113153E+02 -0.34132158119E+02  0.31988618979E+02  0.48975373895E+02  0.51100000000E-03 0.  1.
         11    1    1    0    0    0  0.58011999781E+01 -0.11297192465E+02  0.53833276677E+01  0.13793501941E+02  0.51100000000E-03 0. -1.
         22    1    1    0    0    0 -0.20303313131E+02  0.45429350583E+02 -0.37371946647E+02  0.62231124164E+02  0.00000000000E+00 0.  1.
</event>
<event>
 4    1  0.1974401E-002  0.9118800E+02  0.7818608E-02  0.1130116E+00
         25   -1    0    0    0    0  0.00000000000E+00  0.00000000000E+00  0.99999998245E-14  0.12500000000E+03  0.12500000000E+03 0.  0.
        -11    1    1    0    0    0  0.20802721993E+02  0.19845274150E+02  0.18343913121E+02  0.34104065700E+02  0.51100000000E-03 0. -1.
         11    1    1    0    0    0  0.16089195775E+02  0.93927569474E+01  0.22050437642E+02  0.28867073012E+02  0.51100000000E-03 0.  1.
         22    1    1    0    0    0 -0.36891917769E+02 -0.29238031098E+02 -0.40394350764E+02  0.62028861288E+02  0.00000000000E+00 0.  1.
</event>
<event>
 4    1  0.1974401E-002  0.9118800E+02  0.7818608E-02  0.1130116E+00
         25   -1    0    0    0    0  0.00000000000E+00  0.00000000000E+00  0.99999998245E-14  0.12500000000E+03  0.12500000000E+03 0.  0.
        -11    1    1    0    0    0  0.52816619508E+02 -0.80203017972E+01 -0.27772469982E+02  0.60209888111E+02  0.51100000000E-03 0.  1.
         11    1    1    0    0    0  0.20105474077E+01 -0.30261118658E+00 -0.10539188439E+01  0.22901134469E+01  0.51100000000E-03 0.  1.
         22    1    1    0    0    0 -0.54827166916E+02  0.83229129838E+01  0.28826388826E+02  0.62499998442E+02  0.00000000000E+00 0.  1.
</event>
<event>
 4    1  0.1974401E-002  0.9118800E+02  0.7818608E-02  0.1130116E+00
         25   -1    0    0    0    0  0.00000000000E+00  0.00000000000E+00  0.99999998245E-14  0.12500000000E+03  0.12500000000E+03 0.  0.
        -11    1    1    0    0    0 -0.62159635638E+01  0.44952104120E+02 -0.29318965312E+00  0.45380786995E+02  0.51100000000E-03 0. -1.
         11    1    1    0    0    0 -0.23437415572E+01  0.16957643392E+02 -0.11252435686E+00  0.17119213063E+02  0.51100000000E-03 0.  1.
         22    1    1    0    0    0  0.85597051210E+01 -0.61909747513E+02  0.40571400998E+00  0.62499999942E+02  0.00000000000E+00 0. -1.
</event>
<event>
 4    1  0.1974401E-002  0.9118800E+02  0.7818608E-02  0.1130116E+00
         25   -1    0    0    0    0  0.00000000000E+00  0.00000000000E+00  0.99999998245E-14  0.12500000000E+03  0.12500000000E+03 0.  0.
        -11    1    1    0    0    0  0.95801044314E+01  0.29023395244E+02  0.61522592728E+01  0.31176692686E+02  0.51100000000E-03 0. -1.
         11    1    1    0    0    0  0.96150058832E+01  0.29164924679E+02  0.61732049517E+01  0.31323308084E+02  0.51100000000E-03 0.  1.
         22    1    1    0    0    0 -0.19195110315E+02 -0.58188319923E+02 -0.12325464224E+02  0.62499999230E+02  0.00000000000E+00 0. -1.
</event>
<event>
 4    1  0.1974401E-002  0.9118800E+02  0.7818608E-02  0.1130116E+00
         25   -1    0    0    0    0  0.00000000000E+00  0.00000000000E+00  0.99999998245E-14  0.12500000000E+03  0.12500000000E+03 0.  0.
        -11    1    1    0    0    0  0.50720398469E+01 -0.11055364782E+02 -0.43926489285E+02  0.45579415747E+02  0.51100000000E-03 0.  1.
         11    1    1    0    0    0  0.18828834688E+01 -0.41028064697E+01 -0.16307295943E+02  0.16920584278E+02  0.51100000000E-03 0. -1.
         22    1    1    0    0    0 -0.69549233157E+01  0.15158171252E+02  0.60233785228E+02  0.62499999975E+02  0.00000000000E+00 0.  1.
</event>
<event>
 4    1  0.1974401E-002  0.9118800E+02  0.7818608E-02  0.1130116E+00
         25   -1    0    0    0    0  0.00000000000E+00  0.00000000000E+00  0.99999998245E-14  0.12500000000E+03  0.12500000000E+03 0.  0.
        -11    1    1    0    0    0  0.21264847939E+02  0.10004693194E+02 -0.31214153787E+02  0.39071870197E+02  0.51100000000E-03 0.  1.
         11    1    1    0    0    0  0.12792833792E+02  0.47709585412E+01 -0.19051659758E+02  0.23438950097E+02  0.51100000000E-03 0. -1.
         22    1    1    0    0    0 -0.34057681730E+02 -0.14775651735E+02  0.50265813545E+02  0.62489179707E+02  0.00000000000E+00 0.  1.
</event>
<event>
 4    1  0.1974401E-002  0.9118800E+02  0.7818608E-02  0.1130116E+00
         25   -1    0    0    0    0  0.00000000000E+00  0.00000000000E+00  0.99999998245E-14  0.12500000000E+03  0.12500000000E+03 0.  0.
        -11    1    1    0    0    0 -0.12389101627E+02 -0.57187437814E+01 -0.27296499228E+02  0.30517089310E+02  0.51100000000E-03 0. -1.
         11    1    1    0    0    0 -0.12976395977E+02 -0.59966001170E+01 -0.28610496850E+02  0.31982910996E+02  0.51100000000E-03 0.  1.
         22    1    1    0    0    0  0.25365497604E+02  0.11715343898E+02  0.55906996078E+02  0.62499999694E+02  0.00000000000E+00 0.  1.
</event>
<event>
 4    1  0.1974401E-002  0.9118800E+02  0.7818608E-02  0.1130116E+00
         25   -1    0    0    0    0  0.00000000000E+00  0.00000000000E+00  0.99999998245E-14  0.12500000000E+03  0.12500000000E+03 0.  0.
        -11    1    1    0    0    0 -0.12705341675E+01 -0.45537330930E+01 -0.40689109755E+01  0.62375298749E+01  0.51100000000E-03 0. -1.
         11    1    1    0    0    0 -0.11638021083E+02 -0.41035751791E+02 -0.36689109375E+02  0.56262484897E+02  0.51100000000E-03 0.  1.
         22    1    1    0    0    0  0.12908555250E+02  0.45589484884E+02  0.40758020351E+02  0.62499985228E+02  0.00000000000E+00 0. -1.
</event>
<event>
 4    1  0.1974401E-002  0.9118800E+02  0.7818608E-02  0.1130116E+00
         25   -1    0    0    0    0  0.00000000000E+00  0.00000000000E+00  0.99999998245E-14  0.12500000000E+03  0.12500000000E+03 0.  0.
        -11    1    1    0    0    0  0.20859882685E+02  0.45545917658E+01 -0.40380262074E+02  0.45677615713E+02  0.51100000000E-03 0.  1.
         11    1    1    0    0    0  0.65457331603E+01  0.33793191921E+01 -0.15175371421E+02  0.16868856476E+02  0.51100000000E-03 0. -1.
         22    1    1    0    0    0 -0.27405615846E+02 -0.79339109579E+01  0.55555633495E+02  0.62453527810E+02  0.00000000000E+00 0.  1.
</event>
<event>
 4    1  0.1974401E-002  0.9118800E+02  0.7818608E-02  0.1130116E+00
         25   -1    0    0    0    0  0.00000000000E+00  0.00000000000E+00  0.99999998245E-14  0.12500000000E+03  0.12500000000E+03 0.  0.
        -11    1    1    0    0    0  0.19842010699E+01  0.89298304526E+01  0.23500098191E+02  0.25217722757E+02  0.51100000000E-03 0. -1.
         11    1    1    0    0    0 -0.24797726964E+02 -0.17376160062E+02  0.28995655955E+02  0.41923815018E+02  0.51100000000E-03 0.  1.
         22    1    1    0    0    0  0.22813525894E+02  0.84463296090E+01 -0.52495754147E+02  0.57858462225E+02  0.00000000000E+00 0.  1.
</event>
<event>
 4    1  0.1974401E-002  0.9118800E+02  0.7818608E-02  0.1130116E+00
         25   -1    0    0    0    0  0.00000000000E+00  0.00000000000E+00  0.99999998245E-14  0.12500000000E+03  0.12500000000E+03 0.  0.
        -11    1    1    0    0    0  0.28694417132E+02 -0.16733200682E+02 -0.43259961765E+02  0.54541670966E+02  0.51100000000E-03 0. -1.
         11    1    1    0    0    0 -0.18214320533E-01 -0.31325537519E+01 -0.79216754203E+01  0.85185777273E+01  0.51100000000E-03 0.  1.
         22    1    1    0    0    0 -0.28676202811E+02  0.19865754434E+02  0.51181637186E+02  0.61939751306E+02  0.00000000000E+00 0. -1.
</event>
<event>
 4    1  0.1974401E-002  0.9118800E+02  0.7818608E-02  0.1130116E+00
         25   -1    0    0    0    0  0.00000000000E+00  0.00000000000E+00  0.99999998245E-14  0.12500000000E+03  0.12500000000E+03 0.  0.
        -11    1    1    0    0    0  0.36349876014E+01  0.26926561963E+02 -0.14367379565E+02  0.30735557093E+02  0.51100000000E-03 0.  1.
         11    1    1    0    0    0  0.32422667030E+01  0.27647074281E+02 -0.15304611205E+02  0.31766399451E+02  0.51100000000E-03 0. -1.
         22    1    1    0    0    0 -0.68772543044E+01 -0.54573636243E+02  0.29671990770E+02  0.62498043456E+02  0.00000000000E+00 0. -1.
</event>
<event>
 4    1  0.1974401E-002  0.9118800E+02  0.7818608E-02  0.1130116E+00
         25   -1    0    0    0    0  0.00000000000E+00  0.00000000000E+00  0.99999998245E-14  0.12500000000E+03  0.12500000000E+03 0.  0.
        -11    1    1    0    0    0  0.45612411019E+02 -0.23151980020E+02 -0.56808124608E+01  0.51466278749E+02  0.51100000000E-03 0. -1.
         11    1    1    0    0    0  0.79408888037E+01 -0.75051798995E+01 -0.27124452877E+01  0.11258010482E+02  0.51100000000E-03 0.  1.
         22    1    1    0    0    0 -0.53553299822E+02  0.30657159919E+02  0.83932577485E+01  0.62275710769E+02  0.00000000000E+00 0. -1.
</event>
<event>
 4    1  0.1974401E-002  0.9118800E+02  0.7818608E-02  0.1130116E+00
         25   -1    0    0    0    0  0.00000000000E+00  0.00000000000E+00  0.99999998245E-14  0.12500000000E+03  0.12500000000E+03 0.  0.
        -11    1    1    0    0    0  0.26095380801E+02 -0.79631671344E+01  0.41299568925E+02  0.49497831504E+02  0.51100000000E-03 0. -1.
         11    1    1    0    0    0  0.78428042698E+01 -0.15466708356E+01  0.10285179107E+02  0.13026383958E+02  0.51100000000E-03 0.  1.
         22    1    1    0    0    0 -0.33938185071E+02  0.95098379700E+01 -0.51584748032E+02  0.62475784538E+02  0.00000000000E+00 0. -1.
</event>
<event>
 4    1  0.1974401E-002  0.9118800E+02  0.7818608E-02  0.1130116E+00
         25   -1    0    0    0    0  0.00000000000E+00  0.00000000000E+00  0.99999998245E-14  0.12500000000E+03  0.12500000000E+03 0.  0.
        -11    1    1    0    0    0  0.35723308248E+01  0.12485727341E+02 -0.52565075318E+02  0.54145563790E+02  0.51100000000E-03 0. -1.
         11    1    1    0    0    0  0.61272217993E+00  0.19788545377E+01 -0.80937173680E+01  0.83546127885E+01  0.51100000000E-03 0.  1.
         22    1    1    0    0    0 -0.41850530047E+01 -0.14464581879E+02  0.60658792686E+02  0.62499823421E+02  0.00000000000E+00 0. -1.
</event>
<event>
 4    1  0.1974401E-002  0.9118800E+02  0.7818608E-02  0.1130116E+00
         25   -1    0    0    0    0  0.00000000000E+00  0.00000000000E+00  0.99999998245E-14  0.12500000000E+03  0.12500000000E+03 0.  0.
        -11    1    1    0    0    0  0.65129362335E+01 -0.33569594065E+01 -0.11280665932E+02  0.13451428882E+02  0.51100000000E-03 0.  1.
         11    1    1    0    0    0  0.87356942464E+01 -0.85498338656E+01 -0.47822287850E+02  0.49359732866E+02  0.51100000000E-03 0. -1.
         22    1    1    0    0    0 -0.15248630480E+02  0.11906793272E+02  0.59102953781E+02  0.62188838253E+02  0.00000000000E+00 0. -1.
</event>
<event>
 4    1  0.1974401E-002  0.9118800E+02  0.7818608E-02  0.1130116E+00
         25   -1    0    0    0    0  0.00000000000E+00  0.00000000000E+00  0.99999998245E-14  0.12500000000E+03  0.12500000000E+03 0.  0.
        -11    1    1    0    0    0 -0.39999547031E+02 -0.11848354388E+02 -0.41669339158E+02  0.58963387713E+02  0.51100000000E-03 0.  1.
         11    1    1    0    0    0 -0.22893173015E+01 -0.62581847612E+00 -0.26251793135E+01  0.35389531166E+01  0.51100000000E-03 0. -1.
         22    1    1    0    0    0  0.42288864332E+02  0.12474172864E+02  0.44294518472E+02  0.62497659171E+02  0.00000000000E+00 0.  1.
</event>
<event>
 4    1  0.1974401E-002  0.9118800E+02  0.7818608E-02  0.1130116E+00
         25   -1    0    0    0    0  0.00000000000E+00  0.00000000000E+00  0.99999998245E-14  0.12500000000E+03  0.12500000000E+03 0.  0.
        -11    1    1    0    0    0  0.30309510436E+01  0.55892837311E+00 -0.35422299473E+01  0.46953656317E+01  0.51100000000E-03 0.  1.
         11    1    1    0    0    0  0.37317984551E+02  0.68790233787E+01 -0.43605307285E+02  0.57804634393E+02  0.51100000000E-03 0.  1.
         22    1    1    0    0    0 -0.40348935595E+02 -0.74379517518E+01  0.47147537232E+02  0.62499999976E+02  0.00000000000E+00 0.  1.
</event>
<event>
 4    1  0.1974401E-002  0.9118800E+02  0.7818608E-02  0.1130116E+00
         25   -1    0    0    0    0  0.00000000000E+00  0.00000000000E+00  0.99999998245E-14  0.12500000000E+03  0.12500000000E+03 0.  0.
        -11    1    1    0    0    0  0.61106727453E+02 -0.11955822170E+01  0.32439142050E+01  0.61204448665E+02  0.51100000000E-03 0.  1.
         11    1    1    0    0    0  0.12908943307E+01 -0.76708073000E-01  0.87342355505E-01  0.12961177608E+01  0.51100000000E-03 0. -1.
         22    1    1    0    0    0 -0.62397621783E+02  0.12722902900E+01 -0.33312565605E+01  0.62499433574E+02  0.00000000000E+00 0.  1.
</event>
<event>
 4    1  0.1974401E-002  0.9118800E+02  0.7818608E-02  0.1130116E+00
         25   -1    0    0    0    0  0.00000000000E+00  0.00000000000E+00  0.99999998245E-14  0.12500000000E+03  0.12500000000E+03 0.  0.
        -11    1    1    0    0    0  0.36966818260E+01 -0.22342183581E+02  0.30907256519E+02  0.38315755630E+02  0.51100000000E-03 0. -1.
         11    1    1    0    0    0  0.23313793185E+01 -0.14101372126E+02  0.19508809592E+02  0.24184244403E+02  0.51100000000E-03 0. -1.
         22    1    1    0    0    0 -0.60280611445E+01  0.36443555707E+02 -0.50416066112E+02  0.62499999967E+02  0.00000000000E+00 0. -1.
</event>
<event>
 4    1  0.1974401E-002  0.9118800E+02  0.7818608E-02  0.1130116E+00
         25   -1    0    0    0    0  0.00000000000E+00  0.00000000000E+00  0.99999998245E-14  0.12500000000E+03  0.12500000000E+03 0.  0.
        -11    1    1    0    0    0  0.31310675243E+02 -0.13803882551E+02  0.27762517024E+01  0.34330935487E+02  0.51100000000E-03 0. -1.
         11    1    1    0    0    0  0.25618407854E+02 -0.11543499010E+02  0.19943654538E+01  0.28169712178E+02  0.51100000000E-03 0.  1.
         22    1    1    0    0    0 -0.56929083097E+02  0.25347381561E+02 -0.47706171562E+01  0.62499352335E+02  0.00000000000E+00 0. -1.
</event>
<event>
 4    1  0.1974401E-002  0.9118800E+02  0.7818608E-02  0.1130116E+00
         25   -1    0    0    0    0  0.00000000000E+00  0.00000000000E+00  0.99999998245E-14  0.12500000000E+03  0.12500000000E+03 0.  0.
        -11    1    1    0    0    0 -0.43154282889E+01  0.14527073572E+02 -0.41228304905E+01  0.15705302270E+02  0.51100000000E-03 0.  1.
         11    1    1    0    0    0 -0.12861397138E+02  0.43282881225E+02 -0.12284966184E+02  0.46794697754E+02  0.51100000000E-03 0. -1.
         22    1    1    0    0    0  0.17176825427E+02 -0.57809954796E+02  0.16407796675E+02  0.62499999976E+02  0.00000000000E+00 0. -1.
</event>
<event>
 4    1  0.1974401E-002  0.9118800E+02  0.7818608E-02  0.1130116E+00
         25   -1    0    0    0    0  0.00000000000E+00  0.00000000000E+00  0.99999998245E-14  0.12500000000E+03  0.12500000000E+03 0.  0.
        -11    1    1    0    0    0  0.18497285119E+02 -0.63903965656E+01 -0.17485757939E+01  0.19648008617E+02  0.51100000000E-03 0. -1.
         11    1    1    0    0    0  0.40342126966E+02 -0.13937493787E+02 -0.38147378264E+01  0.42851991390E+02  0.51100000000E-03 0. -1.
         22    1    1    0    0    0 -0.58839412085E+02  0.20327890352E+02  0.55633136203E+01  0.62499999993E+02  0.00000000000E+00 0. -1.
</event>
<event>
 4    1  0.1974401E-002  0.9118800E+02  0.7818608E-02  0.1130116E+00
         25   -1    0    0    0    0  0.00000000000E+00  0.00000000000E+00  0.99999998245E-14  0.12500000000E+03  0.12500000000E+03 0.  0.
        -11    1    1    0    0    0 -0.14748918341E+02 -0.42022918961E+01  0.64972194987E+01  0.16655440879E+02  0.51100000000E-03 0.  1.
         11    1    1    0    0    0 -0.39349962171E+02 -0.15297767311E+02  0.17926094247E+02  0.45867047679E+02  0.51100000000E-03 0. -1.
         22    1    1    0    0    0  0.54098880512E+02  0.19500059207E+02 -0.24423313746E+02  0.62477511442E+02  0.00000000000E+00 0. -1.
</event>
<event>
 4    1  0.1974401E-002  0.9118800E+02  0.7818608E-02  0.1130116E+00
         25   -1    0    0    0    0  0.00000000000E+00  0.00000000000E+00  0.99999998245E-14  0.12500000000E+03  0.12500000000E+03 0.  0.
        -11    1    1    0    0    0 -0.39214681331E+01 -0.16017062103E+02 -0.53959062271E+01  0.17350504171E+02  0.51100000000E-03 0.  1.
         11    1    1    0    0    0 -0.10195870147E+02 -0.41681002336E+02 -0.14043335114E+02  0.45149495957E+02  0.51100000000E-03 0. -1.
         22    1    1    0    0    0  0.14117338280E+02  0.57698064438E+02  0.19439241341E+02  0.62499999872E+02  0.00000000000E+00 0. -1.
</event>
<event>
 4    1  0.1974401E-002  0.9118800E+02  0.7818608E-02  0.1130116E+00
         25   -1    0    0    0    0  0.00000000000E+00  0.00000000000E+00  0.99999998245E-14  0.12500000000E+03  0.12500000000E+03 0.  0.
        -11    1    1    0    0    0  0.15346356199E+02 -0.38250078675E+01  0.16007381678E+02  0.22502835427E+02  0.51100000000E-03 0. -1.
         11    1    1    0    0    0  0.27296062917E+02 -0.67495808495E+01  0.28445417705E+02  0.39997170913E+02  0.51100000000E-03 0.  1.
         22    1    1    0    0    0 -0.42642419116E+02  0.10574588717E+02 -0.44452799383E+02  0.62499993660E+02  0.00000000000E+00 0.  1.
</event>
<event>
 4    1  0.1974401E-002  0.9118800E+02  0.7818608E-02  0.1130116E+00
         25   -1    0    0    0    0  0.00000000000E+00  0.00000000000E+00  0.99999998245E-14  0.12500000000E+03  0.12500000000E+03 0.  0.
        -11    1    1    0    0    0  0.62666401503E+01 -0.82659369717E+01  0.19178166284E+01  0.10548673551E+02  0.51100000000E-03 0. -1.
         11    1    1    0    0    0  0.26645865510E+02 -0.44241040581E+02  0.59380830642E+01  0.51985888962E+02  0.51100000000E-03 0.  1.
         22    1    1    0    0    0 -0.32912505660E+02  0.52506977553E+02 -0.78558996926E+01  0.62465437487E+02  0.00000000000E+00 0.  1.
</event>
<event>
 4    1  0.1974401E-002  0.9118800E+02  0.7818608E-02  0.1130116E+00
         25   -1    0    0    0    0  0.00000000000E+00  0.00000000000E+00  0.99999998245E-14  0.12500000000E+03  0.12500000000E+03 0.  0.
        -11    1    1    0    0    0  0.24619581536E+02 -0.63823589476E+01 -0.13766245253E+02  0.28920024367E+02  0.51100000000E-03 0. -1.
         11    1    1    0    0    0  0.28488111509E+02 -0.98510489240E+01 -0.14855121520E+02  0.33604914788E+02  0.51100000000E-03 0.  1.
         22    1    1    0    0    0 -0.53107693045E+02  0.16233407872E+02  0.28621366773E+02  0.62475060846E+02  0.00000000000E+00 0.  1.
</event>
<event>
 4    1  0.1974401E-002  0.9118800E+02  0.7818608E-02  0.1130116E+00
         25   -1    0    0    0    0  0.00000000000E+00  0.00000000000E+00  0.99999998245E-14  0.12500000000E+03  0.12500000000E+03 0.  0.
        -11    1    1    0    0    0  0.28840615458E+02 -0.21912011815E+02  0.25353715316E+02  0.44212308720E+02  0.51100000000E-03 0. -1.
         11    1    1    0    0    0  0.11930761617E+02 -0.90633732143E+01  0.10485792615E+02  0.18287691320E+02  0.51100000000E-03 0.  1.
         22    1    1    0    0    0 -0.40771377075E+02  0.30975385029E+02 -0.35839507931E+02  0.62499999960E+02  0.00000000000E+00 0. -1.
</event>
<event>
 4    1  0.1974401E-002  0.9118800E+02  0.7818608E-02  0.1130116E+00
         25   -1    0    0    0    0  0.00000000000E+00  0.00000000000E+00  0.99999998245E-14  0.12500000000E+03  0.12500000000E+03 0.  0.
        -11    1    1    0    0    0  0.44683767411E+02  0.21683732142E+02 -0.32802644906E+02  0.59521734036E+02  0.51100000000E-03 0.  1.
         11    1    1    0    0    0 -0.10513172895E+01  0.38245394561E+00 -0.40812524909E+01  0.42318035422E+01  0.51100000000E-03 0. -1.
         22    1    1    0    0    0 -0.43632450121E+02 -0.22066186087E+02  0.36883897397E+02  0.61246462422E+02  0.00000000000E+00 0.  1.
</event>
<event>
 4    1  0.1974401E-002  0.9118800E+02  0.7818608E-02  0.1130116E+00
         25   -1    0    0    0    0  0.00000000000E+00  0.00000000000E+00  0.99999998245E-14  0.12500000000E+03  0.12500000000E+03 0.  0.
        -11    1    1    0    0    0  0.47889558551E+02  0.21581214742E+02 -0.25821274642E+02  0.58531161550E+02  0.51100000000E-03 0. -1.
         11    1    1    0    0    0  0.32914205132E+01  0.13536327863E+01 -0.17585468436E+01  0.39696672376E+01  0.51100000000E-03 0.  1.
         22    1    1    0    0    0 -0.51180979064E+02 -0.22934847528E+02  0.27579821486E+02  0.62499171213E+02  0.00000000000E+00 0. -1.
</event>
<event>
 4    1  0.1974401E-002  0.9118800E+02  0.7818608E-02  0.1130116E+00
         25   -1    0    0    0    0  0.00000000000E+00  0.00000000000E+00  0.99999998245E-14  0.12500000000E+03  0.12500000000E+03 0.  0.
        -11    1    1    0    0    0  0.23892963636E+01 -0.32329426170E+02 -0.34948295663E+02  0.47668479140E+02  0.51100000000E-03 0. -1.
         11    1    1    0    0    0 -0.15661898923E+01 -0.11580300597E+02 -0.93403139515E+01  0.14959872248E+02  0.51100000000E-03 0.  1.
         22    1    1    0    0    0 -0.82310647130E+00  0.43909726767E+02  0.44288609614E+02  0.62371648612E+02  0.00000000000E+00 0. -1.
</event>
<event>
 4    1  0.1974401E-002  0.9118800E+02  0.7818608E-02  0.1130116E+00
         25   -1    0    0    0    0  0.00000000000E+00  0.00000000000E+00  0.99999998245E-14  0.12500000000E+03  0.12500000000E+03 0.  0.
        -11    1    1    0    0    0  0.12158042164E+02 -0.19758604477E+02 -0.12849241501E+01  0.23235134397E+02  0.51100000000E-03 0.  1.
         11    1    1    0    0    0  0.20331826278E+02 -0.33521013614E+02 -0.21679168538E+01  0.39265014673E+02  0.51100000000E-03 0. -1.
         22    1    1    0    0    0 -0.32489868442E+02  0.53279618091E+02  0.34528410039E+01  0.62499850930E+02  0.00000000000E+00 0.  1.
</event>
<event>
 4    1  0.1974401E-002  0.9118800E+02  0.7818608E-02  0.1130116E+00
         25   -1    0    0    0    0  0.00000000000E+00  0.00000000000E+00  0.99999998245E-14  0.12500000000E+03  0.12500000000E+03 0.  0.
        -11    1    1    0    0    0 -0.11044354028E+02  0.22518368470E+02  0.43950469073E+02  0.50603343827E+02  0.51100000000E-03 0. -1.
         11    1    1    0    0    0 -0.25999658254E+01  0.52883827235E+01  0.10334584321E+02  0.11896656987E+02  0.51100000000E-03 0.  1.
         22    1    1    0    0    0  0.13644319853E+02 -0.27806751194E+02 -0.54285053394E+02  0.62499999186E+02  0.00000000000E+00 0. -1.
</event>
<event>
 4    1  0.1974401E-002  0.9118800E+02  0.7818608E-02  0.1130116E+00
         25   -1    0    0    0    0  0.00000000000E+00  0.00000000000E+00  0.99999998245E-14  0.12500000000E+03  0.12500000000E+03 0.  0.
        -11    1    1    0    0    0 -0.56868756364E+02 -0.17984955257E+02  0.11176823797E+02  0.60683073888E+02  0.51100000000E-03 0.  1.
         11    1    1    0    0    0 -0.17115524000E+01 -0.53263196442E+00  0.29802297318E+00  0.18171203541E+01  0.51100000000E-03 0. -1.
         22    1    1    0    0    0  0.58580308764E+02  0.18517587222E+02 -0.11474846770E+02  0.62499805758E+02  0.00000000000E+00 0.  1.
</event>
<event>
 4    1  0.1974401E-002  0.9118800E+02  0.7818608E-02  0.1130116E+00
         25   -1    0    0    0    0  0.00000000000E+00  0.00000000000E+00  0.99999998245E-14  0.12500000000E+03  0.12500000000E+03 0.  0.
        -11    1    1    0    0    0  0.10780249730E+01 -0.10958463111E+02  0.50168317190E+02  0.51362535972E+02  0.51100000000E-03 0.  1.
         11    1    1    0    0    0  0.18124123828E+00 -0.24526684518E+01  0.10862702722E+02  0.11137627288E+02  0.51100000000E-03 0. -1.
         22    1    1    0    0    0 -0.12592662113E+01  0.13411131562E+02 -0.61031019911E+02  0.62499836740E+02  0.00000000000E+00 0.  1.
</event>
<event>
 4    1  0.1974401E-002  0.9118800E+02  0.7818608E-02  0.1130116E+00
         25   -1    0    0    0    0  0.00000000000E+00  0.00000000000E+00  0.99999998245E-14  0.12500000000E+03  0.12500000000E+03 0.  0.
        -11    1    1    0    0    0  0.28251864645E+02  0.28699662790E+02  0.26207149069E+02  0.48048445997E+02  0.51100000000E-03 0. -1.
         11    1    1    0    0    0  0.17981571520E+02 -0.32347619866E+01 -0.58679175689E+00  0.18279631404E+02  0.51100000000E-03 0.  1.
         22    1    1    0    0    0 -0.46233436165E+02 -0.25464900803E+02 -0.25620357313E+02  0.58671922598E+02  0.00000000000E+00 0. -1.
</event>
<event>
 4    1  0.1974401E-002  0.9118800E+02  0.7818608E-02  0.1130116E+00
         25   -1    0    0    0    0  0.00000000000E+00  0.00000000000E+00  0.99999998245E-14  0.12500000000E+03  0.12500000000E+03 0.  0.
        -11    1    1    0    0    0 -0.31103593596E+02 -0.25175316473E+02  0.68015211254E+01  0.40589293958E+02  0.51100000000E-03 0.  1.
         11    1    1    0    0    0 -0.16463842437E+02 -0.14007804875E+02  0.35910586883E+01  0.21912836602E+02  0.51100000000E-03 0. -1.
         22    1    1    0    0    0  0.47567436033E+02  0.39183121348E+02 -0.10392579814E+02  0.62497869440E+02  0.00000000000E+00 0.  1.
</event>
<event>
 4    1  0.1974401E-002  0.9118800E+02  0.7818608E-02  0.1130116E+00
         25   -1    0    0    0    0  0.00000000000E+00  0.00000000000E+00  0.99999998245E-14  0.12500000000E+03  0.12500000000E+03 0.  0.
        -11    1    1    0    0    0  0.47600946469E+01 -0.44098327552E+00 -0.48238803881E+01  0.67913761166E+01  0.51100000000E-03 0.  1.
         11    1    1    0    0    0  0.39077365934E+02 -0.36131243080E+01 -0.39539292904E+02  0.55708624819E+02  0.51100000000E-03 0. -1.
         22    1    1    0    0    0 -0.43837460581E+02  0.40541075835E+01  0.44363173292E+02  0.62499999064E+02  0.00000000000E+00 0. -1.
</event>
<event>
 4    1  0.1974401E-002  0.9118800E+02  0.7818608E-02  0.1130116E+00
         25   -1    0    0    0    0  0.00000000000E+00  0.00000000000E+00  0.99999998245E-14  0.12500000000E+03  0.12500000000E+03 0.  0.
        -11    1    1    0    0    0  0.23354629502E-01 -0.18549753747E+01  0.10159468547E+02  0.10327452759E+02  0.51100000000E-03 0. -1.
         11    1    1    0    0    0 -0.49355240563E+00 -0.98149239781E+01  0.51239107446E+02  0.52173005077E+02  0.51100000000E-03 0.  1.
         22    1    1    0    0    0  0.47019777613E+00  0.11669899353E+02 -0.61398575992E+02  0.62499542164E+02  0.00000000000E+00 0.  1.
</event>
<event>
 4    1  0.1974401E-002  0.9118800E+02  0.7818608E-02  0.1130116E+00
         25   -1    0    0    0    0  0.00000000000E+00  0.00000000000E+00  0.99999998245E-14  0.12500000000E+03  0.12500000000E+03 0.  0.
        -11    1    1    0    0    0 -0.58608162508E+01  0.10671690801E+00  0.31554252422E+00  0.58702745225E+01  0.51100000000E-03 0.  1.
         11    1    1    0    0    0 -0.56545896665E+02  0.11369461954E+01  0.28630081637E+01  0.56629743883E+02  0.51100000000E-03 0. -1.
         22    1    1    0    0    0  0.62406712915E+02 -0.12436631034E+01 -0.31785506880E+01  0.62499981594E+02  0.00000000000E+00 0. -1.
</event>
<event>
 4    1  0.1974401E-002  0.9118800E+02  0.7818608E-02  0.1130116E+00
         25   -1    0    0    0    0  0.00000000000E+00  0.00000000000E+00  0.99999998245E-14  0.12500000000E+03  0.12500000000E+03 0.  0.
        -11    1    1    0    0    0 -0.26352486368E+02  0.34669350126E+02  0.35730319379E+02  0.56330037272E+02  0.51100000000E-03 0. -1.
         11    1    1    0    0    0 -0.28835301057E+01  0.37916633771E+01  0.39213554529E+01  0.61699664411E+01  0.51100000000E-03 0.  1.
         22    1    1    0    0    0  0.29236016473E+02 -0.38461013503E+02 -0.39651674832E+02  0.62499996287E+02  0.00000000000E+00 0. -1.
</event>
<event>
 4    1  0.1974401E-002  0.9118800E+02  0.7818608E-02  0.1130116E+00
         25   -1    0    0    0    0  0.00000000000E+00  0.00000000000E+00  0.99999998245E-14  0.12500000000E+03  0.12500000000E+03 0.  0.
        -11    1    1    0    0    0 -0.73138205613E+00  0.68806874784E+00  0.40440166074E+00  0.10825429682E+01  0.51100000000E-03 0. -1.
         11    1    1    0    0    0 -0.49692804406E+02  0.30628310832E+02  0.19129984392E+02  0.61428206365E+02  0.51100000000E-03 0.  1.
         22    1    1    0    0    0  0.50424186462E+02 -0.31316379580E+02 -0.19534386053E+02  0.62489250666E+02  0.00000000000E+00 0.  1.
</event>
<event>
 4    1  0.1974401E-002  0.9118800E+02  0.7818608E-02  0.1130116E+00
         25   -1    0    0    0    0  0.00000000000E+00  0.00000000000E+00  0.99999998245E-14  0.12500000000E+03  0.12500000000E+03 0.  0.
        -11    1    1    0    0    0 -0.16239794645E+02  0.20685663287E+02  0.82616780248E+01  0.27565973950E+02  0.51100000000E-03 0.  1.
         11    1    1    0    0    0 -0.20577823616E+02  0.26214483893E+02  0.10475695418E+02  0.34934026182E+02  0.51100000000E-03 0. -1.
         22    1    1    0    0    0  0.36817618262E+02 -0.46900147180E+02 -0.18737373443E+02  0.62499999868E+02  0.00000000000E+00 0. -1.
</event>
<event>
 4    1  0.1974401E-002  0.9118800E+02  0.7818608E-02  0.1130116E+00
         25   -1    0    0    0    0  0.00000000000E+00  0.00000000000E+00  0.99999998245E-14  0.12500000000E+03  0.12500000000E+03 0.  0.
        -11    1    1    0    0    0 -0.18935613935E+02 -0.24900615153E+01 -0.46384966991E+01  0.19653842711E+02  0.51100000000E-03 0.  1.
         11    1    1    0    0    0 -0.41636168330E+02 -0.11129553904E+02  0.36776976328E+01  0.43254629157E+02  0.51100000000E-03 0. -1.
         22    1    1    0    0    0  0.60571782265E+02  0.13619615419E+02  0.96079906630E+00  0.62091528132E+02  0.00000000000E+00 0. -1.
</event>
<event>
 4    1  0.1974401E-002  0.9118800E+02  0.7818608E-02  0.1130116E+00
         25   -1    0    0    0    0  0.00000000000E+00  0.00000000000E+00  0.99999998245E-14  0.12500000000E+03  0.12500000000E+03 0.  0.
        -11    1    1    0    0    0 -0.35158380186E+02  0.80404522149E+01  0.38001556043E+02  0.52391591225E+02  0.51100000000E-03 0. -1.
         11    1    1    0    0    0 -0.67827639278E+01  0.15508959787E+01  0.73327186975E+01  0.10108408806E+02  0.51100000000E-03 0. -1.
         22    1    1    0    0    0  0.41941144114E+02 -0.95913481936E+01 -0.45334274741E+02  0.62499999968E+02  0.00000000000E+00 0. -1.
</event>
<event>
 4    1  0.1974401E-002  0.9118800E+02  0.7818608E-02  0.1130116E+00
         25   -1    0    0    0    0  0.00000000000E+00  0.00000000000E+00  0.99999998245E-14  0.12500000000E+03  0.12500000000E+03 0.  0.
        -11    1    1    0    0    0  0.96226191505E+01  0.42901971729E+01  0.12261671094E+02  0.16166297330E+02  0.51100000000E-03 0.  1.
         11    1    1    0    0    0  0.37230344238E+02  0.24167510503E+02  0.15970849236E+02  0.47172397878E+02  0.51100000000E-03 0. -1.
         22    1    1    0    0    0 -0.46852963388E+02 -0.28457707676E+02 -0.28232520330E+02  0.61661304792E+02  0.00000000000E+00 0. -1.
</event>
<event>
 4    1  0.1974401E-002  0.9118800E+02  0.7818608E-02  0.1130116E+00
         25   -1    0    0    0    0  0.00000000000E+00  0.00000000000E+00  0.99999998245E-14  0.12500000000E+03  0.12500000000E+03 0.  0.
        -11    1    1    0    0    0 -0.45223148202E+01  0.16821022121E+02  0.11868683734E+01  0.17458716257E+02  0.51100000000E-03 0. -1.
         11    1    1    0    0    0 -0.11653006788E+02  0.43400958515E+02  0.30465616718E+01  0.45041284456E+02  0.51100000000E-03 0.  1.
         22    1    1    0    0    0  0.16175321608E+02 -0.60221980636E+02 -0.42334300452E+01  0.62499999287E+02  0.00000000000E+00 0.  1.
</event>
<event>
 4    1  0.1974401E-002  0.9118800E+02  0.7818608E-02  0.1130116E+00
         25   -1    0    0    0    0  0.00000000000E+00  0.00000000000E+00  0.99999998245E-14  0.12500000000E+03  0.12500000000E+03 0.  0.
        -11    1    1    0    0    0  0.53419770004E+00 -0.10929107704E+00  0.67968777154E+01  0.68187138569E+01  0.51100000000E-03 0.  1.
         11    1    1    0    0    0  0.43620135321E+01 -0.89443657898E+00  0.55502958920E+02  0.55681286156E+02  0.51100000000E-03 0.  1.
         22    1    1    0    0    0 -0.48962112321E+01  0.10037276560E+01 -0.62299836635E+02  0.62499999987E+02  0.00000000000E+00 0.  1.
</event>
<event>
 4    1  0.1974401E-002  0.9118800E+02  0.7818608E-02  0.1130116E+00
         25   -1    0    0    0    0  0.00000000000E+00  0.00000000000E+00  0.99999998245E-14  0.12500000000E+03  0.12500000000E+03 0.  0.
        -11    1    1    0    0    0  0.10308465119E+02  0.70167271686E+00 -0.46862735087E+02  0.47988256249E+02  0.51100000000E-03 0. -1.
         11    1    1    0    0    0  0.31914293357E+01  0.20094600831E+00 -0.14155118007E+02  0.14511821614E+02  0.51100000000E-03 0.  1.
         22    1    1    0    0    0 -0.13499894455E+02 -0.90261872517E+00  0.61017853094E+02  0.62499922137E+02  0.00000000000E+00 0.  1.
</event>
<event>
 4    1  0.1974401E-002  0.9118800E+02  0.7818608E-02  0.1130116E+00
         25   -1    0    0    0    0  0.00000000000E+00  0.00000000000E+00  0.99999998245E-14  0.12500000000E+03  0.12500000000E+03 0.  0.
        -11    1    1    0    0    0  0.28829216431E+00 -0.69355579031E+01 -0.55227402043E+02  0.55661935040E+02  0.51100000000E-03 0. -1.
         11    1    1    0    0    0 -0.15618584139E+01 -0.13148471210E+01 -0.66210905978E+01  0.69287131289E+01  0.51100000000E-03 0.  1.
         22    1    1    0    0    0  0.12735662496E+01  0.82504050241E+01  0.61848492640E+02  0.62409351831E+02  0.00000000000E+00 0. -1.
</event>
<event>
 4    1  0.1974401E-002  0.9118800E+02  0.7818608E-02  0.1130116E+00
         25   -1    0    0    0    0  0.00000000000E+00  0.00000000000E+00  0.99999998245E-14  0.12500000000E+03  0.12500000000E+03 0.  0.
        -11    1    1    0    0    0  0.38607081576E+01 -0.19680694592E+02  0.53120192288E+02  0.56780187002E+02  0.51100000000E-03 0. -1.
         11    1    1    0    0    0  0.40207627919E+00 -0.20172827858E+01  0.53372164797E+01  0.57198754518E+01  0.51100000000E-03 0.  1.
         22    1    1    0    0    0 -0.42627844367E+01  0.21697977377E+02 -0.58457408767E+02  0.62499937546E+02  0.00000000000E+00 0. -1.
</event>
<event>
 4    1  0.1974401E-002  0.9118800E+02  0.7818608E-02  0.1130116E+00
         25   -1    0    0    0    0  0.00000000000E+00  0.00000000000E+00  0.99999998245E-14  0.12500000000E+03  0.12500000000E+03 0.  0.
        -11    1    1    0    0    0  0.12124879569E+02  0.54444907559E+02 -0.19912597647E+02  0.59226448560E+02  0.51100000000E-03 0.  1.
         11    1    1    0    0    0  0.18839055085E+01 -0.69703300429E+00 -0.46318636358E+01  0.50486746752E+01  0.51100000000E-03 0. -1.
         22    1    1    0    0    0 -0.14008785078E+02 -0.53747874555E+02  0.24544461283E+02  0.60724876765E+02  0.00000000000E+00 0.  1.
</event>
<event>
 4    1  0.1974401E-002  0.9118800E+02  0.7818608E-02  0.1130116E+00
         25   -1    0    0    0    0  0.00000000000E+00  0.00000000000E+00  0.99999998245E-14  0.12500000000E+03  0.12500000000E+03 0.  0.
        -11    1    1    0    0    0 -0.15423391120E+02  0.21811733919E+02  0.29932249703E+01  0.26881073754E+02  0.51100000000E-03 0. -1.
         11    1    1    0    0    0 -0.12318987855E+02  0.30999818992E+02  0.13869930206E+02  0.36126461264E+02  0.51100000000E-03 0.  1.
         22    1    1    0    0    0  0.27742378975E+02 -0.52811552910E+02 -0.16863155176E+02  0.61992464982E+02  0.00000000000E+00 0.  1.
</event>
<event>
 4    1  0.1974401E-002  0.9118800E+02  0.7818608E-02  0.1130116E+00
         25   -1    0    0    0    0  0.00000000000E+00  0.00000000000E+00  0.99999998245E-14  0.12500000000E+03  0.12500000000E+03 0.  0.
        -11    1    1    0    0    0 -0.31123402129E+02 -0.37197122151E+02  0.36296696055E+02  0.60578397150E+02  0.51100000000E-03 0. -1.
         11    1    1    0    0    0 -0.98514935220E+00 -0.11826544020E+01  0.11503794799E+01  0.19216045092E+01  0.51100000000E-03 0.  1.
         22    1    1    0    0    0  0.32108551482E+02  0.38379776553E+02 -0.37447075535E+02  0.62499998341E+02  0.00000000000E+00 0. -1.
</event>
<event>
 4    1  0.1974401E-002  0.9118800E+02  0.7818608E-02  0.1130116E+00
         25   -1    0    0    0    0  0.00000000000E+00  0.00000000000E+00  0.99999998245E-14  0.12500000000E+03  0.12500000000E+03 0.  0.
        -11    1    1    0    0    0 -0.32503393044E+02 -0.40518372538E+02 -0.25342422521E+02  0.57796604156E+02  0.51100000000E-03 0. -1.
         11    1    1    0    0    0 -0.46806101239E+01  0.43191429002E+01 -0.40652181632E+01  0.75557332867E+01  0.51100000000E-03 0.  1.
         22    1    1    0    0    0  0.37184003168E+02  0.36199229637E+02  0.29407640684E+02  0.59647662557E+02  0.00000000000E+00 0. -1.
</event>
<event>
 4    1  0.1974401E-002  0.9118800E+02  0.7818608E-02  0.1130116E+00
         25   -1    0    0    0    0  0.00000000000E+00  0.00000000000E+00  0.99999998245E-14  0.12500000000E+03  0.12500000000E+03 0.  0.
        -11    1    1    0    0    0  0.39927895665E+02 -0.93828407720E+01  0.29941173959E+02  0.50781378984E+02  0.51100000000E-03 0. -1.
         11    1    1    0    0    0  0.92155118548E+01 -0.21618141786E+01  0.69084719853E+01  0.11718621281E+02  0.51100000000E-03 0.  1.
         22    1    1    0    0    0 -0.49143407520E+02  0.11544654951E+02 -0.36849645945E+02  0.62499999735E+02  0.00000000000E+00 0. -1.
</event>
<event>
 4    1  0.1974401E-002  0.9118800E+02  0.7818608E-02  0.1130116E+00
         25   -1    0    0    0    0  0.00000000000E+00  0.00000000000E+00  0.99999998245E-14  0.12500000000E+03  0.12500000000E+03 0.  0.
        -11    1    1    0    0    0 -0.25623862733E+02  0.36712890103E+02  0.57301883222E-01  0.44770770876E+02  0.51100000000E-03 0. -1.
         11    1    1    0    0    0 -0.16802184600E+02  0.77938172927E+01 -0.25151046982E+01  0.18691782880E+02  0.51100000000E-03 0.  1.
         22    1    1    0    0    0  0.42426047333E+02 -0.44506707396E+02  0.24578028150E+01  0.61537446244E+02  0.00000000000E+00 0. -1.
</event>
<event>
 4    1  0.1974401E-002  0.9118800E+02  0.7818608E-02  0.1130116E+00
         25   -1    0    0    0    0  0.00000000000E+00  0.00000000000E+00  0.99999998245E-14  0.12500000000E+03  0.12500000000E+03 0.  0.
        -11    1    1    0    0    0 -0.12414201375E+02 -0.10377336419E+02  0.18251825866E+01  0.16282898964E+02  0.51100000000E-03 0.  1.
         11    1    1    0    0    0 -0.35219291613E+02 -0.29478066925E+02  0.51638784879E+01  0.46217102599E+02  0.51100000000E-03 0. -1.
         22    1    1    0    0    0  0.47633492988E+02  0.39855403344E+02 -0.69890610745E+01  0.62499998437E+02  0.00000000000E+00 0. -1.
</event>
<event>
 4    1  0.1974401E-002  0.9118800E+02  0.7818608E-02  0.1130116E+00
         25   -1    0    0    0    0  0.00000000000E+00  0.00000000000E+00  0.99999998245E-14  0.12500000000E+03  0.12500000000E+03 0.  0.
        -11    1    1    0    0    0  0.23433811860E+02  0.39970004920E+02 -0.23395426401E+02  0.51904631858E+02  0.51100000000E-03 0. -1.
         11    1    1    0    0    0  0.47825906548E+01  0.81611028472E+01 -0.47733695906E+01  0.10595368354E+02  0.51100000000E-03 0.  1.
         22    1    1    0    0    0 -0.28216402515E+02 -0.48131107767E+02  0.28168795991E+02  0.62499999787E+02  0.00000000000E+00 0. -1.
</event>
<event>
 4    1  0.1974401E-002  0.9118800E+02  0.7818608E-02  0.1130116E+00
         25   -1    0    0    0    0  0.00000000000E+00  0.00000000000E+00  0.99999998245E-14  0.12500000000E+03  0.12500000000E+03 0.  0.
        -11    1    1    0    0    0  0.28202844414E+01  0.16036638747E+02  0.11986648072E+02  0.20218989067E+02  0.51100000000E-03 0.  1.
         11    1    1    0    0    0  0.60914761985E+01  0.33571341698E+02  0.24970994518E+02  0.42281102554E+02  0.51100000000E-03 0. -1.
         22    1    1    0    0    0 -0.89117606399E+01 -0.49607980445E+02 -0.36957642590E+02  0.62499908379E+02  0.00000000000E+00 0. -1.
</event>
<event>
 4    1  0.1974401E-002  0.9118800E+02  0.7818608E-02  0.1130116E+00
         25   -1    0    0    0    0  0.00000000000E+00  0.00000000000E+00  0.99999998245E-14  0.12500000000E+03  0.12500000000E+03 0.  0.
        -11    1    1    0    0    0  0.34747579138E+00 -0.77303732662E+01 -0.10021866782E+02  0.12661643824E+02  0.51100000000E-03 0.  1.
         11    1    1    0    0    0  0.13510133861E+01 -0.30408875630E+02 -0.39463107859E+02  0.49838357080E+02  0.51100000000E-03 0. -1.
         22    1    1    0    0    0 -0.16984891775E+01  0.38139248896E+02  0.49484974641E+02  0.62499999097E+02  0.00000000000E+00 0. -1.
</event>
<event>
 4    1  0.1974401E-002  0.9118800E+02  0.7818608E-02  0.1130116E+00
         25   -1    0    0    0    0  0.00000000000E+00  0.00000000000E+00  0.99999998245E-14  0.12500000000E+03  0.12500000000E+03 0.  0.
        -11    1    1    0    0    0  0.19373390256E+02 -0.35992526727E+01 -0.51414717437E+01  0.20364616416E+02  0.51100000000E-03 0.  1.
         11    1    1    0    0    0  0.40059019859E+02 -0.13211412844E+01 -0.13272950751E+02  0.42221341858E+02  0.51100000000E-03 0. -1.
         22    1    1    0    0    0 -0.59432410115E+02  0.49203939570E+01  0.18414422495E+02  0.62414041726E+02  0.00000000000E+00 0. -1.
</event>
<event>
 4    1  0.1974401E-002  0.9118800E+02  0.7818608E-02  0.1130116E+00
         25   -1    0    0    0    0  0.00000000000E+00  0.00000000000E+00  0.99999998245E-14  0.12500000000E+03  0.12500000000E+03 0.  0.
        -11    1    1    0    0    0  0.53034394388E+02  0.64097498671E+01  0.14335948983E+02  0.55310499138E+02  0.51100000000E-03 0.  1.
         11    1    1    0    0    0  0.68647621998E+01  0.10927272157E+01  0.18439793168E+01  0.71916112805E+01  0.51100000000E-03 0. -1.
         22    1    1    0    0    0 -0.59899156588E+02 -0.75024770828E+01 -0.16179928299E+02  0.62497889581E+02  0.00000000000E+00 0.  1.
</event>
<event>
 4    1  0.1974401E-002  0.9118800E+02  0.7818608E-02  0.1130116E+00
         25   -1    0    0    0    0  0.00000000000E+00  0.00000000000E+00  0.99999998245E-14  0.12500000000E+03  0.12500000000E+03 0.  0.
        -11    1    1    0    0    0 -0.42002477261E+02  0.36670091404E+01 -0.26014753701E+02  0.49542128159E+02  0.51100000000E-03 0.  1.
         11    1    1    0    0    0 -0.10989077188E+02  0.96285304352E+00 -0.67984970244E+01  0.12957872722E+02  0.51100000000E-03 0.  1.
         22    1    1    0    0    0  0.52991554449E+02 -0.46298621839E+01  0.32813250725E+02  0.62499999119E+02  0.00000000000E+00 0.  1.
</event>
<event>
 4    1  0.1974401E-002  0.9118800E+02  0.7818608E-02  0.1130116E+00
         25   -1    0    0    0    0  0.00000000000E+00  0.00000000000E+00  0.99999998245E-14  0.12500000000E+03  0.12500000000E+03 0.  0.
        -11    1    1    0    0    0 -0.38756680847E+01  0.88723820238E+01  0.37119242242E+01  0.10369105438E+02  0.51100000000E-03 0.  1.
         11    1    1    0    0    0 -0.19482144007E+02  0.44609588597E+02  0.18656388786E+02  0.52130894609E+02  0.51100000000E-03 0. -1.
         22    1    1    0    0    0  0.23357812092E+02 -0.53481970621E+02 -0.22368313010E+02  0.62499999953E+02  0.00000000000E+00 0. -1.
</event>
<event>
 4    1  0.1974401E-002  0.9118800E+02  0.7818608E-02  0.1130116E+00
         25   -1    0    0    0    0  0.00000000000E+00  0.00000000000E+00  0.99999998245E-14  0.12500000000E+03  0.12500000000E+03 0.  0.
        -11    1    1    0    0    0 -0.24164020911E+02  0.33515048097E+02 -0.36335864384E+02  0.55022299083E+02  0.51100000000E-03 0.  1.
         11    1    1    0    0    0 -0.35961138686E+01  0.25557050647E+01 -0.62469641500E+01  0.76477594553E+01  0.51100000000E-03 0. -1.
         22    1    1    0    0    0  0.27760134780E+02 -0.36070753162E+02  0.42582828534E+02  0.62329941462E+02  0.00000000000E+00 0.  1.
</event>
<event>
 4    1  0.1974401E-002  0.9118800E+02  0.7818608E-02  0.1130116E+00
         25   -1    0    0    0    0  0.00000000000E+00  0.00000000000E+00  0.99999998245E-14  0.12500000000E+03  0.12500000000E+03 0.  0.
        -11    1    1    0    0    0 -0.19735745862E+02  0.14263119847E+02 -0.34089882929E+02  0.41893392927E+02  0.51100000000E-03 0.  1.
         11    1    1    0    0    0 -0.96170015304E+01  0.70413496957E+01 -0.16809773467E+02  0.20606693287E+02  0.51100000000E-03 0. -1.
         22    1    1    0    0    0  0.29352747393E+02 -0.21304469543E+02  0.50899656396E+02  0.62499913786E+02  0.00000000000E+00 0. -1.
</event>
<event>
 4    1  0.1974401E-002  0.9118800E+02  0.7818608E-02  0.1130116E+00
         25   -1    0    0    0    0  0.00000000000E+00  0.00000000000E+00  0.99999998245E-14  0.12500000000E+03  0.12500000000E+03 0.  0.
        -11    1    1    0    0    0  0.57819642483E+01  0.20929983772E+01 -0.19725669508E-02  0.61491265175E+01  0.51100000000E-03 0. -1.
         11    1    1    0    0    0  0.52979351009E+02  0.19199201301E+02  0.50580210413E-02  0.56350873904E+02  0.51100000000E-03 0.  1.
         22    1    1    0    0    0 -0.58761315257E+02 -0.21292199678E+02 -0.30854540905E-02  0.62499999579E+02  0.00000000000E+00 0.  1.
</event>
<event>
 4    1  0.1974401E-002  0.9118800E+02  0.7818608E-02  0.1130116E+00
         25   -1    0    0    0    0  0.00000000000E+00  0.00000000000E+00  0.99999998245E-14  0.12500000000E+03  0.12500000000E+03 0.  0.
        -11    1    1    0    0    0 -0.23440281787E+02  0.22402493371E+02 -0.32045165920E+02  0.45587401533E+02  0.51100000000E-03 0.  1.
         11    1    1    0    0    0 -0.87802647250E+01  0.80437811075E+01 -0.12011439819E+02  0.16913608424E+02  0.51100000000E-03 0. -1.
         22    1    1    0    0    0  0.32220546512E+02 -0.30446274479E+02  0.44056605738E+02  0.62498990042E+02  0.00000000000E+00 0.  1.
</event>
<event>
 4    1  0.1974401E-002  0.9118800E+02  0.7818608E-02  0.1130116E+00
         25   -1    0    0    0    0  0.00000000000E+00  0.00000000000E+00  0.99999998245E-14  0.12500000000E+03  0.12500000000E+03 0.  0.
        -11    1    1    0    0    0  0.51979943458E+02  0.77241135206E+01 -0.19709910398E+02  0.56125368772E+02  0.51100000000E-03 0.  1.
         11    1    1    0    0    0  0.59049862103E+01  0.89120954759E+00 -0.22300061640E+01  0.63746407235E+01  0.51100000000E-03 0. -1.
         22    1    1    0    0    0 -0.57884929669E+02 -0.86153230682E+01  0.21939916562E+02  0.62499990505E+02  0.00000000000E+00 0.  1.
</event>
<event>
 4    1  0.1974401E-002  0.9118800E+02  0.7818608E-02  0.1130116E+00
         25   -1    0    0    0    0  0.00000000000E+00  0.00000000000E+00  0.99999998245E-14  0.12500000000E+03  0.12500000000E+03 0.  0.
        -11    1    1    0    0    0 -0.12117029307E+02  0.16188132811E+02  0.36082723242E+02  0.41362313281E+02  0.51100000000E-03 0.  1.
         11    1    1    0    0    0 -0.61914308311E+01  0.82649414511E+01  0.18443393177E+02  0.21137687316E+02  0.51100000000E-03 0. -1.
         22    1    1    0    0    0  0.18308460138E+02 -0.24453074262E+02 -0.54526116420E+02  0.62499999402E+02  0.00000000000E+00 0.  1.
</event>
<event>
 4    1  0.1974401E-002  0.9118800E+02  0.7818608E-02  0.1130116E+00
         25   -1    0    0    0    0  0.00000000000E+00  0.00000000000E+00  0.99999998245E-14  0.12500000000E+03  0.12500000000E+03 0.  0.
        -11    1    1    0    0    0 -0.13263091908E+02 -0.45356796586E+02  0.14708434122E+02  0.49492288673E+02  0.51100000000E-03 0.  1.
         11    1    1    0    0    0  0.22067927736E+02 -0.21404336263E+01  0.59704119812E+01  0.22961287206E+02  0.51100000000E-03 0. -1.
         22    1    1    0    0    0 -0.88048358275E+01  0.47497230212E+02 -0.20678846103E+02  0.52546424121E+02  0.00000000000E+00 0.  1.
</event>
<event>
 4    1  0.1974401E-002  0.9118800E+02  0.7818608E-02  0.1130116E+00
         25   -1    0    0    0    0  0.00000000000E+00  0.00000000000E+00  0.99999998245E-14  0.12500000000E+03  0.12500000000E+03 0.  0.
        -11    1    1    0    0    0  0.59651953329E+01  0.20063177200E+02  0.49073265035E+01  0.21498755508E+02  0.51100000000E-03 0. -1.
         11    1    1    0    0    0  0.11333371580E+02  0.38200573376E+02  0.96638458095E+01  0.41001451605E+02  0.51100000000E-03 0.  1.
         22    1    1    0    0    0 -0.17298566913E+02 -0.58263750576E+02 -0.14571172313E+02  0.62499792887E+02  0.00000000000E+00 0.  1.
</event>
<event>
 4    1  0.1974401E-002  0.9118800E+02  0.7818608E-02  0.1130116E+00
         25   -1    0    0    0    0  0.00000000000E+00  0.00000000000E+00  0.99999998245E-14  0.12500000000E+03  0.12500000000E+03 0.  0.
        -11    1    1    0    0    0  0.19831692910E+02  0.41253871357E+01 -0.14723687556E+02  0.25042001482E+02  0.51100000000E-03 0.  1.
         11    1    1    0    0    0  0.28576718501E+02  0.42752189095E+01 -0.23871244232E+02  0.37479896458E+02  0.51100000000E-03 0. -1.
         22    1    1    0    0    0 -0.48408411412E+02 -0.84006060452E+01  0.38594931788E+02  0.62478102060E+02  0.00000000000E+00 0. -1.
</event>
<event>
 4    1  0.1974401E-002  0.9118800E+02  0.7818608E-02  0.1130116E+00
         25   -1    0    0    0    0  0.00000000000E+00  0.00000000000E+00  0.99999998245E-14  0.12500000000E+03  0.12500000000E+03 0.  0.
        -11    1    1    0    0    0  0.57968028623E+01  0.15824603618E+02  0.16416974299E+02  0.23527389325E+02  0.51100000000E-03 0. -1.
         11    1    1    0    0    0  0.37245130384E+02  0.81114750416E+01  0.17224910363E+02  0.41829335423E+02  0.51100000000E-03 0.  1.
         22    1    1    0    0    0 -0.43041933246E+02 -0.23936078659E+02 -0.33641884662E+02  0.59643275252E+02  0.00000000000E+00 0. -1.
</event>
<event>
 4    1  0.1974401E-002  0.9118800E+02  0.7818608E-02  0.1130116E+00
         25   -1    0    0    0    0  0.00000000000E+00  0.00000000000E+00  0.99999998245E-14  0.12500000000E+03  0.12500000000E+03 0.  0.
        -11    1    1    0    0    0  0.40260883766E+01 -0.69163109294E+01  0.91777856487E+01  0.12176883598E+02  0.51100000000E-03 0.  1.
         11    1    1    0    0    0 -0.41675452192E+02 -0.21416021258E+02  0.26399523678E+02  0.53781261910E+02  0.51100000000E-03 0. -1.
         22    1    1    0    0    0  0.37649363816E+02  0.28332332188E+02 -0.35577309327E+02  0.59041854492E+02  0.00000000000E+00 0. -1.
</event>
<event>
 4    1  0.1974401E-002  0.9118800E+02  0.7818608E-02  0.1130116E+00
         25   -1    0    0    0    0  0.00000000000E+00  0.00000000000E+00  0.99999998245E-14  0.12500000000E+03  0.12500000000E+03 0.  0.
        -11    1    1    0    0    0  0.34286322637E+01  0.67018506738E+01  0.16053859511E+02  0.17731235916E+02  0.51100000000E-03 0. -1.
         11    1    1    0    0    0  0.13741005390E+02  0.19158954619E+02  0.38125633234E+02  0.44826829923E+02  0.51100000000E-03 0.  1.
         22    1    1    0    0    0 -0.17169637654E+02 -0.25860805293E+02 -0.54179492745E+02  0.62441934160E+02  0.00000000000E+00 0.  1.
</event>
<event>
 4    1  0.1974401E-002  0.9118800E+02  0.7818608E-02  0.1130116E+00
         25   -1    0    0    0    0  0.00000000000E+00  0.00000000000E+00  0.99999998245E-14  0.12500000000E+03  0.12500000000E+03 0.  0.
        -11    1    1    0    0    0 -0.25657928500E+01  0.15307308020E+01  0.35947954610E+01  0.46742897219E+01  0.51100000000E-03 0. -1.
         11    1    1    0    0    0 -0.29859027828E+02  0.19223474245E+02  0.45638753509E+02  0.57827323360E+02  0.51100000000E-03 0.  1.
         22    1    1    0    0    0  0.32424820678E+02 -0.20754205047E+02 -0.49233548970E+02  0.62498386918E+02  0.00000000000E+00 0.  1.
</event>
<event>
 4    1  0.1974401E-002  0.9118800E+02  0.7818608E-02  0.1130116E+00
         25   -1    0    0    0    0  0.00000000000E+00  0.00000000000E+00  0.99999998245E-14  0.12500000000E+03  0.12500000000E+03 0.  0.
        -11    1    1    0    0    0 -0.66732658750E+01  0.38454965330E+01 -0.50772539945E+01  0.92249026775E+01  0.51100000000E-03 0.  1.
         11    1    1    0    0    0 -0.38685284357E+02  0.21826181384E+02 -0.29416246979E+02  0.53275219438E+02  0.51100000000E-03 0. -1.
         22    1    1    0    0    0  0.45358550232E+02 -0.25671677917E+02  0.34493500973E+02  0.62499877885E+02  0.00000000000E+00 0. -1.
</event>
<event>
 4    1  0.1974401E-002  0.9118800E+02  0.7818608E-02  0.1130116E+00
         25   -1    0    0    0    0  0.00000000000E+00  0.00000000000E+00  0.99999998245E-14  0.12500000000E+03  0.12500000000E+03 0.  0.
        -11    1    1    0    0    0  0.83092052316E+01  0.12357129661E+02  0.32897676725E+02  0.36110921882E+02  0.51100000000E-03 0. -1.
         11    1    1    0    0    0 -0.35780627920E+01  0.86537998493E+01  0.25223617488E+02  0.26905792399E+02  0.51100000000E-03 0.  1.
         22    1    1    0    0    0 -0.47311424396E+01 -0.21010929510E+02 -0.58121294212E+02  0.61983285719E+02  0.00000000000E+00 0. -1.
</event>
<event>
 4    1  0.1974401E-002  0.9118800E+02  0.7818608E-02  0.1130116E+00
         25   -1    0    0    0    0  0.00000000000E+00  0.00000000000E+00  0.99999998245E-14  0.12500000000E+03  0.12500000000E+03 0.  0.
        -11    1    1    0    0    0 -0.45827575282E+02  0.21687283110E+02  0.50307227678E+01  0.50949122433E+02  0.51100000000E-03 0. -1.
         11    1    1    0    0    0 -0.66480556019E+01  0.74461104234E+01 -0.96098619101E+01  0.13856069064E+02  0.51100000000E-03 0.  1.
         22    1    1    0    0    0  0.52475630884E+02 -0.29133393533E+02  0.45791391424E+01  0.60194808503E+02  0.00000000000E+00 0. -1.
</event>
<event>
 4    1  0.1974401E-002  0.9118800E+02  0.7818608E-02  0.1130116E+00
         25   -1    0    0    0    0  0.00000000000E+00  0.00000000000E+00  0.99999998245E-14  0.12500000000E+03  0.12500000000E+03 0.  0.
        -11    1    1    0    0    0 -0.14625235462E+02 -0.88571861512E+01  0.16307608577E+02  0.23628062904E+02  0.51100000000E-03 0. -1.
         11    1    1    0    0    0 -0.23833574740E+02 -0.14831926722E+02  0.26889132301E+02  0.38872236511E+02  0.51100000000E-03 0.  1.
         22    1    1    0    0    0  0.38458810201E+02  0.23689112874E+02 -0.43196740878E+02  0.62499700586E+02  0.00000000000E+00 0.  1.
</event>
<event>
 4    1  0.1974401E-002  0.9118800E+02  0.7818608E-02  0.1130116E+00
         25   -1    0    0    0    0  0.00000000000E+00  0.00000000000E+00  0.99999998245E-14  0.12500000000E+03  0.12500000000E+03 0.  0.
        -11    1    1    0    0    0 -0.21898036703E+02  0.25374967995E+01 -0.28863482291E+02  0.36318913966E+02  0.51100000000E-03 0. -1.
         11    1    1    0    0    0 -0.15785075401E+02  0.18286118418E+01 -0.20807134339E+02  0.26181086043E+02  0.51100000000E-03 0. -1.
         22    1    1    0    0    0  0.37683112104E+02 -0.43661086413E+01  0.49670616630E+02  0.62499999992E+02  0.00000000000E+00 0. -1.
</event>
<event>
 4    1  0.1974401E-002  0.9118800E+02  0.7818608E-02  0.1130116E+00
         25   -1    0    0    0    0  0.00000000000E+00  0.00000000000E+00  0.99999998245E-14  0.12500000000E+03  0.12500000000E+03 0.  0.
        -11    1    1    0    0    0 -0.96845656228E+01 -0.80989576089E+01 -0.90720041544E+01  0.15546227365E+02  0.51100000000E-03 0.  1.
         11    1    1    0    0    0 -0.29245513597E+02 -0.24465444310E+02 -0.27400706909E+02  0.46953772694E+02  0.51100000000E-03 0. -1.
         22    1    1    0    0    0  0.38930079220E+02  0.32564401919E+02  0.36472711063E+02  0.62499999941E+02  0.00000000000E+00 0. -1.
</event>
<event>
 4    1  0.1974401E-002  0.9118800E+02  0.7818608E-02  0.1130116E+00
         25   -1    0    0    0    0  0.00000000000E+00  0.00000000000E+00  0.99999998245E-14  0.12500000000E+03  0.12500000000E+03 0.  0.
        -11    1    1    0    0    0  0.42560603069E+01  0.12045800812E+01 -0.40874976681E+01  0.60226821231E+01  0.51100000000E-03 0. -1.
         11    1    1    0    0    0  0.38750577803E+02  0.95126441692E+01 -0.39974217536E+02  0.56480401442E+02  0.51100000000E-03 0.  1.
         22    1    1    0    0    0 -0.43006638110E+02 -0.10717224250E+02  0.44061715204E+02  0.62496916435E+02  0.00000000000E+00 0.  1.
</event>
<event>
 4    1  0.1974401E-002  0.9118800E+02  0.7818608E-02  0.1130116E+00
         25   -1    0    0    0    0  0.00000000000E+00  0.00000000000E+00  0.99999998245E-14  0.12500000000E+03  0.12500000000E+03 0.  0.
        -11    1    1    0    0    0  0.17141306533E+02  0.23206140329E+01  0.12942229527E+02  0.21603493804E+02  0.51100000000E-03 0. -1.
         11    1    1    0    0    0  0.30026699211E+02  0.49304463727E+01  0.27369696385E+02  0.40926913484E+02  0.51100000000E-03 0.  1.
         22    1    1    0    0    0 -0.47168005744E+02 -0.72510604055E+01 -0.40311925912E+02  0.62469592712E+02  0.00000000000E+00 0.  1.
</event>
<event>
 4    1  0.1974401E-002  0.9118800E+02  0.7818608E-02  0.1130116E+00
         25   -1    0    0    0    0  0.00000000000E+00  0.00000000000E+00  0.99999998245E-14  0.12500000000E+03  0.12500000000E+03 0.  0.
        -11    1    1    0    0    0  0.17025730210E+02  0.20040882890E+01  0.37851344155E+02  0.41552570482E+02  0.51100000000E-03 0.  1.
         11    1    1    0    0    0  0.85943757735E+01  0.10012256090E+01  0.19076926726E+02  0.20947431376E+02  0.51100000000E-03 0. -1.
         22    1    1    0    0    0 -0.25620105983E+02 -0.30053138979E+01 -0.56928270882E+02  0.62499998142E+02  0.00000000000E+00 0.  1.
</event>
<event>
 4    1  0.1974401E-002  0.9118800E+02  0.7818608E-02  0.1130116E+00
         25   -1    0    0    0    0  0.00000000000E+00  0.00000000000E+00  0.99999998245E-14  0.12500000000E+03  0.12500000000E+03 0.  0.
        -11    1    1    0    0    0 -0.24201310443E+01  0.40978994776E+01  0.30615723093E+01  0.56588903211E+01  0.51100000000E-03 0.  1.
         11    1    1    0    0    0 -0.26754242540E+02  0.39010734137E+02  0.31524466489E+02  0.56845570271E+02  0.51100000000E-03 0. -1.
         22    1    1    0    0    0  0.29174373584E+02 -0.43108633614E+02 -0.34586038798E+02  0.62495539408E+02  0.00000000000E+00 0. -1.
</event>
<event>
 4    1  0.1974401E-002  0.9118800E+02  0.7818608E-02  0.1130116E+00
         25   -1    0    0    0    0  0.00000000000E+00  0.00000000000E+00  0.99999998245E-14  0.12500000000E+03  0.12500000000E+03 0.  0.
        -11    1    1    0    0    0 -0.62595622911E+00  0.85810048131E+00 -0.83797824025E+01  0.84468284587E+01  0.51100000000E-03 0.  1.
         11    1    1    0    0    0  0.20247190580E+01  0.80521074961E+01 -0.53438871294E+02  0.54080023001E+02  0.51100000000E-03 0. -1.
         22    1    1    0    0    0 -0.13987628289E+01 -0.89102079774E+01  0.61818653696E+02  0.62473148540E+02  0.00000000000E+00 0. -1.
</event>
<event>
 4    1  0.1974401E-002  0.9118800E+02  0.7818608E-02  0.1130116E+00
         25   -1    0    0    0    0  0.00000000000E+00  0.00000000000E+00  0.99999998245E-14  0.12500000000E+03  0.12500000000E+03 0.  0.
        -11    1    1    0    0    0 -0.39211885670E+02  0.28913797397E+02  0.36278378593E+01  0.48854281957E+02  0.51100000000E-03 0. -1.
         11    1    1    0    0    0 -0.10911605240E+02  0.81281647446E+01  0.10379697751E+01  0.13645789554E+02  0.51100000000E-03 0.  1.
         22    1    1    0    0    0  0.50123490910E+02 -0.37041962142E+02 -0.46658076344E+01  0.62499928490E+02  0.00000000000E+00 0. -1.
</event>
<event>
 4    1  0.1974401E-002  0.9118800E+02  0.7818608E-02  0.1130116E+00
         25   -1    0    0    0    0  0.00000000000E+00  0.00000000000E+00  0.99999998245E-14  0.12500000000E+03  0.12500000000E+03 0.  0.
        -11    1    1    0    0    0 -0.19595289687E+02 -0.39108589825E+01  0.33307273173E+02  0.38841274984E+02  0.51100000000E-03 0.  1.
         11    1    1    0    0    0 -0.93451713975E+01 -0.27775236066E+01  0.21618856899E+02  0.23715434631E+02  0.51100000000E-03 0. -1.
         22    1    1    0    0    0  0.28940461085E+02  0.66883825890E+01 -0.54926130072E+02  0.62443290385E+02  0.00000000000E+00 0. -1.
</event>
<event>
 4    1  0.1974401E-002  0.9118800E+02  0.7818608E-02  0.1130116E+00
         25   -1    0    0    0    0  0.00000000000E+00  0.00000000000E+00  0.99999998245E-14  0.12500000000E+03  0.12500000000E+03 0.  0.
        -11    1    1    0    0    0 -0.24929427379E+02 -0.11254506867E+01 -0.48112888845E+02  0.54199566991E+02  0.51100000000E-03 0.  1.
         11    1    1    0    0    0 -0.37657364557E+01 -0.43038747420E-01 -0.73975241590E+01  0.83009630364E+01  0.51100000000E-03 0. -1.
         22    1    1    0    0    0  0.28695163834E+02  0.11684894341E+01  0.55510413004E+02  0.62499469973E+02  0.00000000000E+00 0.  1.
</event>
<event>
 4    1  0.1974401E-002  0.9118800E+02  0.7818608E-02  0.1130116E+00
         25   -1    0    0    0    0  0.00000000000E+00  0.00000000000E+00  0.99999998245E-14  0.12500000000E+03  0.12500000000E+03 0.  0.
        -11    1    1    0    0    0  0.84639890943E+01  0.75039566998E+01  0.14083127286E+02  0.18063304016E+02  0.51100000000E-03 0.  1.
         11    1    1    0    0    0  0.16748867071E+02  0.18391449872E+02  0.36864080122E+02  0.44471680653E+02  0.51100000000E-03 0. -1.
         22    1    1    0    0    0 -0.25212856165E+02 -0.25895406572E+02 -0.50947207409E+02  0.62465015331E+02  0.00000000000E+00 0. -1.
</event>
<event>
 4    1  0.1974401E-002  0.9118800E+02  0.7818608E-02  0.1130116E+00
         25   -1    0    0    0    0  0.00000000000E+00  0.00000000000E+00  0.99999998245E-14  0.12500000000E+03  0.12500000000E+03 0.  0.
        -11    1    1    0    0    0  0.45950839413E+02 -0.95965496580E+01 -0.38079341317E+02  0.60445096108E+02  0.51100000000E-03 0. -1.
         11    1    1    0    0    0  0.15616131051E+01 -0.32674629134E+00 -0.12950797838E+01  0.20549040213E+01  0.51100000000E-03 0.  1.
         22    1    1    0    0    0 -0.47512452518E+02  0.99232959494E+01  0.39374421101E+02  0.62499999871E+02  0.00000000000E+00 0. -1.
</event>
<event>
 4    1  0.1974401E-002  0.9118800E+02  0.7818608E-02  0.1130116E+00
         25   -1    0    0    0    0  0.00000000000E+00  0.00000000000E+00  0.99999998245E-14  0.12500000000E+03  0.12500000000E+03 0.  0.
        -11    1    1    0    0    0  0.11525547816E+01 -0.69270634883E+00  0.10523403069E+02  0.10608969649E+02  0.51100000000E-03 0. -1.
         11    1    1    0    0    0  0.43463081852E+01 -0.29264532246E+01  0.51627377625E+02  0.51892587564E+02  0.51100000000E-03 0.  1.
         22    1    1    0    0    0 -0.54988629667E+01  0.36191595734E+01 -0.62150780694E+02  0.62498442787E+02  0.00000000000E+00 0.  1.
</event>
<event>
 4    1  0.1974401E-002  0.9118800E+02  0.7818608E-02  0.1130116E+00
         25   -1    0    0    0    0  0.00000000000E+00  0.00000000000E+00  0.99999998245E-14  0.12500000000E+03  0.12500000000E+03 0.  0.
        -11    1    1    0    0    0 -0.38814179149E+02 -0.26105137667E+02 -0.59907777876E+01  0.47158330488E+02  0.51100000000E-03 0.  1.
         11    1    1    0    0    0 -0.12673421307E+02 -0.84061085858E+01 -0.20234322409E+01  0.15341856064E+02  0.51100000000E-03 0. -1.
         22    1    1    0    0    0  0.51487600456E+02  0.34511246253E+02  0.80142100285E+01  0.62499813448E+02  0.00000000000E+00 0.  1.
</event>
<event>
 4    1  0.1974401E-002  0.9118800E+02  0.7818608E-02  0.1130116E+00
         25   -1    0    0    0    0  0.00000000000E+00  0.00000000000E+00  0.99999998245E-14  0.12500000000E+03  0.12500000000E+03 0.  0.
        -11    1    1    0    0    0 -0.19687688262E+02  0.91312819672E+01  0.33615119883E+01  0.21960991384E+02  0.51100000000E-03 0. -1.
         11    1    1    0    0    0 -0.39529523613E+02  0.73783822778E+01 -0.93112566831E+01  0.41276182761E+02  0.51100000000E-03 0.  1.
         22    1    1    0    0    0  0.59217211874E+02 -0.16509664245E+02  0.59497446948E+01  0.61762825855E+02  0.00000000000E+00 0. -1.
</event>
<event>
 4    1  0.1974401E-002  0.9118800E+02  0.7818608E-02  0.1130116E+00
         25   -1    0    0    0    0  0.00000000000E+00  0.00000000000E+00  0.99999998245E-14  0.12500000000E+03  0.12500000000E+03 0.  0.
        -11    1    1    0    0    0  0.77148578708E+01 -0.44893498117E+02 -0.52736777483E+01  0.45855827137E+02  0.51100000000E-03 0.  1.
         11    1    1    0    0    0  0.27972150578E+01 -0.16296020359E+02 -0.19088773517E+01  0.16644173293E+02  0.51100000000E-03 0. -1.
         22    1    1    0    0    0 -0.10512072929E+02  0.61189518475E+02  0.71825551000E+01  0.62499999570E+02  0.00000000000E+00 0.  1.
</event>
<event>
 4    1  0.1974401E-002  0.9118800E+02  0.7818608E-02  0.1130116E+00
         25   -1    0    0    0    0  0.00000000000E+00  0.00000000000E+00  0.99999998245E-14  0.12500000000E+03  0.12500000000E+03 0.  0.
        -11    1    1    0    0    0  0.24953647713E+02  0.19188832262E+01  0.10434488115E+02  0.27115405021E+02  0.51100000000E-03 0. -1.
         11    1    1    0    0    0  0.34598541912E+02  0.35112568033E+01  0.72526316622E+01  0.35524480195E+02  0.51100000000E-03 0.  1.
         22    1    1    0    0    0 -0.59552189625E+02 -0.54301400295E+01 -0.17687119777E+02  0.62360114784E+02  0.00000000000E+00 0. -1.
</event>
<event>
 4    1  0.1974401E-002  0.9118800E+02  0.7818608E-02  0.1130116E+00
         25   -1    0    0    0    0  0.00000000000E+00  0.00000000000E+00  0.99999998245E-14  0.12500000000E+03  0.12500000000E+03 0.  0.
        -11    1    1    0    0    0 -0.33624787986E+02  0.22202890303E+02  0.42592903824E+02  0.58632330342E+02  0.51100000000E-03 0.  1.
         11    1    1    0    0    0  0.11109362541E+02 -0.23671980414E+01  0.30349489833E+01  0.11757230891E+02  0.51100000000E-03 0. -1.
         22    1    1    0    0    0  0.22515425446E+02 -0.19835692261E+02 -0.45627852808E+02  0.54610438767E+02  0.00000000000E+00 0.  1.
</event>
<event>
 4    1  0.1974401E-002  0.9118800E+02  0.7818608E-02  0.1130116E+00
         25   -1    0    0    0    0  0.00000000000E+00  0.00000000000E+00  0.99999998245E-14  0.12500000000E+03  0.12500000000E+03 0.  0.
        -11    1    1    0    0    0  0.18736341653E-02  0.43884364180E+01  0.17532171656E+02  0.18073057875E+02  0.51100000000E-03 0. -1.
         11    1    1    0    0    0  0.10513747856E-02  0.10788556171E+02  0.43097102494E+02  0.44426942152E+02  0.51100000000E-03 0. -1.
         22    1    1    0    0    0 -0.29250089509E-02 -0.15176992589E+02 -0.60629274150E+02  0.62499999973E+02  0.00000000000E+00 0. -1.
</event>
<event>
 4    1  0.1974401E-002  0.9118800E+02  0.7818608E-02  0.1130116E+00
         25   -1    0    0    0    0  0.00000000000E+00  0.00000000000E+00  0.99999998245E-14  0.12500000000E+03  0.12500000000E+03 0.  0.
        -11    1    1    0    0    0 -0.61018477117E+01 -0.63867194337E+01 -0.18218506059E+02  0.20246893439E+02  0.51100000000E-03 0. -1.
         11    1    1    0    0    0 -0.12752204772E+02 -0.13262972845E+02 -0.38036832572E+02  0.42253115951E+02  0.51100000000E-03 0.  1.
         22    1    1    0    0    0  0.18854052483E+02  0.19649692278E+02  0.56255338632E+02  0.62499990610E+02  0.00000000000E+00 0.  1.
</event>
<event>
 4    1  0.1974401E-002  0.9118800E+02  0.7818608E-02  0.1130116E+00
         25   -1    0    0    0    0  0.00000000000E+00  0.00000000000E+00  0.99999998245E-14  0.12500000000E+03  0.12500000000E+03 0.  0.
        -11    1    1    0    0    0  0.46682647507E+02 -0.29425802625E+02  0.13412141367E+01  0.55199151207E+02  0.51100000000E-03 0. -1.
         11    1    1    0    0    0  0.61754318714E+01 -0.38900561709E+01  0.18417253674E+00  0.73008503337E+01  0.51100000000E-03 0.  1.
         22    1    1    0    0    0 -0.52858079379E+02  0.33315858796E+02 -0.15253866734E+01  0.62499998459E+02  0.00000000000E+00 0. -1.
</event>
<event>
 4    1  0.1974401E-002  0.9118800E+02  0.7818608E-02  0.1130116E+00
         25   -1    0    0    0    0  0.00000000000E+00  0.00000000000E+00  0.99999998245E-14  0.12500000000E+03  0.12500000000E+03 0.  0.
        -11    1    1    0    0    0 -0.15044875259E+02  0.61522216294E+01 -0.14328446746E+02  0.21668006114E+02  0.51100000000E-03 0. -1.
         11    1    1    0    0    0 -0.28355067680E+02  0.11592623052E+02 -0.26997276859E+02  0.40831993956E+02  0.51100000000E-03 0.  1.
         22    1    1    0    0    0  0.43399942939E+02 -0.17744844681E+02  0.41325723605E+02  0.62499999930E+02  0.00000000000E+00 0.  1.
</event>
<event>
 4    1  0.1974401E-002  0.9118800E+02  0.7818608E-02  0.1130116E+00
         25   -1    0    0    0    0  0.00000000000E+00  0.00000000000E+00  0.99999998245E-14  0.12500000000E+03  0.12500000000E+03 0.  0.
        -11    1    1    0    0    0 -0.11834122381E+01  0.42450616830E+01 -0.15367032145E+02  0.15986453341E+02  0.51100000000E-03 0.  1.
         11    1    1    0    0    0 -0.37811290127E+01  0.12525509110E+02 -0.44635679970E+02  0.46513753254E+02  0.51100000000E-03 0. -1.
         22    1    1    0    0    0  0.49645412508E+01 -0.16770570793E+02  0.60002712115E+02  0.62499793405E+02  0.00000000000E+00 0. -1.
</event>
<event>
 4    1  0.1974401E-002  0.9118800E+02  0.7818608E-02  0.1130116E+00
         25   -1    0    0    0    0  0.00000000000E+00  0.00000000000E+00  0.99999998245E-14  0.12500000000E+03  0.12500000000E+03 0.  0.
        -11    1    1    0    0    0  0.12692596212E+02 -0.13625594625E+02  0.27940169976E+02  0.33576955283E+02  0.51100000000E-03 0.  1.
         11    1    1    0    0    0  0.16275786090E+02 -0.11821555168E+02  0.21025440809E+02  0.29098445678E+02  0.51100000000E-03 0. -1.
         22    1    1    0    0    0 -0.28968382302E+02  0.25447149793E+02 -0.48965610785E+02  0.62324599039E+02  0.00000000000E+00 0. -1.
</event>
<event>
 4    1  0.1974401E-002  0.9118800E+02  0.7818608E-02  0.1130116E+00
         25   -1    0    0    0    0  0.00000000000E+00  0.00000000000E+00  0.99999998245E-14  0.12500000000E+03  0.12500000000E+03 0.  0.
        -11    1    1    0    0    0 -0.59497788633E+01  0.11839760374E+02  0.15117443464E+02  0.20102658814E+02  0.51100000000E-03 0. -1.
         11    1    1    0    0    0 -0.24675141003E+02  0.13452286171E+02  0.32449689003E+02  0.42927950142E+02  0.51100000000E-03 0.  1.
         22    1    1    0    0    0  0.30624919866E+02 -0.25292046545E+02 -0.47567132467E+02  0.61969391044E+02  0.00000000000E+00 0. -1.
</event>
<event>
 4    1  0.1974401E-002  0.9118800E+02  0.7818608E-02  0.1130116E+00
         25   -1    0    0    0    0  0.00000000000E+00  0.00000000000E+00  0.99999998245E-14  0.12500000000E+03  0.12500000000E+03 0.  0.
        -11    1    1    0    0    0 -0.21129627360E+01 -0.67689713145E+01  0.23480661287E+02  0.24528045966E+02  0.51100000000E-03 0. -1.
         11    1    1    0    0    0 -0.32297357126E+01 -0.10440317162E+02  0.36365348224E+02  0.37971962906E+02  0.51100000000E-03 0.  1.
         22    1    1    0    0    0  0.53426984486E+01  0.17209288477E+02 -0.59846009511E+02  0.62499991128E+02  0.00000000000E+00 0.  1.
</event>
<event>
 4    1  0.1974401E-002  0.9118800E+02  0.7818608E-02  0.1130116E+00
         25   -1    0    0    0    0  0.00000000000E+00  0.00000000000E+00  0.99999998245E-14  0.12500000000E+03  0.12500000000E+03 0.  0.
        -11    1    1    0    0    0  0.10993821443E+02  0.23186027224E+02 -0.20551671755E+02  0.32875936193E+02  0.51100000000E-03 0. -1.
         11    1    1    0    0    0 -0.39966413831E+02  0.14192351321E+02  0.75625664732E+01  0.43080500026E+02  0.51100000000E-03 0.  1.
         22    1    1    0    0    0  0.28972592388E+02 -0.37378378545E+02  0.12989105282E+02  0.49043563781E+02  0.00000000000E+00 0.  1.
</event>
<event>
 4    1  0.1974401E-002  0.9118800E+02  0.7818608E-02  0.1130116E+00
         25   -1    0    0    0    0  0.00000000000E+00  0.00000000000E+00  0.99999998245E-14  0.12500000000E+03  0.12500000000E+03 0.  0.
        -11    1    1    0    0    0  0.15100823100E+01  0.24409312214E+01 -0.36192750838E+02  0.36306386591E+02  0.51100000000E-03 0. -1.
         11    1    1    0    0    0  0.10911521465E+01  0.17900428811E+01 -0.26109591405E+02  0.26193618118E+02  0.51100000000E-03 0.  1.
         22    1    1    0    0    0 -0.26012344565E+01 -0.42309741025E+01  0.62302342242E+02  0.62499995292E+02  0.00000000000E+00 0. -1.
</event>
<event>
 4    1  0.1974401E-002  0.9118800E+02  0.7818608E-02  0.1130116E+00
         25   -1    0    0    0    0  0.00000000000E+00  0.00000000000E+00  0.99999998245E-14  0.12500000000E+03  0.12500000000E+03 0.  0.
        -11    1    1    0    0    0  0.11689680838E+02 -0.48189144179E+02  0.33363256064E+02  0.59765785448E+02  0.51100000000E-03 0.  1.
         11    1    1    0    0    0  0.38536089960E+00 -0.22257642797E+01  0.15441644558E+01  0.27362335024E+01  0.51100000000E-03 0. -1.
         22    1    1    0    0    0 -0.12075041738E+02  0.50414908459E+02 -0.34907420520E+02  0.62497981049E+02  0.00000000000E+00 0.  1.
</event>
<event>
 4    1  0.1974401E-002  0.9118800E+02  0.7818608E-02  0.1130116E+00
         25   -1    0    0    0    0  0.00000000000E+00  0.00000000000E+00  0.99999998245E-14  0.12500000000E+03  0.12500000000E+03 0.  0.
        -11    1    1    0    0    0 -0.21579860217E+02  0.38765033800E+02  0.16919379308E+02  0.47483508810E+02  0.51100000000E-03 0. -1.
         11    1    1    0    0    0 -0.72002145014E+01  0.11578496293E+02  0.63397027030E+01  0.15036505442E+02  0.51100000000E-03 0.  1.
         22    1    1    0    0    0  0.28780074718E+02 -0.50343530093E+02 -0.23259082011E+02  0.62479985748E+02  0.00000000000E+00 0. -1.
</event>
<event>
 4    1  0.1974401E-002  0.9118800E+02  0.7818608E-02  0.1130116E+00
         25   -1    0    0    0    0  0.00000000000E+00  0.00000000000E+00  0.99999998245E-14  0.12500000000E+03  0.12500000000E+03 0.  0.
        -11    1    1    0    0    0 -0.25659916570E+02 -0.49681942769E+02 -0.24031020448E+02  0.60862276492E+02  0.51100000000E-03 0. -1.
         11    1    1    0    0    0 -0.74653269609E+00 -0.12885155711E+01 -0.68403569422E+00  0.16387460253E+01  0.51100000000E-03 0.  1.
         22    1    1    0    0    0  0.26406449266E+02  0.50970458341E+02  0.24715056142E+02  0.62498977483E+02  0.00000000000E+00 0. -1.
</event>
<event>
 4    1  0.1974401E-002  0.9118800E+02  0.7818608E-02  0.1130116E+00
         25   -1    0    0    0    0  0.00000000000E+00  0.00000000000E+00  0.99999998245E-14  0.12500000000E+03  0.12500000000E+03 0.  0.
        -11    1    1    0    0    0 -0.25146473581E+02 -0.17715375710E+01  0.52964587784E+01  0.25759191656E+02  0.51100000000E-03 0.  1.
         11    1    1    0    0    0 -0.35829698898E+02 -0.22697892395E+01  0.78099345975E+01  0.36741180506E+02  0.51100000000E-03 0. -1.
         22    1    1    0    0    0  0.60976172479E+02  0.40413268105E+01 -0.13106393376E+02  0.62499627838E+02  0.00000000000E+00 0.  1.
</event>
<event>
 4    1  0.1974401E-002  0.9118800E+02  0.7818608E-02  0.1130116E+00
         25   -1    0    0    0    0  0.00000000000E+00  0.00000000000E+00  0.99999998245E-14  0.12500000000E+03  0.12500000000E+03 0.  0.
        -11    1    1    0    0    0  0.32663844325E+01  0.51069915336E+02  0.24681566406E+02  0.56815360953E+02  0.51100000000E-03 0.  1.
         11    1    1    0    0    0  0.27262769359E+00  0.60774047537E+01 -0.75704122044E+00  0.61304393049E+01  0.51100000000E-03 0. -1.
         22    1    1    0    0    0 -0.35390121261E+01 -0.57147320090E+02 -0.23924525186E+02  0.62054199742E+02  0.00000000000E+00 0.  1.
</event>
<event>
 4    1  0.1974401E-002  0.9118800E+02  0.7818608E-02  0.1130116E+00
         25   -1    0    0    0    0  0.00000000000E+00  0.00000000000E+00  0.99999998245E-14  0.12500000000E+03  0.12500000000E+03 0.  0.
        -11    1    1    0    0    0 -0.19310488065E+02 -0.36541253163E+02  0.43040158351E+02  0.59670875334E+02  0.51100000000E-03 0. -1.
         11    1    1    0    0    0 -0.15825911857E+01 -0.15666447260E+01  0.18154146427E+01  0.28730995710E+01  0.51100000000E-03 0.  1.
         22    1    1    0    0    0  0.20893079250E+02  0.38107897889E+02 -0.44855572994E+02  0.62456025095E+02  0.00000000000E+00 0. -1.
</event>
<event>
 4    1  0.1974401E-002  0.9118800E+02  0.7818608E-02  0.1130116E+00
         25   -1    0    0    0    0  0.00000000000E+00  0.00000000000E+00  0.99999998245E-14  0.12500000000E+03  0.12500000000E+03 0.  0.
        -11    1    1    0    0    0  0.35263270486E+01 -0.28597371498E+02  0.45649433894E+02  0.53982547681E+02  0.51100000000E-03 0. -1.
         11    1    1    0    0    0  0.58257314671E+00 -0.45234092606E+01  0.71935219416E+01  0.85174750364E+01  0.51100000000E-03 0.  1.
         22    1    1    0    0    0 -0.41089001953E+01  0.33120780759E+02 -0.52842955835E+02  0.62499977282E+02  0.00000000000E+00 0. -1.
</event>
<event>
 4    1  0.1974401E-002  0.9118800E+02  0.7818608E-02  0.1130116E+00
         25   -1    0    0    0    0  0.00000000000E+00  0.00000000000E+00  0.99999998245E-14  0.12500000000E+03  0.12500000000E+03 0.  0.
        -11    1    1    0    0    0 -0.26278694374E+01 -0.47227383395E+01  0.88527985194E+01  0.10372174174E+02  0.51100000000E-03 0. -1.
         11    1    1    0    0    0 -0.13205941501E+02 -0.23739725396E+02  0.44489760341E+02  0.52127825854E+02  0.51100000000E-03 0.  1.
         22    1    1    0    0    0  0.15833810939E+02  0.28462463735E+02 -0.53342558861E+02  0.62499999972E+02  0.00000000000E+00 0.  1.
</event>
<event>
 4    1  0.1974401E-002  0.9118800E+02  0.7818608E-02  0.1130116E+00
         25   -1    0    0    0    0  0.00000000000E+00  0.00000000000E+00  0.99999998245E-14  0.12500000000E+03  0.12500000000E+03 0.  0.
        -11    1    1    0    0    0 -0.10435039052E+02 -0.51270356949E+01  0.40358683048E+01  0.12307102351E+02  0.51100000000E-03 0.  1.
         11    1    1    0    0    0 -0.42552579097E+02 -0.20921574433E+02  0.16458819111E+02  0.50192897818E+02  0.51100000000E-03 0. -1.
         22    1    1    0    0    0  0.52987618149E+02  0.26048610128E+02 -0.20494687416E+02  0.62499999832E+02  0.00000000000E+00 0. -1.
</event>
<event>
 4    1  0.1974401E-002  0.9118800E+02  0.7818608E-02  0.1130116E+00
         25   -1    0    0    0    0  0.00000000000E+00  0.00000000000E+00  0.99999998245E-14  0.12500000000E+03  0.12500000000E+03 0.  0.
        -11    1    1    0    0    0 -0.38849247915E+01 -0.11468486528E+02  0.83236286552E+01  0.14693591056E+02  0.51100000000E-03 0. -1.
         11    1    1    0    0    0 -0.12639177389E+02 -0.37313051160E+02  0.27082100077E+02  0.47806408951E+02  0.51100000000E-03 0. -1.
         22    1    1    0    0    0  0.16524102180E+02  0.48781537688E+02 -0.35405728732E+02  0.62499999993E+02  0.00000000000E+00 0. -1.
</event>
<event>
 4    1  0.1974401E-002  0.9118800E+02  0.7818608E-02  0.1130116E+00
         25   -1    0    0    0    0  0.00000000000E+00  0.00000000000E+00  0.99999998245E-14  0.12500000000E+03  0.12500000000E+03 0.  0.
        -11    1    1    0    0    0 -0.23567971918E+01  0.56708959962E+01 -0.28036913331E+02  0.28701603854E+02  0.51100000000E-03 0.  1.
         11    1    1    0    0    0 -0.27781106761E+01  0.66776477171E+01 -0.33015491908E+02  0.33798396177E+02  0.51100000000E-03 0. -1.
         22    1    1    0    0    0  0.51349078679E+01 -0.12348543713E+02  0.61052405239E+02  0.62499999969E+02  0.00000000000E+00 0.  1.
</event>
<event>
 4    1  0.1974401E-002  0.9118800E+02  0.7818608E-02  0.1130116E+00
         25   -1    0    0    0    0  0.00000000000E+00  0.00000000000E+00  0.99999998245E-14  0.12500000000E+03  0.12500000000E+03 0.  0.
        -11    1    1    0    0    0  0.29184961704E+02 -0.25549409990E+02  0.46816019476E+02  0.60796990225E+02  0.51100000000E-03 0. -1.
         11    1    1    0    0    0  0.81900410724E+00 -0.71484484764E+00  0.13109053410E+01  0.17030102636E+01  0.51100000000E-03 0.  1.
         22    1    1    0    0    0 -0.30003965811E+02  0.26264254838E+02 -0.48126924817E+02  0.62499999512E+02  0.00000000000E+00 0. -1.
</event>
<event>
 4    1  0.1974401E-002  0.9118800E+02  0.7818608E-02  0.1130116E+00
         25   -1    0    0    0    0  0.00000000000E+00  0.00000000000E+00  0.99999998245E-14  0.12500000000E+03  0.12500000000E+03 0.  0.
        -11    1    1    0    0    0 -0.25901052031E+00  0.41714727107E+02  0.73073986900E+01  0.42350721598E+02  0.51100000000E-03 0. -1.
         11    1    1    0    0    0 -0.29728114755E+00  0.19829534585E+02  0.35647715680E+01  0.20149600853E+02  0.51100000000E-03 0.  1.
         22    1    1    0    0    0  0.55629166786E+00 -0.61544261692E+02 -0.10872170258E+02  0.62499677549E+02  0.00000000000E+00 0. -1.
</event>
<event>
 4    1  0.1974401E-002  0.9118800E+02  0.7818608E-02  0.1130116E+00
         25   -1    0    0    0    0  0.00000000000E+00  0.00000000000E+00  0.99999998245E-14  0.12500000000E+03  0.12500000000E+03 0.  0.
        -11    1    1    0    0    0  0.49011900043E+02 -0.88092219872E+01 -0.71934211434E+01  0.50314153534E+02  0.51100000000E-03 0.  1.
         11    1    1    0    0    0  0.11873717424E+02 -0.20962196492E+01 -0.17653135129E+01  0.12185878480E+02  0.51100000000E-03 0. -1.
         22    1    1    0    0    0 -0.60885617467E+02  0.10905441636E+02  0.89587346562E+01  0.62499967986E+02  0.00000000000E+00 0. -1.
</event>
<event>
 4    1  0.1974401E-002  0.9118800E+02  0.7818608E-02  0.1130116E+00
         25   -1    0    0    0    0  0.00000000000E+00  0.00000000000E+00  0.99999998245E-14  0.12500000000E+03  0.12500000000E+03 0.  0.
        -11    1    1    0    0    0 -0.39589762054E+02 -0.52060334543E+01 -0.93493006616E+01  0.41010504348E+02  0.51100000000E-03 0.  1.
         11    1    1    0    0    0 -0.20745329254E+02 -0.27346000389E+01 -0.48940497231E+01  0.21489496183E+02  0.51100000000E-03 0. -1.
         22    1    1    0    0    0  0.60335091308E+02  0.79406334932E+01  0.14243350385E+02  0.62499999469E+02  0.00000000000E+00 0.  1.
</event>
<event>
 4    1  0.1974401E-002  0.9118800E+02  0.7818608E-02  0.1130116E+00
         25   -1    0    0    0    0  0.00000000000E+00  0.00000000000E+00  0.99999998245E-14  0.12500000000E+03  0.12500000000E+03 0.  0.
        -11    1    1    0    0    0  0.40649543208E+01  0.75405781182E+01 -0.62778754926E+01  0.10620541086E+02  0.51100000000E-03 0.  1.
         11    1    1    0    0    0  0.19856659179E+02  0.36835357731E+02 -0.30665090332E+02  0.51879458924E+02  0.51100000000E-03 0. -1.
         22    1    1    0    0    0 -0.23921613500E+02 -0.44375935849E+02  0.36942965824E+02  0.62499999991E+02  0.00000000000E+00 0. -1.
</event>
<event>
 4    1  0.1974401E-002  0.9118800E+02  0.7818608E-02  0.1130116E+00
         25   -1    0    0    0    0  0.00000000000E+00  0.00000000000E+00  0.99999998245E-14  0.12500000000E+03  0.12500000000E+03 0.  0.
        -11    1    1    0    0    0  0.75900188523E+01  0.10101616480E+01 -0.11394211532E+02  0.13727959405E+02  0.51100000000E-03 0.  1.
         11    1    1    0    0    0  0.26956018372E+02  0.35684808685E+01 -0.40488900016E+02  0.48772041242E+02  0.51100000000E-03 0. -1.
         22    1    1    0    0    0 -0.34546037224E+02 -0.45786425165E+01  0.51883111548E+02  0.62499999353E+02  0.00000000000E+00 0. -1.
</event>
<event>
 4    1  0.1974401E-002  0.9118800E+02  0.7818608E-02  0.1130116E+00
         25   -1    0    0    0    0  0.00000000000E+00  0.00000000000E+00  0.99999998245E-14  0.12500000000E+03  0.12500000000E+03 0.  0.
        -11    1    1    0    0    0  0.37007591142E+02  0.25585187155E+02  0.18228454823E+02  0.48543178402E+02  0.51100000000E-03 0.  1.
         11    1    1    0    0    0  0.10642127171E+02  0.71013870196E+01  0.55838303691E+01  0.13959359949E+02  0.51100000000E-03 0. -1.
         22    1    1    0    0    0 -0.47649718313E+02 -0.32686574174E+02 -0.23812285192E+02  0.62497461649E+02  0.00000000000E+00 0.  1.
</event>
<event>
 4    1  0.1974401E-002  0.9118800E+02  0.7818608E-02  0.1130116E+00
         25   -1    0    0    0    0  0.00000000000E+00  0.00000000000E+00  0.99999998245E-14  0.12500000000E+03  0.12500000000E+03 0.  0.
        -11    1    1    0    0    0  0.11363167074E+02 -0.28298047516E+02 -0.17004877992E+02  0.34915139051E+02  0.51100000000E-03 0. -1.
         11    1    1    0    0    0  0.89821649559E+01 -0.22348769470E+02 -0.13445364467E+02  0.27584861972E+02  0.51100000000E-03 0.  1.
         22    1    1    0    0    0 -0.20345332030E+02  0.50646816986E+02  0.30450242459E+02  0.62499998976E+02  0.00000000000E+00 0. -1.
</event>
<event>
 4    1  0.1974401E-002  0.9118800E+02  0.7818608E-02  0.1130116E+00
         25   -1    0    0    0    0  0.00000000000E+00  0.00000000000E+00  0.99999998245E-14  0.12500000000E+03  0.12500000000E+03 0.  0.
        -11    1    1    0    0    0 -0.43200565853E+02  0.41016449888E+02  0.53510333249E+01  0.59810296851E+02  0.51100000000E-03 0. -1.
         11    1    1    0    0    0 -0.18156395694E+01  0.20007416045E+01 -0.34563845159E+00  0.27237805004E+01  0.51100000000E-03 0.  1.
         22    1    1    0    0    0  0.45016205423E+02 -0.43017191493E+02 -0.50053948733E+01  0.62465922649E+02  0.00000000000E+00 0. -1.
</event>
<event>
 4    1  0.1974401E-002  0.9118800E+02  0.7818608E-02  0.1130116E+00
         25   -1    0    0    0    0  0.00000000000E+00  0.00000000000E+00  0.99999998245E-14  0.12500000000E+03  0.12500000000E+03 0.  0.
        -11    1    1    0    0    0  0.98843386122E+01 -0.19954749205E+02 -0.60867986218E+01  0.23085521076E+02  0.51100000000E-03 0. -1.
         11    1    1    0    0    0  0.16872759315E+02 -0.34072624585E+02 -0.10385923495E+02  0.39414479067E+02  0.51100000000E-03 0.  1.
         22    1    1    0    0    0 -0.26757097927E+02  0.54027373790E+02  0.16472722117E+02  0.62499999857E+02  0.00000000000E+00 0.  1.
</event>
<event>
 4    1  0.1974401E-002  0.9118800E+02  0.7818608E-02  0.1130116E+00
         25   -1    0    0    0    0  0.00000000000E+00  0.00000000000E+00  0.99999998245E-14  0.12500000000E+03  0.12500000000E+03 0.  0.
        -11    1    1    0    0    0 -0.19501598104E+02 -0.43952443000E+02  0.21392410279E+02  0.52628554912E+02  0.51100000000E-03 0. -1.
         11    1    1    0    0    0 -0.43323752755E+01 -0.79806687329E+01  0.39001323560E+01  0.98828933824E+01  0.51100000000E-03 0.  1.
         22    1    1    0    0    0  0.23833973380E+02  0.51933111733E+02 -0.25292542635E+02  0.62488551706E+02  0.00000000000E+00 0. -1.
</event>
<event>
 4    1  0.1974401E-002  0.9118800E+02  0.7818608E-02  0.1130116E+00
         25   -1    0    0    0    0  0.00000000000E+00  0.00000000000E+00  0.99999998245E-14  0.12500000000E+03  0.12500000000E+03 0.  0.
        -11    1    1    0    0    0  0.40415640698E+02 -0.46511491378E+02 -0.13611596334E+01  0.61632747781E+02  0.51100000000E-03 0.  1.
         11    1    1    0    0    0  0.56492884691E+00 -0.65217792560E+00  0.14457627876E+00  0.87486182350E+00  0.51100000000E-03 0. -1.
         22    1    1    0    0    0 -0.40980569544E+02  0.47163669303E+02  0.12165833546E+01  0.62492390396E+02  0.00000000000E+00 0.  1.
</event>
<event>
 4    1  0.1974401E-002  0.9118800E+02  0.7818608E-02  0.1130116E+00
         25   -1    0    0    0    0  0.00000000000E+00  0.00000000000E+00  0.99999998245E-14  0.12500000000E+03  0.12500000000E+03 0.  0.
        -11    1    1    0    0    0  0.14412233272E+02 -0.34849611050E+02 -0.29837069170E+02  0.48088029229E+02  0.51100000000E-03 0. -1.
         11    1    1    0    0    0  0.26084148576E+01 -0.11124668300E+02 -0.88572578882E+01  0.14457285029E+02  0.51100000000E-03 0.  1.
         22    1    1    0    0    0 -0.17020648129E+02  0.45974279351E+02  0.38694327058E+02  0.62454685741E+02  0.00000000000E+00 0. -1.
</event>
<event>
 4    1  0.1974401E-002  0.9118800E+02  0.7818608E-02  0.1130116E+00
         25   -1    0    0    0    0  0.00000000000E+00  0.00000000000E+00  0.99999998245E-14  0.12500000000E+03  0.12500000000E+03 0.  0.
        -11    1    1    0    0    0 -0.20825926197E+02  0.38365526325E+02 -0.21600390077E+02  0.48705335066E+02  0.51100000000E-03 0.  1.
         11    1    1    0    0    0 -0.58988062402E+01  0.10865792737E+02 -0.61181217562E+01  0.13794664945E+02  0.51100000000E-03 0.  1.
         22    1    1    0    0    0  0.26724732437E+02 -0.49231319062E+02  0.27718511833E+02  0.62499999989E+02  0.00000000000E+00 0.  1.
</event>
<event>
 4    1  0.1974401E-002  0.9118800E+02  0.7818608E-02  0.1130116E+00
         25   -1    0    0    0    0  0.00000000000E+00  0.00000000000E+00  0.99999998245E-14  0.12500000000E+03  0.12500000000E+03 0.  0.
        -11    1    1    0    0    0 -0.39599581500E+02 -0.39434040639E+01 -0.36157067447E+02  0.53768120826E+02  0.51100000000E-03 0.  1.
         11    1    1    0    0    0 -0.64266162622E+01 -0.65632187740E+00 -0.58748344298E+01  0.87318860979E+01  0.51100000000E-03 0. -1.
         22    1    1    0    0    0  0.46026197762E+02  0.45997259413E+01  0.42031901876E+02  0.62499993076E+02  0.00000000000E+00 0.  1.
</event>
<event>
 4    1  0.1974401E-002  0.9118800E+02  0.7818608E-02  0.1130116E+00
         25   -1    0    0    0    0  0.00000000000E+00  0.00000000000E+00  0.99999998245E-14  0.12500000000E+03  0.12500000000E+03 0.  0.
        -11    1    1    0    0    0 -0.12389248381E+02 -0.92225493944E+01  0.11531002986E+02  0.19274670500E+02  0.51100000000E-03 0.  1.
         11    1    1    0    0    0 -0.27792042172E+02 -0.20671231758E+02  0.25859847433E+02  0.43225329843E+02  0.51100000000E-03 0. -1.
         22    1    1    0    0    0  0.40181290552E+02  0.29893781152E+02 -0.37390850420E+02  0.62499999657E+02  0.00000000000E+00 0. -1.
</event>
<event>
 4    1  0.1974401E-002  0.9118800E+02  0.7818608E-02  0.1130116E+00
         25   -1    0    0    0    0  0.00000000000E+00  0.00000000000E+00  0.99999998245E-14  0.12500000000E+03  0.12500000000E+03 0.  0.
        -11    1    1    0    0    0 -0.27105910945E+02 -0.56097885003E+01  0.76991793005E+01  0.28731124192E+02  0.51100000000E-03 0.  1.
         11    1    1    0    0    0 -0.32862257553E+02 -0.36302460019E+01 -0.12631315361E+02  0.35392891737E+02  0.51100000000E-03 0. -1.
         22    1    1    0    0    0  0.59968168497E+02  0.92400345022E+01  0.49321360605E+01  0.60875984071E+02  0.00000000000E+00 0. -1.
</event>
<event>
 4    1  0.1974401E-002  0.9118800E+02  0.7818608E-02  0.1130116E+00
         25   -1    0    0    0    0  0.00000000000E+00  0.00000000000E+00  0.99999998245E-14  0.12500000000E+03  0.12500000000E+03 0.  0.
        -11    1    1    0    0    0  0.74382559980E+01  0.22553273458E+02 -0.24451254058E+02  0.34085797940E+02  0.51100000000E-03 0. -1.
         11    1    1    0    0    0  0.61981093719E+01  0.18792473354E+02 -0.20391010331E+02  0.28414202736E+02  0.51100000000E-03 0.  1.
         22    1    1    0    0    0 -0.13636365370E+02 -0.41345746812E+02  0.44842264389E+02  0.62499999324E+02  0.00000000000E+00 0. -1.
</event>
<event>
 4    1  0.1974401E-002  0.9118800E+02  0.7818608E-02  0.1130116E+00
         25   -1    0    0    0    0  0.00000000000E+00  0.00000000000E+00  0.99999998245E-14  0.12500000000E+03  0.12500000000E+03 0.  0.
        -11    1    1    0    0    0  0.14320452440E+02 -0.63034102054E+00 -0.18233961685E+02  0.23193750168E+02  0.51100000000E-03 0. -1.
         11    1    1    0    0    0  0.25646872882E+02 -0.18943965298E+01 -0.29738198072E+02  0.39315534483E+02  0.51100000000E-03 0.  1.
         22    1    1    0    0    0 -0.39967325322E+02  0.25247375503E+01  0.47972159757E+02  0.62490715349E+02  0.00000000000E+00 0.  1.
</event>
<event>
 4    1  0.1974401E-002  0.9118800E+02  0.7818608E-02  0.1130116E+00
         25   -1    0    0    0    0  0.00000000000E+00  0.00000000000E+00  0.99999998245E-14  0.12500000000E+03  0.12500000000E+03 0.  0.
        -11    1    1    0    0    0  0.38203660608E+02  0.28369989283E+02  0.17239427245E+02  0.50611992925E+02  0.51100000000E-03 0.  1.
         11    1    1    0    0    0  0.90199366839E+01  0.64386874340E+01  0.43078061284E+01  0.11890044052E+02  0.51100000000E-03 0. -1.
         22    1    1    0    0    0 -0.47223597292E+02 -0.34808676717E+02 -0.21547233373E+02  0.62497963023E+02  0.00000000000E+00 0.  1.
</event>
<event>
 4    1  0.1974401E-002  0.9118800E+02  0.7818608E-02  0.1130116E+00
         25   -1    0    0    0    0  0.00000000000E+00  0.00000000000E+00  0.99999998245E-14  0.12500000000E+03  0.12500000000E+03 0.  0.
        -11    1    1    0    0    0  0.11928577387E+02 -0.17088951870E+00 -0.21334898783E+01  0.12119073439E+02  0.51100000000E-03 0. -1.
         11    1    1    0    0    0  0.49589672885E+02 -0.69965392394E+00 -0.88663747504E+01  0.50380926687E+02  0.51100000000E-03 0.  1.
         22    1    1    0    0    0 -0.61518250271E+02  0.87054344265E+00  0.10999864629E+02  0.62499999873E+02  0.00000000000E+00 0.  1.
</event>
<event>
 4    1  0.1974401E-002  0.9118800E+02  0.7818608E-02  0.1130116E+00
         25   -1    0    0    0    0  0.00000000000E+00  0.00000000000E+00  0.99999998245E-14  0.12500000000E+03  0.12500000000E+03 0.  0.
        -11    1    1    0    0    0  0.66468159482E+01 -0.12724241047E+02  0.24936504058E+02  0.28773524417E+02  0.51100000000E-03 0. -1.
         11    1    1    0    0    0  0.77924420709E+01 -0.14915876835E+02  0.29227891153E+02  0.33726475605E+02  0.51100000000E-03 0.  1.
         22    1    1    0    0    0 -0.14439258019E+02  0.27640117882E+02 -0.54164395212E+02  0.62499999978E+02  0.00000000000E+00 0. -1.
</event>
<event>
 4    1  0.1974401E-002  0.9118800E+02  0.7818608E-02  0.1130116E+00
         25   -1    0    0    0    0  0.00000000000E+00  0.00000000000E+00  0.99999998245E-14  0.12500000000E+03  0.12500000000E+03 0.  0.
        -11    1    1    0    0    0  0.26212085790E+02 -0.70841017360E+01  0.87127880603E+01  0.28516146565E+02  0.51100000000E-03 0. -1.
         11    1    1    0    0    0  0.31352803116E+02 -0.86433009952E+01  0.98626293605E+01  0.33984943335E+02  0.51100000000E-03 0.  1.
         22    1    1    0    0    0 -0.57564888906E+02  0.15727402731E+02 -0.18575417421E+02  0.62498910100E+02  0.00000000000E+00 0.  1.
</event>
<event>
 4    1  0.1974401E-002  0.9118800E+02  0.7818608E-02  0.1130116E+00
         25   -1    0    0    0    0  0.00000000000E+00  0.00000000000E+00  0.99999998245E-14  0.12500000000E+03  0.12500000000E+03 0.  0.
        -11    1    1    0    0    0  0.59294463908E+01  0.32506768638E+02 -0.23187810711E+02  0.40367349524E+02  0.51100000000E-03 0. -1.
         11    1    1    0    0    0  0.32508791782E+01  0.17822983883E+02 -0.12713270513E+02  0.22132650481E+02  0.51100000000E-03 0. -1.
         22    1    1    0    0    0 -0.91803255691E+01 -0.50329752521E+02  0.35901081223E+02  0.62499999995E+02  0.00000000000E+00 0. -1.
</event>
<event>
 4    1  0.1974401E-002  0.9118800E+02  0.7818608E-02  0.1130116E+00
         25   -1    0    0    0    0  0.00000000000E+00  0.00000000000E+00  0.99999998245E-14  0.12500000000E+03  0.12500000000E+03 0.  0.
        -11    1    1    0    0    0 -0.10490757269E+02 -0.27659256995E+02 -0.25027869781E+02  0.38748996783E+02  0.51100000000E-03 0.  1.
         11    1    1    0    0    0 -0.64302807221E+01 -0.16953749440E+02 -0.15340535309E+02  0.23751003222E+02  0.51100000000E-03 0.  1.
         22    1    1    0    0    0  0.16921037992E+02  0.44613006435E+02  0.40368405090E+02  0.62499999995E+02  0.00000000000E+00 0.  1.
</event>
<event>
 4    1  0.1974401E-002  0.9118800E+02  0.7818608E-02  0.1130116E+00
         25   -1    0    0    0    0  0.00000000000E+00  0.00000000000E+00  0.99999998245E-14  0.12500000000E+03  0.12500000000E+03 0.  0.
        -11    1    1    0    0    0 -0.70563464644E+01 -0.30506567201E+02 -0.19434847690E+02  0.36853167745E+02  0.51100000000E-03 0. -1.
         11    1    1    0    0    0 -0.49102829415E+01 -0.21229635944E+02 -0.13525963335E+02  0.25646832266E+02  0.51100000000E-03 0. -1.
         22    1    1    0    0    0  0.11966629406E+02  0.51736203146E+02  0.32960811025E+02  0.62499999989E+02  0.00000000000E+00 0. -1.
</event>
<event>
 4    1  0.1974401E-002  0.9118800E+02  0.7818608E-02  0.1130116E+00
         25   -1    0    0    0    0  0.00000000000E+00  0.00000000000E+00  0.99999998245E-14  0.12500000000E+03  0.12500000000E+03 0.  0.
        -11    1    1    0    0    0  0.50575903446E+02  0.36477227344E+02  0.18196064690E+01  0.62384461944E+02  0.51100000000E-03 0. -1.
         11    1    1    0    0    0 -0.11165038717E+01 -0.70465814845E-01 -0.39033850732E+00  0.11848673926E+01  0.51100000000E-03 0.  1.
         22    1    1    0    0    0 -0.49459399574E+02 -0.36406761529E+02 -0.14292679617E+01  0.61430670664E+02  0.00000000000E+00 0. -1.
</event>
<event>
 4    1  0.1974401E-002  0.9118800E+02  0.7818608E-02  0.1130116E+00
         25   -1    0    0    0    0  0.00000000000E+00  0.00000000000E+00  0.99999998245E-14  0.12500000000E+03  0.12500000000E+03 0.  0.
        -11    1    1    0    0    0 -0.33953365987E+00 -0.25061141725E+02 -0.12540981493E+02  0.28025922371E+02  0.51100000000E-03 0.  1.
         11    1    1    0    0    0  0.14396464113E+02 -0.42351159030E+01 -0.35748095276E+02  0.38770100617E+02  0.51100000000E-03 0. -1.
         22    1    1    0    0    0 -0.14056930453E+02  0.29296257628E+02  0.48289076770E+02  0.58203977012E+02  0.00000000000E+00 0.  1.
</event>
<event>
 4    1  0.1974401E-002  0.9118800E+02  0.7818608E-02  0.1130116E+00
         25   -1    0    0    0    0  0.00000000000E+00  0.00000000000E+00  0.99999998245E-14  0.12500000000E+03  0.12500000000E+03 0.  0.
        -11    1    1    0    0    0  0.33850809248E+02 -0.32324764999E+02 -0.21346760937E+02  0.51443677179E+02  0.51100000000E-03 0. -1.
         11    1    1    0    0    0  0.72763255653E+01 -0.69495329403E+01 -0.45827247195E+01  0.11056323437E+02  0.51100000000E-03 0.  1.
         22    1    1    0    0    0 -0.41127134813E+02  0.39274297939E+02  0.25929485657E+02  0.62499999384E+02  0.00000000000E+00 0. -1.
</event>
<event>
 4    1  0.1974401E-002  0.9118800E+02  0.7818608E-02  0.1130116E+00
         25   -1    0    0    0    0  0.00000000000E+00  0.00000000000E+00  0.99999998245E-14  0.12500000000E+03  0.12500000000E+03 0.  0.
        -11    1    1    0    0    0  0.14432187693E+02  0.40931212925E+02 -0.43823809429E+02  0.61678022879E+02  0.51100000000E-03 0. -1.
         11    1    1    0    0    0  0.16519505763E+00  0.58965435680E+00 -0.55005550502E+00  0.82312999416E+00  0.51100000000E-03 0.  1.
         22    1    1    0    0    0 -0.14597382750E+02 -0.41520867282E+02  0.44373864934E+02  0.62498847127E+02  0.00000000000E+00 0. -1.
</event>
<event>
 4    1  0.1974401E-002  0.9118800E+02  0.7818608E-02  0.1130116E+00
         25   -1    0    0    0    0  0.00000000000E+00  0.00000000000E+00  0.99999998245E-14  0.12500000000E+03  0.12500000000E+03 0.  0.
        -11    1    1    0    0    0 -0.13806505874E+02  0.93184905647E+01 -0.26830205767E+01  0.16871646941E+02  0.51100000000E-03 0.  1.
         11    1    1    0    0    0 -0.39826595146E+02  0.19910087443E+02  0.12538812744E+02  0.46257875959E+02  0.51100000000E-03 0. -1.
         22    1    1    0    0    0  0.53633101019E+02 -0.29228578008E+02 -0.98557921676E+01  0.61870477100E+02  0.00000000000E+00 0. -1.
</event>
<event>
 4    1  0.1974401E-002  0.9118800E+02  0.7818608E-02  0.1130116E+00
         25   -1    0    0    0    0  0.00000000000E+00  0.00000000000E+00  0.99999998245E-14  0.12500000000E+03  0.12500000000E+03 0.  0.
        -11    1    1    0    0    0 -0.59256877582E+02 -0.64101746822E+01  0.16394367821E+02  0.61816204807E+02  0.51100000000E-03 0.  1.
         11    1    1    0    0    0 -0.48800105675E+00  0.71807936489E+00  0.24928686958E+00  0.90328689249E+00  0.51100000000E-03 0. -1.
         22    1    1    0    0    0  0.59744878639E+02  0.56920953173E+01 -0.16643654690E+02  0.62280508300E+02  0.00000000000E+00 0.  1.
</event>
<event>
 4    1  0.1974401E-002  0.9118800E+02  0.7818608E-02  0.1130116E+00
         25   -1    0    0    0    0  0.00000000000E+00  0.00000000000E+00  0.99999998245E-14  0.12500000000E+03  0.12500000000E+03 0.  0.
        -11    1    1    0    0    0  0.25552941506E+01 -0.52963227181E+01 -0.56192416468E+01  0.81336608902E+01  0.51100000000E-03 0.  1.
         11    1    1    0    0    0  0.19757684367E+02 -0.32699348307E+02 -0.38692512883E+02  0.54375766889E+02  0.51100000000E-03 0. -1.
         22    1    1    0    0    0 -0.22312978518E+02  0.37995671025E+02  0.44311754530E+02  0.62490572221E+02  0.00000000000E+00 0. -1.
</event>
<event>
 4    1  0.1974401E-002  0.9118800E+02  0.7818608E-02  0.1130116E+00
         25   -1    0    0    0    0  0.00000000000E+00  0.00000000000E+00  0.99999998245E-14  0.12500000000E+03  0.12500000000E+03 0.  0.
        -11    1    1    0    0    0  0.68532306973E+00 -0.93604554225E+00 -0.74124535085E+00  0.13766967343E+01  0.51100000000E-03 0.  1.
         11    1    1    0    0    0  0.30288706035E+02 -0.41891768504E+02 -0.32614944691E+02  0.61123322873E+02  0.51100000000E-03 0. -1.
         22    1    1    0    0    0 -0.30974029104E+02  0.42827814046E+02  0.33356190042E+02  0.62499980392E+02  0.00000000000E+00 0. -1.
</event>
<event>
 4    1  0.1974401E-002  0.9118800E+02  0.7818608E-02  0.1130116E+00
         25   -1    0    0    0    0  0.00000000000E+00  0.00000000000E+00  0.99999998245E-14  0.12500000000E+03  0.12500000000E+03 0.  0.
        -11    1    1    0    0    0 -0.25248908857E+02 -0.15585291994E+02 -0.67269357715E+00  0.29679306628E+02  0.51100000000E-03 0.  1.
         11    1    1    0    0    0 -0.23158078886E+02 -0.23545040464E+02 -0.12101240586E+01  0.33047389438E+02  0.51100000000E-03 0. -1.
         22    1    1    0    0    0  0.48406987744E+02  0.39130332458E+02  0.18828176357E+01  0.62273303934E+02  0.00000000000E+00 0. -1.
</event>
<event>
 4    1  0.1974401E-002  0.9118800E+02  0.7818608E-02  0.1130116E+00
         25   -1    0    0    0    0  0.00000000000E+00  0.00000000000E+00  0.99999998245E-14  0.12500000000E+03  0.12500000000E+03 0.  0.
        -11    1    1    0    0    0 -0.18025423883E+02 -0.59947907825E+00 -0.15903996906E+02  0.24046047475E+02  0.51100000000E-03 0.  1.
         11    1    1    0    0    0 -0.25375161204E+02  0.41190261168E+01 -0.28761689783E+02  0.38575898975E+02  0.51100000000E-03 0. -1.
         22    1    1    0    0    0  0.43400585087E+02 -0.35195470386E+01  0.44665686690E+02  0.62378053550E+02  0.00000000000E+00 0.  1.
</event>
<event>
 4    1  0.1974401E-002  0.9118800E+02  0.7818608E-02  0.1130116E+00
         25   -1    0    0    0    0  0.00000000000E+00  0.00000000000E+00  0.99999998245E-14  0.12500000000E+03  0.12500000000E+03 0.  0.
        -11    1    1    0    0    0  0.55643779215E+01  0.32605017994E+02  0.32538422085E+02  0.46398258718E+02  0.51100000000E-03 0. -1.
         11    1    1    0    0    0  0.14128160690E+01  0.98974676223E+01  0.12683698871E+02  0.16150298198E+02  0.51100000000E-03 0.  1.
         22    1    1    0    0    0 -0.69771939905E+01 -0.42502485616E+02 -0.45222120956E+02  0.62451443084E+02  0.00000000000E+00 0. -1.
</event>
<event>
 4    1  0.1974401E-002  0.9118800E+02  0.7818608E-02  0.1130116E+00
         25   -1    0    0    0    0  0.00000000000E+00  0.00000000000E+00  0.99999998245E-14  0.12500000000E+03  0.12500000000E+03 0.  0.
        -11    1    1    0    0    0  0.28959970972E+02  0.11610132598E+02  0.12981025113E+02  0.33793225813E+02  0.51100000000E-03 0. -1.
         11    1    1    0    0    0  0.24760038020E+02  0.95026441238E+01  0.10989149873E+02  0.28707510224E+02  0.51100000000E-03 0.  1.
         22    1    1    0    0    0 -0.53720008992E+02 -0.21112776722E+02 -0.23970174986E+02  0.62499263962E+02  0.00000000000E+00 0.  1.
</event>
<event>
 4    1  0.1974401E-002  0.9118800E+02  0.7818608E-02  0.1130116E+00
         25   -1    0    0    0    0  0.00000000000E+00  0.00000000000E+00  0.99999998245E-14  0.12500000000E+03  0.12500000000E+03 0.  0.
        -11    1    1    0    0    0 -0.68811418469E+01 -0.38056872593E+01 -0.29401021194E+00  0.78689142135E+01  0.51100000000E-03 0. -1.
         11    1    1    0    0    0 -0.48023149118E+02 -0.11360694669E+02  0.24672861048E+02  0.55172804054E+02  0.51100000000E-03 0.  1.
         22    1    1    0    0    0  0.54904290965E+02  0.15166381928E+02 -0.24378850836E+02  0.61958281733E+02  0.00000000000E+00 0.  1.
</event>
<event>
 4    1  0.1974401E-002  0.9118800E+02  0.7818608E-02  0.1130116E+00
         25   -1    0    0    0    0  0.00000000000E+00  0.00000000000E+00  0.99999998245E-14  0.12500000000E+03  0.12500000000E+03 0.  0.
        -11    1    1    0    0    0 -0.21964438081E+02  0.13101404887E+02 -0.46237968169E+02  0.52839692002E+02  0.51100000000E-03 0. -1.
         11    1    1    0    0    0 -0.40112077622E+01  0.23515635316E+01 -0.84677513982E+01  0.96603546911E+01  0.51100000000E-03 0.  1.
         22    1    1    0    0    0  0.25975645844E+02 -0.15452968418E+02  0.54705719567E+02  0.62499953306E+02  0.00000000000E+00 0. -1.
</event>
<event>
 4    1  0.1974401E-002  0.9118800E+02  0.7818608E-02  0.1130116E+00
         25   -1    0    0    0    0  0.00000000000E+00  0.00000000000E+00  0.99999998245E-14  0.12500000000E+03  0.12500000000E+03 0.  0.
        -11    1    1    0    0    0  0.63687174088E+01 -0.61880562575E+00 -0.59523137565E+01  0.87391945368E+01  0.51100000000E-03 0. -1.
         11    1    1    0    0    0  0.41172650268E+02 -0.92065159223E+01 -0.33366645208E+02  0.53789218977E+02  0.51100000000E-03 0.  1.
         22    1    1    0    0    0 -0.47541367676E+02  0.98253215481E+01  0.39318958964E+02  0.62471586486E+02  0.00000000000E+00 0.  1.
</event>
<event>
 4    1  0.1974401E-002  0.9118800E+02  0.7818608E-02  0.1130116E+00
         25   -1    0    0    0    0  0.00000000000E+00  0.00000000000E+00  0.99999998245E-14  0.12500000000E+03  0.12500000000E+03 0.  0.
        -11    1    1    0    0    0  0.42334155084E+02  0.28714654031E+02  0.29281314072E+02  0.58941559165E+02  0.51100000000E-03 0. -1.
         11    1    1    0    0    0  0.25553211588E+01  0.17339361618E+01  0.17681347370E+01  0.35584408871E+01  0.51100000000E-03 0.  1.
         22    1    1    0    0    0 -0.44889476243E+02 -0.30448590193E+02 -0.31049448809E+02  0.62499999947E+02  0.00000000000E+00 0. -1.
</event>
<event>
 4    1  0.1974401E-002  0.9118800E+02  0.7818608E-02  0.1130116E+00
         25   -1    0    0    0    0  0.00000000000E+00  0.00000000000E+00  0.99999998245E-14  0.12500000000E+03  0.12500000000E+03 0.  0.
        -11    1    1    0    0    0 -0.40178903783E+00 -0.10061074202E+02  0.38175669196E+01  0.10768494137E+02  0.51100000000E-03 0.  1.
         11    1    1    0    0    0 -0.55788945716E+02  0.85424532273E+01 -0.11193286592E+02  0.57538418784E+02  0.51100000000E-03 0. -1.
         22    1    1    0    0    0  0.56190734754E+02  0.15186209747E+01  0.73757196723E+01  0.56693087079E+02  0.00000000000E+00 0. -1.
</event>
<event>
 4    1  0.1974401E-002  0.9118800E+02  0.7818608E-02  0.1130116E+00
         25   -1    0    0    0    0  0.00000000000E+00  0.00000000000E+00  0.99999998245E-14  0.12500000000E+03  0.12500000000E+03 0.  0.
        -11    1    1    0    0    0  0.50555071016E+00  0.17672593173E+02  0.38306149157E+01  0.18090045380E+02  0.51100000000E-03 0. -1.
         11    1    1    0    0    0 -0.24354265497E+01  0.43445101536E+02  0.89898740340E+01  0.44432262888E+02  0.51100000000E-03 0.  1.
         22    1    1    0    0    0  0.19298758395E+01 -0.61117694708E+02 -0.12820488950E+02  0.62477691732E+02  0.00000000000E+00 0.  1.
</event>
<event>
 4    1  0.1974401E-002  0.9118800E+02  0.7818608E-02  0.1130116E+00
         25   -1    0    0    0    0  0.00000000000E+00  0.00000000000E+00  0.99999998245E-14  0.12500000000E+03  0.12500000000E+03 0.  0.
        -11    1    1    0    0    0 -0.13395021567E+01  0.95311521875E+00  0.22326594305E+01  0.27726274618E+01  0.51100000000E-03 0.  1.
         11    1    1    0    0    0 -0.30591579875E+02  0.18748393194E+02  0.47750937996E+02  0.59728544988E+02  0.51100000000E-03 0. -1.
         22    1    1    0    0    0  0.31931082032E+02 -0.19701508413E+02 -0.49983597427E+02  0.62498827550E+02  0.00000000000E+00 0. -1.
</event>
<event>
 4    1  0.1974401E-002  0.9118800E+02  0.7818608E-02  0.1130116E+00
         25   -1    0    0    0    0  0.00000000000E+00  0.00000000000E+00  0.99999998245E-14  0.12500000000E+03  0.12500000000E+03 0.  0.
        -11    1    1    0    0    0 -0.19825734984E+02  0.30491106164E+02 -0.82859449184E+01  0.37301798968E+02  0.51100000000E-03 0.  1.
         11    1    1    0    0    0 -0.13392995737E+02  0.20597221792E+02 -0.55974507501E+01  0.25198201037E+02  0.51100000000E-03 0.  1.
         22    1    1    0    0    0  0.33218730722E+02 -0.51088327956E+02  0.13883395669E+02  0.62499999995E+02  0.00000000000E+00 0.  1.
</event>
<event>
 4    1  0.1974401E-002  0.9118800E+02  0.7818608E-02  0.1130116E+00
         25   -1    0    0    0    0  0.00000000000E+00  0.00000000000E+00  0.99999998245E-14  0.12500000000E+03  0.12500000000E+03 0.  0.
        -11    1    1    0    0    0  0.49863118789E+01 -0.46611450985E+02 -0.83840780221E+00  0.46884897323E+02  0.51100000000E-03 0. -1.
         11    1    1    0    0    0  0.16656987609E+01 -0.15523456366E+02 -0.28141230648E+00  0.15615103044E+02  0.51100000000E-03 0.  1.
         22    1    1    0    0    0 -0.66520106398E+01  0.62134907351E+02  0.11198201087E+01  0.62499999633E+02  0.00000000000E+00 0. -1.
</event>
<event>
 4    1  0.1974401E-002  0.9118800E+02  0.7818608E-02  0.1130116E+00
         25   -1    0    0    0    0  0.00000000000E+00  0.00000000000E+00  0.99999998245E-14  0.12500000000E+03  0.12500000000E+03 0.  0.
        -11    1    1    0    0    0 -0.21890170641E+02  0.23220071800E+02  0.25804573837E+00  0.31912660387E+02  0.51100000000E-03 0. -1.
         11    1    1    0    0    0 -0.17545283948E+02  0.25134894968E+02  0.11536214152E+01  0.30674594969E+02  0.51100000000E-03 0.  1.
         22    1    1    0    0    0  0.39435454590E+02 -0.48354966768E+02 -0.14116671536E+01  0.62412744644E+02  0.00000000000E+00 0.  1.
</event>
<event>
 4    1  0.1974401E-002  0.9118800E+02  0.7818608E-02  0.1130116E+00
         25   -1    0    0    0    0  0.00000000000E+00  0.00000000000E+00  0.99999998245E-14  0.12500000000E+03  0.12500000000E+03 0.  0.
        -11    1    1    0    0    0 -0.21767276201E+02  0.32417998296E+02  0.17349526435E+02  0.42728760742E+02  0.51100000000E-03 0.  1.
         11    1    1    0    0    0 -0.10505490512E+02  0.17003115661E+02  0.21651718606E+01  0.20103712158E+02  0.51100000000E-03 0. -1.
         22    1    1    0    0    0  0.32272766714E+02 -0.49421113957E+02 -0.19514698296E+02  0.62167527100E+02  0.00000000000E+00 0.  1.
</event>
<event>
 4    1  0.1974401E-002  0.9118800E+02  0.7818608E-02  0.1130116E+00
         25   -1    0    0    0    0  0.00000000000E+00  0.00000000000E+00  0.99999998245E-14  0.12500000000E+03  0.12500000000E+03 0.  0.
        -11    1    1    0    0    0 -0.21831524451E+02 -0.96863846744E+01 -0.40241564748E+01  0.24220556218E+02  0.51100000000E-03 0. -1.
         11    1    1    0    0    0 -0.34506008300E+02 -0.15309549027E+02 -0.63457825653E+01  0.38279444312E+02  0.51100000000E-03 0.  1.
         22    1    1    0    0    0  0.56337532751E+02  0.24995933702E+02  0.10369939040E+02  0.62499999470E+02  0.00000000000E+00 0.  1.
</event>
<event>
 4    1  0.1974401E-002  0.9118800E+02  0.7818608E-02  0.1130116E+00
         25   -1    0    0    0    0  0.00000000000E+00  0.00000000000E+00  0.99999998245E-14  0.12500000000E+03  0.12500000000E+03 0.  0.
        -11    1    1    0    0    0  0.21253016288E+00  0.45066101279E+02  0.19724378181E+02  0.49194001143E+02  0.51100000000E-03 0. -1.
         11    1    1    0    0    0  0.57645679943E-01  0.12191210680E+02  0.53311041960E+01  0.13305999138E+02  0.51100000000E-03 0.  1.
         22    1    1    0    0    0 -0.27017584282E+00 -0.57257311958E+02 -0.25055482377E+02  0.62499999719E+02  0.00000000000E+00 0. -1.
</event>
<event>
 4    1  0.1974401E-002  0.9118800E+02  0.7818608E-02  0.1130116E+00
         25   -1    0    0    0    0  0.00000000000E+00  0.00000000000E+00  0.99999998245E-14  0.12500000000E+03  0.12500000000E+03 0.  0.
        -11    1    1    0    0    0  0.91180463446E+01  0.80809391056E+01 -0.80667295235E+01  0.14612065954E+02  0.51100000000E-03 0.  1.
         11    1    1    0    0    0  0.29871232176E+02  0.26486343987E+02 -0.26446877416E+02  0.47887934335E+02  0.51100000000E-03 0. -1.
         22    1    1    0    0    0 -0.38989278521E+02 -0.34567283092E+02  0.34513606939E+02  0.62499999712E+02  0.00000000000E+00 0. -1.
</event>
<event>
 4    1  0.1974401E-002  0.9118800E+02  0.7818608E-02  0.1130116E+00
         25   -1    0    0    0    0  0.00000000000E+00  0.00000000000E+00  0.99999998245E-14  0.12500000000E+03  0.12500000000E+03 0.  0.
        -11    1    1    0    0    0 -0.25443689250E+01  0.18714337184E+01 -0.82682955067E+01  0.88510331733E+01  0.51100000000E-03 0. -1.
         11    1    1    0    0    0 -0.33837357514E+02  0.22298980950E+02 -0.35821223647E+02  0.54086702421E+02  0.51100000000E-03 0.  1.
         22    1    1    0    0    0  0.36381726439E+02 -0.24170414668E+02  0.44089519154E+02  0.62062264406E+02  0.00000000000E+00 0.  1.
</event>
<event>
 4    1  0.1974401E-002  0.9118800E+02  0.7818608E-02  0.1130116E+00
         25   -1    0    0    0    0  0.00000000000E+00  0.00000000000E+00  0.99999998245E-14  0.12500000000E+03  0.12500000000E+03 0.  0.
        -11    1    1    0    0    0 -0.35854303854E+02  0.23329181678E+02  0.41998120681E+02  0.59946842816E+02  0.51100000000E-03 0.  1.
         11    1    1    0    0    0 -0.10871403154E+01 -0.12689837833E+01  0.25950147057E+01  0.30864697458E+01  0.51100000000E-03 0. -1.
         22    1    1    0    0    0  0.36941444169E+02 -0.22060197894E+02 -0.44593135387E+02  0.61966687438E+02  0.00000000000E+00 0.  1.
</event>
<event>
 4    1  0.1974401E-002  0.9118800E+02  0.7818608E-02  0.1130116E+00
         25   -1    0    0    0    0  0.00000000000E+00  0.00000000000E+00  0.99999998245E-14  0.12500000000E+03  0.12500000000E+03 0.  0.
        -11    1    1    0    0    0  0.13481231173E+01 -0.13570557490E+02  0.63160809862E+01  0.15028983526E+02  0.51100000000E-03 0.  1.
         11    1    1    0    0    0  0.46805906867E+01 -0.42749748093E+02  0.20101599437E+02  0.47471288074E+02  0.51100000000E-03 0. -1.
         22    1    1    0    0    0 -0.60287138040E+01  0.56320305584E+02 -0.26417680423E+02  0.62499728400E+02  0.00000000000E+00 0. -1.
</event>
<event>
 4    1  0.1974401E-002  0.9118800E+02  0.7818608E-02  0.1130116E+00
         25   -1    0    0    0    0  0.00000000000E+00  0.00000000000E+00  0.99999998245E-14  0.12500000000E+03  0.12500000000E+03 0.  0.
        -11    1    1    0    0    0 -0.10882573331E+01  0.19574677963E+02  0.46786943157E+02  0.50728398078E+02  0.51100000000E-03 0. -1.
         11    1    1    0    0    0 -0.25052009949E+00  0.45428966677E+01  0.10856792484E+02  0.11771602004E+02  0.51100000000E-03 0.  1.
         22    1    1    0    0    0  0.13387774326E+01 -0.24117574631E+02 -0.57643735640E+02  0.62499999917E+02  0.00000000000E+00 0. -1.
</event>
<event>
 4    1  0.1974401E-002  0.9118800E+02  0.7818608E-02  0.1130116E+00
         25   -1    0    0    0    0  0.00000000000E+00  0.00000000000E+00  0.99999998245E-14  0.12500000000E+03  0.12500000000E+03 0.  0.
        -11    1    1    0    0    0  0.54792545547E+01 -0.51227377494E+01  0.52472085971E+01  0.91541176990E+01  0.51100000000E-03 0.  1.
         11    1    1    0    0    0  0.34544686017E+02  0.21251614843E+02  0.37404323558E+02  0.55172908991E+02  0.51100000000E-03 0. -1.
         22    1    1    0    0    0 -0.40023940572E+02 -0.16128877093E+02 -0.42651532155E+02  0.60672973310E+02  0.00000000000E+00 0. -1.
</event>
<event>
 4    1  0.1974401E-002  0.9118800E+02  0.7818608E-02  0.1130116E+00
         25   -1    0    0    0    0  0.00000000000E+00  0.00000000000E+00  0.99999998245E-14  0.12500000000E+03  0.12500000000E+03 0.  0.
        -11    1    1    0    0    0  0.16736676198E+02  0.74876864609E+01  0.19509783515E+02  0.26773371692E+02  0.51100000000E-03 0. -1.
         11    1    1    0    0    0  0.22332618453E+02  0.14239393669E+02  0.24074392191E+02  0.35792213380E+02  0.51100000000E-03 0.  1.
         22    1    1    0    0    0 -0.39069294651E+02 -0.21727080130E+02 -0.43584175706E+02  0.62434414928E+02  0.00000000000E+00 0. -1.
</event>
<event>
 4    1  0.1974401E-002  0.9118800E+02  0.7818608E-02  0.1130116E+00
         25   -1    0    0    0    0  0.00000000000E+00  0.00000000000E+00  0.99999998245E-14  0.12500000000E+03  0.12500000000E+03 0.  0.
        -11    1    1    0    0    0 -0.26705567999E+02 -0.17908971005E+02 -0.46172396627E+02  0.56265520660E+02  0.51100000000E-03 0. -1.
         11    1    1    0    0    0 -0.29643404551E+01 -0.20017564460E+01 -0.51063274909E+01  0.62344946795E+01  0.51100000000E-03 0.  1.
         22    1    1    0    0    0  0.29669908454E+02  0.19910727451E+02  0.51278724118E+02  0.62499984660E+02  0.00000000000E+00 0. -1.
</event>
<event>
 4    1  0.1974401E-002  0.9118800E+02  0.7818608E-02  0.1130116E+00
         25   -1    0    0    0    0  0.00000000000E+00  0.00000000000E+00  0.99999998245E-14  0.12500000000E+03  0.12500000000E+03 0.  0.
        -11    1    1    0    0    0 -0.19508839729E+02  0.23858044995E+01  0.95586214131E+01  0.21855299912E+02  0.51100000000E-03 0.  1.
         11    1    1    0    0    0 -0.35157891657E+02  0.20530840045E+02 -0.15516708175E+02  0.43570184434E+02  0.51100000000E-03 0. -1.
         22    1    1    0    0    0  0.54666731386E+02 -0.22916644545E+02  0.59580867618E+01  0.59574515654E+02  0.00000000000E+00 0.  1.
</event>
<event>
 4    1  0.1974401E-002  0.9118800E+02  0.7818608E-02  0.1130116E+00
         25   -1    0    0    0    0  0.00000000000E+00  0.00000000000E+00  0.99999998245E-14  0.12500000000E+03  0.12500000000E+03 0.  0.
        -11    1    1    0    0    0 -0.16614411092E+02  0.21775690088E+02 -0.18591307651E+02  0.33103716637E+02  0.51100000000E-03 0.  1.
         11    1    1    0    0    0 -0.11813174938E+02  0.22053588935E+02 -0.15579067196E+02  0.29472346733E+02  0.51100000000E-03 0. -1.
         22    1    1    0    0    0  0.28427586029E+02 -0.43829279023E+02  0.34170374847E+02  0.62423936630E+02  0.00000000000E+00 0. -1.
</event>
<event>
 4    1  0.1974401E-002  0.9118800E+02  0.7818608E-02  0.1130116E+00
         25   -1    0    0    0    0  0.00000000000E+00  0.00000000000E+00  0.99999998245E-14  0.12500000000E+03  0.12500000000E+03 0.  0.
        -11    1    1    0    0    0 -0.35059367686E+01 -0.11904460204E+02 -0.47646790491E+02  0.49236413453E+02  0.51100000000E-03 0. -1.
         11    1    1    0    0    0 -0.11591086025E+01 -0.30782726676E+01 -0.12850221248E+02  0.13264519658E+02  0.51100000000E-03 0.  1.
         22    1    1    0    0    0  0.46650453711E+01  0.14982732872E+02  0.60497011739E+02  0.62499066889E+02  0.00000000000E+00 0. -1.
</event>
<event>
 4    1  0.1974401E-002  0.9118800E+02  0.7818608E-02  0.1130116E+00
         25   -1    0    0    0    0  0.00000000000E+00  0.00000000000E+00  0.99999998245E-14  0.12500000000E+03  0.12500000000E+03 0.  0.
        -11    1    1    0    0    0 -0.10945038874E+02  0.10385292442E+02 -0.27294269738E+02  0.31186941752E+02  0.51100000000E-03 0. -1.
         11    1    1    0    0    0 -0.66700104826E+01  0.19166496625E+02 -0.24387963793E+02  0.31727218771E+02  0.51100000000E-03 0.  1.
         22    1    1    0    0    0  0.17615049357E+02 -0.29551789067E+02  0.51682233531E+02  0.62085839477E+02  0.00000000000E+00 0.  1.
</event>
<event>
 4    1  0.1974401E-002  0.9118800E+02  0.7818608E-02  0.1130116E+00
         25   -1    0    0    0    0  0.00000000000E+00  0.00000000000E+00  0.99999998245E-14  0.12500000000E+03  0.12500000000E+03 0.  0.
        -11    1    1    0    0    0 -0.73422975045E+01 -0.35874222736E+00  0.76003273425E+01  0.10573693990E+02  0.51100000000E-03 0.  1.
         11    1    1    0    0    0 -0.28923214519E+02 -0.32320476087E+02 -0.37367452110E+02  0.57249384189E+02  0.51100000000E-03 0. -1.
         22    1    1    0    0    0  0.36265512023E+02  0.32679218314E+02  0.29767124768E+02  0.57176921820E+02  0.00000000000E+00 0. -1.
</event>
<event>
 4    1  0.1974401E-002  0.9118800E+02  0.7818608E-02  0.1130116E+00
         25   -1    0    0    0    0  0.00000000000E+00  0.00000000000E+00  0.99999998245E-14  0.12500000000E+03  0.12500000000E+03 0.  0.
        -11    1    1    0    0    0  0.18878993425E+02 -0.91692347186E+01 -0.86083995448E+01  0.22684704121E+02  0.51100000000E-03 0. -1.
         11    1    1    0    0    0  0.35599301160E+02 -0.15331460641E+02 -0.94793834506E+01  0.39902664564E+02  0.51100000000E-03 0.  1.
         22    1    1    0    0    0 -0.54478294585E+02  0.24500695359E+02  0.18087782995E+02  0.62412631315E+02  0.00000000000E+00 0. -1.
</event>
<event>
 4    1  0.1974401E-002  0.9118800E+02  0.7818608E-02  0.1130116E+00
         25   -1    0    0    0    0  0.00000000000E+00  0.00000000000E+00  0.99999998245E-14  0.12500000000E+03  0.12500000000E+03 0.  0.
        -11    1    1    0    0    0  0.12045445317E+02  0.50868181537E+01  0.17468553724E+02  0.21820147600E+02  0.51100000000E-03 0. -1.
         11    1    1    0    0    0  0.22447882742E+02  0.92653045518E+01  0.32635965358E+02  0.40679964886E+02  0.51100000000E-03 0.  1.
         22    1    1    0    0    0 -0.34493328060E+02 -0.14352122706E+02 -0.50104519082E+02  0.62499887514E+02  0.00000000000E+00 0.  1.
</event>
<event>
 4    1  0.1974401E-002  0.9118800E+02  0.7818608E-02  0.1130116E+00
         25   -1    0    0    0    0  0.00000000000E+00  0.00000000000E+00  0.99999998245E-14  0.12500000000E+03  0.12500000000E+03 0.  0.
        -11    1    1    0    0    0 -0.22900720636E+01  0.14043324786E+01 -0.87342016454E+00  0.28247907554E+01  0.51100000000E-03 0. -1.
         11    1    1    0    0    0 -0.48401474212E+02  0.29638498163E+02 -0.18438746041E+02  0.59675209552E+02  0.51100000000E-03 0.  1.
         22    1    1    0    0    0  0.50691546276E+02 -0.31042830641E+02  0.19312166206E+02  0.62499999693E+02  0.00000000000E+00 0.  1.
</event>
<event>
 4    1  0.1974401E-002  0.9118800E+02  0.7818608E-02  0.1130116E+00
         25   -1    0    0    0    0  0.00000000000E+00  0.00000000000E+00  0.99999998245E-14  0.12500000000E+03  0.12500000000E+03 0.  0.
        -11    1    1    0    0    0 -0.15252702823E+02  0.36391685505E+01  0.12025110163E+02  0.19760864501E+02  0.51100000000E-03 0. -1.
         11    1    1    0    0    0 -0.32867047468E+02  0.77964037641E+01  0.26184253035E+02  0.42739230553E+02  0.51100000000E-03 0.  1.
         22    1    1    0    0    0  0.48119750291E+02 -0.11435572315E+02 -0.38209363198E+02  0.62499904946E+02  0.00000000000E+00 0.  1.
</event>
<event>
 4    1  0.1974401E-002  0.9118800E+02  0.7818608E-02  0.1130116E+00
         25   -1    0    0    0    0  0.00000000000E+00  0.00000000000E+00  0.99999998245E-14  0.12500000000E+03  0.12500000000E+03 0.  0.
        -11    1    1    0    0    0 -0.48876898722E+02 -0.22151814143E+02 -0.24782222233E+02  0.59108481943E+02  0.51100000000E-03 0. -1.
         11    1    1    0    0    0 -0.29825585677E+01 -0.14769681599E+01 -0.80174185732E+00  0.34234311476E+01  0.51100000000E-03 0.  1.
         22    1    1    0    0    0  0.51859457290E+02  0.23628782303E+02  0.25583964091E+02  0.62468086909E+02  0.00000000000E+00 0. -1.
</event>
<event>
 4    1  0.1974401E-002  0.9118800E+02  0.7818608E-02  0.1130116E+00
         25   -1    0    0    0    0  0.00000000000E+00  0.00000000000E+00  0.99999998245E-14  0.12500000000E+03  0.12500000000E+03 0.  0.
        -11    1    1    0    0    0  0.21489046924E+01  0.61555258673E+01  0.58143349392E+01  0.87358331672E+01  0.51100000000E-03 0.  1.
         11    1    1    0    0    0  0.13240408317E+02  0.37881614240E+02  0.35780728655E+02  0.53764167000E+02  0.51100000000E-03 0. -1.
         22    1    1    0    0    0 -0.15389313009E+02 -0.44037140107E+02 -0.41595063594E+02  0.62499999833E+02  0.00000000000E+00 0. -1.
</event>
<event>
 4    1  0.1974401E-002  0.9118800E+02  0.7818608E-02  0.1130116E+00
         25   -1    0    0    0    0  0.00000000000E+00  0.00000000000E+00  0.99999998245E-14  0.12500000000E+03  0.12500000000E+03 0.  0.
        -11    1    1    0    0    0 -0.28816725966E+01  0.27109993042E+01  0.25018764224E+01  0.46811259410E+01  0.51100000000E-03 0.  1.
         11    1    1    0    0    0 -0.35589396981E+02  0.33490352751E+02  0.30900053330E+02  0.57818874089E+02  0.51100000000E-03 0. -1.
         22    1    1    0    0    0  0.38471069577E+02 -0.36201352055E+02 -0.33401929753E+02  0.62499999970E+02  0.00000000000E+00 0. -1.
</event>
<event>
 4    1  0.1974401E-002  0.9118800E+02  0.7818608E-02  0.1130116E+00
         25   -1    0    0    0    0  0.00000000000E+00  0.00000000000E+00  0.99999998245E-14  0.12500000000E+03  0.12500000000E+03 0.  0.
        -11    1    1    0    0    0 -0.91514203195E+01  0.93548879252E+01 -0.94571744824E+01  0.16146224680E+02  0.51100000000E-03 0.  1.
         11    1    1    0    0    0 -0.26271027872E+02  0.26862057830E+02 -0.27146554776E+02  0.46353775389E+02  0.51100000000E-03 0. -1.
         22    1    1    0    0    0  0.35422448192E+02 -0.36216945755E+02  0.36603729259E+02  0.62499999931E+02  0.00000000000E+00 0. -1.
</event>
<event>
 4    1  0.1974401E-002  0.9118800E+02  0.7818608E-02  0.1130116E+00
         25   -1    0    0    0    0  0.00000000000E+00  0.00000000000E+00  0.99999998245E-14  0.12500000000E+03  0.12500000000E+03 0.  0.
        -11    1    1    0    0    0 -0.22724550664E+02 -0.46637384861E+02  0.13374869444E+02  0.53575535485E+02  0.51100000000E-03 0.  1.
         11    1    1    0    0    0 -0.35741187751E+01 -0.80806099547E+01  0.13915397720E+01  0.89446612824E+01  0.51100000000E-03 0. -1.
         22    1    1    0    0    0  0.26298669439E+02  0.54717994815E+02 -0.14766409216E+02  0.62479803233E+02  0.00000000000E+00 0.  1.
</event>
<event>
 4    1  0.1974401E-002  0.9118800E+02  0.7818608E-02  0.1130116E+00
         25   -1    0    0    0    0  0.00000000000E+00  0.00000000000E+00  0.99999998245E-14  0.12500000000E+03  0.12500000000E+03 0.  0.
        -11    1    1    0    0    0  0.60875848442E+01 -0.28553066091E+02 -0.16110496579E+02  0.33344930240E+02  0.51100000000E-03 0.  1.
         11    1    1    0    0    0  0.41653473014E+01 -0.25139534422E+02 -0.14178839683E+02  0.29161375209E+02  0.51100000000E-03 0. -1.
         22    1    1    0    0    0 -0.10252932146E+02  0.53692600512E+02  0.30289336263E+02  0.62493694551E+02  0.00000000000E+00 0. -1.
</event>
<event>
 4    1  0.1974401E-002  0.9118800E+02  0.7818608E-02  0.1130116E+00
         25   -1    0    0    0    0  0.00000000000E+00  0.00000000000E+00  0.99999998245E-14  0.12500000000E+03  0.12500000000E+03 0.  0.
        -11    1    1    0    0    0 -0.41397204402E+01 -0.17224851816E+02  0.37852593363E+02  0.41792961488E+02  0.51100000000E-03 0.  1.
         11    1    1    0    0    0 -0.20356558652E+01 -0.85413554781E+01  0.18753210193E+02  0.20707040856E+02  0.51100000000E-03 0. -1.
         22    1    1    0    0    0  0.61753763054E+01  0.25766207294E+02 -0.56605803555E+02  0.62499997656E+02  0.00000000000E+00 0.  1.
</event>
<event>
 4    1  0.1974401E-002  0.9118800E+02  0.7818608E-02  0.1130116E+00
         25   -1    0    0    0    0  0.00000000000E+00  0.00000000000E+00  0.99999998245E-14  0.12500000000E+03  0.12500000000E+03 0.  0.
        -11    1    1    0    0    0 -0.31027158327E+01 -0.41340034096E+01 -0.15869635820E+01  0.54069661919E+01  0.51100000000E-03 0. -1.
         11    1    1    0    0    0 -0.32789801240E+02 -0.43638230572E+02 -0.16737632302E+02  0.57093034322E+02  0.51100000000E-03 0.  1.
         22    1    1    0    0    0  0.35892517072E+02  0.47772233982E+02  0.18324595884E+02  0.62499999486E+02  0.00000000000E+00 0.  1.
</event>
<event>
 4    1  0.1974401E-002  0.9118800E+02  0.7818608E-02  0.1130116E+00
         25   -1    0    0    0    0  0.00000000000E+00  0.00000000000E+00  0.99999998245E-14  0.12500000000E+03  0.12500000000E+03 0.  0.
        -11    1    1    0    0    0  0.54089338449E+02 -0.10320382957E+02 -0.73035128184E+01  0.55547350414E+02  0.51100000000E-03 0.  1.
         11    1    1    0    0    0  0.67747541770E+01 -0.12705336322E+01 -0.90994714714E+00  0.69526652401E+01  0.51100000000E-03 0. -1.
         22    1    1    0    0    0 -0.60864092627E+02  0.11590916589E+02  0.82134599655E+01  0.62499984346E+02  0.00000000000E+00 0.  1.
</event>
<event>
 4    1  0.1974401E-002  0.9118800E+02  0.7818608E-02  0.1130116E+00
         25   -1    0    0    0    0  0.00000000000E+00  0.00000000000E+00  0.99999998245E-14  0.12500000000E+03  0.12500000000E+03 0.  0.
        -11    1    1    0    0    0  0.46528332406E+02  0.17505469480E+02  0.18574259747E+01  0.49747132678E+02  0.51100000000E-03 0.  1.
         11    1    1    0    0    0  0.12186153374E+02  0.37912099059E+01 -0.77972033220E+00  0.12786069399E+02  0.51100000000E-03 0. -1.
         22    1    1    0    0    0 -0.58714485780E+02 -0.21296679386E+02 -0.10777056425E+01  0.62466797923E+02  0.00000000000E+00 0.  1.
</event>
<event>
 4    1  0.1974401E-002  0.9118800E+02  0.7818608E-02  0.1130116E+00
         25   -1    0    0    0    0  0.00000000000E+00  0.00000000000E+00  0.99999998245E-14  0.12500000000E+03  0.12500000000E+03 0.  0.
        -11    1    1    0    0    0  0.16826621111E+02  0.13424792427E+02 -0.38485332202E+02  0.44096269964E+02  0.51100000000E-03 0.  1.
         11    1    1    0    0    0  0.11421540965E+02  0.14069246791E+02 -0.81247185772E+01  0.19859666550E+02  0.51100000000E-03 0. -1.
         22    1    1    0    0    0 -0.28248162076E+02 -0.27494039218E+02  0.46610050780E+02  0.61044063486E+02  0.00000000000E+00 0.  1.
</event>
<event>
 4    1  0.1974401E-002  0.9118800E+02  0.7818608E-02  0.1130116E+00
         25   -1    0    0    0    0  0.00000000000E+00  0.00000000000E+00  0.99999998245E-14  0.12500000000E+03  0.12500000000E+03 0.  0.
        -11    1    1    0    0    0  0.35997306639E+01 -0.17194765888E+02 -0.79675013186E+01  0.19289870718E+02  0.51100000000E-03 0. -1.
         11    1    1    0    0    0  0.81791249997E+01 -0.38446973214E+02 -0.17945800228E+02  0.43210179138E+02  0.51100000000E-03 0.  1.
         22    1    1    0    0    0 -0.11778855664E+02  0.55641739102E+02  0.25913301546E+02  0.62499950144E+02  0.00000000000E+00 0.  1.
</event>
<event>
 4    1  0.1974401E-002  0.9118800E+02  0.7818608E-02  0.1130116E+00
         25   -1    0    0    0    0  0.00000000000E+00  0.00000000000E+00  0.99999998245E-14  0.12500000000E+03  0.12500000000E+03 0.  0.
        -11    1    1    0    0    0  0.12452651315E+02 -0.52909198118E+02 -0.93549024455E+01  0.55154020436E+02  0.51100000000E-03 0.  1.
         11    1    1    0    0    0  0.16587497325E+01 -0.70466843678E+01 -0.12474796301E+01  0.73459796449E+01  0.51100000000E-03 0. -1.
         22    1    1    0    0    0 -0.14111401047E+02  0.59955882486E+02  0.10602382076E+02  0.62499999919E+02  0.00000000000E+00 0.  1.
</event>
<event>
 4    1  0.1974401E-002  0.9118800E+02  0.7818608E-02  0.1130116E+00
         25   -1    0    0    0    0  0.00000000000E+00  0.00000000000E+00  0.99999998245E-14  0.12500000000E+03  0.12500000000E+03 0.  0.
        -11    1    1    0    0    0 -0.44954861357E+01  0.74762875239E+01 -0.75679978628E+01  0.11548976693E+02  0.51100000000E-03 0.  1.
         11    1    1    0    0    0 -0.17044985874E+02  0.25003734015E+02 -0.41139445036E+02  0.51070267242E+02  0.51100000000E-03 0. -1.
         22    1    1    0    0    0  0.21540472010E+02 -0.32480021539E+02  0.48707442898E+02  0.62380756065E+02  0.00000000000E+00 0. -1.
</event>
<event>
 4    1  0.1974401E-002  0.9118800E+02  0.7818608E-02  0.1130116E+00
         25   -1    0    0    0    0  0.00000000000E+00  0.00000000000E+00  0.99999998245E-14  0.12500000000E+03  0.12500000000E+03 0.  0.
        -11    1    1    0    0    0  0.32901895395E+02  0.20579081277E+02  0.29906128797E+02  0.48993977658E+02  0.51100000000E-03 0. -1.
         11    1    1    0    0    0  0.90315252576E+01  0.58842053594E+01  0.81389631731E+01  0.13506851705E+02  0.51100000000E-03 0.  1.
         22    1    1    0    0    0 -0.41933420653E+02 -0.26463286636E+02 -0.38045091971E+02  0.62499170637E+02  0.00000000000E+00 0. -1.
</event>
<event>
 4    1  0.1974401E-002  0.9118800E+02  0.7818608E-02  0.1130116E+00
         25   -1    0    0    0    0  0.00000000000E+00  0.00000000000E+00  0.99999998245E-14  0.12500000000E+03  0.12500000000E+03 0.  0.
        -11    1    1    0    0    0 -0.71934436830E+01 -0.76096085229E+01 -0.10392108219E+02  0.14752887426E+02  0.51100000000E-03 0. -1.
         11    1    1    0    0    0 -0.23100246842E+02 -0.24796107976E+02 -0.33635183678E+02  0.47747187940E+02  0.51100000000E-03 0.  1.
         22    1    1    0    0    0  0.30293690525E+02  0.32405716499E+02  0.44027291897E+02  0.62499924634E+02  0.00000000000E+00 0.  1.
</event>
<event>
 4    1  0.1974401E-002  0.9118800E+02  0.7818608E-02  0.1130116E+00
         25   -1    0    0    0    0  0.00000000000E+00  0.00000000000E+00  0.99999998245E-14  0.12500000000E+03  0.12500000000E+03 0.  0.
        -11    1    1    0    0    0 -0.17862323913E+00  0.24296953457E+00  0.43583186863E-01  0.30469691758E+00  0.51100000000E-03 0. -1.
         11    1    1    0    0    0 -0.53063796409E+02  0.27072438397E+02  0.17935447247E+02  0.62212247013E+02  0.51100000000E-03 0.  1.
         22    1    1    0    0    0  0.53242419649E+02 -0.27315407931E+02 -0.17979030434E+02  0.62483056070E+02  0.00000000000E+00 0.  1.
</event>
<event>
 4    1  0.1974401E-002  0.9118800E+02  0.7818608E-02  0.1130116E+00
         25   -1    0    0    0    0  0.00000000000E+00  0.00000000000E+00  0.99999998245E-14  0.12500000000E+03  0.12500000000E+03 0.  0.
        -11    1    1    0    0    0 -0.40626246781E+02 -0.14546624020E+01  0.39901934119E+02  0.56962902989E+02  0.51100000000E-03 0.  1.
         11    1    1    0    0    0 -0.50181413117E+00  0.44645115651E+01  0.52350663508E+01  0.68985216456E+01  0.51100000000E-03 0. -1.
         22    1    1    0    0    0  0.41128060912E+02 -0.30098491631E+01 -0.45137000470E+02  0.61138575366E+02  0.00000000000E+00 0.  1.
</event>
<event>
 4    1  0.1974401E-002  0.9118800E+02  0.7818608E-02  0.1130116E+00
         25   -1    0    0    0    0  0.00000000000E+00  0.00000000000E+00  0.99999998245E-14  0.12500000000E+03  0.12500000000E+03 0.  0.
        -11    1    1    0    0    0  0.31479320393E+02 -0.13561368220E+01  0.48678559298E+02  0.57986109156E+02  0.51100000000E-03 0.  1.
         11    1    1    0    0    0  0.24486123271E+01 -0.10261166940E+00  0.37906444580E+01  0.45138915750E+01  0.51100000000E-03 0. -1.
         22    1    1    0    0    0 -0.33927932720E+02  0.14587484914E+01 -0.52469203756E+02  0.62499999269E+02  0.00000000000E+00 0.  1.
</event>
<event>
 4    1  0.1974401E-002  0.9118800E+02  0.7818608E-02  0.1130116E+00
         25   -1    0    0    0    0  0.00000000000E+00  0.00000000000E+00  0.99999998245E-14  0.12500000000E+03  0.12500000000E+03 0.  0.
        -11    1    1    0    0    0 -0.25986025433E+02 -0.12848801755E+02 -0.22292105874E+02  0.36569156524E+02  0.51100000000E-03 0.  1.
         11    1    1    0    0    0 -0.18188055042E+02 -0.11636355035E+02 -0.14443897485E+02  0.25977611121E+02  0.51100000000E-03 0. -1.
         22    1    1    0    0    0  0.44174080474E+02  0.24485156790E+02  0.36736003359E+02  0.62453232355E+02  0.00000000000E+00 0.  1.
</event>
<event>
 4    1  0.1974401E-002  0.9118800E+02  0.7818608E-02  0.1130116E+00
         25   -1    0    0    0    0  0.00000000000E+00  0.00000000000E+00  0.99999998245E-14  0.12500000000E+03  0.12500000000E+03 0.  0.
        -11    1    1    0    0    0 -0.92121676956E+01  0.13252595441E+02  0.22738049371E+02  0.27883941777E+02  0.51100000000E-03 0. -1.
         11    1    1    0    0    0 -0.11445933775E+02  0.16434386637E+02  0.28234254441E+02  0.34616059686E+02  0.51100000000E-03 0.  1.
         22    1    1    0    0    0  0.20658101470E+02 -0.29686982078E+02 -0.50972303812E+02  0.62499998537E+02  0.00000000000E+00 0.  1.
</event>
<event>
 4    1  0.1974401E-002  0.9118800E+02  0.7818608E-02  0.1130116E+00
         25   -1    0    0    0    0  0.00000000000E+00  0.00000000000E+00  0.99999998245E-14  0.12500000000E+03  0.12500000000E+03 0.  0.
        -11    1    1    0    0    0  0.42589803787E+02 -0.24295356628E+02  0.99495601320E+01  0.50031484960E+02  0.51100000000E-03 0.  1.
         11    1    1    0    0    0  0.10614468437E+02 -0.60535141834E+01  0.24803011806E+01  0.12468515083E+02  0.51100000000E-03 0.  1.
         22    1    1    0    0    0 -0.53204272223E+02  0.30348870811E+02 -0.12429861313E+02  0.62499999957E+02  0.00000000000E+00 0.  1.
</event>
<event>
 4    1  0.1974401E-002  0.9118800E+02  0.7818608E-02  0.1130116E+00
         25   -1    0    0    0    0  0.00000000000E+00  0.00000000000E+00  0.99999998245E-14  0.12500000000E+03  0.12500000000E+03 0.  0.
        -11    1    1    0    0    0  0.78630391485E+01 -0.24907751591E+02 -0.47020525962E+02  0.53788040827E+02  0.51100000000E-03 0.  1.
         11    1    1    0    0    0  0.12718518886E+01 -0.40370574479E+01 -0.76146436349E+01  0.87119594818E+01  0.51100000000E-03 0. -1.
         22    1    1    0    0    0 -0.91348910370E+01  0.28944809039E+02  0.54635169597E+02  0.62499999692E+02  0.00000000000E+00 0.  1.
</event>
<event>
 4    1  0.1974401E-002  0.9118800E+02  0.7818608E-02  0.1130116E+00
         25   -1    0    0    0    0  0.00000000000E+00  0.00000000000E+00  0.99999998245E-14  0.12500000000E+03  0.12500000000E+03 0.  0.
        -11    1    1    0    0    0 -0.19315420462E+01 -0.11679184779E+01  0.38830423050E+01  0.44914258371E+01  0.51100000000E-03 0.  1.
         11    1    1    0    0    0 -0.24944934839E+02 -0.15094026177E+02  0.50148931010E+02  0.58008574211E+02  0.51100000000E-03 0.  1.
         22    1    1    0    0    0  0.26876476885E+02  0.16261944654E+02 -0.54031973315E+02  0.62499999952E+02  0.00000000000E+00 0.  1.
</event>
<event>
 4    1  0.1974401E-002  0.9118800E+02  0.7818608E-02  0.1130116E+00
         25   -1    0    0    0    0  0.00000000000E+00  0.00000000000E+00  0.99999998245E-14  0.12500000000E+03  0.12500000000E+03 0.  0.
        -11    1    1    0    0    0 -0.21291633561E+02 -0.40168003865E+01  0.23572328189E+02  0.32017542091E+02  0.51100000000E-03 0.  1.
         11    1    1    0    0    0 -0.20275722388E+02 -0.38245865573E+01  0.22437644059E+02  0.30482458101E+02  0.51100000000E-03 0. -1.
         22    1    1    0    0    0  0.41567355949E+02  0.78413869438E+01 -0.46009972248E+02  0.62499999808E+02  0.00000000000E+00 0. -1.
</event>
<event>
 4    1  0.1974401E-002  0.9118800E+02  0.7818608E-02  0.1130116E+00
         25   -1    0    0    0    0  0.00000000000E+00  0.00000000000E+00  0.99999998245E-14  0.12500000000E+03  0.12500000000E+03 0.  0.
        -11    1    1    0    0    0  0.52326113081E+02  0.18504167752E+02  0.12803453526E+02  0.56959237677E+02  0.51100000000E-03 0.  1.
         11    1    1    0    0    0  0.50900370509E+01  0.18004478789E+01  0.12449728722E+01  0.55407623535E+01  0.51100000000E-03 0. -1.
         22    1    1    0    0    0 -0.57416150132E+02 -0.20304615631E+02 -0.14048426399E+02  0.62499999969E+02  0.00000000000E+00 0.  1.
</event>
<event>
 4    1  0.1974401E-002  0.9118800E+02  0.7818608E-02  0.1130116E+00
         25   -1    0    0    0    0  0.00000000000E+00  0.00000000000E+00  0.99999998245E-14  0.12500000000E+03  0.12500000000E+03 0.  0.
        -11    1    1    0    0    0  0.34363876944E+01  0.27739531006E+01  0.30390337343E+01  0.53609050066E+01  0.51100000000E-03 0. -1.
         11    1    1    0    0    0  0.36642833295E+02  0.29564538292E+02  0.32374635830E+02  0.57139095212E+02  0.51100000000E-03 0.  1.
         22    1    1    0    0    0 -0.40079220989E+02 -0.32338491393E+02 -0.35413669564E+02  0.62499999781E+02  0.00000000000E+00 0.  1.
</event>
<event>
 4    1  0.1974401E-002  0.9118800E+02  0.7818608E-02  0.1130116E+00
         25   -1    0    0    0    0  0.00000000000E+00  0.00000000000E+00  0.99999998245E-14  0.12500000000E+03  0.12500000000E+03 0.  0.
        -11    1    1    0    0    0 -0.31664888241E+02  0.79382052038E+01 -0.10032344723E+02  0.34151547404E+02  0.51100000000E-03 0.  1.
         11    1    1    0    0    0 -0.16733998820E+02 -0.47807540937E+01 -0.25394759321E+02  0.30785972901E+02  0.51100000000E-03 0. -1.
         22    1    1    0    0    0  0.48398887061E+02 -0.31574511101E+01  0.35427104044E+02  0.60062479696E+02  0.00000000000E+00 0. -1.
</event>
<event>
 4    1  0.1974401E-002  0.9118800E+02  0.7818608E-02  0.1130116E+00
         25   -1    0    0    0    0  0.00000000000E+00  0.00000000000E+00  0.99999998245E-14  0.12500000000E+03  0.12500000000E+03 0.  0.
        -11    1    1    0    0    0 -0.31608582498E+01  0.57635725742E+00 -0.96410003894E+01  0.10162288194E+02  0.51100000000E-03 0.  1.
         11    1    1    0    0    0 -0.31327671611E+02  0.12384681518E+02 -0.40459995935E+02  0.52648025758E+02  0.51100000000E-03 0. -1.
         22    1    1    0    0    0  0.34488529860E+02 -0.12961038775E+02  0.50100996325E+02  0.62189686048E+02  0.00000000000E+00 0. -1.
</event>
<event>
 4    1  0.1974401E-002  0.9118800E+02  0.7818608E-02  0.1130116E+00
         25   -1    0    0    0    0  0.00000000000E+00  0.00000000000E+00  0.99999998245E-14  0.12500000000E+03  0.12500000000E+03 0.  0.
        -11    1    1    0    0    0 -0.85901872923E+00  0.25510461814E-01  0.88527484889E+00  0.12338054061E+01  0.51100000000E-03 0. -1.
         11    1    1    0    0    0 -0.42795731400E+02  0.14586440504E+01  0.43817178078E+02  0.61266200825E+02  0.51100000000E-03 0.  1.
         22    1    1    0    0    0  0.43654750129E+02 -0.14841545122E+01 -0.44702452927E+02  0.62499993769E+02  0.00000000000E+00 0.  1.
</event>
<event>
 4    1  0.1974401E-002  0.9118800E+02  0.7818608E-02  0.1130116E+00
         25   -1    0    0    0    0  0.00000000000E+00  0.00000000000E+00  0.99999998245E-14  0.12500000000E+03  0.12500000000E+03 0.  0.
        -11    1    1    0    0    0  0.20644445732E+00  0.26201129407E+01 -0.68337774597E+00  0.27156245213E+01  0.51100000000E-03 0.  1.
         11    1    1    0    0    0  0.55793466530E+01  0.57659389307E+02 -0.14780461583E+02  0.59784582705E+02  0.51100000000E-03 0. -1.
         22    1    1    0    0    0 -0.57857911103E+01 -0.60279502248E+02  0.15463839329E+02  0.62499792774E+02  0.00000000000E+00 0. -1.
</event>
<event>
 4    1  0.1974401E-002  0.9118800E+02  0.7818608E-02  0.1130116E+00
         25   -1    0    0    0    0  0.00000000000E+00  0.00000000000E+00  0.99999998245E-14  0.12500000000E+03  0.12500000000E+03 0.  0.
        -11    1    1    0    0    0 -0.19382212705E+02 -0.39347327552E+02  0.13348491749E+02  0.45848277908E+02  0.51100000000E-03 0.  1.
         11    1    1    0    0    0 -0.70524555940E+01 -0.14285863100E+02  0.48432337292E+01  0.16651724464E+02  0.51100000000E-03 0. -1.
         22    1    1    0    0    0  0.26434668299E+02  0.53633190652E+02 -0.18191725479E+02  0.62499997628E+02  0.00000000000E+00 0.  1.
</event>
<event>
 4    1  0.1974401E-002  0.9118800E+02  0.7818608E-02  0.1130116E+00
         25   -1    0    0    0    0  0.00000000000E+00  0.00000000000E+00  0.99999998245E-14  0.12500000000E+03  0.12500000000E+03 0.  0.
        -11    1    1    0    0    0  0.76626215100E+01  0.40865177063E+02  0.21481830990E+02  0.46799012038E+02  0.51100000000E-03 0.  1.
         11    1    1    0    0    0  0.25716734998E+01  0.13710252169E+02  0.72066985586E+01  0.15700987979E+02  0.51100000000E-03 0.  1.
         22    1    1    0    0    0 -0.10234295010E+02 -0.54575429232E+02 -0.28688529548E+02  0.62499999983E+02  0.00000000000E+00 0.  1.
</event>
<event>
 4    1  0.1974401E-002  0.9118800E+02  0.7818608E-02  0.1130116E+00
         25   -1    0    0    0    0  0.00000000000E+00  0.00000000000E+00  0.99999998245E-14  0.12500000000E+03  0.12500000000E+03 0.  0.
        -11    1    1    0    0    0 -0.18056311154E+02 -0.31799570450E+02  0.86664754642E+00  0.36578602099E+02  0.51100000000E-03 0.  1.
         11    1    1    0    0    0 -0.12612894032E+02 -0.22627360720E+02  0.93767087666E+00  0.25922225520E+02  0.51100000000E-03 0. -1.
         22    1    1    0    0    0  0.30669205186E+02  0.54426931170E+02 -0.18043184231E+01  0.62499172381E+02  0.00000000000E+00 0. -1.
</event>
<event>
 4    1  0.1974401E-002  0.9118800E+02  0.7818608E-02  0.1130116E+00
         25   -1    0    0    0    0  0.00000000000E+00  0.00000000000E+00  0.99999998245E-14  0.12500000000E+03  0.12500000000E+03 0.  0.
        -11    1    1    0    0    0 -0.24416393927E+01 -0.28029690256E+02  0.41511871172E+02  0.50148385689E+02  0.51100000000E-03 0. -1.
         11    1    1    0    0    0 -0.21190849826E+01 -0.81542338398E+01  0.91435482507E+01  0.12433282976E+02  0.51100000000E-03 0.  1.
         22    1    1    0    0    0  0.45607243752E+01  0.36183924095E+02 -0.50655419423E+02  0.62418331335E+02  0.00000000000E+00 0. -1.
</event>
<event>
 4    1  0.1974401E-002  0.9118800E+02  0.7818608E-02  0.1130116E+00
         25   -1    0    0    0    0  0.00000000000E+00  0.00000000000E+00  0.99999998245E-14  0.12500000000E+03  0.12500000000E+03 0.  0.
        -11    1    1    0    0    0 -0.23156852756E+02  0.31242806661E+02  0.67181683701E+01  0.39465004550E+02  0.51100000000E-03 0. -1.
         11    1    1    0    0    0 -0.13543584120E+02  0.18186185624E+02  0.40560756111E+01  0.23035142022E+02  0.51100000000E-03 0.  1.
         22    1    1    0    0    0  0.36700436876E+02 -0.49428992285E+02 -0.10774243981E+02  0.62499853428E+02  0.00000000000E+00 0.  1.
</event>
<event>
 4    1  0.1974401E-002  0.9118800E+02  0.7818608E-02  0.1130116E+00
         25   -1    0    0    0    0  0.00000000000E+00  0.00000000000E+00  0.99999998245E-14  0.12500000000E+03  0.12500000000E+03 0.  0.
        -11    1    1    0    0    0 -0.22944831352E+01  0.14457280626E+01 -0.33678041555E+01  0.43239897756E+01  0.51100000000E-03 0. -1.
         11    1    1    0    0    0 -0.32216773457E+02  0.16822059029E+02 -0.45429597155E+02  0.58178608267E+02  0.51100000000E-03 0.  1.
         22    1    1    0    0    0  0.34511256592E+02 -0.18267787091E+02  0.48797401310E+02  0.62497401958E+02  0.00000000000E+00 0.  1.
</event>
<event>
 4    1  0.1974401E-002  0.9118800E+02  0.7818608E-02  0.1130116E+00
         25   -1    0    0    0    0  0.00000000000E+00  0.00000000000E+00  0.99999998245E-14  0.12500000000E+03  0.12500000000E+03 0.  0.
        -11    1    1    0    0    0 -0.12677726671E+02  0.49444968186E+02  0.10635773964E+02  0.52140668585E+02  0.51100000000E-03 0. -1.
         11    1    1    0    0    0 -0.26629171006E+01  0.98432678145E+01  0.18371933525E+01  0.10361289902E+02  0.51100000000E-03 0.  1.
         22    1    1    0    0    0  0.15340643772E+02 -0.59288236000E+02 -0.12472967316E+02  0.62498041513E+02  0.00000000000E+00 0.  1.
</event>
<event>
 4    1  0.1974401E-002  0.9118800E+02  0.7818608E-02  0.1130116E+00
         25   -1    0    0    0    0  0.00000000000E+00  0.00000000000E+00  0.99999998245E-14  0.12500000000E+03  0.12500000000E+03 0.  0.
        -11    1    1    0    0    0  0.49590671347E+01  0.11100253613E+02  0.83011815694E-01  0.12157913816E+02  0.51100000000E-03 0.  1.
         11    1    1    0    0    0 -0.14080428981E+02  0.48645975718E+02 -0.99287826131E+01  0.51606880920E+02  0.51100000000E-03 0. -1.
         22    1    1    0    0    0  0.91213618465E+01 -0.59746229331E+02  0.98457707974E+01  0.61235205265E+02  0.00000000000E+00 0. -1.
</event>
<event>
 4    1  0.1974401E-002  0.9118800E+02  0.7818608E-02  0.1130116E+00
         25   -1    0    0    0    0  0.00000000000E+00  0.00000000000E+00  0.99999998245E-14  0.12500000000E+03  0.12500000000E+03 0.  0.
        -11    1    1    0    0    0  0.12486560873E+01  0.18249297843E+01  0.11536028429E+00  0.22142310174E+01  0.51100000000E-03 0. -1.
         11    1    1    0    0    0 -0.58560787109E+02 -0.17917712017E+02 -0.11138082379E+02  0.62245217246E+02  0.51100000000E-03 0.  1.
         22    1    1    0    0    0  0.57312131021E+02  0.16092782232E+02  0.11022722095E+02  0.60540551736E+02  0.00000000000E+00 0.  1.
</event>
<event>
 4    1  0.1974401E-002  0.9118800E+02  0.7818608E-02  0.1130116E+00
         25   -1    0    0    0    0  0.00000000000E+00  0.00000000000E+00  0.99999998245E-14  0.12500000000E+03  0.12500000000E+03 0.  0.
        -11    1    1    0    0    0 -0.96878928877E+01 -0.13557655489E+02  0.63476023034E+01  0.17831358508E+02  0.51100000000E-03 0. -1.
         11    1    1    0    0    0 -0.24236620096E+02 -0.34072149293E+02  0.15715253895E+02  0.44668717425E+02  0.51100000000E-03 0.  1.
         22    1    1    0    0    0  0.33924512984E+02  0.47629804782E+02 -0.22062856198E+02  0.62499924067E+02  0.00000000000E+00 0.  1.
</event>
<event>
 4    1  0.1974401E-002  0.9118800E+02  0.7818608E-02  0.1130116E+00
         25   -1    0    0    0    0  0.00000000000E+00  0.00000000000E+00  0.99999998245E-14  0.12500000000E+03  0.12500000000E+03 0.  0.
        -11    1    1    0    0    0 -0.22935975143E+02 -0.89601938371E+01  0.17409640615E+02  0.30156916552E+02  0.51100000000E-03 0.  1.
         11    1    1    0    0    0 -0.24597671034E+02 -0.96102111272E+01  0.18672800253E+02  0.32343083461E+02  0.51100000000E-03 0.  1.
         22    1    1    0    0    0  0.47533646177E+02  0.18570404964E+02 -0.36082440868E+02  0.62499999987E+02  0.00000000000E+00 0.  1.
</event>
<event>
 4    1  0.1974401E-002  0.9118800E+02  0.7818608E-02  0.1130116E+00
         25   -1    0    0    0    0  0.00000000000E+00  0.00000000000E+00  0.99999998245E-14  0.12500000000E+03  0.12500000000E+03 0.  0.
        -11    1    1    0    0    0  0.14745036735E+02  0.14513405699E+02  0.87225159487E+01  0.22453002873E+02  0.51100000000E-03 0.  1.
         11    1    1    0    0    0  0.38154904496E+02  0.15037853401E+02 -0.88361820854E+01  0.41952495589E+02  0.51100000000E-03 0. -1.
         22    1    1    0    0    0 -0.52899941231E+02 -0.29551259101E+02  0.11366613672E+00  0.60594501538E+02  0.00000000000E+00 0. -1.
</event>
<event>
 4    1  0.1974401E-002  0.9118800E+02  0.7818608E-02  0.1130116E+00
         25   -1    0    0    0    0  0.00000000000E+00  0.00000000000E+00  0.99999998245E-14  0.12500000000E+03  0.12500000000E+03 0.  0.
        -11    1    1    0    0    0  0.30306643228E+02 -0.52041453987E+02 -0.26456993732E+01  0.60281052432E+02  0.51100000000E-03 0.  1.
         11    1    1    0    0    0  0.11155155431E+01 -0.19157323802E+01 -0.96555920604E-01  0.22189476755E+01  0.51100000000E-03 0. -1.
         22    1    1    0    0    0 -0.31422158771E+02  0.53957186367E+02  0.27422552938E+01  0.62499999893E+02  0.00000000000E+00 0.  1.
</event>
<event>
 4    1  0.1974401E-002  0.9118800E+02  0.7818608E-02  0.1130116E+00
         25   -1    0    0    0    0  0.00000000000E+00  0.00000000000E+00  0.99999998245E-14  0.12500000000E+03  0.12500000000E+03 0.  0.
        -11    1    1    0    0    0  0.47466335965E+02  0.99813437493E+00  0.39720192874E+02  0.61901074663E+02  0.51100000000E-03 0.  1.
         11    1    1    0    0    0  0.55659244046E+00 -0.17875480422E+00  0.22760227053E+00  0.62733681502E+00  0.51100000000E-03 0. -1.
         22    1    1    0    0    0 -0.48022928406E+02 -0.81937957071E+00 -0.39947795145E+02  0.62471588522E+02  0.00000000000E+00 0.  1.
</event>
<event>
 4    1  0.1974401E-002  0.9118800E+02  0.7818608E-02  0.1130116E+00
         25   -1    0    0    0    0  0.00000000000E+00  0.00000000000E+00  0.99999998245E-14  0.12500000000E+03  0.12500000000E+03 0.  0.
        -11    1    1    0    0    0  0.42737107399E+01 -0.52853620189E+00 -0.16410905788E+02  0.16966490004E+02  0.51100000000E-03 0.  1.
         11    1    1    0    0    0  0.26398985680E+02  0.18444829635E+02 -0.33697462335E+02  0.46611556006E+02  0.51100000000E-03 0. -1.
         22    1    1    0    0    0 -0.30672696420E+02 -0.17916293433E+02  0.50108368123E+02  0.61421953990E+02  0.00000000000E+00 0. -1.
</event>
<event>
 4    1  0.1974401E-002  0.9118800E+02  0.7818608E-02  0.1130116E+00
         25   -1    0    0    0    0  0.00000000000E+00  0.00000000000E+00  0.99999998245E-14  0.12500000000E+03  0.12500000000E+03 0.  0.
        -11    1    1    0    0    0  0.23492592849E+02 -0.19376364299E+02  0.16708684681E+01  0.30498150992E+02  0.51100000000E-03 0. -1.
         11    1    1    0    0    0  0.24651787081E+02 -0.20330495961E+02  0.17546135310E+01  0.32001849028E+02  0.51100000000E-03 0. -1.
         22    1    1    0    0    0 -0.48144379930E+02  0.39706860260E+02 -0.34254819992E+01  0.62499999980E+02  0.00000000000E+00 0. -1.
</event>
<event>
 4    1  0.1974401E-002  0.9118800E+02  0.7818608E-02  0.1130116E+00
         25   -1    0    0    0    0  0.00000000000E+00  0.00000000000E+00  0.99999998245E-14  0.12500000000E+03  0.12500000000E+03 0.  0.
        -11    1    1    0    0    0  0.12469324235E+02  0.11798677225E+02 -0.50424457069E+00  0.17174023814E+02  0.51100000000E-03 0.  1.
         11    1    1    0    0    0  0.46289601831E+01  0.42890220597E+02  0.19661897952E+02  0.47408738926E+02  0.51100000000E-03 0. -1.
         22    1    1    0    0    0 -0.17098284418E+02 -0.54688897822E+02 -0.19157653381E+02  0.60417237260E+02  0.00000000000E+00 0. -1.
</event>
<event>
 4    1  0.1974401E-002  0.9118800E+02  0.7818608E-02  0.1130116E+00
         25   -1    0    0    0    0  0.00000000000E+00  0.00000000000E+00  0.99999998245E-14  0.12500000000E+03  0.12500000000E+03 0.  0.
        -11    1    1    0    0    0 -0.93303991182E+01  0.46254589709E+01  0.55501735527E+01  0.11800662910E+02  0.51100000000E-03 0.  1.
         11    1    1    0    0    0 -0.57308823254E+01 -0.41512163101E+02 -0.41904717591E+02  0.59263041216E+02  0.51100000000E-03 0. -1.
         22    1    1    0    0    0  0.15061281444E+02  0.36886704130E+02  0.36354544038E+02  0.53936295873E+02  0.00000000000E+00 0. -1.
</event>
<event>
 4    1  0.1974401E-002  0.9118800E+02  0.7818608E-02  0.1130116E+00
         25   -1    0    0    0    0  0.00000000000E+00  0.00000000000E+00  0.99999998245E-14  0.12500000000E+03  0.12500000000E+03 0.  0.
        -11    1    1    0    0    0 -0.94729204784E+01  0.41382641117E+01  0.11835324388E+02  0.15714208726E+02  0.51100000000E-03 0. -1.
         11    1    1    0    0    0 -0.28206501072E+02  0.12317692686E+02  0.35236032864E+02  0.46785791305E+02  0.51100000000E-03 0.  1.
         22    1    1    0    0    0  0.37679421550E+02 -0.16455956798E+02 -0.47071357252E+02  0.62499999969E+02  0.00000000000E+00 0.  1.
</event>
<event>
 4    1  0.1974401E-002  0.9118800E+02  0.7818608E-02  0.1130116E+00
         25   -1    0    0    0    0  0.00000000000E+00  0.00000000000E+00  0.99999998245E-14  0.12500000000E+03  0.12500000000E+03 0.  0.
        -11    1    1    0    0    0  0.64873523077E+00 -0.53684709919E+01 -0.88348596354E+01  0.10358382269E+02  0.51100000000E-03 0.  1.
         11    1    1    0    0    0  0.31534855958E+01 -0.27075715640E+02 -0.44448968084E+02  0.52141630324E+02  0.51100000000E-03 0. -1.
         22    1    1    0    0    0 -0.38022208265E+01  0.32444186632E+02  0.53283827720E+02  0.62499987407E+02  0.00000000000E+00 0. -1.
</event>
<event>
 4    1  0.1974401E-002  0.9118800E+02  0.7818608E-02  0.1130116E+00
         25   -1    0    0    0    0  0.00000000000E+00  0.00000000000E+00  0.99999998245E-14  0.12500000000E+03  0.12500000000E+03 0.  0.
        -11    1    1    0    0    0 -0.23743948965E+02 -0.40936383240E+02 -0.40013120952E+02  0.61972674896E+02  0.51100000000E-03 0.  1.
         11    1    1    0    0    0 -0.25512257957E+00  0.30809481808E+00 -0.63243438422E+00  0.74832042535E+00  0.51100000000E-03 0. -1.
         22    1    1    0    0    0  0.23999071545E+02  0.40628288422E+02  0.40645555336E+02  0.62279004678E+02  0.00000000000E+00 0.  1.
</event>
<event>
 4    1  0.1974401E-002  0.9118800E+02  0.7818608E-02  0.1130116E+00
         25   -1    0    0    0    0  0.00000000000E+00  0.00000000000E+00  0.99999998245E-14  0.12500000000E+03  0.12500000000E+03 0.  0.
        -11    1    1    0    0    0  0.12687162761E+00 -0.69708001180E-01  0.27112254030E+01  0.27150873029E+01  0.51100000000E-03 0.  1.
         11    1    1    0    0    0  0.98162747775E+01  0.23711441027E+01  0.58937844986E+02  0.59796748630E+02  0.51100000000E-03 0. -1.
         22    1    1    0    0    0 -0.99431464051E+01 -0.23014361015E+01 -0.61649070389E+02  0.62488164067E+02  0.00000000000E+00 0. -1.
</event>
<event>
 4    1  0.1974401E-002  0.9118800E+02  0.7818608E-02  0.1130116E+00
         25   -1    0    0    0    0  0.00000000000E+00  0.00000000000E+00  0.99999998245E-14  0.12500000000E+03  0.12500000000E+03 0.  0.
        -11    1    1    0    0    0 -0.78044405847E+01 -0.88251795808E+01  0.35401193606E+01  0.12301444339E+02  0.51100000000E-03 0.  1.
         11    1    1    0    0    0 -0.31904097515E+02 -0.35906441450E+02  0.14586102016E+02  0.50198589105E+02  0.51100000000E-03 0. -1.
         22    1    1    0    0    0  0.39708538100E+02  0.44731621031E+02 -0.18126221377E+02  0.62499966556E+02  0.00000000000E+00 0. -1.
</event>
<event>
 4    1  0.1974401E-002  0.9118800E+02  0.7818608E-02  0.1130116E+00
         25   -1    0    0    0    0  0.00000000000E+00  0.00000000000E+00  0.99999998245E-14  0.12500000000E+03  0.12500000000E+03 0.  0.
        -11    1    1    0    0    0  0.79870089026E+00 -0.11884803201E+02 -0.73386394612E+01  0.13990786241E+02  0.51100000000E-03 0. -1.
         11    1    1    0    0    0  0.50699998532E+00 -0.40243838126E+02 -0.27098026112E+02  0.48519342282E+02  0.51100000000E-03 0.  1.
         22    1    1    0    0    0 -0.13057008756E+01  0.52128641327E+02  0.34436665573E+02  0.62489871477E+02  0.00000000000E+00 0.  1.
</event>
<event>
 4    1  0.1974401E-002  0.9118800E+02  0.7818608E-02  0.1130116E+00
         25   -1    0    0    0    0  0.00000000000E+00  0.00000000000E+00  0.99999998245E-14  0.12500000000E+03  0.12500000000E+03 0.  0.
        -11    1    1    0    0    0 -0.76022207072E+01 -0.49951053336E+01  0.77753686320E+01  0.11966670155E+02  0.51100000000E-03 0.  1.
         11    1    1    0    0    0 -0.29267041863E+02 -0.19551332690E+02  0.36289726683E+02  0.50554511296E+02  0.51100000000E-03 0. -1.
         22    1    1    0    0    0  0.36869262571E+02  0.24546438023E+02 -0.44065095315E+02  0.62478818549E+02  0.00000000000E+00 0. -1.
</event>
<event>
 4    1  0.1974401E-002  0.9118800E+02  0.7818608E-02  0.1130116E+00
         25   -1    0    0    0    0  0.00000000000E+00  0.00000000000E+00  0.99999998245E-14  0.12500000000E+03  0.12500000000E+03 0.  0.
        -11    1    1    0    0    0 -0.32128735676E+02  0.23193692245E+02 -0.26682898341E+02  0.47772168469E+02  0.51100000000E-03 0. -1.
         11    1    1    0    0    0 -0.96347215268E+01  0.72713957655E+01 -0.84415174146E+01  0.14729571338E+02  0.51100000000E-03 0.  1.
         22    1    1    0    0    0  0.41763457203E+02 -0.30465088010E+02  0.35124415755E+02  0.62498260193E+02  0.00000000000E+00 0. -1.
</event>
<event>
 4    1  0.1974401E-002  0.9118800E+02  0.7818608E-02  0.1130116E+00
         25   -1    0    0    0    0  0.00000000000E+00  0.00000000000E+00  0.99999998245E-14  0.12500000000E+03  0.12500000000E+03 0.  0.
        -11    1    1    0    0    0 -0.66684189064E+01 -0.32516624812E+01  0.84053868544E+01  0.11211228659E+02  0.51100000000E-03 0.  1.
         11    1    1    0    0    0 -0.29491682676E+02 -0.18139641241E+02  0.37852509261E+02  0.51299302033E+02  0.51100000000E-03 0. -1.
         22    1    1    0    0    0  0.36160101583E+02  0.21391303722E+02 -0.46257896116E+02  0.62489469308E+02  0.00000000000E+00 0. -1.
</event>
<event>
 4    1  0.1974401E-002  0.9118800E+02  0.7818608E-02  0.1130116E+00
         25   -1    0    0    0    0  0.00000000000E+00  0.00000000000E+00  0.99999998245E-14  0.12500000000E+03  0.12500000000E+03 0.  0.
        -11    1    1    0    0    0  0.36347377506E+02 -0.20605146740E+02 -0.31775688370E+02  0.52491887901E+02  0.51100000000E-03 0. -1.
         11    1    1    0    0    0  0.69408275463E+01 -0.36519552162E+01 -0.62204227696E+01  0.10010270907E+02  0.51100000000E-03 0.  1.
         22    1    1    0    0    0 -0.43288205052E+02  0.24257101956E+02  0.37996111140E+02  0.62497841192E+02  0.00000000000E+00 0. -1.
</event>
<event>
 4    1  0.1974401E-002  0.9118800E+02  0.7818608E-02  0.1130116E+00
         25   -1    0    0    0    0  0.00000000000E+00  0.00000000000E+00  0.99999998245E-14  0.12500000000E+03  0.12500000000E+03 0.  0.
        -11    1    1    0    0    0 -0.56047212772E+00 -0.24637504324E+01  0.19927111203E+00  0.25345422538E+01  0.51100000000E-03 0. -1.
         11    1    1    0    0    0 -0.48995169118E+02 -0.33834050331E+02 -0.96387370423E+01  0.60317284510E+02  0.51100000000E-03 0.  1.
         22    1    1    0    0    0  0.49555641246E+02  0.36297800763E+02  0.94394659303E+01  0.62148173236E+02  0.00000000000E+00 0.  1.
</event>
<event>
 4    1  0.1974401E-002  0.9118800E+02  0.7818608E-02  0.1130116E+00
         25   -1    0    0    0    0  0.00000000000E+00  0.00000000000E+00  0.99999998245E-14  0.12500000000E+03  0.12500000000E+03 0.  0.
        -11    1    1    0    0    0 -0.99855494627E+01 -0.14567106704E+01  0.42406111628E+01  0.10946048938E+02  0.51100000000E-03 0. -1.
         11    1    1    0    0    0 -0.47048439598E+02 -0.68525456558E+01  0.19932310377E+02  0.51553952785E+02  0.51100000000E-03 0.  1.
         22    1    1    0    0    0  0.57033989061E+02  0.83092563262E+01 -0.24172921540E+02  0.62499998277E+02  0.00000000000E+00 0.  1.
</event>
<event>
 4    1  0.1974401E-002  0.9118800E+02  0.7818608E-02  0.1130116E+00
         25   -1    0    0    0    0  0.00000000000E+00  0.00000000000E+00  0.99999998245E-14  0.12500000000E+03  0.12500000000E+03 0.  0.
        -11    1    1    0    0    0  0.37937074077E+02  0.13683581885E+02 -0.40243816603E+02  0.56973913134E+02  0.51100000000E-03 0. -1.
         11    1    1    0    0    0  0.36639504443E+01  0.14156891886E+01 -0.38875084620E+01  0.55264302258E+01  0.51100000000E-03 0.  1.
         22    1    1    0    0    0 -0.41601024521E+02 -0.15099271074E+02  0.44131325065E+02  0.62499656640E+02  0.00000000000E+00 0. -1.
</event>
<event>
 4    1  0.1974401E-002  0.9118800E+02  0.7818608E-02  0.1130116E+00
         25   -1    0    0    0    0  0.00000000000E+00  0.00000000000E+00  0.99999998245E-14  0.12500000000E+03  0.12500000000E+03 0.  0.
        -11    1    1    0    0    0 -0.21268867355E+01 -0.24217453583E+01  0.46114920868E+01  0.56262205160E+01  0.51100000000E-03 0.  1.
         11    1    1    0    0    0 -0.23421088657E+02 -0.25561325747E+02  0.45089041543E+02  0.56876624683E+02  0.51100000000E-03 0. -1.
         22    1    1    0    0    0  0.25547975392E+02  0.27983071105E+02 -0.49700533630E+02  0.62497154801E+02  0.00000000000E+00 0. -1.
</event>
<event>
 4    1  0.1974401E-002  0.9118800E+02  0.7818608E-02  0.1130116E+00
         25   -1    0    0    0    0  0.00000000000E+00  0.00000000000E+00  0.99999998245E-14  0.12500000000E+03  0.12500000000E+03 0.  0.
        -11    1    1    0    0    0  0.18863569036E+01 -0.13406148745E+01  0.48926415956E+01  0.54123500121E+01  0.51100000000E-03 0.  1.
         11    1    1    0    0    0  0.19738708747E+02 -0.13878843587E+02  0.51737468536E+02  0.57087691958E+02  0.51100000000E-03 0. -1.
         22    1    1    0    0    0 -0.21625065651E+02  0.15219458462E+02 -0.56630110131E+02  0.62499958030E+02  0.00000000000E+00 0. -1.
</event>
<event>
 4    1  0.1974401E-002  0.9118800E+02  0.7818608E-02  0.1130116E+00
         25   -1    0    0    0    0  0.00000000000E+00  0.00000000000E+00  0.99999998245E-14  0.12500000000E+03  0.12500000000E+03 0.  0.
        -11    1    1    0    0    0  0.39500679997E+02  0.26259896107E+02  0.19274559043E+02  0.51199555568E+02  0.51100000000E-03 0.  1.
         11    1    1    0    0    0  0.91985097781E+01  0.51174929162E+01  0.41456728772E+01  0.11313174610E+02  0.51100000000E-03 0. -1.
         22    1    1    0    0    0 -0.48699189775E+02 -0.31377389023E+02 -0.23420231920E+02  0.62487269822E+02  0.00000000000E+00 0.  1.
</event>
<event>
 4    1  0.1974401E-002  0.9118800E+02  0.7818608E-02  0.1130116E+00
         25   -1    0    0    0    0  0.00000000000E+00  0.00000000000E+00  0.99999998245E-14  0.12500000000E+03  0.12500000000E+03 0.  0.
        -11    1    1    0    0    0  0.22000868675E+02 -0.14594716561E+02 -0.39007296709E+02  0.47102156753E+02  0.51100000000E-03 0.  1.
         11    1    1    0    0    0  0.13859320829E+01 -0.54185099825E+01 -0.14848131202E+02  0.15866570475E+02  0.51100000000E-03 0. -1.
         22    1    1    0    0    0 -0.23386800758E+02  0.20013226543E+02  0.53855427911E+02  0.62031272773E+02  0.00000000000E+00 0.  1.
</event>
<event>
 4    1  0.1974401E-002  0.9118800E+02  0.7818608E-02  0.1130116E+00
         25   -1    0    0    0    0  0.00000000000E+00  0.00000000000E+00  0.99999998245E-14  0.12500000000E+03  0.12500000000E+03 0.  0.
        -11    1    1    0    0    0 -0.64541862063E+01 -0.45087188900E+01 -0.82015742250E+01  0.11368855951E+02  0.51100000000E-03 0. -1.
         11    1    1    0    0    0 -0.29041663212E+02 -0.20278830206E+02 -0.36874717167E+02  0.51131144355E+02  0.51100000000E-03 0.  1.
         22    1    1    0    0    0  0.35495849418E+02  0.24787549096E+02  0.45076291392E+02  0.62499999694E+02  0.00000000000E+00 0.  1.
</event>
<event>
 4    1  0.1974401E-002  0.9118800E+02  0.7818608E-02  0.1130116E+00
         25   -1    0    0    0    0  0.00000000000E+00  0.00000000000E+00  0.99999998245E-14  0.12500000000E+03  0.12500000000E+03 0.  0.
        -11    1    1    0    0    0  0.12099454657E+02 -0.36470827329E+02  0.31096238006E+01  0.38551106463E+02  0.51100000000E-03 0.  1.
         11    1    1    0    0    0  0.74907817917E+01 -0.22664383510E+02  0.19400137242E+01  0.23948898623E+02  0.51100000000E-03 0. -1.
         22    1    1    0    0    0 -0.19590236449E+02  0.59135210839E+02 -0.50496375248E+01  0.62499994914E+02  0.00000000000E+00 0. -1.
</event>
<event>
 4    1  0.1974401E-002  0.9118800E+02  0.7818608E-02  0.1130116E+00
         25   -1    0    0    0    0  0.00000000000E+00  0.00000000000E+00  0.99999998245E-14  0.12500000000E+03  0.12500000000E+03 0.  0.
        -11    1    1    0    0    0  0.26950932140E+02 -0.10302525692E+02  0.15875543428E+01  0.28896627968E+02  0.51100000000E-03 0.  1.
         11    1    1    0    0    0  0.31339383168E+02 -0.11983504308E+02  0.18507583317E+01  0.33603372145E+02  0.51100000000E-03 0. -1.
         22    1    1    0    0    0 -0.58290315308E+02  0.22286030000E+02 -0.34383126745E+01  0.62499999887E+02  0.00000000000E+00 0.  1.
</event>
<event>
 4    1  0.1974401E-002  0.9118800E+02  0.7818608E-02  0.1130116E+00
         25   -1    0    0    0    0  0.00000000000E+00  0.00000000000E+00  0.99999998245E-14  0.12500000000E+03  0.12500000000E+03 0.  0.
        -11    1    1    0    0    0  0.90881079968E+01  0.12478636436E+02  0.69357100852E+01  0.16923774665E+02  0.51100000000E-03 0. -1.
         11    1    1    0    0    0  0.16882360269E+02 -0.14435818191E+02 -0.51709539615E+02  0.56278623140E+02  0.51100000000E-03 0.  1.
         22    1    1    0    0    0 -0.25970468266E+02  0.19571817550E+01  0.44773829530E+02  0.51797602195E+02  0.00000000000E+00 0.  1.
</event>
<event>
 4    1  0.1974401E-002  0.9118800E+02  0.7818608E-02  0.1130116E+00
         25   -1    0    0    0    0  0.00000000000E+00  0.00000000000E+00  0.99999998245E-14  0.12500000000E+03  0.12500000000E+03 0.  0.
        -11    1    1    0    0    0  0.30191407823E+00 -0.39015379122E+00 -0.31216320225E+00  0.58379638351E+00  0.51100000000E-03 0. -1.
         11    1    1    0    0    0  0.31792689826E+02 -0.41693628727E+02 -0.32931494507E+02  0.61916210587E+02  0.51100000000E-03 0.  1.
         22    1    1    0    0    0 -0.32094603904E+02  0.42083782518E+02  0.33243657709E+02  0.62499993029E+02  0.00000000000E+00 0.  1.
</event>
<event>
 4    1  0.1974401E-002  0.9118800E+02  0.7818608E-02  0.1130116E+00
         25   -1    0    0    0    0  0.00000000000E+00  0.00000000000E+00  0.99999998245E-14  0.12500000000E+03  0.12500000000E+03 0.  0.
        -11    1    1    0    0    0 -0.53232858272E+02 -0.92151355455E+01 -0.23982993057E+02  0.59108712380E+02  0.51100000000E-03 0. -1.
         11    1    1    0    0    0 -0.30635571429E+01 -0.27608233034E+00 -0.14392184025E+01  0.33960202727E+01  0.51100000000E-03 0.  1.
         22    1    1    0    0    0  0.56296415415E+02  0.94912178758E+01  0.25422211459E+02  0.62495267348E+02  0.00000000000E+00 0. -1.
</event>
<event>
 4    1  0.1974401E-002  0.9118800E+02  0.7818608E-02  0.1130116E+00
         25   -1    0    0    0    0  0.00000000000E+00  0.00000000000E+00  0.99999998245E-14  0.12500000000E+03  0.12500000000E+03 0.  0.
        -11    1    1    0    0    0 -0.11712113574E-01  0.12739440128E+02  0.14890926443E+01  0.12826179054E+02  0.51100000000E-03 0.  1.
         11    1    1    0    0    0 -0.33187358436E-01  0.49337776247E+02  0.57681224562E+01  0.49673821107E+02  0.51100000000E-03 0. -1.
         22    1    1    0    0    0  0.44899472010E-01 -0.62077216376E+02 -0.72572151005E+01  0.62499999839E+02  0.00000000000E+00 0. -1.
</event>
<event>
 4    1  0.1974401E-002  0.9118800E+02  0.7818608E-02  0.1130116E+00
         25   -1    0    0    0    0  0.00000000000E+00  0.00000000000E+00  0.99999998245E-14  0.12500000000E+03  0.12500000000E+03 0.  0.
        -11    1    1    0    0    0 -0.15242453356E+02  0.21711144615E+02 -0.13872134881E+02  0.29935636142E+02  0.51100000000E-03 0. -1.
         11    1    1    0    0    0 -0.16589466605E+02  0.23622688481E+02 -0.15073024747E+02  0.32564365318E+02  0.51100000000E-03 0.  1.
         22    1    1    0    0    0  0.31831919960E+02 -0.45333833096E+02  0.28945159628E+02  0.62499998540E+02  0.00000000000E+00 0.  1.
</event>
<event>
 4    1  0.1974401E-002  0.9118800E+02  0.7818608E-02  0.1130116E+00
         25   -1    0    0    0    0  0.00000000000E+00  0.00000000000E+00  0.99999998245E-14  0.12500000000E+03  0.12500000000E+03 0.  0.
        -11    1    1    0    0    0 -0.42961857410E+02  0.44222944106E+02  0.88090185586E+01  0.62281528448E+02  0.51100000000E-03 0. -1.
         11    1    1    0    0    0  0.10650864644E+02 -0.81124816603E+01 -0.42583548435E+01  0.14049443498E+02  0.51100000000E-03 0.  1.
         22    1    1    0    0    0  0.32310992766E+02 -0.36110462445E+02 -0.45506637151E+01  0.48669028055E+02  0.00000000000E+00 0. -1.
</event>
<event>
 4    1  0.1974401E-002  0.9118800E+02  0.7818608E-02  0.1130116E+00
         25   -1    0    0    0    0  0.00000000000E+00  0.00000000000E+00  0.99999998245E-14  0.12500000000E+03  0.12500000000E+03 0.  0.
        -11    1    1    0    0    0  0.26627265126E+02 -0.95956425688E+01  0.52740304229E+02  0.59855052375E+02  0.51100000000E-03 0.  1.
         11    1    1    0    0    0  0.11552341993E+01 -0.37237102055E+00  0.23503630526E+01  0.26452661439E+01  0.51100000000E-03 0. -1.
         22    1    1    0    0    0 -0.27782499326E+02  0.99680135894E+01 -0.55090667281E+02  0.62499681481E+02  0.00000000000E+00 0.  1.
</event>
<event>
 4    1  0.1974401E-002  0.9118800E+02  0.7818608E-02  0.1130116E+00
         25   -1    0    0    0    0  0.00000000000E+00  0.00000000000E+00  0.99999998245E-14  0.12500000000E+03  0.12500000000E+03 0.  0.
        -11    1    1    0    0    0 -0.37069716169E+02  0.18714008923E+02 -0.44458564091E+01  0.41762945613E+02  0.51100000000E-03 0. -1.
         11    1    1    0    0    0 -0.18410474025E+02  0.63444022419E+01 -0.80838774732E+01  0.21084261165E+02  0.51100000000E-03 0.  1.
         22    1    1    0    0    0  0.55480190194E+02 -0.25058411165E+02  0.12529733882E+02  0.62152793221E+02  0.00000000000E+00 0.  1.
</event>
<event>
 4    1  0.1974401E-002  0.9118800E+02  0.7818608E-02  0.1130116E+00
         25   -1    0    0    0    0  0.00000000000E+00  0.00000000000E+00  0.99999998245E-14  0.12500000000E+03  0.12500000000E+03 0.  0.
        -11    1    1    0    0    0 -0.45150023428E+01 -0.74850065186E+00 -0.11705999702E+02  0.12568847547E+02  0.51100000000E-03 0. -1.
         11    1    1    0    0    0 -0.17924652824E+02 -0.29522744358E+01 -0.46509256552E+02  0.49931153086E+02  0.51100000000E-03 0.  1.
         22    1    1    0    0    0  0.22439655167E+02  0.37007750877E+01  0.58215256254E+02  0.62499999367E+02  0.00000000000E+00 0.  1.
</event>
<event>
 4    1  0.1974401E-002  0.9118800E+02  0.7818608E-02  0.1130116E+00
         25   -1    0    0    0    0  0.00000000000E+00  0.00000000000E+00  0.99999998245E-14  0.12500000000E+03  0.12500000000E+03 0.  0.
        -11    1    1    0    0    0 -0.32332847802E+02 -0.25517792221E+02 -0.28418455196E+02  0.50041776175E+02  0.51100000000E-03 0.  1.
         11    1    1    0    0    0 -0.80079352320E+01 -0.63201579627E+01 -0.71511789907E+01  0.12458362034E+02  0.51100000000E-03 0. -1.
         22    1    1    0    0    0  0.40340783034E+02  0.31837950183E+02  0.35569634187E+02  0.62499861791E+02  0.00000000000E+00 0.  1.
</event>
<event>
 4    1  0.1974401E-002  0.9118800E+02  0.7818608E-02  0.1130116E+00
         25   -1    0    0    0    0  0.00000000000E+00  0.00000000000E+00  0.99999998245E-14  0.12500000000E+03  0.12500000000E+03 0.  0.
        -11    1    1    0    0    0  0.25214211265E+02 -0.26692870492E+02  0.33231524699E+02  0.49523731875E+02  0.51100000000E-03 0. -1.
         11    1    1    0    0    0  0.61169715790E+01 -0.74216474713E+01  0.87208293883E+01  0.12982721516E+02  0.51100000000E-03 0.  1.
         22    1    1    0    0    0 -0.31331182844E+02  0.34114517963E+02 -0.41952354087E+02  0.62493546608E+02  0.00000000000E+00 0. -1.
</event>
<event>
 4    1  0.1974401E-002  0.9118800E+02  0.7818608E-02  0.1130116E+00
         25   -1    0    0    0    0  0.00000000000E+00  0.00000000000E+00  0.99999998245E-14  0.12500000000E+03  0.12500000000E+03 0.  0.
        -11    1    1    0    0    0 -0.32890606107E+01  0.23489273815E+01  0.94882932639E+01  0.10313248221E+02  0.51100000000E-03 0. -1.
         11    1    1    0    0    0 -0.16655970019E+02  0.12068881365E+02  0.47962285265E+02  0.52186780345E+02  0.51100000000E-03 0.  1.
         22    1    1    0    0    0  0.19945030629E+02 -0.14417808747E+02 -0.57450578529E+02  0.62499971434E+02  0.00000000000E+00 0.  1.
</event>
<event>
 4    1  0.1974401E-002  0.9118800E+02  0.7818608E-02  0.1130116E+00
         25   -1    0    0    0    0  0.00000000000E+00  0.00000000000E+00  0.99999998245E-14  0.12500000000E+03  0.12500000000E+03 0.  0.
        -11    1    1    0    0    0  0.15893185272E+02 -0.16993367449E+01  0.31737609176E+01  0.16295822842E+02  0.51100000000E-03 0. -1.
         11    1    1    0    0    0  0.39164233848E+02  0.27499930566E+02 -0.13105773301E+01  0.47872758509E+02  0.51100000000E-03 0.  1.
         22    1    1    0    0    0 -0.55057419121E+02 -0.25800593821E+02 -0.18631835874E+01  0.60831418649E+02  0.00000000000E+00 0.  1.
</event>
<event>
 4    1  0.1974401E-002  0.9118800E+02  0.7818608E-02  0.1130116E+00
         25   -1    0    0    0    0  0.00000000000E+00  0.00000000000E+00  0.99999998245E-14  0.12500000000E+03  0.12500000000E+03 0.  0.
        -11    1    1    0    0    0  0.13188557871E+01 -0.38737172288E+01 -0.72150760922E-01  0.40927095853E+01  0.51100000000E-03 0. -1.
         11    1    1    0    0    0  0.18826861731E+02 -0.55281006334E+02 -0.98552332507E+00  0.58407290986E+02  0.51100000000E-03 0.  1.
         22    1    1    0    0    0 -0.20145717518E+02  0.59154723562E+02  0.10576740860E+01  0.62499999428E+02  0.00000000000E+00 0.  1.
</event>
<event>
 4    1  0.1974401E-002  0.9118800E+02  0.7818608E-02  0.1130116E+00
         25   -1    0    0    0    0  0.00000000000E+00  0.00000000000E+00  0.99999998245E-14  0.12500000000E+03  0.12500000000E+03 0.  0.
        -11    1    1    0    0    0 -0.38068472918E+02 -0.27288010914E+02 -0.28993139676E+02  0.55085808685E+02  0.51100000000E-03 0.  1.
         11    1    1    0    0    0 -0.51246145270E+01 -0.36747588920E+01 -0.38993219512E+01  0.74141917230E+01  0.51100000000E-03 0.  1.
         22    1    1    0    0    0  0.43193087445E+02  0.30962769806E+02  0.32892461627E+02  0.62499999592E+02  0.00000000000E+00 0.  1.
</event>
<event>
 4    1  0.1974401E-002  0.9118800E+02  0.7818608E-02  0.1130116E+00
         25   -1    0    0    0    0  0.00000000000E+00  0.00000000000E+00  0.99999998245E-14  0.12500000000E+03  0.12500000000E+03 0.  0.
        -11    1    1    0    0    0 -0.23147827539E+01 -0.14982275006E+01 -0.62364667787E+00  0.28269843086E+01  0.51100000000E-03 0.  1.
         11    1    1    0    0    0 -0.45179224137E+02 -0.37184789131E+02 -0.11749424500E+02  0.59681821459E+02  0.51100000000E-03 0. -1.
         22    1    1    0    0    0  0.47494006891E+02  0.38683016631E+02  0.12373071178E+02  0.62491194233E+02  0.00000000000E+00 0. -1.
</event>
<event>
 4    1  0.1974401E-002  0.9118800E+02  0.7818608E-02  0.1130116E+00
         25   -1    0    0    0    0  0.00000000000E+00  0.00000000000E+00  0.99999998245E-14  0.12500000000E+03  0.12500000000E+03 0.  0.
        -11    1    1    0    0    0 -0.23391614499E+02 -0.27453109614E+02 -0.16122457220E+02  0.39506638472E+02  0.51100000000E-03 0. -1.
         11    1    1    0    0    0 -0.48986425557E+01 -0.13342121371E+02 -0.19686978172E+02  0.24281392287E+02  0.51100000000E-03 0.  1.
         22    1    1    0    0    0  0.28290257054E+02  0.40795230985E+02  0.35809435392E+02  0.61211969241E+02  0.00000000000E+00 0.  1.
</event>
<event>
 4    1  0.1974401E-002  0.9118800E+02  0.7818608E-02  0.1130116E+00
         25   -1    0    0    0    0  0.00000000000E+00  0.00000000000E+00  0.99999998245E-14  0.12500000000E+03  0.12500000000E+03 0.  0.
        -11    1    1    0    0    0  0.33793631881E+01  0.51658852952E+01 -0.68592122384E+01  0.92279607299E+01  0.51100000000E-03 0.  1.
         11    1    1    0    0    0  0.22812495456E+02  0.37231773342E+02 -0.30692311373E+02  0.53372585405E+02  0.51100000000E-03 0. -1.
         22    1    1    0    0    0 -0.26191858644E+02 -0.42397658637E+02  0.37551523612E+02  0.62399453865E+02  0.00000000000E+00 0. -1.
</event>
<event>
 4    1  0.1974401E-002  0.9118800E+02  0.7818608E-02  0.1130116E+00
         25   -1    0    0    0    0  0.00000000000E+00  0.00000000000E+00  0.99999998245E-14  0.12500000000E+03  0.12500000000E+03 0.  0.
        -11    1    1    0    0    0 -0.33017975255E+02  0.11757864346E+02  0.10962802103E+02  0.36723522354E+02  0.51100000000E-03 0. -1.
         11    1    1    0    0    0 -0.23166835837E+02  0.82561630340E+01  0.77175427088E+01  0.25776481072E+02  0.51100000000E-03 0.  1.
         22    1    1    0    0    0  0.56184811092E+02 -0.20014027380E+02 -0.18680344812E+02  0.62499996573E+02  0.00000000000E+00 0. -1.
</event>
<event>
 4    1  0.1974401E-002  0.9118800E+02  0.7818608E-02  0.1130116E+00
         25   -1    0    0    0    0  0.00000000000E+00  0.00000000000E+00  0.99999998245E-14  0.12500000000E+03  0.12500000000E+03 0.  0.
        -11    1    1    0    0    0  0.42767959484E+01 -0.25659301677E+01 -0.35332624162E+01  0.61121947591E+01  0.51100000000E-03 0. -1.
         11    1    1    0    0    0  0.39462695851E+02 -0.23683994085E+02 -0.32578346586E+02  0.56387805474E+02  0.51100000000E-03 0.  1.
         22    1    1    0    0    0 -0.43739491799E+02  0.26249924253E+02  0.36111609002E+02  0.62499999767E+02  0.00000000000E+00 0.  1.
</event>
<event>
 4    1  0.1974401E-002  0.9118800E+02  0.7818608E-02  0.1130116E+00
         25   -1    0    0    0    0  0.00000000000E+00  0.00000000000E+00  0.99999998245E-14  0.12500000000E+03  0.12500000000E+03 0.  0.
        -11    1    1    0    0    0 -0.36398349167E+00 -0.25518328102E+02  0.22806916165E+02  0.34226787438E+02  0.51100000000E-03 0.  1.
         11    1    1    0    0    0 -0.13710762815E-01 -0.21187978564E+02  0.18720939040E+02  0.28273736619E+02  0.51100000000E-03 0. -1.
         22    1    1    0    0    0  0.37769425448E+00  0.46706306666E+02 -0.41527855204E+02  0.62499475943E+02  0.00000000000E+00 0. -1.
</event>
<event>
 4    1  0.1974401E-002  0.9118800E+02  0.7818608E-02  0.1130116E+00
         25   -1    0    0    0    0  0.00000000000E+00  0.00000000000E+00  0.99999998245E-14  0.12500000000E+03  0.12500000000E+03 0.  0.
        -11    1    1    0    0    0  0.26295126546E+02  0.43994882598E+02 -0.54835502242E+00  0.51257039208E+02  0.51100000000E-03 0. -1.
         11    1    1    0    0    0  0.58670828689E+01  0.95907187193E+01 -0.76751834706E-01  0.11243239660E+02  0.51100000000E-03 0.  1.
         22    1    1    0    0    0 -0.32162209415E+02 -0.53585601317E+02  0.62510685712E+00  0.62499721132E+02  0.00000000000E+00 0. -1.
</event>
<event>
 4    1  0.1974401E-002  0.9118800E+02  0.7818608E-02  0.1130116E+00
         25   -1    0    0    0    0  0.00000000000E+00  0.00000000000E+00  0.99999998245E-14  0.12500000000E+03  0.12500000000E+03 0.  0.
        -11    1    1    0    0    0 -0.77865504902E-01 -0.64355204686E+00 -0.23099999717E+00  0.68817405770E+00  0.51100000000E-03 0. -1.
         11    1    1    0    0    0 -0.55076244810E+01 -0.58559027503E+02 -0.19006320468E+02  0.61812084963E+02  0.51100000000E-03 0.  1.
         22    1    1    0    0    0  0.55854899859E+01  0.59202579550E+02  0.19237320465E+02  0.62499740979E+02  0.00000000000E+00 0.  1.
</event>
<event>
 4    1  0.1974401E-002  0.9118800E+02  0.7818608E-02  0.1130116E+00
         25   -1    0    0    0    0  0.00000000000E+00  0.00000000000E+00  0.99999998245E-14  0.12500000000E+03  0.12500000000E+03 0.  0.
        -11    1    1    0    0    0  0.97965273305E+00 -0.62534096444E+01  0.10758465811E+01  0.64204593126E+01  0.51100000000E-03 0. -1.
         11    1    1    0    0    0  0.85889067749E+01 -0.54620382088E+02  0.93680052207E+01  0.56079541556E+02  0.51100000000E-03 0.  1.
         22    1    1    0    0    0 -0.95685595079E+01  0.60873791733E+02 -0.10443851802E+02  0.62499999131E+02  0.00000000000E+00 0.  1.
</event>
<event>
 4    1  0.1974401E-002  0.9118800E+02  0.7818608E-02  0.1130116E+00
         25   -1    0    0    0    0  0.00000000000E+00  0.00000000000E+00  0.99999998245E-14  0.12500000000E+03  0.12500000000E+03 0.  0.
        -11    1    1    0    0    0 -0.28894676386E+02  0.18028897131E+02 -0.69676629290E+01  0.34763368395E+02  0.51100000000E-03 0.  1.
         11    1    1    0    0    0 -0.23038266115E+02  0.14405533255E+02 -0.55713436739E+01  0.27736635783E+02  0.51100000000E-03 0. -1.
         22    1    1    0    0    0  0.51932942501E+02 -0.32434430386E+02  0.12539006603E+02  0.62499995823E+02  0.00000000000E+00 0.  1.
</event>
<event>
 4    1  0.1974401E-002  0.9118800E+02  0.7818608E-02  0.1130116E+00
         25   -1    0    0    0    0  0.00000000000E+00  0.00000000000E+00  0.99999998245E-14  0.12500000000E+03  0.12500000000E+03 0.  0.
        -11    1    1    0    0    0 -0.16628704523E+02 -0.69515896786E+01 -0.27934794145E+02  0.33244415130E+02  0.51100000000E-03 0.  1.
         11    1    1    0    0    0 -0.14415657988E+02 -0.61707346708E+01 -0.24698522367E+02  0.29255874094E+02  0.51100000000E-03 0. -1.
         22    1    1    0    0    0  0.31044362511E+02  0.13122324349E+02  0.52633316512E+02  0.62499710776E+02  0.00000000000E+00 0.  1.
</event>
<event>
 4    1  0.1974401E-002  0.9118800E+02  0.7818608E-02  0.1130116E+00
         25   -1    0    0    0    0  0.00000000000E+00  0.00000000000E+00  0.99999998245E-14  0.12500000000E+03  0.12500000000E+03 0.  0.
        -11    1    1    0    0    0  0.17810422889E+02 -0.13066615056E+02 -0.38065667243E+02  0.44010710235E+02  0.51100000000E-03 0. -1.
         11    1    1    0    0    0  0.91571064759E+01 -0.36163848809E+01 -0.15721762160E+02  0.18550057797E+02  0.51100000000E-03 0.  1.
         22    1    1    0    0    0 -0.26967529365E+02  0.16682999937E+02  0.53787429403E+02  0.62439231967E+02  0.00000000000E+00 0. -1.
</event>
<event>
 4    1  0.1974401E-002  0.9118800E+02  0.7818608E-02  0.1130116E+00
         25   -1    0    0    0    0  0.00000000000E+00  0.00000000000E+00  0.99999998245E-14  0.12500000000E+03  0.12500000000E+03 0.  0.
        -11    1    1    0    0    0  0.39551239975E+01  0.12764005396E+00  0.13011548485E+02  0.13599988678E+02  0.51100000000E-03 0. -1.
         11    1    1    0    0    0  0.14215773123E+02  0.56473872344E+00  0.46784668355E+02  0.48900023811E+02  0.51100000000E-03 0.  1.
         22    1    1    0    0    0 -0.18170897120E+02 -0.69237877740E+00 -0.59796216840E+02  0.62499987511E+02  0.00000000000E+00 0.  1.
</event>
<event>
 4    1  0.1974401E-002  0.9118800E+02  0.7818608E-02  0.1130116E+00
         25   -1    0    0    0    0  0.00000000000E+00  0.00000000000E+00  0.99999998245E-14  0.12500000000E+03  0.12500000000E+03 0.  0.
        -11    1    1    0    0    0  0.28088505366E+01 -0.28871706879E+02 -0.51516146105E+02  0.59121725357E+02  0.51100000000E-03 0. -1.
         11    1    1    0    0    0  0.15861007010E+00 -0.17211397043E+01 -0.29031789741E+01  0.33787464322E+01  0.51100000000E-03 0.  1.
         22    1    1    0    0    0 -0.29674606067E+01  0.30592846583E+02  0.54419325079E+02  0.62499528211E+02  0.00000000000E+00 0. -1.
</event>
<event>
 4    1  0.1974401E-002  0.9118800E+02  0.7818608E-02  0.1130116E+00
         25   -1    0    0    0    0  0.00000000000E+00  0.00000000000E+00  0.99999998245E-14  0.12500000000E+03  0.12500000000E+03 0.  0.
        -11    1    1    0    0    0  0.28018015581E+02 -0.79379132322E+01  0.28671425064E+02  0.40866493353E+02  0.51100000000E-03 0.  1.
         11    1    1    0    0    0  0.14830041290E+02 -0.42021953852E+01  0.15179592921E+02  0.21633506702E+02  0.51100000000E-03 0.  1.
         22    1    1    0    0    0 -0.42848056870E+02  0.12140108617E+02 -0.43851017985E+02  0.62499999945E+02  0.00000000000E+00 0.  1.
</event>
<event>
 4    1  0.1974401E-002  0.9118800E+02  0.7818608E-02  0.1130116E+00
         25   -1    0    0    0    0  0.00000000000E+00  0.00000000000E+00  0.99999998245E-14  0.12500000000E+03  0.12500000000E+03 0.  0.
        -11    1    1    0    0    0  0.17447873447E+02  0.98417608513E+01  0.30314601315E+02  0.36335431711E+02  0.51100000000E-03 0. -1.
         11    1    1    0    0    0  0.12572242500E+02  0.70896970922E+01  0.21823372313E+02  0.26164568900E+02  0.51100000000E-03 0.  1.
         22    1    1    0    0    0 -0.30020115947E+02 -0.16931457944E+02 -0.52137973628E+02  0.62499999389E+02  0.00000000000E+00 0. -1.
</event>
<event>
 4    1  0.1974401E-002  0.9118800E+02  0.7818608E-02  0.1130116E+00
         25   -1    0    0    0    0  0.00000000000E+00  0.00000000000E+00  0.99999998245E-14  0.12500000000E+03  0.12500000000E+03 0.  0.
        -11    1    1    0    0    0 -0.13754825163E+01  0.83974102823E+00 -0.97782379067E+00  0.18850084280E+01  0.51100000000E-03 0.  1.
         11    1    1    0    0    0 -0.44178888790E+02  0.26311070203E+02 -0.32095860485E+02  0.60615104475E+02  0.51100000000E-03 0. -1.
         22    1    1    0    0    0  0.45554371306E+02 -0.27150811231E+02  0.33073684276E+02  0.62499887097E+02  0.00000000000E+00 0. -1.
</event>
<event>
 4    1  0.1974401E-002  0.9118800E+02  0.7818608E-02  0.1130116E+00
         25   -1    0    0    0    0  0.00000000000E+00  0.00000000000E+00  0.99999998245E-14  0.12500000000E+03  0.12500000000E+03 0.  0.
        -11    1    1    0    0    0  0.57808854672E+01 -0.49660224760E+02 -0.33973642732E+02  0.60446380874E+02  0.51100000000E-03 0. -1.
         11    1    1    0    0    0 -0.99863684922E+01  0.85751200297E+01  0.11800639757E+02  0.17678103352E+02  0.51100000000E-03 0.  1.
         22    1    1    0    0    0  0.42054830249E+01  0.41085104730E+02  0.22173002976E+02  0.46875515774E+02  0.00000000000E+00 0. -1.
</event>
<event>
 4    1  0.1974401E-002  0.9118800E+02  0.7818608E-02  0.1130116E+00
         25   -1    0    0    0    0  0.00000000000E+00  0.00000000000E+00  0.99999998245E-14  0.12500000000E+03  0.12500000000E+03 0.  0.
        -11    1    1    0    0    0  0.26824224314E+01 -0.62587308509E+01  0.61707594466E+01  0.91894164327E+01  0.51100000000E-03 0. -1.
         11    1    1    0    0    0  0.13510123462E+02 -0.26372692535E+02  0.44464345627E+02  0.53433326490E+02  0.51100000000E-03 0.  1.
         22    1    1    0    0    0 -0.16192545893E+02  0.32631423386E+02 -0.50635105074E+02  0.62377257077E+02  0.00000000000E+00 0.  1.
</event>
<event>
 4    1  0.1974401E-002  0.9118800E+02  0.7818608E-02  0.1130116E+00
         25   -1    0    0    0    0  0.00000000000E+00  0.00000000000E+00  0.99999998245E-14  0.12500000000E+03  0.12500000000E+03 0.  0.
        -11    1    1    0    0    0 -0.84640547598E+01  0.46270425897E+00 -0.17759638083E+01  0.86607370309E+01  0.51100000000E-03 0.  1.
         11    1    1    0    0    0 -0.52580019646E+02  0.28696366907E+01 -0.11214952870E+02  0.53839283510E+02  0.51100000000E-03 0. -1.
         22    1    1    0    0    0  0.61044074406E+02 -0.33323409497E+01  0.12990916679E+02  0.62499979459E+02  0.00000000000E+00 0. -1.
</event>
<event>
 4    1  0.1974401E-002  0.9118800E+02  0.7818608E-02  0.1130116E+00
         25   -1    0    0    0    0  0.00000000000E+00  0.00000000000E+00  0.99999998245E-14  0.12500000000E+03  0.12500000000E+03 0.  0.
        -11    1    1    0    0    0 -0.12710064419E+02  0.22600428771E+02  0.39189422875E+01  0.26223714975E+02  0.51100000000E-03 0.  1.
         11    1    1    0    0    0 -0.17565442065E+02  0.31281518404E+02  0.53750607063E+01  0.36276292898E+02  0.51100000000E-03 0. -1.
         22    1    1    0    0    0  0.30275506484E+02 -0.53881947175E+02 -0.92940029938E+01  0.62499992127E+02  0.00000000000E+00 0. -1.
</event>
<event>
 4    1  0.1974401E-002  0.9118800E+02  0.7818608E-02  0.1130116E+00
         25   -1    0    0    0    0  0.00000000000E+00  0.00000000000E+00  0.99999998245E-14  0.12500000000E+03  0.12500000000E+03 0.  0.
        -11    1    1    0    0    0 -0.42804273810E+02  0.28096085343E+02  0.13899009424E+02  0.53054484553E+02  0.51100000000E-03 0. -1.
         11    1    1    0    0    0 -0.67739415064E+01  0.48616489354E+01  0.47040012489E+01  0.95733767247E+01  0.51100000000E-03 0.  1.
         22    1    1    0    0    0  0.49578215316E+02 -0.32957734278E+02 -0.18603010673E+02  0.62372138722E+02  0.00000000000E+00 0. -1.
</event>
<event>
 4    1  0.1974401E-002  0.9118800E+02  0.7818608E-02  0.1130116E+00
         25   -1    0    0    0    0  0.00000000000E+00  0.00000000000E+00  0.99999998245E-14  0.12500000000E+03  0.12500000000E+03 0.  0.
        -11    1    1    0    0    0 -0.39503085055E+02  0.23160655955E+02 -0.65606345105E+01  0.46259611311E+02  0.51100000000E-03 0. -1.
         11    1    1    0    0    0 -0.13873959451E+02  0.81222261292E+01 -0.23006432292E+01  0.16240390010E+02  0.51100000000E-03 0.  1.
         22    1    1    0    0    0  0.53377044506E+02 -0.31282882085E+02  0.88612777397E+01  0.62499998679E+02  0.00000000000E+00 0. -1.
</event>
<event>
 4    1  0.1974401E-002  0.9118800E+02  0.7818608E-02  0.1130116E+00
         25   -1    0    0    0    0  0.00000000000E+00  0.00000000000E+00  0.99999998245E-14  0.12500000000E+03  0.12500000000E+03 0.  0.
        -11    1    1    0    0    0  0.13632279603E+02  0.53730524103E+02 -0.41658909170E+01  0.55589233804E+02  0.51100000000E-03 0.  1.
         11    1    1    0    0    0  0.16715214138E+01  0.66870540847E+01 -0.49844292409E+00  0.69107974777E+01  0.51100000000E-03 0. -1.
         22    1    1    0    0    0 -0.15303801017E+02 -0.60417578187E+02  0.46643338411E+01  0.62499968718E+02  0.00000000000E+00 0.  1.
</event>
<event>
 4    1  0.1974401E-002  0.9118800E+02  0.7818608E-02  0.1130116E+00
         25   -1    0    0    0    0  0.00000000000E+00  0.00000000000E+00  0.99999998245E-14  0.12500000000E+03  0.12500000000E+03 0.  0.
        -11    1    1    0    0    0 -0.47625585504E+02  0.35879217739E+02 -0.18031353793E+02  0.62294818244E+02  0.51100000000E-03 0. -1.
         11    1    1    0    0    0 -0.15593757028E+00  0.11947532664E+00 -0.59243771035E-01  0.20518519690E+00  0.51100000000E-03 0.  1.
         22    1    1    0    0    0  0.47781523074E+02 -0.35998693065E+02  0.18090597564E+02  0.62499996559E+02  0.00000000000E+00 0. -1.
</event>
<event>
 4    1  0.1974401E-002  0.9118800E+02  0.7818608E-02  0.1130116E+00
         25   -1    0    0    0    0  0.00000000000E+00  0.00000000000E+00  0.99999998245E-14  0.12500000000E+03  0.12500000000E+03 0.  0.
        -11    1    1    0    0    0  0.28859335004E+02  0.22085619312E+02 -0.21806175917E+02  0.42380952156E+02  0.51100000000E-03 0.  1.
         11    1    1    0    0    0  0.13851778594E+02  0.10507112401E+02 -0.10125720333E+02  0.20119676780E+02  0.51100000000E-03 0. -1.
         22    1    1    0    0    0 -0.42711113598E+02 -0.32592731713E+02  0.31931896249E+02  0.62499371064E+02  0.00000000000E+00 0.  1.
</event>
<event>
 4    1  0.1974401E-002  0.9118800E+02  0.7818608E-02  0.1130116E+00
         25   -1    0    0    0    0  0.00000000000E+00  0.00000000000E+00  0.99999998245E-14  0.12500000000E+03  0.12500000000E+03 0.  0.
        -11    1    1    0    0    0 -0.57688076999E+02 -0.80764741088E+01  0.61303854570E+01  0.58572393566E+02  0.51100000000E-03 0. -1.
         11    1    1    0    0    0 -0.38679538141E+01 -0.54142165572E+00  0.41460095506E+00  0.39276072016E+01  0.51100000000E-03 0.  1.
         22    1    1    0    0    0  0.61556030814E+02  0.86178957646E+01 -0.65449864120E+01  0.62499999232E+02  0.00000000000E+00 0. -1.
</event>
<event>
 4    1  0.1974401E-002  0.9118800E+02  0.7818608E-02  0.1130116E+00
         25   -1    0    0    0    0  0.00000000000E+00  0.00000000000E+00  0.99999998245E-14  0.12500000000E+03  0.12500000000E+03 0.  0.
        -11    1    1    0    0    0 -0.67071787527E+01  0.14009254985E+02  0.35143785465E+02  0.38423054656E+02  0.51100000000E-03 0. -1.
         11    1    1    0    0    0 -0.45309053969E+01  0.77155266600E+01  0.22361950866E+02  0.24085582870E+02  0.51100000000E-03 0.  1.
         22    1    1    0    0    0  0.11238084150E+02 -0.21724781645E+02 -0.57505736331E+02  0.62491362474E+02  0.00000000000E+00 0. -1.
</event>
<event>
 4    1  0.1974401E-002  0.9118800E+02  0.7818608E-02  0.1130116E+00
         25   -1    0    0    0    0  0.00000000000E+00  0.00000000000E+00  0.99999998245E-14  0.12500000000E+03  0.12500000000E+03 0.  0.
        -11    1    1    0    0    0 -0.37825167489E+02 -0.77938681957E+01 -0.75180329873E+01  0.39344739130E+02  0.51100000000E-03 0. -1.
         11    1    1    0    0    0 -0.22262219057E+02 -0.45645963419E+01 -0.44412175153E+01  0.23155266148E+02  0.51100000000E-03 0.  1.
         22    1    1    0    0    0  0.60087386546E+02  0.12358464538E+02  0.11959250503E+02  0.62499994721E+02  0.00000000000E+00 0.  1.
</event>
<event>
 4    1  0.1974401E-002  0.9118800E+02  0.7818608E-02  0.1130116E+00
         25   -1    0    0    0    0  0.00000000000E+00  0.00000000000E+00  0.99999998245E-14  0.12500000000E+03  0.12500000000E+03 0.  0.
        -11    1    1    0    0    0 -0.13626094263E+02 -0.82714029525E+01 -0.49683175930E+02  0.52177624730E+02  0.51100000000E-03 0. -1.
         11    1    1    0    0    0  0.16703138190E+01 -0.16572652902E+01 -0.10450939832E+02  0.10712544989E+02  0.51100000000E-03 0.  1.
         22    1    1    0    0    0  0.11955780444E+02  0.99286682426E+01  0.60134115762E+02  0.62109830282E+02  0.00000000000E+00 0. -1.
</event>
<event>
 4    1  0.1974401E-002  0.9118800E+02  0.7818608E-02  0.1130116E+00
         25   -1    0    0    0    0  0.00000000000E+00  0.00000000000E+00  0.99999998245E-14  0.12500000000E+03  0.12500000000E+03 0.  0.
        -11    1    1    0    0    0  0.12595120308E+02  0.40310918259E+01  0.50345568621E+02  0.52053463256E+02  0.51100000000E-03 0. -1.
         11    1    1    0    0    0  0.26030081532E+01  0.72366688032E+00  0.10091394471E+02  0.10446797970E+02  0.51100000000E-03 0.  1.
         22    1    1    0    0    0 -0.15198128461E+02 -0.47547587063E+01 -0.60436963092E+02  0.62499738774E+02  0.00000000000E+00 0. -1.
</event>
<event>
 4    1  0.1974401E-002  0.9118800E+02  0.7818608E-02  0.1130116E+00
         25   -1    0    0    0    0  0.00000000000E+00  0.00000000000E+00  0.99999998245E-14  0.12500000000E+03  0.12500000000E+03 0.  0.
        -11    1    1    0    0    0 -0.33185156802E+00 -0.79421778888E+01 -0.28666902454E+02  0.29748606886E+02  0.51100000000E-03 0.  1.
         11    1    1    0    0    0 -0.36257475326E+00 -0.87368593228E+01 -0.31562471292E+02  0.32751393338E+02  0.51100000000E-03 0. -1.
         22    1    1    0    0    0  0.69442632128E+00  0.16679037212E+02  0.60229373746E+02  0.62499999776E+02  0.00000000000E+00 0.  1.
</event>
<event>
 4    1  0.1974401E-002  0.9118800E+02  0.7818608E-02  0.1130116E+00
         25   -1    0    0    0    0  0.00000000000E+00  0.00000000000E+00  0.99999998245E-14  0.12500000000E+03  0.12500000000E+03 0.  0.
        -11    1    1    0    0    0 -0.16359205828E+02  0.39029975489E+01  0.13819330568E+02  0.21767657265E+02  0.51100000000E-03 0.  1.
         11    1    1    0    0    0  0.49382309500E+02  0.26953552988E+02 -0.10567111504E+01  0.56269202491E+02  0.51100000000E-03 0. -1.
         22    1    1    0    0    0 -0.33023103672E+02 -0.30856550537E+02 -0.12762619417E+02  0.46963140244E+02  0.00000000000E+00 0. -1.
</event>
<event>
 4    1  0.1974401E-002  0.9118800E+02  0.7818608E-02  0.1130116E+00
         25   -1    0    0    0    0  0.00000000000E+00  0.00000000000E+00  0.99999998245E-14  0.12500000000E+03  0.12500000000E+03 0.  0.
        -11    1    1    0    0    0 -0.18366400363E+02  0.46454044292E+01 -0.38809422954E+02  0.43186522838E+02  0.51100000000E-03 0. -1.
         11    1    1    0    0    0 -0.10691165341E+02  0.46086462985E+01 -0.15585251623E+02  0.19453552515E+02  0.51100000000E-03 0.  1.
         22    1    1    0    0    0  0.29057565704E+02 -0.92540507277E+01  0.54394674577E+02  0.62359924646E+02  0.00000000000E+00 0. -1.
</event>
<event>
 4    1  0.1974401E-002  0.9118800E+02  0.7818608E-02  0.1130116E+00
         25   -1    0    0    0    0  0.00000000000E+00  0.00000000000E+00  0.99999998245E-14  0.12500000000E+03  0.12500000000E+03 0.  0.
        -11    1    1    0    0    0  0.10482069438E+01  0.23610840771E+02 -0.11805185954E+02  0.26418420758E+02  0.51100000000E-03 0.  1.
         11    1    1    0    0    0  0.14312250571E+01  0.32247123935E+02 -0.16123118600E+02  0.36081579246E+02  0.51100000000E-03 0.  1.
         22    1    1    0    0    0 -0.24794320009E+01 -0.55857964706E+02  0.27928304554E+02  0.62499999995E+02  0.00000000000E+00 0.  1.
</event>
<event>
 4    1  0.1974401E-002  0.9118800E+02  0.7818608E-02  0.1130116E+00
         25   -1    0    0    0    0  0.00000000000E+00  0.00000000000E+00  0.99999998245E-14  0.12500000000E+03  0.12500000000E+03 0.  0.
        -11    1    1    0    0    0  0.12043383430E+01 -0.33090643103E-01 -0.87693655197E+00  0.14901489229E+01  0.51100000000E-03 0. -1.
         11    1    1    0    0    0  0.48696255756E+02 -0.24470774317E+00 -0.36753836513E+02  0.61010078719E+02  0.51100000000E-03 0.  1.
         22    1    1    0    0    0 -0.49900594099E+02  0.27779838627E+00  0.37630773065E+02  0.62499772359E+02  0.00000000000E+00 0.  1.
</event>
<event>
 4    1  0.1974401E-002  0.9118800E+02  0.7818608E-02  0.1130116E+00
         25   -1    0    0    0    0  0.00000000000E+00  0.00000000000E+00  0.99999998245E-14  0.12500000000E+03  0.12500000000E+03 0.  0.
        -11    1    1    0    0    0 -0.25442888169E+02 -0.37297019942E+02  0.41031828115E+02  0.61008353310E+02  0.51100000000E-03 0.  1.
         11    1    1    0    0    0 -0.74862133116E+00 -0.72166477937E+00  0.10827700628E+01  0.15012079207E+01  0.51100000000E-03 0. -1.
         22    1    1    0    0    0  0.26191509500E+02  0.38018684722E+02 -0.42114598178E+02  0.62490438769E+02  0.00000000000E+00 0.  1.
</event>
<event>
 4    1  0.1974401E-002  0.9118800E+02  0.7818608E-02  0.1130116E+00
         25   -1    0    0    0    0  0.00000000000E+00  0.00000000000E+00  0.99999998245E-14  0.12500000000E+03  0.12500000000E+03 0.  0.
        -11    1    1    0    0    0 -0.19692217464E+02  0.47275136036E+02  0.11159551964E+02  0.52414287328E+02  0.51100000000E-03 0.  1.
         11    1    1    0    0    0 -0.37863046514E+01  0.90974959567E+01  0.21496675165E+01  0.10085712979E+02  0.51100000000E-03 0. -1.
         22    1    1    0    0    0  0.23478522115E+02 -0.56372631992E+02 -0.13309219480E+02  0.62499999693E+02  0.00000000000E+00 0.  1.
</event>
<event>
 4    1  0.1974401E-002  0.9118800E+02  0.7818608E-02  0.1130116E+00
         25   -1    0    0    0    0  0.00000000000E+00  0.00000000000E+00  0.99999998245E-14  0.12500000000E+03  0.12500000000E+03 0.  0.
        -11    1    1    0    0    0 -0.20711062526E-01  0.15261364376E+00 -0.18452044484E+01  0.18516208007E+01  0.51100000000E-03 0. -1.
         11    1    1    0    0    0  0.18203373310E+02  0.12223956125E+02 -0.56601352648E+02  0.60700090816E+02  0.51100000000E-03 0.  1.
         22    1    1    0    0    0 -0.18182662247E+02 -0.12376569768E+02  0.58446557096E+02  0.62448288384E+02  0.00000000000E+00 0.  1.
</event>
<event>
 4    1  0.1974401E-002  0.9118800E+02  0.7818608E-02  0.1130116E+00
         25   -1    0    0    0    0  0.00000000000E+00  0.00000000000E+00  0.99999998245E-14  0.12500000000E+03  0.12500000000E+03 0.  0.
        -11    1    1    0    0    0  0.18822778106E+02  0.18006526497E+02  0.39830332354E+02  0.47591883214E+02  0.51100000000E-03 0. -1.
         11    1    1    0    0    0  0.59001416242E+01  0.56364209594E+01  0.12476820344E+02  0.14908117204E+02  0.51100000000E-03 0.  1.
         22    1    1    0    0    0 -0.24722919730E+02 -0.23642947457E+02 -0.52307152698E+02  0.62499999582E+02  0.00000000000E+00 0. -1.
</event>
<event>
 4    1  0.1974401E-002  0.9118800E+02  0.7818608E-02  0.1130116E+00
         25   -1    0    0    0    0  0.00000000000E+00  0.00000000000E+00  0.99999998245E-14  0.12500000000E+03  0.12500000000E+03 0.  0.
        -11    1    1    0    0    0 -0.23744097458E+02 -0.48722520042E+02 -0.23729942748E+02  0.59167358454E+02  0.51100000000E-03 0. -1.
         11    1    1    0    0    0 -0.62706208993E+01  0.93062697008E+01  0.82479236629E+01  0.13926793860E+02  0.51100000000E-03 0.  1.
         22    1    1    0    0    0  0.30014718357E+02  0.39416250342E+02  0.15482019086E+02  0.51905847686E+02  0.00000000000E+00 0. -1.
</event>
<event>
 4    1  0.1974401E-002  0.9118800E+02  0.7818608E-02  0.1130116E+00
         25   -1    0    0    0    0  0.00000000000E+00  0.00000000000E+00  0.99999998245E-14  0.12500000000E+03  0.12500000000E+03 0.  0.
        -11    1    1    0    0    0  0.21778640688E+02 -0.29572498516E+02  0.13184951661E+02  0.39021594140E+02  0.51100000000E-03 0.  1.
         11    1    1    0    0    0  0.10524175616E+02 -0.19758941240E+02  0.73122531426E+01  0.23550861504E+02  0.51100000000E-03 0. -1.
         22    1    1    0    0    0 -0.32302816304E+02  0.49331439755E+02 -0.20497204804E+02  0.62427544356E+02  0.00000000000E+00 0.  1.
</event>
<event>
 4    1  0.1974401E-002  0.9118800E+02  0.7818608E-02  0.1130116E+00
         25   -1    0    0    0    0  0.00000000000E+00  0.00000000000E+00  0.99999998245E-14  0.12500000000E+03  0.12500000000E+03 0.  0.
        -11    1    1    0    0    0  0.26913134876E+02 -0.25837211251E+02  0.30594029619E+02  0.48248035843E+02  0.51100000000E-03 0. -1.
         11    1    1    0    0    0  0.82285235394E+01 -0.75520098871E+01  0.88556307043E+01  0.14253548625E+02  0.51100000000E-03 0.  1.
         22    1    1    0    0    0 -0.35141658416E+02  0.33389221138E+02 -0.39449660323E+02  0.62498415532E+02  0.00000000000E+00 0. -1.
</event>
<event>
 4    1  0.1974401E-002  0.9118800E+02  0.7818608E-02  0.1130116E+00
         25   -1    0    0    0    0  0.00000000000E+00  0.00000000000E+00  0.99999998245E-14  0.12500000000E+03  0.12500000000E+03 0.  0.
        -11    1    1    0    0    0 -0.29229946760E+02  0.47393136170E+02  0.11489161867E+02  0.56855078791E+02  0.51100000000E-03 0.  1.
         11    1    1    0    0    0 -0.29030336349E+01  0.47046844377E+01  0.11416989537E+01  0.56449213197E+01  0.51100000000E-03 0. -1.
         22    1    1    0    0    0  0.32132980395E+02 -0.52097820607E+02 -0.12630860821E+02  0.62499999890E+02  0.00000000000E+00 0.  1.
</event>
<event>
 4    1  0.1974401E-002  0.9118800E+02  0.7818608E-02  0.1130116E+00
         25   -1    0    0    0    0  0.00000000000E+00  0.00000000000E+00  0.99999998245E-14  0.12500000000E+03  0.12500000000E+03 0.  0.
        -11    1    1    0    0    0 -0.10641622489E+02 -0.23629260397E+02 -0.25438547167E+02  0.36313988467E+02  0.51100000000E-03 0. -1.
         11    1    1    0    0    0  0.98690595932E+01 -0.27652284903E+02 -0.38706461172E+01  0.29614677091E+02  0.51100000000E-03 0.  1.
         22    1    1    0    0    0  0.77256289607E+00  0.51281545300E+02  0.29309193284E+02  0.59071334442E+02  0.00000000000E+00 0.  1.
</event>
<event>
 4    1  0.1974401E-002  0.9118800E+02  0.7818608E-02  0.1130116E+00
         25   -1    0    0    0    0  0.00000000000E+00  0.00000000000E+00  0.99999998245E-14  0.12500000000E+03  0.12500000000E+03 0.  0.
        -11    1    1    0    0    0 -0.40163602074E+02 -0.34954520588E+02 -0.26305678595E+02  0.59387895801E+02  0.51100000000E-03 0. -1.
         11    1    1    0    0    0 -0.20908507618E+01 -0.18138707804E+01 -0.14228797019E+01  0.31122935310E+01  0.51100000000E-03 0.  1.
         22    1    1    0    0    0  0.42254452835E+02  0.36768391369E+02  0.27728558297E+02  0.62499810668E+02  0.00000000000E+00 0. -1.
</event>
<event>
 4    1  0.1974401E-002  0.9118800E+02  0.7818608E-02  0.1130116E+00
         25   -1    0    0    0    0  0.00000000000E+00  0.00000000000E+00  0.99999998245E-14  0.12500000000E+03  0.12500000000E+03 0.  0.
        -11    1    1    0    0    0  0.33043541438E+02  0.56588894632E+01 -0.48171957696E+02  0.58689319039E+02  0.51100000000E-03 0. -1.
         11    1    1    0    0    0  0.21457360504E+01  0.37889488595E+00 -0.31262769470E+01  0.38106892216E+01  0.51100000000E-03 0.  1.
         22    1    1    0    0    0 -0.35189277488E+02 -0.60377843491E+01  0.51298234643E+02  0.62499991740E+02  0.00000000000E+00 0. -1.
</event>
<event>
 4    1  0.1974401E-002  0.9118800E+02  0.7818608E-02  0.1130116E+00
         25   -1    0    0    0    0  0.00000000000E+00  0.00000000000E+00  0.99999998245E-14  0.12500000000E+03  0.12500000000E+03 0.  0.
        -11    1    1    0    0    0 -0.41405675635E-01 -0.51722376956E+00 -0.25762618021E-01  0.51951788360E+00  0.51100000000E-03 0.  1.
         11    1    1    0    0    0 -0.16608337956E+01 -0.61949122866E+02 -0.10905324905E+01  0.61980976550E+02  0.51100000000E-03 0. -1.
         22    1    1    0    0    0  0.17022394712E+01  0.62466346636E+02  0.11162951086E+01  0.62499505566E+02  0.00000000000E+00 0. -1.
</event>
<event>
 4    1  0.1974401E-002  0.9118800E+02  0.7818608E-02  0.1130116E+00
         25   -1    0    0    0    0  0.00000000000E+00  0.00000000000E+00  0.99999998245E-14  0.12500000000E+03  0.12500000000E+03 0.  0.
        -11    1    1    0    0    0 -0.23082655538E+02 -0.21805642445E+02  0.11691538440E+02  0.33837658023E+02  0.51100000000E-03 0.  1.
         11    1    1    0    0    0 -0.22535331537E+02 -0.17447684301E+02  0.44695800507E+01  0.28848570173E+02  0.51100000000E-03 0. -1.
         22    1    1    0    0    0  0.45617987075E+02  0.39253326746E+02 -0.16161118491E+02  0.62313771803E+02  0.00000000000E+00 0. -1.
</event>
<event>
 4    1  0.1974401E-002  0.9118800E+02  0.7818608E-02  0.1130116E+00
         25   -1    0    0    0    0  0.00000000000E+00  0.00000000000E+00  0.99999998245E-14  0.12500000000E+03  0.12500000000E+03 0.  0.
        -11    1    1    0    0    0  0.47070072083E+02 -0.28110593800E+02  0.30867295062E+01  0.54911975642E+02  0.51100000000E-03 0. -1.
         11    1    1    0    0    0  0.69243056742E+01 -0.31254532239E+01 -0.11143739102E+01  0.76783003586E+01  0.51100000000E-03 0.  1.
         22    1    1    0    0    0 -0.53994377757E+02  0.31236047024E+02 -0.19723555959E+01  0.62409723999E+02  0.00000000000E+00 0. -1.
</event>
<event>
 4    1  0.1974401E-002  0.9118800E+02  0.7818608E-02  0.1130116E+00
         25   -1    0    0    0    0  0.00000000000E+00  0.00000000000E+00  0.99999998245E-14  0.12500000000E+03  0.12500000000E+03 0.  0.
        -11    1    1    0    0    0  0.46259071491E+01 -0.11813233261E+00  0.36093003209E+01  0.58685621125E+01  0.51100000000E-03 0.  1.
         11    1    1    0    0    0  0.37714997001E+02 -0.80084630972E+01  0.41559100163E+02  0.56689640029E+02  0.51100000000E-03 0. -1.
         22    1    1    0    0    0 -0.42340904150E+02  0.81265954298E+01 -0.45168400484E+02  0.62441797859E+02  0.00000000000E+00 0. -1.
</event>
<event>
 4    1  0.1974401E-002  0.9118800E+02  0.7818608E-02  0.1130116E+00
         25   -1    0    0    0    0  0.00000000000E+00  0.00000000000E+00  0.99999998245E-14  0.12500000000E+03  0.12500000000E+03 0.  0.
        -11    1    1    0    0    0  0.29236108174E+01  0.17300488672E+02  0.13739205856E+02  0.22284976695E+02  0.51100000000E-03 0.  1.
         11    1    1    0    0    0  0.39200104000E+01  0.31429056569E+02  0.24787730342E+02  0.40219195095E+02  0.51100000000E-03 0. -1.
         22    1    1    0    0    0 -0.68436212174E+01 -0.48729545241E+02 -0.38526936198E+02  0.62495828209E+02  0.00000000000E+00 0.  1.
</event>
<event>
 4    1  0.1974401E-002  0.9118800E+02  0.7818608E-02  0.1130116E+00
         25   -1    0    0    0    0  0.00000000000E+00  0.00000000000E+00  0.99999998245E-14  0.12500000000E+03  0.12500000000E+03 0.  0.
        -11    1    1    0    0    0 -0.85763444197E+01 -0.80424547658E+01  0.37909464567E+01  0.12353381625E+02  0.51100000000E-03 0. -1.
         11    1    1    0    0    0 -0.37474625108E+02 -0.30377949172E+02  0.13747389940E+02  0.50161320291E+02  0.51100000000E-03 0.  1.
         22    1    1    0    0    0  0.46050969528E+02  0.38420403938E+02 -0.17538336397E+02  0.62485298085E+02  0.00000000000E+00 0.  1.
</event>
<event>
 4    1  0.1974401E-002  0.9118800E+02  0.7818608E-02  0.1130116E+00
         25   -1    0    0    0    0  0.00000000000E+00  0.00000000000E+00  0.99999998245E-14  0.12500000000E+03  0.12500000000E+03 0.  0.
        -11    1    1    0    0    0  0.76829077133E+01  0.21693184951E+02 -0.11875410254E+02  0.25896847554E+02  0.51100000000E-03 0.  1.
         11    1    1    0    0    0  0.10419479404E+02  0.31070559897E+02 -0.16308502749E+02  0.36604815333E+02  0.51100000000E-03 0. -1.
         22    1    1    0    0    0 -0.18102387118E+02 -0.52763744848E+02  0.28183913003E+02  0.62498337113E+02  0.00000000000E+00 0. -1.
</event>
<event>
 4    1  0.1974401E-002  0.9118800E+02  0.7818608E-02  0.1130116E+00
         25   -1    0    0    0    0  0.00000000000E+00  0.00000000000E+00  0.99999998245E-14  0.12500000000E+03  0.12500000000E+03 0.  0.
        -11    1    1    0    0    0  0.47098148229E+02 -0.77545862649E+01  0.37240933552E+02  0.60541360298E+02  0.51100000000E-03 0.  1.
         11    1    1    0    0    0  0.15192064186E+01 -0.30677336997E+00  0.11982135318E+01  0.19590339383E+01  0.51100000000E-03 0. -1.
         22    1    1    0    0    0 -0.48617354647E+02  0.80613596349E+01 -0.38439147084E+02  0.62499605763E+02  0.00000000000E+00 0.  1.
</event>
<event>
 4    1  0.1974401E-002  0.9118800E+02  0.7818608E-02  0.1130116E+00
         25   -1    0    0    0    0  0.00000000000E+00  0.00000000000E+00  0.99999998245E-14  0.12500000000E+03  0.12500000000E+03 0.  0.
        -11    1    1    0    0    0 -0.92534245379E+01  0.18195197170E+01 -0.24008447233E+01  0.97314219580E+01  0.51100000000E-03 0.  1.
         11    1    1    0    0    0 -0.50175870990E+02  0.98680697098E+01 -0.13020215061E+02  0.52768578055E+02  0.51100000000E-03 0. -1.
         22    1    1    0    0    0  0.59429295528E+02 -0.11687589427E+02  0.15421059784E+02  0.62499999987E+02  0.00000000000E+00 0. -1.
</event>
<event>
 4    1  0.1974401E-002  0.9118800E+02  0.7818608E-02  0.1130116E+00
         25   -1    0    0    0    0  0.00000000000E+00  0.00000000000E+00  0.99999998245E-14  0.12500000000E+03  0.12500000000E+03 0.  0.
        -11    1    1    0    0    0 -0.11081306757E+02 -0.61936410092E+01  0.10379742546E+01  0.12737108746E+02  0.51100000000E-03 0.  1.
         11    1    1    0    0    0 -0.15203739655E+02 -0.48793227135E+02  0.29012586874E+01  0.51189354518E+02  0.51100000000E-03 0. -1.
         22    1    1    0    0    0  0.26285046412E+02  0.54986868145E+02 -0.39392329420E+01  0.61073536736E+02  0.00000000000E+00 0. -1.
</event>
<event>
 4    1  0.1974401E-002  0.9118800E+02  0.7818608E-02  0.1130116E+00
         25   -1    0    0    0    0  0.00000000000E+00  0.00000000000E+00  0.99999998245E-14  0.12500000000E+03  0.12500000000E+03 0.  0.
        -11    1    1    0    0    0 -0.12192385421E+02 -0.18686748110E+02  0.45620986958E+01  0.22774142398E+02  0.51100000000E-03 0. -1.
         11    1    1    0    0    0 -0.21273376448E+02 -0.32590953347E+02  0.79634787097E+01  0.39725857813E+02  0.51100000000E-03 0.  1.
         22    1    1    0    0    0  0.33465761869E+02  0.51277701458E+02 -0.12525577406E+02  0.62499999789E+02  0.00000000000E+00 0.  1.
</event>
<event>
 4    1  0.1974401E-002  0.9118800E+02  0.7818608E-02  0.1130116E+00
         25   -1    0    0    0    0  0.00000000000E+00  0.00000000000E+00  0.99999998245E-14  0.12500000000E+03  0.12500000000E+03 0.  0.
        -11    1    1    0    0    0  0.21157734321E+02  0.32304303588E+02  0.46671169243E+02  0.60575702973E+02  0.51100000000E-03 0. -1.
         11    1    1    0    0    0  0.67226340872E+00  0.10255103741E+01  0.14830069551E+01  0.19242971465E+01  0.51100000000E-03 0. -1.
         22    1    1    0    0    0 -0.21829997730E+02 -0.33329813962E+02 -0.48154176198E+02  0.62499999880E+02  0.00000000000E+00 0. -1.
</event>
<event>
 4    1  0.1974401E-002  0.9118800E+02  0.7818608E-02  0.1130116E+00
         25   -1    0    0    0    0  0.00000000000E+00  0.00000000000E+00  0.99999998245E-14  0.12500000000E+03  0.12500000000E+03 0.  0.
        -11    1    1    0    0    0  0.57505507188E+01 -0.42879689057E+01 -0.10628592099E+02  0.12822732984E+02  0.51100000000E-03 0. -1.
         11    1    1    0    0    0  0.36396203359E+02 -0.23814258855E+02 -0.25072834917E+02  0.50204079464E+02  0.51100000000E-03 0.  1.
         22    1    1    0    0    0 -0.42146754078E+02  0.28102227761E+02  0.35701427016E+02  0.61973187552E+02  0.00000000000E+00 0.  1.
</event>
<event>
 4    1  0.1974401E-002  0.9118800E+02  0.7818608E-02  0.1130116E+00
         25   -1    0    0    0    0  0.00000000000E+00  0.00000000000E+00  0.99999998245E-14  0.12500000000E+03  0.12500000000E+03 0.  0.
        -11    1    1    0    0    0 -0.14894427099E+02  0.34048842127E+02 -0.19352062007E+02  0.41900714946E+02  0.51100000000E-03 0. -1.
         11    1    1    0    0    0 -0.14697860284E+02  0.16052721035E+02  0.10762072302E+02  0.24280427304E+02  0.51100000000E-03 0.  1.
         22    1    1    0    0    0  0.29592287384E+02 -0.50101563162E+02  0.85899897054E+01  0.58818857750E+02  0.00000000000E+00 0. -1.
</event>
<event>
 4    1  0.1974401E-002  0.9118800E+02  0.7818608E-02  0.1130116E+00
         25   -1    0    0    0    0  0.00000000000E+00  0.00000000000E+00  0.99999998245E-14  0.12500000000E+03  0.12500000000E+03 0.  0.
        -11    1    1    0    0    0  0.49862066656E+00 -0.66847203463E+00 -0.34019877436E+00  0.90067357983E+00  0.51100000000E-03 0.  1.
         11    1    1    0    0    0  0.34449008354E+02 -0.45768122430E+02 -0.22650065023E+02  0.61599355947E+02  0.51100000000E-03 0. -1.
         22    1    1    0    0    0 -0.34947629021E+02  0.46436594465E+02  0.22990263797E+02  0.62499970473E+02  0.00000000000E+00 0. -1.
</event>
<event>
 4    1  0.1974401E-002  0.9118800E+02  0.7818608E-02  0.1130116E+00
         25   -1    0    0    0    0  0.00000000000E+00  0.00000000000E+00  0.99999998245E-14  0.12500000000E+03  0.12500000000E+03 0.  0.
        -11    1    1    0    0    0  0.36766721796E+01  0.78643749825E+01 -0.25577703485E+02  0.27010835382E+02  0.51100000000E-03 0. -1.
         11    1    1    0    0    0 -0.54277354582E+00  0.21169740477E+02 -0.29107032946E+02  0.35995442519E+02  0.51100000000E-03 0.  1.
         22    1    1    0    0    0 -0.31338986338E+01 -0.29034115459E+02  0.54684736431E+02  0.61993722099E+02  0.00000000000E+00 0.  1.
</event>
<event>
 4    1  0.1974401E-002  0.9118800E+02  0.7818608E-02  0.1130116E+00
         25   -1    0    0    0    0  0.00000000000E+00  0.00000000000E+00  0.99999998245E-14  0.12500000000E+03  0.12500000000E+03 0.  0.
        -11    1    1    0    0    0 -0.19865254948E+01 -0.77135645924E+01 -0.13048963205E+02  0.15287929986E+02  0.51100000000E-03 0.  1.
         11    1    1    0    0    0 -0.61673095899E+01 -0.22686915388E+02 -0.40944551732E+02  0.47214279135E+02  0.51100000000E-03 0. -1.
         22    1    1    0    0    0  0.81538350847E+01  0.30400479980E+02  0.53993514937E+02  0.62497790880E+02  0.00000000000E+00 0. -1.
</event>
<event>
 4    1  0.1974401E-002  0.9118800E+02  0.7818608E-02  0.1130116E+00
         25   -1    0    0    0    0  0.00000000000E+00  0.00000000000E+00  0.99999998245E-14  0.12500000000E+03  0.12500000000E+03 0.  0.
        -11    1    1    0    0    0  0.29091632202E+02  0.13902745210E+01 -0.21228562501E+02  0.36040363394E+02  0.51100000000E-03 0. -1.
         11    1    1    0    0    0  0.22583997570E+02  0.70867682229E+00 -0.13817945816E+02  0.26485369469E+02  0.51100000000E-03 0.  1.
         22    1    1    0    0    0 -0.51675629772E+02 -0.20989513432E+01  0.35046508317E+02  0.62474267137E+02  0.00000000000E+00 0. -1.
</event>
<event>
 4    1  0.1974401E-002  0.9118800E+02  0.7818608E-02  0.1130116E+00
         25   -1    0    0    0    0  0.00000000000E+00  0.00000000000E+00  0.99999998245E-14  0.12500000000E+03  0.12500000000E+03 0.  0.
        -11    1    1    0    0    0 -0.29429219052E+01 -0.40385680080E+02  0.11067909794E+02  0.41978120162E+02  0.51100000000E-03 0.  1.
         11    1    1    0    0    0 -0.14348967827E+01 -0.19743771090E+02  0.54103725726E+01  0.20521879964E+02  0.51100000000E-03 0. -1.
         22    1    1    0    0    0  0.43778186879E+01  0.60129451170E+02 -0.16478282367E+02  0.62499999874E+02  0.00000000000E+00 0. -1.
</event>
<event>
 4    1  0.1974401E-002  0.9118800E+02  0.7818608E-02  0.1130116E+00
         25   -1    0    0    0    0  0.00000000000E+00  0.00000000000E+00  0.99999998245E-14  0.12500000000E+03  0.12500000000E+03 0.  0.
        -11    1    1    0    0    0  0.33287488414E+02  0.29685018117E+02 -0.73909549132E+00  0.44607212958E+02  0.51100000000E-03 0.  1.
         11    1    1    0    0    0  0.13423738547E+02  0.11824255142E+02 -0.38629258131E+00  0.17892987131E+02  0.51100000000E-03 0. -1.
         22    1    1    0    0    0 -0.46711226961E+02 -0.41509273258E+02  0.11253880726E+01  0.62499799911E+02  0.00000000000E+00 0.  1.
</event>
<event>
 4    1  0.1974401E-002  0.9118800E+02  0.7818608E-02  0.1130116E+00
         25   -1    0    0    0    0  0.00000000000E+00  0.00000000000E+00  0.99999998245E-14  0.12500000000E+03  0.12500000000E+03 0.  0.
        -11    1    1    0    0    0 -0.18963479178E+02 -0.37777256432E+02  0.24507234207E+02  0.48860404980E+02  0.51100000000E-03 0.  1.
         11    1    1    0    0    0 -0.52883508414E+01 -0.10540189207E+02  0.68539327821E+01  0.13639598161E+02  0.51100000000E-03 0. -1.
         22    1    1    0    0    0  0.24251830019E+02  0.48317445640E+02 -0.31361166989E+02  0.62499996859E+02  0.00000000000E+00 0.  1.
</event>
<event>
 4    1  0.1974401E-002  0.9118800E+02  0.7818608E-02  0.1130116E+00
         25   -1    0    0    0    0  0.00000000000E+00  0.00000000000E+00  0.99999998245E-14  0.12500000000E+03  0.12500000000E+03 0.  0.
        -11    1    1    0    0    0 -0.18008560673E+01  0.34739175731E+02  0.18283999647E+02  0.39298321292E+02  0.51100000000E-03 0.  1.
         11    1    1    0    0    0  0.12203531751E+01  0.21617254715E+02  0.85518245800E+01  0.23279361400E+02  0.51100000000E-03 0. -1.
         22    1    1    0    0    0  0.58050289217E+00 -0.56356430446E+02 -0.26835824227E+02  0.62422317308E+02  0.00000000000E+00 0.  1.
</event>
<event>
 4    1  0.1974401E-002  0.9118800E+02  0.7818608E-02  0.1130116E+00
         25   -1    0    0    0    0  0.00000000000E+00  0.00000000000E+00  0.99999998245E-14  0.12500000000E+03  0.12500000000E+03 0.  0.
        -11    1    1    0    0    0 -0.11810851578E+02 -0.98201607935E+01 -0.40650576697E+01  0.15888878725E+02  0.51100000000E-03 0.  1.
         11    1    1    0    0    0 -0.34650388748E+02 -0.28805738534E+02 -0.11923783614E+02  0.46611121299E+02  0.51100000000E-03 0. -1.
         22    1    1    0    0    0  0.46461240326E+02  0.38625899327E+02  0.15988841284E+02  0.62499999976E+02  0.00000000000E+00 0. -1.
</event>
<event>
 4    1  0.1974401E-002  0.9118800E+02  0.7818608E-02  0.1130116E+00
         25   -1    0    0    0    0  0.00000000000E+00  0.00000000000E+00  0.99999998245E-14  0.12500000000E+03  0.12500000000E+03 0.  0.
        -11    1    1    0    0    0  0.53298898134E+01 -0.12257760654E+02  0.92190472723E+00  0.13398146523E+02  0.51100000000E-03 0. -1.
         11    1    1    0    0    0  0.19710970209E+02 -0.44818442201E+02  0.37139619129E+01  0.49102022578E+02  0.51100000000E-03 0.  1.
         22    1    1    0    0    0 -0.25040860022E+02  0.57076202854E+02 -0.46358666401E+01  0.62499830899E+02  0.00000000000E+00 0.  1.
</event>
<event>
 4    1  0.1974401E-002  0.9118800E+02  0.7818608E-02  0.1130116E+00
         25   -1    0    0    0    0  0.00000000000E+00  0.00000000000E+00  0.99999998245E-14  0.12500000000E+03  0.12500000000E+03 0.  0.
        -11    1    1    0    0    0 -0.47795809481E-01 -0.46509458215E+01  0.46291068398E+01  0.65621804203E+01  0.51100000000E-03 0.  1.
         11    1    1    0    0    0 -0.47852532369E+00 -0.39660696516E+02  0.39444139176E+02  0.55937822180E+02  0.51100000000E-03 0. -1.
         22    1    1    0    0    0  0.52632113318E+00  0.44311642338E+02 -0.44073246016E+02  0.62499997400E+02  0.00000000000E+00 0. -1.
</event>
<event>
 4    1  0.1974401E-002  0.9118800E+02  0.7818608E-02  0.1130116E+00
         25   -1    0    0    0    0  0.00000000000E+00  0.00000000000E+00  0.99999998245E-14  0.12500000000E+03  0.12500000000E+03 0.  0.
        -11    1    1    0    0    0 -0.23868390801E+01 -0.57521023051E+00 -0.21242464155E+01  0.32465813864E+01  0.51100000000E-03 0.  1.
         11    1    1    0    0    0 -0.44199124380E+02 -0.31236642830E+01 -0.39358352401E+02  0.59265502432E+02  0.51100000000E-03 0. -1.
         22    1    1    0    0    0  0.46585963460E+02  0.36988745135E+01  0.41482598817E+02  0.62487916182E+02  0.00000000000E+00 0. -1.
</event>
<event>
 4    1  0.1974401E-002  0.9118800E+02  0.7818608E-02  0.1130116E+00
         25   -1    0    0    0    0  0.00000000000E+00  0.00000000000E+00  0.99999998245E-14  0.12500000000E+03  0.12500000000E+03 0.  0.
        -11    1    1    0    0    0 -0.68737935655E+01 -0.31292582334E+02  0.38829855211E+02  0.50341160128E+02  0.51100000000E-03 0. -1.
         11    1    1    0    0    0 -0.17406783833E+01 -0.74631475345E+01  0.94401599272E+01  0.12159159184E+02  0.51100000000E-03 0.  1.
         22    1    1    0    0    0  0.86144719488E+01  0.38755729868E+02 -0.48270015138E+02  0.62499680687E+02  0.00000000000E+00 0. -1.
</event>
<event>
 4    1  0.1974401E-002  0.9118800E+02  0.7818608E-02  0.1130116E+00
         25   -1    0    0    0    0  0.00000000000E+00  0.00000000000E+00  0.99999998245E-14  0.12500000000E+03  0.12500000000E+03 0.  0.
        -11    1    1    0    0    0 -0.15007770938E+02 -0.14223723701E+01  0.13917763136E+02  0.20517321040E+02  0.51100000000E-03 0. -1.
         11    1    1    0    0    0 -0.30409518709E+02 -0.40228076892E+01  0.28667877813E+02  0.41985343018E+02  0.51100000000E-03 0.  1.
         22    1    1    0    0    0  0.45417289647E+02  0.54451800593E+01 -0.42585640949E+02  0.62497335942E+02  0.00000000000E+00 0.  1.
</event>
<event>
 4    1  0.1974401E-002  0.9118800E+02  0.7818608E-02  0.1130116E+00
         25   -1    0    0    0    0  0.00000000000E+00  0.00000000000E+00  0.99999998245E-14  0.12500000000E+03  0.12500000000E+03 0.  0.
        -11    1    1    0    0    0 -0.24608480015E+02  0.96468634575E+01  0.35277306848E+02  0.44080921519E+02  0.51100000000E-03 0.  1.
         11    1    1    0    0    0 -0.10284501206E+02  0.40264087645E+01  0.14740404604E+02  0.18419078716E+02  0.51100000000E-03 0. -1.
         22    1    1    0    0    0  0.34892981221E+02 -0.13673272222E+02 -0.50017711452E+02  0.62499999765E+02  0.00000000000E+00 0.  1.
</event>
<event>
 4    1  0.1974401E-002  0.9118800E+02  0.7818608E-02  0.1130116E+00
         25   -1    0    0    0    0  0.00000000000E+00  0.00000000000E+00  0.99999998245E-14  0.12500000000E+03  0.12500000000E+03 0.  0.
        -11    1    1    0    0    0 -0.38364428538E+02 -0.11725323712E+02  0.21413785994E+02  0.45473759731E+02  0.51100000000E-03 0.  1.
         11    1    1    0    0    0 -0.14874755670E+02 -0.49721440457E+01  0.66911063775E+01  0.17051436229E+02  0.51100000000E-03 0. -1.
         22    1    1    0    0    0  0.53239184208E+02  0.16697467758E+02 -0.28104892371E+02  0.62474804040E+02  0.00000000000E+00 0.  1.
</event>
<event>
 4    1  0.1974401E-002  0.9118800E+02  0.7818608E-02  0.1130116E+00
         25   -1    0    0    0    0  0.00000000000E+00  0.00000000000E+00  0.99999998245E-14  0.12500000000E+03  0.12500000000E+03 0.  0.
        -11    1    1    0    0    0  0.13568431585E+00 -0.24303739188E+00  0.95067083285E+00  0.99058200114E+00  0.51100000000E-03 0.  1.
         11    1    1    0    0    0  0.79333040623E+01 -0.15296968951E+02  0.59046390177E+02  0.61509436395E+02  0.51100000000E-03 0. -1.
         22    1    1    0    0    0 -0.80689883781E+01  0.15540006343E+02 -0.59997061010E+02  0.62499981604E+02  0.00000000000E+00 0. -1.
</event>
<event>
 4    1  0.1974401E-002  0.9118800E+02  0.7818608E-02  0.1130116E+00
         25   -1    0    0    0    0  0.00000000000E+00  0.00000000000E+00  0.99999998245E-14  0.12500000000E+03  0.12500000000E+03 0.  0.
        -11    1    1    0    0    0  0.29224320075E+02 -0.20452478409E+02  0.15954215857E+02  0.39075590344E+02  0.51100000000E-03 0.  1.
         11    1    1    0    0    0  0.17397658515E+02 -0.12365102533E+02  0.96508580391E+01  0.23424631131E+02  0.51100000000E-03 0. -1.
         22    1    1    0    0    0 -0.46621978590E+02  0.32817580942E+02 -0.25605073896E+02  0.62499778525E+02  0.00000000000E+00 0.  1.
</event>
<event>
 4    1  0.1974401E-002  0.9118800E+02  0.7818608E-02  0.1130116E+00
         25   -1    0    0    0    0  0.00000000000E+00  0.00000000000E+00  0.99999998245E-14  0.12500000000E+03  0.12500000000E+03 0.  0.
        -11    1    1    0    0    0  0.17299996860E+02 -0.16450688250E+01 -0.21790906816E+02  0.27871845345E+02  0.51100000000E-03 0. -1.
         11    1    1    0    0    0  0.21307567057E+02 -0.48128342974E+01 -0.26900887360E+02  0.34653045016E+02  0.51100000000E-03 0.  1.
         22    1    1    0    0    0 -0.38607563917E+02  0.64579031224E+01  0.48691794176E+02  0.62475109639E+02  0.00000000000E+00 0.  1.
</event>
<event>
 4    1  0.1974401E-002  0.9118800E+02  0.7818608E-02  0.1130116E+00
         25   -1    0    0    0    0  0.00000000000E+00  0.00000000000E+00  0.99999998245E-14  0.12500000000E+03  0.12500000000E+03 0.  0.
        -11    1    1    0    0    0  0.17220215705E+01 -0.23413837257E+02 -0.84788916204E+01  0.24961264727E+02  0.51100000000E-03 0. -1.
         11    1    1    0    0    0  0.13781074960E+02 -0.33301435814E+02 -0.11675561820E+02  0.37884329193E+02  0.51100000000E-03 0.  1.
         22    1    1    0    0    0 -0.15503096530E+02  0.56715273072E+02  0.20154453440E+02  0.62154406080E+02  0.00000000000E+00 0.  1.
</event>
<event>
 4    1  0.1974401E-002  0.9118800E+02  0.7818608E-02  0.1130116E+00
         25   -1    0    0    0    0  0.00000000000E+00  0.00000000000E+00  0.99999998245E-14  0.12500000000E+03  0.12500000000E+03 0.  0.
        -11    1    1    0    0    0 -0.76459708424E+01 -0.11271178637E+02 -0.64567173736E+01  0.15072807883E+02  0.51100000000E-03 0. -1.
         11    1    1    0    0    0 -0.20546346046E+02 -0.37744370232E+02 -0.20116352845E+02  0.47449525520E+02  0.51100000000E-03 0.  1.
         22    1    1    0    0    0  0.28192316889E+02  0.49015548869E+02  0.26573070219E+02  0.62477666596E+02  0.00000000000E+00 0.  1.
</event>
<event>
 4    1  0.1974401E-002  0.9118800E+02  0.7818608E-02  0.1130116E+00
         25   -1    0    0    0    0  0.00000000000E+00  0.00000000000E+00  0.99999998245E-14  0.12500000000E+03  0.12500000000E+03 0.  0.
        -11    1    1    0    0    0  0.33389927420E+01  0.32057021361E-01 -0.55708808140E+01  0.64949683208E+01  0.51100000000E-03 0. -1.
         11    1    1    0    0    0  0.28316458090E+02 -0.77939977167E+00 -0.48313641417E+02  0.56005689086E+02  0.51100000000E-03 0.  1.
         22    1    1    0    0    0 -0.31655450832E+02  0.74734275031E+00  0.53884522231E+02  0.62499342593E+02  0.00000000000E+00 0.  1.
</event>
<event>
 4    1  0.1974401E-002  0.9118800E+02  0.7818608E-02  0.1130116E+00
         25   -1    0    0    0    0  0.00000000000E+00  0.00000000000E+00  0.99999998245E-14  0.12500000000E+03  0.12500000000E+03 0.  0.
        -11    1    1    0    0    0  0.47664891266E+02 -0.27075806562E+01 -0.34526767256E+02  0.58918337637E+02  0.51100000000E-03 0. -1.
         11    1    1    0    0    0  0.28970975903E+01 -0.16523766366E+00 -0.20994827194E+01  0.35816624468E+01  0.51100000000E-03 0.  1.
         22    1    1    0    0    0 -0.50561988857E+02  0.28728183198E+01  0.36626249976E+02  0.62499999916E+02  0.00000000000E+00 0. -1.
</event>
<event>
 4    1  0.1974401E-002  0.9118800E+02  0.7818608E-02  0.1130116E+00
         25   -1    0    0    0    0  0.00000000000E+00  0.00000000000E+00  0.99999998245E-14  0.12500000000E+03  0.12500000000E+03 0.  0.
        -11    1    1    0    0    0 -0.12186986112E+02 -0.36607424525E+01  0.30730142984E+01  0.13090725073E+02  0.51100000000E-03 0. -1.
         11    1    1    0    0    0 -0.45697462505E+02 -0.14369243087E+02  0.12108337411E+02  0.49409969251E+02  0.51100000000E-03 0.  1.
         22    1    1    0    0    0  0.57884448617E+02  0.18029985540E+02 -0.15181351709E+02  0.62499305676E+02  0.00000000000E+00 0. -1.
</event>
<event>
 4    1  0.1974401E-002  0.9118800E+02  0.7818608E-02  0.1130116E+00
         25   -1    0    0    0    0  0.00000000000E+00  0.00000000000E+00  0.99999998245E-14  0.12500000000E+03  0.12500000000E+03 0.  0.
        -11    1    1    0    0    0 -0.39830094223E+00 -0.28560080475E+01  0.29347782374E+01  0.41144075116E+01  0.51100000000E-03 0.  1.
         11    1    1    0    0    0 -0.55351687321E+01 -0.40888797232E+02  0.41308038796E+02  0.58385665205E+02  0.51100000000E-03 0. -1.
         22    1    1    0    0    0  0.59334696743E+01  0.43744805280E+02 -0.44242817034E+02  0.62499927283E+02  0.00000000000E+00 0. -1.
</event>
<event>
 4    1  0.1974401E-002  0.9118800E+02  0.7818608E-02  0.1130116E+00
         25   -1    0    0    0    0  0.00000000000E+00  0.00000000000E+00  0.99999998245E-14  0.12500000000E+03  0.12500000000E+03 0.  0.
        -11    1    1    0    0    0 -0.16008001933E+02 -0.38283467995E+01  0.49176024422E+01  0.17178334585E+02  0.51100000000E-03 0. -1.
         11    1    1    0    0    0 -0.42237540465E+02 -0.10212958994E+02  0.12874087164E+02  0.45321699842E+02  0.51100000000E-03 0.  1.
         22    1    1    0    0    0  0.58245542398E+02  0.14041305794E+02 -0.17791689606E+02  0.62499965573E+02  0.00000000000E+00 0.  1.
</event>
<event>
 4    1  0.1974401E-002  0.9118800E+02  0.7818608E-02  0.1130116E+00
         25   -1    0    0    0    0  0.00000000000E+00  0.00000000000E+00  0.99999998245E-14  0.12500000000E+03  0.12500000000E+03 0.  0.
        -11    1    1    0    0    0  0.11623132849E+02 -0.10243605460E+02 -0.30649829177E+01  0.15793124789E+02  0.51100000000E-03 0.  1.
         11    1    1    0    0    0  0.44102307658E+02  0.20771568824E+02 -0.12640247453E+02  0.50361170242E+02  0.51100000000E-03 0. -1.
         22    1    1    0    0    0 -0.55725440507E+02 -0.10527963363E+02  0.15705230371E+02  0.58845704969E+02  0.00000000000E+00 0. -1.
</event>
<event>
 4    1  0.1974401E-002  0.9118800E+02  0.7818608E-02  0.1130116E+00
         25   -1    0    0    0    0  0.00000000000E+00  0.00000000000E+00  0.99999998245E-14  0.12500000000E+03  0.12500000000E+03 0.  0.
        -11    1    1    0    0    0 -0.20499609104E+02 -0.16506354345E+02 -0.31882488348E+02  0.41342312111E+02  0.51100000000E-03 0. -1.
         11    1    1    0    0    0 -0.14584990036E+02 -0.18051996886E+02 -0.28690111101E+01  0.23384348417E+02  0.51100000000E-03 0.  1.
         22    1    1    0    0    0  0.35084599139E+02  0.34558351230E+02  0.34751499458E+02  0.60273339472E+02  0.00000000000E+00 0. -1.
</event>
<event>
 4    1  0.1974401E-002  0.9118800E+02  0.7818608E-02  0.1130116E+00
         25   -1    0    0    0    0  0.00000000000E+00  0.00000000000E+00  0.99999998245E-14  0.12500000000E+03  0.12500000000E+03 0.  0.
        -11    1    1    0    0    0  0.13591653513E+02 -0.83117819121E+01  0.18262266989E+01  0.16036017834E+02  0.51100000000E-03 0. -1.
         11    1    1    0    0    0  0.39378392065E+02 -0.24088563185E+02  0.52900856476E+01  0.46463982227E+02  0.51100000000E-03 0.  1.
         22    1    1    0    0    0 -0.52970045578E+02  0.32400345097E+02 -0.71163123465E+01  0.62499999939E+02  0.00000000000E+00 0.  1.
</event>
<event>
 4    1  0.1974401E-002  0.9118800E+02  0.7818608E-02  0.1130116E+00
         25   -1    0    0    0    0  0.00000000000E+00  0.00000000000E+00  0.99999998245E-14  0.12500000000E+03  0.12500000000E+03 0.  0.
        -11    1    1    0    0    0  0.47782565214E+02 -0.13036302801E+02 -0.20997476239E-01  0.49528973039E+02  0.51100000000E-03 0.  1.
         11    1    1    0    0    0  0.12532166358E+02 -0.33443757586E+01 -0.12233149265E+00  0.12971314818E+02  0.51100000000E-03 0. -1.
         22    1    1    0    0    0 -0.60314731572E+02  0.16380678560E+02  0.14332896889E+00  0.62499712143E+02  0.00000000000E+00 0. -1.
</event>
<event>
 4    1  0.1974401E-002  0.9118800E+02  0.7818608E-02  0.1130116E+00
         25   -1    0    0    0    0  0.00000000000E+00  0.00000000000E+00  0.99999998245E-14  0.12500000000E+03  0.12500000000E+03 0.  0.
        -11    1    1    0    0    0  0.34415657043E+02  0.20789170202E+02  0.47424378572E+02  0.62174743510E+02  0.51100000000E-03 0.  1.
         11    1    1    0    0    0  0.48968793327E-01  0.15127792406E+00  0.30260433723E+00  0.34183709433E+00  0.51100000000E-03 0. -1.
         22    1    1    0    0    0 -0.34464625836E+02 -0.20940448126E+02 -0.47726982909E+02  0.62483419395E+02  0.00000000000E+00 0.  1.
</event>
<event>
 4    1  0.1974401E-002  0.9118800E+02  0.7818608E-02  0.1130116E+00
         25   -1    0    0    0    0  0.00000000000E+00  0.00000000000E+00  0.99999998245E-14  0.12500000000E+03  0.12500000000E+03 0.  0.
        -11    1    1    0    0    0 -0.20725966206E+02  0.27558322589E+02  0.16346470500E+02  0.38160633081E+02  0.51100000000E-03 0.  1.
         11    1    1    0    0    0 -0.14424936514E+02  0.17100250315E+02  0.96237830337E+01  0.24353943303E+02  0.51100000000E-03 0. -1.
         22    1    1    0    0    0  0.35150902720E+02 -0.44658572904E+02 -0.25970253533E+02  0.62485423616E+02  0.00000000000E+00 0.  1.
</event>
<event>
 4    1  0.1974401E-002  0.9118800E+02  0.7818608E-02  0.1130116E+00
         25   -1    0    0    0    0  0.00000000000E+00  0.00000000000E+00  0.99999998245E-14  0.12500000000E+03  0.12500000000E+03 0.  0.
        -11    1    1    0    0    0  0.17250466865E+02  0.13474898689E+01  0.29580926124E+02  0.34269892423E+02  0.51100000000E-03 0. -1.
         11    1    1    0    0    0  0.31005184116E+00 -0.41573100483E+02 -0.10561068051E+02  0.42894696346E+02  0.51100000000E-03 0.  1.
         22    1    1    0    0    0 -0.17560518707E+02  0.40225610615E+02 -0.19019858074E+02  0.47835411232E+02  0.00000000000E+00 0.  1.
</event>
<event>
 4    1  0.1974401E-002  0.9118800E+02  0.7818608E-02  0.1130116E+00
         25   -1    0    0    0    0  0.00000000000E+00  0.00000000000E+00  0.99999998245E-14  0.12500000000E+03  0.12500000000E+03 0.  0.
        -11    1    1    0    0    0  0.10942117195E+02  0.46840743905E+02 -0.32670234869E+02  0.58147480297E+02  0.51100000000E-03 0. -1.
         11    1    1    0    0    0  0.56547101742E+01 -0.10666329445E+01 -0.30047648721E+01  0.64916920129E+01  0.51100000000E-03 0.  1.
         22    1    1    0    0    0 -0.16596827369E+02 -0.45774110960E+02  0.35674999741E+02  0.60360827690E+02  0.00000000000E+00 0. -1.
</event>
<event>
 4    1  0.1974401E-002  0.9118800E+02  0.7818608E-02  0.1130116E+00
         25   -1    0    0    0    0  0.00000000000E+00  0.00000000000E+00  0.99999998245E-14  0.12500000000E+03  0.12500000000E+03 0.  0.
        -11    1    1    0    0    0  0.50416833462E+01  0.72438153817E+01 -0.10354192427E+02  0.13605173035E+02  0.51100000000E-03 0. -1.
         11    1    1    0    0    0  0.24023813265E+02  0.21049587701E+02 -0.37107661563E+02  0.48961283614E+02  0.51100000000E-03 0.  1.
         22    1    1    0    0    0 -0.29065496611E+02 -0.28293403082E+02  0.47461853990E+02  0.62433543351E+02  0.00000000000E+00 0.  1.
</event>
<event>
 4    1  0.1974401E-002  0.9118800E+02  0.7818608E-02  0.1130116E+00
         25   -1    0    0    0    0  0.00000000000E+00  0.00000000000E+00  0.99999998245E-14  0.12500000000E+03  0.12500000000E+03 0.  0.
        -11    1    1    0    0    0  0.32203936136E+02 -0.51329551332E+02  0.95998880301E+01  0.61351236279E+02  0.51100000000E-03 0.  1.
         11    1    1    0    0    0 -0.16515205411E+01 -0.12756146108E+01 -0.32920967639E+00  0.21126031347E+01  0.51100000000E-03 0. -1.
         22    1    1    0    0    0 -0.30552415595E+02  0.52605165942E+02 -0.92706783537E+01  0.61536160586E+02  0.00000000000E+00 0.  1.
</event>
<event>
 4    1  0.1974401E-002  0.9118800E+02  0.7818608E-02  0.1130116E+00
         25   -1    0    0    0    0  0.00000000000E+00  0.00000000000E+00  0.99999998245E-14  0.12500000000E+03  0.12500000000E+03 0.  0.
        -11    1    1    0    0    0 -0.63376515335E+01 -0.18930975362E+01  0.58139159389E+01  0.88063195517E+01  0.51100000000E-03 0.  1.
         11    1    1    0    0    0 -0.38647222040E+02 -0.11550903074E+02  0.35439810945E+02  0.53693680571E+02  0.51100000000E-03 0. -1.
         22    1    1    0    0    0  0.44984873573E+02  0.13444000610E+02 -0.41253726884E+02  0.62499999877E+02  0.00000000000E+00 0. -1.
</event>
<event>
 4    1  0.1974401E-002  0.9118800E+02  0.7818608E-02  0.1130116E+00
         25   -1    0    0    0    0  0.00000000000E+00  0.00000000000E+00  0.99999998245E-14  0.12500000000E+03  0.12500000000E+03 0.  0.
        -11    1    1    0    0    0  0.52895232655E+00  0.13378836633E+01 -0.10906780075E+01  0.18053537153E+01  0.51100000000E-03 0.  1.
         11    1    1    0    0    0  0.17348239424E+02  0.45000764818E+02 -0.36848514965E+02  0.60694672754E+02  0.51100000000E-03 0. -1.
         22    1    1    0    0    0 -0.17877191750E+02 -0.46338648481E+02  0.37939192972E+02  0.62499973531E+02  0.00000000000E+00 0. -1.
</event>
<event>
 4    1  0.1974401E-002  0.9118800E+02  0.7818608E-02  0.1130116E+00
         25   -1    0    0    0    0  0.00000000000E+00  0.00000000000E+00  0.99999998245E-14  0.12500000000E+03  0.12500000000E+03 0.  0.
        -11    1    1    0    0    0 -0.89862113742E+01 -0.57933109577E+01  0.27649177932E+02  0.29644417473E+02  0.51100000000E-03 0.  1.
         11    1    1    0    0    0  0.19520225624E+02  0.11311397595E+02  0.29412117535E+02  0.37068309674E+02  0.51100000000E-03 0. -1.
         22    1    1    0    0    0 -0.10534014250E+02 -0.55180866372E+01 -0.57061295467E+02  0.58287272853E+02  0.00000000000E+00 0. -1.
</event>
<event>
 4    1  0.1974401E-002  0.9118800E+02  0.7818608E-02  0.1130116E+00
         25   -1    0    0    0    0  0.00000000000E+00  0.00000000000E+00  0.99999998245E-14  0.12500000000E+03  0.12500000000E+03 0.  0.
        -11    1    1    0    0    0 -0.82596091566E+01 -0.50261173974E+01 -0.19213080816E+01  0.98577088878E+01  0.51100000000E-03 0.  1.
         11    1    1    0    0    0 -0.32221000296E+02 -0.35661151887E+02 -0.22130479179E+02  0.52911895855E+02  0.51100000000E-03 0. -1.
         22    1    1    0    0    0  0.40480609452E+02  0.40687269285E+02  0.24051787261E+02  0.62230395257E+02  0.00000000000E+00 0. -1.
</event>
<event>
 4    1  0.1974401E-002  0.9118800E+02  0.7818608E-02  0.1130116E+00
         25   -1    0    0    0    0  0.00000000000E+00  0.00000000000E+00  0.99999998245E-14  0.12500000000E+03  0.12500000000E+03 0.  0.
        -11    1    1    0    0    0 -0.52766972813E+02  0.17592339018E+02 -0.22264314941E+02  0.59912799400E+02  0.51100000000E-03 0. -1.
         11    1    1    0    0    0 -0.22643745058E+01  0.75934897724E+00 -0.99511053970E+00  0.25873244905E+01  0.51100000000E-03 0.  1.
         22    1    1    0    0    0  0.55031347318E+02 -0.18351687995E+02  0.23259425481E+02  0.62499876109E+02  0.00000000000E+00 0. -1.
</event>
<event>
 4    1  0.1974401E-002  0.9118800E+02  0.7818608E-02  0.1130116E+00
         25   -1    0    0    0    0  0.00000000000E+00  0.00000000000E+00  0.99999998245E-14  0.12500000000E+03  0.12500000000E+03 0.  0.
        -11    1    1    0    0    0  0.56085445090E+01  0.88696704498E+01 -0.59641685624E+01  0.12070548136E+02  0.51100000000E-03 0. -1.
         11    1    1    0    0    0  0.23432342595E+02  0.37064635405E+02 -0.24905175365E+02  0.50429452083E+02  0.51100000000E-03 0.  1.
         22    1    1    0    0    0 -0.29040887104E+02 -0.45934305854E+02  0.30869343927E+02  0.62499999781E+02  0.00000000000E+00 0.  1.
</event>
<event>
 4    1  0.1974401E-002  0.9118800E+02  0.7818608E-02  0.1130116E+00
         25   -1    0    0    0    0  0.00000000000E+00  0.00000000000E+00  0.99999998245E-14  0.12500000000E+03  0.12500000000E+03 0.  0.
        -11    1    1    0    0    0 -0.15291455166E+02 -0.22682570114E+02  0.12035391013E+02  0.29886087485E+02  0.51100000000E-03 0.  1.
         11    1    1    0    0    0 -0.16714421473E+02 -0.24712945291E+02  0.13174471223E+02  0.32613927123E+02  0.51100000000E-03 0. -1.
         22    1    1    0    0    0  0.32005876640E+02  0.47395515405E+02 -0.25209862236E+02  0.62499985391E+02  0.00000000000E+00 0.  1.
</event>
<event>
 4    1  0.1974401E-002  0.9118800E+02  0.7818608E-02  0.1130116E+00
         25   -1    0    0    0    0  0.00000000000E+00  0.00000000000E+00  0.99999998245E-14  0.12500000000E+03  0.12500000000E+03 0.  0.
        -11    1    1    0    0    0 -0.31402135645E+02  0.56739646581E+01  0.24151979809E+02  0.40020071551E+02  0.51100000000E-03 0.  1.
         11    1    1    0    0    0 -0.17655227138E+02  0.32348284465E+01  0.13534295948E+02  0.22479953902E+02  0.51100000000E-03 0. -1.
         22    1    1    0    0    0  0.49057362783E+02 -0.89087931046E+01 -0.37686275758E+02  0.62499974546E+02  0.00000000000E+00 0.  1.
</event>
<event>
 4    1  0.1974401E-002  0.9118800E+02  0.7818608E-02  0.1130116E+00
         25   -1    0    0    0    0  0.00000000000E+00  0.00000000000E+00  0.99999998245E-14  0.12500000000E+03  0.12500000000E+03 0.  0.
        -11    1    1    0    0    0 -0.63264219637E+01 -0.59295832694E+01  0.18968929135E+02  0.20856745801E+02  0.51100000000E-03 0. -1.
         11    1    1    0    0    0 -0.12643747256E+02 -0.11879884122E+02  0.37857165468E+02  0.41643258385E+02  0.51100000000E-03 0.  1.
         22    1    1    0    0    0  0.18970169219E+02  0.17809467391E+02 -0.56826094603E+02  0.62499995814E+02  0.00000000000E+00 0.  1.
</event>
<event>
 4    1  0.1974401E-002  0.9118800E+02  0.7818608E-02  0.1130116E+00
         25   -1    0    0    0    0  0.00000000000E+00  0.00000000000E+00  0.99999998245E-14  0.12500000000E+03  0.12500000000E+03 0.  0.
        -11    1    1    0    0    0 -0.19746844963E+01 -0.31843329657E+01 -0.12211002558E+01  0.39408681013E+01  0.51100000000E-03 0. -1.
         11    1    1    0    0    0 -0.29121250924E+02 -0.46664062951E+02 -0.20092897960E+02  0.58560281549E+02  0.51100000000E-03 0.  1.
         22    1    1    0    0    0  0.31095935420E+02  0.49848395917E+02  0.21313998215E+02  0.62498850350E+02  0.00000000000E+00 0.  1.
</event>
<event>
 4    1  0.1974401E-002  0.9118800E+02  0.7818608E-02  0.1130116E+00
         25   -1    0    0    0    0  0.00000000000E+00  0.00000000000E+00  0.99999998245E-14  0.12500000000E+03  0.12500000000E+03 0.  0.
        -11    1    1    0    0    0 -0.59285714394E+01  0.81127338871E+01 -0.57414546062E+01  0.11572757307E+02  0.51100000000E-03 0.  1.
         11    1    1    0    0    0 -0.26090105313E+02  0.35706781973E+02 -0.25257002695E+02  0.50927242803E+02  0.51100000000E-03 0. -1.
         22    1    1    0    0    0  0.32018676752E+02 -0.43819515860E+02  0.30998457301E+02  0.62499999890E+02  0.00000000000E+00 0. -1.
</event>
<event>
 4    1  0.1974401E-002  0.9118800E+02  0.7818608E-02  0.1130116E+00
         25   -1    0    0    0    0  0.00000000000E+00  0.00000000000E+00  0.99999998245E-14  0.12500000000E+03  0.12500000000E+03 0.  0.
        -11    1    1    0    0    0  0.14089591602E+02 -0.41437053669E+00 -0.32940730688E+02  0.35829876262E+02  0.51100000000E-03 0. -1.
         11    1    1    0    0    0  0.10376274179E+02 -0.31255137159E+00 -0.24566948317E+02  0.26670202550E+02  0.51100000000E-03 0.  1.
         22    1    1    0    0    0 -0.24465865782E+02  0.72692190828E+00  0.57507679005E+02  0.62499921187E+02  0.00000000000E+00 0. -1.
</event>
<event>
 4    1  0.1974401E-002  0.9118800E+02  0.7818608E-02  0.1130116E+00
         25   -1    0    0    0    0  0.00000000000E+00  0.00000000000E+00  0.99999998245E-14  0.12500000000E+03  0.12500000000E+03 0.  0.
        -11    1    1    0    0    0  0.47635046196E+02  0.21773931419E+02  0.16290705543E+02  0.54850604399E+02  0.51100000000E-03 0. -1.
         11    1    1    0    0    0  0.66510689182E+01  0.30160414316E+01  0.22760161061E+01  0.76494099934E+01  0.51100000000E-03 0.  1.
         22    1    1    0    0    0 -0.54286115115E+02 -0.24789972851E+02 -0.18566721649E+02  0.62499985608E+02  0.00000000000E+00 0. -1.
</event>
<event>
 4    1  0.1974401E-002  0.9118800E+02  0.7818608E-02  0.1130116E+00
         25   -1    0    0    0    0  0.00000000000E+00  0.00000000000E+00  0.99999998245E-14  0.12500000000E+03  0.12500000000E+03 0.  0.
        -11    1    1    0    0    0 -0.16769301547E+02  0.26129260815E+01 -0.12195086586E+02  0.20898731880E+02  0.51100000000E-03 0.  1.
         11    1    1    0    0    0 -0.33375527544E+02  0.52118699711E+01 -0.24281188416E+02  0.41601268473E+02  0.51100000000E-03 0. -1.
         22    1    1    0    0    0  0.50144829091E+02 -0.78247960526E+01  0.36476275002E+02  0.62499999647E+02  0.00000000000E+00 0. -1.
</event>
<event>
 4    1  0.1974401E-002  0.9118800E+02  0.7818608E-02  0.1130116E+00
         25   -1    0    0    0    0  0.00000000000E+00  0.00000000000E+00  0.99999998245E-14  0.12500000000E+03  0.12500000000E+03 0.  0.
        -11    1    1    0    0    0 -0.33213439389E+02  0.51624579723E+02  0.40129150057E+01  0.61516934862E+02  0.51100000000E-03 0.  1.
         11    1    1    0    0    0  0.16399299409E+01  0.28622724133E+00 -0.21192061586E+01  0.26948712861E+01  0.51100000000E-03 0. -1.
         22    1    1    0    0    0  0.31573509448E+02 -0.51910806965E+02 -0.18937088472E+01  0.60788193852E+02  0.00000000000E+00 0.  1.
</event>
<event>
 4    1  0.1974401E-002  0.9118800E+02  0.7818608E-02  0.1130116E+00
         25   -1    0    0    0    0  0.00000000000E+00  0.00000000000E+00  0.99999998245E-14  0.12500000000E+03  0.12500000000E+03 0.  0.
        -11    1    1    0    0    0  0.41868073625E+02 -0.53978617360E+01 -0.38447159086E+02  0.57098656223E+02  0.51100000000E-03 0.  1.
         11    1    1    0    0    0  0.48998037671E+01 -0.28807199442E+01 -0.14575995195E+01  0.58678122817E+01  0.51100000000E-03 0. -1.
         22    1    1    0    0    0 -0.46767877392E+02  0.82785816802E+01  0.39904758605E+02  0.62033531495E+02  0.00000000000E+00 0.  1.
</event>
<event>
 4    1  0.1974401E-002  0.9118800E+02  0.7818608E-02  0.1130116E+00
         25   -1    0    0    0    0  0.00000000000E+00  0.00000000000E+00  0.99999998245E-14  0.12500000000E+03  0.12500000000E+03 0.  0.
        -11    1    1    0    0    0  0.20988897613E+01  0.75180944537E+01  0.53032575704E-01  0.78057603832E+01  0.51100000000E-03 0.  1.
         11    1    1    0    0    0  0.13866275064E+02  0.52696782629E+02 -0.49005579542E+01  0.54710510436E+02  0.51100000000E-03 0. -1.
         22    1    1    0    0    0 -0.15965164825E+02 -0.60214877083E+02  0.48475253785E+01  0.62483729181E+02  0.00000000000E+00 0. -1.
</event>
<event>
 4    1  0.1974401E-002  0.9118800E+02  0.7818608E-02  0.1130116E+00
         25   -1    0    0    0    0  0.00000000000E+00  0.00000000000E+00  0.99999998245E-14  0.12500000000E+03  0.12500000000E+03 0.  0.
        -11    1    1    0    0    0 -0.19289420310E+02  0.51633474721E+02 -0.14517239299E+01  0.55138053559E+02  0.51100000000E-03 0.  1.
         11    1    1    0    0    0 -0.25756696855E+01  0.68939903923E+01 -0.19255691096E+00  0.73619465010E+01  0.51100000000E-03 0. -1.
         22    1    1    0    0    0  0.21865089995E+02 -0.58527465113E+02  0.16442808408E+01  0.62499999940E+02  0.00000000000E+00 0.  1.
</event>
<event>
 4    1  0.1974401E-002  0.9118800E+02  0.7818608E-02  0.1130116E+00
         25   -1    0    0    0    0  0.00000000000E+00  0.00000000000E+00  0.99999998245E-14  0.12500000000E+03  0.12500000000E+03 0.  0.
        -11    1    1    0    0    0  0.19619211603E+02 -0.12264310830E+02 -0.24405551799E+01  0.23265491483E+02  0.51100000000E-03 0. -1.
         11    1    1    0    0    0  0.12801661931E+02  0.35680987949E+02  0.33896783807E+02  0.50852801319E+02  0.51100000000E-03 0.  1.
         22    1    1    0    0    0 -0.32420873534E+02 -0.23416677119E+02 -0.31456228627E+02  0.50881707199E+02  0.00000000000E+00 0.  1.
</event>
<event>
 4    1  0.1974401E-002  0.9118800E+02  0.7818608E-02  0.1130116E+00
         25   -1    0    0    0    0  0.00000000000E+00  0.00000000000E+00  0.99999998245E-14  0.12500000000E+03  0.12500000000E+03 0.  0.
        -11    1    1    0    0    0 -0.20115065181E+02  0.51580097252E+02 -0.25125112876E+02  0.60797973462E+02  0.51100000000E-03 0. -1.
         11    1    1    0    0    0 -0.98342220264E+00  0.10722803282E+01 -0.98681097629E+00  0.17580388207E+01  0.51100000000E-03 0.  1.
         22    1    1    0    0    0  0.21098487384E+02 -0.52652377581E+02  0.26111923852E+02  0.62443987717E+02  0.00000000000E+00 0. -1.
</event>
<event>
 4    1  0.1974401E-002  0.9118800E+02  0.7818608E-02  0.1130116E+00
         25   -1    0    0    0    0  0.00000000000E+00  0.00000000000E+00  0.99999998245E-14  0.12500000000E+03  0.12500000000E+03 0.  0.
        -11    1    1    0    0    0 -0.93148236100E+01  0.80172973979E+01 -0.38128883107E+02  0.40060638084E+02  0.51100000000E-03 0.  1.
         11    1    1    0    0    0 -0.39661633082E+01  0.50689605118E+01 -0.21510854245E+02  0.22453099177E+02  0.51100000000E-03 0. -1.
         22    1    1    0    0    0  0.13280986918E+02 -0.13086257910E+02  0.59639737352E+02  0.62486262739E+02  0.00000000000E+00 0.  1.
</event>
<event>
 4    1  0.1974401E-002  0.9118800E+02  0.7818608E-02  0.1130116E+00
         25   -1    0    0    0    0  0.00000000000E+00  0.00000000000E+00  0.99999998245E-14  0.12500000000E+03  0.12500000000E+03 0.  0.
        -11    1    1    0    0    0  0.28989531766E+02 -0.58150864283E+01 -0.83944722730E+01  0.30735571366E+02  0.51100000000E-03 0. -1.
         11    1    1    0    0    0  0.29958162958E+02 -0.60588565917E+01 -0.86474529393E+01  0.31764441025E+02  0.51100000000E-03 0.  1.
         22    1    1    0    0    0 -0.58947694725E+02  0.11873943020E+02  0.17041925212E+02  0.62499987609E+02  0.00000000000E+00 0. -1.
</event>
<event>
 4    1  0.1974401E-002  0.9118800E+02  0.7818608E-02  0.1130116E+00
         25   -1    0    0    0    0  0.00000000000E+00  0.00000000000E+00  0.99999998245E-14  0.12500000000E+03  0.12500000000E+03 0.  0.
        -11    1    1    0    0    0  0.23872221099E+02  0.21907104117E+02 -0.26329895343E+01  0.32507488139E+02  0.51100000000E-03 0.  1.
         11    1    1    0    0    0  0.22642257351E+02  0.19577692603E+02 -0.19629481075E+01  0.29996850354E+02  0.51100000000E-03 0. -1.
         22    1    1    0    0    0 -0.46514478450E+02 -0.41484796720E+02  0.45959376418E+01  0.62495661507E+02  0.00000000000E+00 0.  1.
</event>
<event>
 4    1  0.1974401E-002  0.9118800E+02  0.7818608E-02  0.1130116E+00
         25   -1    0    0    0    0  0.00000000000E+00  0.00000000000E+00  0.99999998245E-14  0.12500000000E+03  0.12500000000E+03 0.  0.
        -11    1    1    0    0    0  0.53589715158E+02  0.12356631841E+02 -0.22887497878E+02  0.59568292577E+02  0.51100000000E-03 0.  1.
         11    1    1    0    0    0  0.26375145988E+01  0.60650425528E+00 -0.11271997092E+01  0.29317077133E+01  0.51100000000E-03 0. -1.
         22    1    1    0    0    0 -0.56227229757E+02 -0.12963136096E+02  0.24014697587E+02  0.62499999710E+02  0.00000000000E+00 0.  1.
</event>
<event>
 4    1  0.1974401E-002  0.9118800E+02  0.7818608E-02  0.1130116E+00
         25   -1    0    0    0    0  0.00000000000E+00  0.00000000000E+00  0.99999998245E-14  0.12500000000E+03  0.12500000000E+03 0.  0.
        -11    1    1    0    0    0 -0.22006560124E+02 -0.17516973011E+02 -0.34657071393E+02  0.44634578857E+02  0.51100000000E-03 0.  1.
         11    1    1    0    0    0 -0.86240723370E+01 -0.42344292860E+01 -0.15173822956E+02  0.17959674786E+02  0.51100000000E-03 0. -1.
         22    1    1    0    0    0  0.30630632461E+02  0.21751402297E+02  0.49830894348E+02  0.62405746357E+02  0.00000000000E+00 0.  1.
</event>
<event>
 4    1  0.1974401E-002  0.9118800E+02  0.7818608E-02  0.1130116E+00
         25   -1    0    0    0    0  0.00000000000E+00  0.00000000000E+00  0.99999998245E-14  0.12500000000E+03  0.12500000000E+03 0.  0.
        -11    1    1    0    0    0  0.13463739122E+02 -0.22302734548E+02 -0.14996869340E+02  0.30059779270E+02  0.51100000000E-03 0. -1.
         11    1    1    0    0    0  0.14935414049E+02 -0.24114297548E+02 -0.15744477534E+02  0.32441555328E+02  0.51100000000E-03 0.  1.
         22    1    1    0    0    0 -0.28399153171E+02  0.46417032096E+02  0.30741346874E+02  0.62498665402E+02  0.00000000000E+00 0.  1.
</event>
<event>
 4    1  0.1974401E-002  0.9118800E+02  0.7818608E-02  0.1130116E+00
         25   -1    0    0    0    0  0.00000000000E+00  0.00000000000E+00  0.99999998245E-14  0.12500000000E+03  0.12500000000E+03 0.  0.
        -11    1    1    0    0    0  0.17115703166E+02 -0.51814175078E+02  0.27019643994E+02  0.60891027219E+02  0.51100000000E-03 0.  1.
         11    1    1    0    0    0  0.71309009411E+00 -0.12559742344E+01  0.73656492361E+00  0.16212639846E+01  0.51100000000E-03 0. -1.
         22    1    1    0    0    0 -0.17828793260E+02  0.53070149313E+02 -0.27756208917E+02  0.62487708797E+02  0.00000000000E+00 0.  1.
</event>
<event>
 4    1  0.1974401E-002  0.9118800E+02  0.7818608E-02  0.1130116E+00
         25   -1    0    0    0    0  0.00000000000E+00  0.00000000000E+00  0.99999998245E-14  0.12500000000E+03  0.12500000000E+03 0.  0.
        -11    1    1    0    0    0  0.36111431648E+00 -0.66228102916E-01  0.14541848146E+00  0.39488796773E+00  0.51100000000E-03 0.  1.
         11    1    1    0    0    0  0.55525047239E+02 -0.83260295397E+01  0.26547182712E+02  0.62105608032E+02  0.51100000000E-03 0. -1.
         22    1    1    0    0    0 -0.55886161556E+02  0.83922576426E+01 -0.26692601194E+02  0.62499504000E+02  0.00000000000E+00 0. -1.
</event>
<event>
 4    1  0.1974401E-002  0.9118800E+02  0.7818608E-02  0.1130116E+00
         25   -1    0    0    0    0  0.00000000000E+00  0.00000000000E+00  0.99999998245E-14  0.12500000000E+03  0.12500000000E+03 0.  0.
        -11    1    1    0    0    0 -0.25265922099E+02  0.37614149803E+02  0.39193774938E+02  0.59911126505E+02  0.51100000000E-03 0. -1.
         11    1    1    0    0    0 -0.14873334372E+01  0.16477889957E+01  0.13777657972E+01  0.26125864926E+01  0.51100000000E-03 0.  1.
         22    1    1    0    0    0  0.26753255536E+02 -0.39261938799E+02 -0.40571540735E+02  0.62476287003E+02  0.00000000000E+00 0. -1.
</event>
<event>
 4    1  0.1974401E-002  0.9118800E+02  0.7818608E-02  0.1130116E+00
         25   -1    0    0    0    0  0.00000000000E+00  0.00000000000E+00  0.99999998245E-14  0.12500000000E+03  0.12500000000E+03 0.  0.
        -11    1    1    0    0    0 -0.50940773398E+02  0.18487761779E+02 -0.15943287178E+00  0.54192113347E+02  0.51100000000E-03 0. -1.
         11    1    1    0    0    0 -0.75714361062E+01  0.34345214186E+01 -0.35646950801E+00  0.83216376307E+01  0.51100000000E-03 0.  1.
         22    1    1    0    0    0  0.58512209504E+02 -0.21922283197E+02  0.51590237979E+00  0.62486249022E+02  0.00000000000E+00 0.  1.
</event>
<event>
 4    1  0.1974401E-002  0.9118800E+02  0.7818608E-02  0.1130116E+00
         25   -1    0    0    0    0  0.00000000000E+00  0.00000000000E+00  0.99999998245E-14  0.12500000000E+03  0.12500000000E+03 0.  0.
        -11    1    1    0    0    0  0.47996964468E+02  0.22007821046E+02 -0.21855822000E+01  0.52847228453E+02  0.51100000000E-03 0. -1.
         11    1    1    0    0    0  0.87250582780E+01  0.36677359400E+01  0.28576737019E+01  0.98866186397E+01  0.51100000000E-03 0.  1.
         22    1    1    0    0    0 -0.56722022746E+02 -0.25675556986E+02 -0.67209150195E+00  0.62266152908E+02  0.00000000000E+00 0. -1.
</event>
<event>
 4    1  0.1974401E-002  0.9118800E+02  0.7818608E-02  0.1130116E+00
         25   -1    0    0    0    0  0.00000000000E+00  0.00000000000E+00  0.99999998245E-14  0.12500000000E+03  0.12500000000E+03 0.  0.
        -11    1    1    0    0    0 -0.13673780561E+02 -0.71926707631E+01 -0.19846262381E+02  0.25151161371E+02  0.51100000000E-03 0. -1.
         11    1    1    0    0    0 -0.20304886006E+02 -0.10681078426E+02 -0.29471374501E+02  0.37348838634E+02  0.51100000000E-03 0. -1.
         22    1    1    0    0    0  0.33978666567E+02  0.17873749189E+02  0.49317636882E+02  0.62499999995E+02  0.00000000000E+00 0. -1.
</event>
<event>
 4    1  0.1974401E-002  0.9118800E+02  0.7818608E-02  0.1130116E+00
         25   -1    0    0    0    0  0.00000000000E+00  0.00000000000E+00  0.99999998245E-14  0.12500000000E+03  0.12500000000E+03 0.  0.
        -11    1    1    0    0    0  0.32656292148E+02 -0.55672045604E+01  0.22027428414E+02  0.39782342645E+02  0.51100000000E-03 0. -1.
         11    1    1    0    0    0  0.22471270879E+02  0.25890971148E+00  0.58398912643E+01  0.23219159748E+02  0.51100000000E-03 0.  1.
         22    1    1    0    0    0 -0.55127563027E+02  0.53082948489E+01 -0.27867319678E+02  0.61998497608E+02  0.00000000000E+00 0. -1.
</event>
<event>
 4    1  0.1974401E-002  0.9118800E+02  0.7818608E-02  0.1130116E+00
         25   -1    0    0    0    0  0.00000000000E+00  0.00000000000E+00  0.99999998245E-14  0.12500000000E+03  0.12500000000E+03 0.  0.
        -11    1    1    0    0    0 -0.65678779463E+01 -0.73609499677E+01  0.72192443778E+01  0.12224487506E+02  0.51100000000E-03 0. -1.
         11    1    1    0    0    0 -0.27053295354E+02 -0.30262430332E+02  0.29663646600E+02  0.50275515005E+02  0.51100000000E-03 0.  1.
         22    1    1    0    0    0  0.33621173300E+02  0.37623380299E+02 -0.36882890978E+02  0.62499997489E+02  0.00000000000E+00 0.  1.
</event>
<event>
 4    1  0.1974401E-002  0.9118800E+02  0.7818608E-02  0.1130116E+00
         25   -1    0    0    0    0  0.00000000000E+00  0.00000000000E+00  0.99999998245E-14  0.12500000000E+03  0.12500000000E+03 0.  0.
        -11    1    1    0    0    0 -0.72927606526E+01 -0.47551016337E+00  0.53064742982E+02  0.53565636521E+02  0.51100000000E-03 0.  1.
         11    1    1    0    0    0 -0.12255345761E+01 -0.77736773302E-01  0.88495711937E+01  0.89343655946E+01  0.51100000000E-03 0. -1.
         22    1    1    0    0    0  0.85182952288E+01  0.55324693667E+00 -0.61914314176E+02  0.62499997885E+02  0.00000000000E+00 0.  1.
</event>
<event>
 4    1  0.1974401E-002  0.9118800E+02  0.7818608E-02  0.1130116E+00
         25   -1    0    0    0    0  0.00000000000E+00  0.00000000000E+00  0.99999998245E-14  0.12500000000E+03  0.12500000000E+03 0.  0.
        -11    1    1    0    0    0 -0.13576011327E+02 -0.21163357918E+02  0.24867005122E+02  0.35363310731E+02  0.51100000000E-03 0.  1.
         11    1    1    0    0    0 -0.10352730947E+02 -0.16353973081E+02  0.19020367445E+02  0.27136798846E+02  0.51100000000E-03 0. -1.
         22    1    1    0    0    0  0.23928742274E+02  0.37517330999E+02 -0.43887372567E+02  0.62499890423E+02  0.00000000000E+00 0. -1.
</event>
<event>
 4    1  0.1974401E-002  0.9118800E+02  0.7818608E-02  0.1130116E+00
         25   -1    0    0    0    0  0.00000000000E+00  0.00000000000E+00  0.99999998245E-14  0.12500000000E+03  0.12500000000E+03 0.  0.
        -11    1    1    0    0    0 -0.50698097818E+02  0.34244406702E+02  0.69459136113E+01  0.61572901742E+02  0.51100000000E-03 0.  1.
         11    1    1    0    0    0 -0.76085923382E+00  0.51924529740E+00  0.10487232632E+00  0.92710351014E+00  0.51100000000E-03 0. -1.
         22    1    1    0    0    0  0.51458957052E+02 -0.34763651999E+02 -0.70507859376E+01  0.62499994748E+02  0.00000000000E+00 0.  1.
</event>
<event>
 4    1  0.1974401E-002  0.9118800E+02  0.7818608E-02  0.1130116E+00
         25   -1    0    0    0    0  0.00000000000E+00  0.00000000000E+00  0.99999998245E-14  0.12500000000E+03  0.12500000000E+03 0.  0.
        -11    1    1    0    0    0 -0.48451986821E+01 -0.34394942574E+01  0.73074538685E+00  0.59866568381E+01  0.51100000000E-03 0.  1.
         11    1    1    0    0    0 -0.40763432182E+02 -0.38524966369E+02  0.71325196808E+01  0.56539395772E+02  0.51100000000E-03 0. -1.
         22    1    1    0    0    0  0.45608630864E+02  0.41964460626E+02 -0.78632650676E+01  0.62473947390E+02  0.00000000000E+00 0. -1.
</event>
<event>
 4    1  0.1974401E-002  0.9118800E+02  0.7818608E-02  0.1130116E+00
         25   -1    0    0    0    0  0.00000000000E+00  0.00000000000E+00  0.99999998245E-14  0.12500000000E+03  0.12500000000E+03 0.  0.
        -11    1    1    0    0    0  0.20376832973E+02  0.10511585595E+02  0.32835081596E+02  0.40048112782E+02  0.51100000000E-03 0.  1.
         11    1    1    0    0    0  0.38408881709E+01 -0.88994008066E+01  0.22515701382E+02  0.24513436431E+02  0.51100000000E-03 0. -1.
         22    1    1    0    0    0 -0.24217721144E+02 -0.16121847884E+01 -0.55350782979E+02  0.60438450787E+02  0.00000000000E+00 0.  1.
</event>
<event>
 4    1  0.1974401E-002  0.9118800E+02  0.7818608E-02  0.1130116E+00
         25   -1    0    0    0    0  0.00000000000E+00  0.00000000000E+00  0.99999998245E-14  0.12500000000E+03  0.12500000000E+03 0.  0.
        -11    1    1    0    0    0 -0.44373489005E+02 -0.27257337577E+02  0.21262690151E+01  0.52119957774E+02  0.51100000000E-03 0.  1.
         11    1    1    0    0    0 -0.87832332272E+01 -0.55049291393E+01  0.55368946378E+00  0.10380558898E+02  0.51100000000E-03 0. -1.
         22    1    1    0    0    0  0.53156722232E+02  0.32762266716E+02 -0.26799584789E+01  0.62499483328E+02  0.00000000000E+00 0.  1.
</event>
<event>
 4    1  0.1974401E-002  0.9118800E+02  0.7818608E-02  0.1130116E+00
         25   -1    0    0    0    0  0.00000000000E+00  0.00000000000E+00  0.99999998245E-14  0.12500000000E+03  0.12500000000E+03 0.  0.
        -11    1    1    0    0    0  0.28290932576E+01 -0.87513039989E+01  0.13174876303E+02  0.16067559124E+02  0.51100000000E-03 0. -1.
         11    1    1    0    0    0  0.81660977479E+01 -0.25316729355E+02  0.38057190727E+02  0.46432442365E+02  0.51100000000E-03 0.  1.
         22    1    1    0    0    0 -0.10995191006E+02  0.34068033354E+02 -0.51232067030E+02  0.62499998512E+02  0.00000000000E+00 0. -1.
</event>
<event>
 4    1  0.1974401E-002  0.9118800E+02  0.7818608E-02  0.1130116E+00
         25   -1    0    0    0    0  0.00000000000E+00  0.00000000000E+00  0.99999998245E-14  0.12500000000E+03  0.12500000000E+03 0.  0.
        -11    1    1    0    0    0 -0.43987748110E+01 -0.17478857469E+02 -0.15377035126E+01  0.18089339696E+02  0.51100000000E-03 0.  1.
         11    1    1    0    0    0 -0.10891536024E+02 -0.42877092197E+02 -0.39038388966E+01  0.44410703109E+02  0.51100000000E-03 0. -1.
         22    1    1    0    0    0  0.15290310835E+02  0.60355949667E+02  0.54415424092E+01  0.62499957195E+02  0.00000000000E+00 0. -1.
</event>
<event>
 4    1  0.1974401E-002  0.9118800E+02  0.7818608E-02  0.1130116E+00
         25   -1    0    0    0    0  0.00000000000E+00  0.00000000000E+00  0.99999998245E-14  0.12500000000E+03  0.12500000000E+03 0.  0.
        -11    1    1    0    0    0  0.50242444851E+01 -0.58579450889E+01 -0.31203306291E+01  0.83243628469E+01  0.51100000000E-03 0. -1.
         11    1    1    0    0    0  0.27574344652E+02 -0.44791840717E+02 -0.13279664861E+02  0.54249451397E+02  0.51100000000E-03 0.  1.
         22    1    1    0    0    0 -0.32598589137E+02  0.50649785806E+02  0.16399995490E+02  0.62426185756E+02  0.00000000000E+00 0.  1.
</event>
<event>
 4    1  0.1974401E-002  0.9118800E+02  0.7818608E-02  0.1130116E+00
         25   -1    0    0    0    0  0.00000000000E+00  0.00000000000E+00  0.99999998245E-14  0.12500000000E+03  0.12500000000E+03 0.  0.
        -11    1    1    0    0    0 -0.89664143075E+01  0.23015144687E+02 -0.19352224128E+02  0.31378369133E+02  0.51100000000E-03 0. -1.
         11    1    1    0    0    0 -0.98714377106E+01  0.22599208639E+02 -0.18990788865E+02  0.31125866664E+02  0.51100000000E-03 0.  1.
         22    1    1    0    0    0  0.18837852018E+02 -0.45614353326E+02  0.38343012993E+02  0.62495764203E+02  0.00000000000E+00 0.  1.
</event>
<event>
 4    1  0.1974401E-002  0.9118800E+02  0.7818608E-02  0.1130116E+00
         25   -1    0    0    0    0  0.00000000000E+00  0.00000000000E+00  0.99999998245E-14  0.12500000000E+03  0.12500000000E+03 0.  0.
        -11    1    1    0    0    0  0.36482488572E+01  0.33961327327E+02 -0.16556884449E+02  0.37958028090E+02  0.51100000000E-03 0. -1.
         11    1    1    0    0    0  0.20865239561E+01  0.21399285958E+02 -0.11855144039E+02  0.24552544922E+02  0.51100000000E-03 0.  1.
         22    1    1    0    0    0 -0.57347728133E+01 -0.55360613285E+02  0.28412028488E+02  0.62489426988E+02  0.00000000000E+00 0.  1.
</event>
<event>
 4    1  0.1974401E-002  0.9118800E+02  0.7818608E-02  0.1130116E+00
         25   -1    0    0    0    0  0.00000000000E+00  0.00000000000E+00  0.99999998245E-14  0.12500000000E+03  0.12500000000E+03 0.  0.
        -11    1    1    0    0    0  0.21718564799E+02  0.10751032272E+02  0.32956039541E+02  0.40906983442E+02  0.51100000000E-03 0.  1.
         11    1    1    0    0    0  0.84817192276E+01  0.60835728028E+01  0.19003298382E+02  0.21681207733E+02  0.51100000000E-03 0. -1.
         22    1    1    0    0    0 -0.30200284027E+02 -0.16834605075E+02 -0.51959337923E+02  0.62411808825E+02  0.00000000000E+00 0.  1.
</event>
<event>
 4    1  0.1974401E-002  0.9118800E+02  0.7818608E-02  0.1130116E+00
         25   -1    0    0    0    0  0.00000000000E+00  0.00000000000E+00  0.99999998245E-14  0.12500000000E+03  0.12500000000E+03 0.  0.
        -11    1    1    0    0    0  0.46848957138E+01  0.25686862535E+02  0.85639119638E+01  0.27479151062E+02  0.51100000000E-03 0. -1.
         11    1    1    0    0    0  0.10330993402E+02  0.33234715701E+02  0.51672089064E+01  0.35184880283E+02  0.51100000000E-03 0.  1.
         22    1    1    0    0    0 -0.15015889116E+02 -0.58921578236E+02 -0.13731120870E+02  0.62335968654E+02  0.00000000000E+00 0. -1.
</event>
<event>
 4    1  0.1974401E-002  0.9118800E+02  0.7818608E-02  0.1130116E+00
         25   -1    0    0    0    0  0.00000000000E+00  0.00000000000E+00  0.99999998245E-14  0.12500000000E+03  0.12500000000E+03 0.  0.
        -11    1    1    0    0    0 -0.40664031865E+00 -0.13118283078E+01  0.15652637806E+01  0.20823786452E+01  0.51100000000E-03 0. -1.
         11    1    1    0    0    0 -0.11831273657E+02 -0.38270511623E+02  0.45229185232E+02  0.60417632304E+02  0.51100000000E-03 0.  1.
         22    1    1    0    0    0  0.12237913976E+02  0.39582339931E+02 -0.46794449013E+02  0.62499989050E+02  0.00000000000E+00 0.  1.
</event>
<event>
 4    1  0.1974401E-002  0.9118800E+02  0.7818608E-02  0.1130116E+00
         25   -1    0    0    0    0  0.00000000000E+00  0.00000000000E+00  0.99999998245E-14  0.12500000000E+03  0.12500000000E+03 0.  0.
        -11    1    1    0    0    0  0.14576764912E+02 -0.37772926113E+02  0.13055734626E+02  0.42540900665E+02  0.51100000000E-03 0. -1.
         11    1    1    0    0    0 -0.19135597174E+02 -0.16199657293E+02 -0.13113624063E+02  0.28294294689E+02  0.51100000000E-03 0.  1.
         22    1    1    0    0    0  0.45588322620E+01  0.53972583406E+02  0.57889436789E-01  0.54164804646E+02  0.00000000000E+00 0. -1.
</event>
<event>
 4    1  0.1974401E-002  0.9118800E+02  0.7818608E-02  0.1130116E+00
         25   -1    0    0    0    0  0.00000000000E+00  0.00000000000E+00  0.99999998245E-14  0.12500000000E+03  0.12500000000E+03 0.  0.
        -11    1    1    0    0    0 -0.55894839600E+02  0.24568123886E+02  0.10880156785E+02  0.62017768560E+02  0.51100000000E-03 0. -1.
         11    1    1    0    0    0  0.11188710764E+02 -0.27353390134E+01 -0.60101781092E+01  0.12991980959E+02  0.51100000000E-03 0.  1.
         22    1    1    0    0    0  0.44706128836E+02 -0.21832784873E+02 -0.48699786759E+01  0.49990250481E+02  0.00000000000E+00 0. -1.
</event>
<event>
 4    1  0.1974401E-002  0.9118800E+02  0.7818608E-02  0.1130116E+00
         25   -1    0    0    0    0  0.00000000000E+00  0.00000000000E+00  0.99999998245E-14  0.12500000000E+03  0.12500000000E+03 0.  0.
        -11    1    1    0    0    0 -0.24478727376E+02  0.20217471121E+01  0.13842779855E+02  0.28194292148E+02  0.51100000000E-03 0.  1.
         11    1    1    0    0    0 -0.29776506932E+02  0.23974441397E+01  0.16866965081E+02  0.34305722770E+02  0.51100000000E-03 0. -1.
         22    1    1    0    0    0  0.54255234308E+02 -0.44191912518E+01 -0.30709744936E+02  0.62499985082E+02  0.00000000000E+00 0.  1.
</event>
<event>
 4    1  0.1974401E-002  0.9118800E+02  0.7818608E-02  0.1130116E+00
         25   -1    0    0    0    0  0.00000000000E+00  0.00000000000E+00  0.99999998245E-14  0.12500000000E+03  0.12500000000E+03 0.  0.
        -11    1    1    0    0    0 -0.30153756671E+02 -0.26033740368E+02 -0.28099916155E+02  0.48750486839E+02  0.51100000000E-03 0.  1.
         11    1    1    0    0    0 -0.79772426857E+01 -0.64622998447E+01 -0.92032524255E+01  0.13787587737E+02  0.51100000000E-03 0. -1.
         22    1    1    0    0    0  0.38130999357E+02  0.32496040213E+02  0.37303168580E+02  0.62461925423E+02  0.00000000000E+00 0.  1.
</event>
<event>
 4    1  0.1974401E-002  0.9118800E+02  0.7818608E-02  0.1130116E+00
         25   -1    0    0    0    0  0.00000000000E+00  0.00000000000E+00  0.99999998245E-14  0.12500000000E+03  0.12500000000E+03 0.  0.
        -11    1    1    0    0    0 -0.10575768525E+02 -0.24430458453E+02  0.42276603671E+02  0.49960038014E+02  0.51100000000E-03 0.  1.
         11    1    1    0    0    0 -0.26547484361E+01 -0.61316611431E+01  0.10611582774E+02  0.12539961996E+02  0.51100000000E-03 0.  1.
         22    1    1    0    0    0  0.13230516961E+02  0.30562119596E+02 -0.52888186445E+02  0.62499999990E+02  0.00000000000E+00 0.  1.
</event>
<event>
 4    1  0.1974401E-002  0.9118800E+02  0.7818608E-02  0.1130116E+00
         25   -1    0    0    0    0  0.00000000000E+00  0.00000000000E+00  0.99999998245E-14  0.12500000000E+03  0.12500000000E+03 0.  0.
        -11    1    1    0    0    0  0.40907000841E+01  0.18123590133E+01 -0.91478628139E+01  0.10183411349E+02  0.51100000000E-03 0.  1.
         11    1    1    0    0    0  0.12284745911E+02  0.65567789503E+01 -0.50506993127E+02  0.52391437156E+02  0.51100000000E-03 0. -1.
         22    1    1    0    0    0 -0.16375445995E+02 -0.83691379636E+01  0.59654855941E+02  0.62425151495E+02  0.00000000000E+00 0. -1.
</event>
<event>
 4    1  0.1974401E-002  0.9118800E+02  0.7818608E-02  0.1130116E+00
         25   -1    0    0    0    0  0.00000000000E+00  0.00000000000E+00  0.99999998245E-14  0.12500000000E+03  0.12500000000E+03 0.  0.
        -11    1    1    0    0    0 -0.43435808701E+02  0.72916445935E+01 -0.62727271079E+01  0.44488028323E+02  0.51100000000E-03 0. -1.
         11    1    1    0    0    0 -0.62590826484E+01  0.14224903378E+02 -0.15681572503E+02  0.22077946194E+02  0.51100000000E-03 0.  1.
         22    1    1    0    0    0  0.49694891350E+02 -0.21516547972E+02  0.21954299610E+02  0.58434025484E+02  0.00000000000E+00 0.  1.
</event>
<event>
 4    1  0.1974401E-002  0.9118800E+02  0.7818608E-02  0.1130116E+00
         25   -1    0    0    0    0  0.00000000000E+00  0.00000000000E+00  0.99999998245E-14  0.12500000000E+03  0.12500000000E+03 0.  0.
        -11    1    1    0    0    0  0.40354396371E+01 -0.26961420499E+01  0.11307092683E+02  0.12304645473E+02  0.51100000000E-03 0.  1.
         11    1    1    0    0    0  0.16446990596E+02 -0.11048781985E+02  0.46119353943E+02  0.50195357270E+02  0.51100000000E-03 0. -1.
         22    1    1    0    0    0 -0.20482430233E+02  0.13744924035E+02 -0.57426446627E+02  0.62499997257E+02  0.00000000000E+00 0. -1.
</event>
<event>
 4    1  0.1974401E-002  0.9118800E+02  0.7818608E-02  0.1130116E+00
         25   -1    0    0    0    0  0.00000000000E+00  0.00000000000E+00  0.99999998245E-14  0.12500000000E+03  0.12500000000E+03 0.  0.
        -11    1    1    0    0    0 -0.41282592563E+01  0.23431064946E+01 -0.15184387683E+01  0.49838066863E+01  0.51100000000E-03 0. -1.
         11    1    1    0    0    0 -0.47564856307E+02  0.27242879293E+02 -0.17421961654E+02  0.57516213156E+02  0.51100000000E-03 0.  1.
         22    1    1    0    0    0  0.51693115563E+02 -0.29585985787E+02  0.18940400422E+02  0.62499980158E+02  0.00000000000E+00 0.  1.
</event>
<event>
 4    1  0.1974401E-002  0.9118800E+02  0.7818608E-02  0.1130116E+00
         25   -1    0    0    0    0  0.00000000000E+00  0.00000000000E+00  0.99999998245E-14  0.12500000000E+03  0.12500000000E+03 0.  0.
        -11    1    1    0    0    0  0.38407473675E+01  0.43319544720E+01  0.13918049085E+01  0.59543505987E+01  0.51100000000E-03 0.  1.
         11    1    1    0    0    0  0.35349451583E+02  0.33911618300E+02  0.28486790680E+02  0.56666381801E+02  0.51100000000E-03 0. -1.
         22    1    1    0    0    0 -0.39190198950E+02 -0.38243572771E+02 -0.29878595588E+02  0.62379267601E+02  0.00000000000E+00 0. -1.
</event>
<event>
 4    1  0.1974401E-002  0.9118800E+02  0.7818608E-02  0.1130116E+00
         25   -1    0    0    0    0  0.00000000000E+00  0.00000000000E+00  0.99999998245E-14  0.12500000000E+03  0.12500000000E+03 0.  0.
        -11    1    1    0    0    0  0.22506757033E+01 -0.13123486484E+02 -0.26389705753E+02  0.29558552208E+02  0.51100000000E-03 0. -1.
         11    1    1    0    0    0  0.25144639148E+01 -0.14622691674E+02 -0.29410769339E+02  0.32941447964E+02  0.51100000000E-03 0.  1.
         22    1    1    0    0    0 -0.47651396182E+01  0.27746178158E+02  0.55800475092E+02  0.62499999828E+02  0.00000000000E+00 0.  1.
</event>
<event>
 4    1  0.1974401E-002  0.9118800E+02  0.7818608E-02  0.1130116E+00
         25   -1    0    0    0    0  0.00000000000E+00  0.00000000000E+00  0.99999998245E-14  0.12500000000E+03  0.12500000000E+03 0.  0.
        -11    1    1    0    0    0 -0.30518311851E+01  0.12501654522E+02 -0.91627162951E+01  0.15797481114E+02  0.51100000000E-03 0. -1.
         11    1    1    0    0    0 -0.91360586032E+01  0.36709163468E+02 -0.27388244562E+02  0.46702742851E+02  0.51100000000E-03 0.  1.
         22    1    1    0    0    0  0.12187889788E+02 -0.49210817991E+02  0.36550960858E+02  0.62499776035E+02  0.00000000000E+00 0.  1.
</event>
<event>
 4    1  0.1974401E-002  0.9118800E+02  0.7818608E-02  0.1130116E+00
         25   -1    0    0    0    0  0.00000000000E+00  0.00000000000E+00  0.99999998245E-14  0.12500000000E+03  0.12500000000E+03 0.  0.
        -11    1    1    0    0    0  0.25148142255E+01  0.14762995852E+01  0.38031009564E+00  0.29408140173E+01  0.51100000000E-03 0. -1.
         11    1    1    0    0    0  0.50942656501E+02  0.29872770911E+02  0.77304580644E+01  0.59559186322E+02  0.51100000000E-03 0.  1.
         22    1    1    0    0    0 -0.53457470726E+02 -0.31349070496E+02 -0.81107681601E+01  0.62499999660E+02  0.00000000000E+00 0.  1.
</event>
<event>
 4    1  0.1974401E-002  0.9118800E+02  0.7818608E-02  0.1130116E+00
         25   -1    0    0    0    0  0.00000000000E+00  0.00000000000E+00  0.99999998245E-14  0.12500000000E+03  0.12500000000E+03 0.  0.
        -11    1    1    0    0    0  0.11432406642E+01 -0.19774361235E+01 -0.14821624244E+02  0.14996592891E+02  0.51100000000E-03 0. -1.
         11    1    1    0    0    0  0.36403329821E+01 -0.62856455997E+01 -0.46944780599E+02  0.47503408200E+02  0.51100000000E-03 0.  1.
         22    1    1    0    0    0 -0.47835736463E+01  0.82630817232E+01  0.61766404843E+02  0.62499998909E+02  0.00000000000E+00 0.  1.
</event>
<event>
 4    1  0.1974401E-002  0.9118800E+02  0.7818608E-02  0.1130116E+00
         25   -1    0    0    0    0  0.00000000000E+00  0.00000000000E+00  0.99999998245E-14  0.12500000000E+03  0.12500000000E+03 0.  0.
        -11    1    1    0    0    0  0.40533833002E+02  0.72787332168E+01  0.36686200528E+02  0.55152958983E+02  0.51100000000E-03 0.  1.
         11    1    1    0    0    0  0.53896393155E+01  0.96793009111E+00  0.48983683564E+01  0.73470479397E+01  0.51100000000E-03 0. -1.
         22    1    1    0    0    0 -0.45923472318E+02 -0.82466633080E+01 -0.41584568884E+02  0.62499993078E+02  0.00000000000E+00 0.  1.
</event>
<event>
 4    1  0.1974401E-002  0.9118800E+02  0.7818608E-02  0.1130116E+00
         25   -1    0    0    0    0  0.00000000000E+00  0.00000000000E+00  0.99999998245E-14  0.12500000000E+03  0.12500000000E+03 0.  0.
        -11    1    1    0    0    0  0.11084808617E+02 -0.46350879081E+01 -0.10799869042E+02  0.16155314716E+02  0.51100000000E-03 0. -1.
         11    1    1    0    0    0  0.41847847281E+02  0.22399922289E+02  0.21309951409E+02  0.52029922833E+02  0.51100000000E-03 0.  1.
         22    1    1    0    0    0 -0.52932655898E+02 -0.17764834381E+02 -0.10510082367E+02  0.56814762451E+02  0.00000000000E+00 0. -1.
</event>
<event>
 4    1  0.1974401E-002  0.9118800E+02  0.7818608E-02  0.1130116E+00
         25   -1    0    0    0    0  0.00000000000E+00  0.00000000000E+00  0.99999998245E-14  0.12500000000E+03  0.12500000000E+03 0.  0.
        -11    1    1    0    0    0  0.16536522157E+02 -0.17677751182E+02 -0.58179104050E+01  0.24895934079E+02  0.51100000000E-03 0. -1.
         11    1    1    0    0    0  0.22042744626E+02 -0.29374579837E+02 -0.82770392595E+01  0.37646486030E+02  0.51100000000E-03 0.  1.
         22    1    1    0    0    0 -0.38579266784E+02  0.47052331019E+02  0.14094949665E+02  0.62457579891E+02  0.00000000000E+00 0.  1.
</event>
<event>
 4    1  0.1974401E-002  0.9118800E+02  0.7818608E-02  0.1130116E+00
         25   -1    0    0    0    0  0.00000000000E+00  0.00000000000E+00  0.99999998245E-14  0.12500000000E+03  0.12500000000E+03 0.  0.
        -11    1    1    0    0    0 -0.33552198497E+01  0.77690207663E+01  0.23696070123E+02  0.25161854531E+02  0.51100000000E-03 0. -1.
         11    1    1    0    0    0 -0.49530578727E+01  0.11534291327E+02  0.35164820342E+02  0.37338147365E+02  0.51100000000E-03 0.  1.
         22    1    1    0    0    0  0.83082777224E+01 -0.19303312094E+02 -0.58860890466E+02  0.62499998103E+02  0.00000000000E+00 0.  1.
</event>
<event>
 4    1  0.1974401E-002  0.9118800E+02  0.7818608E-02  0.1130116E+00
         25   -1    0    0    0    0  0.00000000000E+00  0.00000000000E+00  0.99999998245E-14  0.12500000000E+03  0.12500000000E+03 0.  0.
        -11    1    1    0    0    0 -0.31360578737E+01  0.17803353399E+01 -0.78420411169E+01  0.86314577013E+01  0.51100000000E-03 0.  1.
         11    1    1    0    0    0 -0.15443643685E+02  0.59946967640E+01 -0.51290775326E+02  0.53899778787E+02  0.51100000000E-03 0. -1.
         22    1    1    0    0    0  0.18579701559E+02 -0.77750321039E+01  0.59132816442E+02  0.62468763511E+02  0.00000000000E+00 0. -1.
</event>
<event>
 4    1  0.1974401E-002  0.9118800E+02  0.7818608E-02  0.1130116E+00
         25   -1    0    0    0    0  0.00000000000E+00  0.00000000000E+00  0.99999998245E-14  0.12500000000E+03  0.12500000000E+03 0.  0.
        -11    1    1    0    0    0  0.46971788706E+01  0.65307619497E+01 -0.35488290281E+01  0.87925268676E+01  0.51100000000E-03 0. -1.
         11    1    1    0    0    0  0.28568263097E+02  0.40003129713E+02 -0.21635588604E+02  0.53707492380E+02  0.51100000000E-03 0.  1.
         22    1    1    0    0    0 -0.33265441968E+02 -0.46533891662E+02  0.25184417632E+02  0.62499980753E+02  0.00000000000E+00 0.  1.
</event>
<event>
 4    1  0.1974401E-002  0.9118800E+02  0.7818608E-02  0.1130116E+00
         25   -1    0    0    0    0  0.00000000000E+00  0.00000000000E+00  0.99999998245E-14  0.12500000000E+03  0.12500000000E+03 0.  0.
        -11    1    1    0    0    0 -0.12179094213E+02  0.51643808525E+02  0.84639117449E+01  0.53731286018E+02  0.51100000000E-03 0.  1.
         11    1    1    0    0    0 -0.19926460187E+01  0.84280994090E+01  0.13736386353E+01  0.87687160500E+01  0.51100000000E-03 0. -1.
         22    1    1    0    0    0  0.14171740232E+02 -0.60071907934E+02 -0.98375503802E+01  0.62499997932E+02  0.00000000000E+00 0.  1.
</event>
<event>
 4    1  0.1974401E-002  0.9118800E+02  0.7818608E-02  0.1130116E+00
         25   -1    0    0    0    0  0.00000000000E+00  0.00000000000E+00  0.99999998245E-14  0.12500000000E+03  0.12500000000E+03 0.  0.
        -11    1    1    0    0    0 -0.23504201404E+02  0.23521624913E+01 -0.18063753569E+02  0.29736834823E+02  0.51100000000E-03 0.  1.
         11    1    1    0    0    0 -0.25893018389E+02  0.25905824113E+01 -0.19906418086E+02  0.32763165289E+02  0.51100000000E-03 0. -1.
         22    1    1    0    0    0  0.49397219793E+02 -0.49427449026E+01  0.37970171655E+02  0.62499999888E+02  0.00000000000E+00 0.  1.
</event>
<event>
 4    1  0.1974401E-002  0.9118800E+02  0.7818608E-02  0.1130116E+00
         25   -1    0    0    0    0  0.00000000000E+00  0.00000000000E+00  0.99999998245E-14  0.12500000000E+03  0.12500000000E+03 0.  0.
        -11    1    1    0    0    0 -0.58735292052E+02  0.14111363258E+02 -0.18694178953E+01  0.60435584129E+02  0.51100000000E-03 0. -1.
         11    1    1    0    0    0 -0.96332536936E+00  0.23484773974E+01 -0.52445737329E+00  0.25919872012E+01  0.51100000000E-03 0.  1.
         22    1    1    0    0    0  0.59698617422E+02 -0.16459840656E+02  0.23938752686E+01  0.61972428670E+02  0.00000000000E+00 0. -1.
</event>
<event>
 4    1  0.1974401E-002  0.9118800E+02  0.7818608E-02  0.1130116E+00
         25   -1    0    0    0    0  0.00000000000E+00  0.00000000000E+00  0.99999998245E-14  0.12500000000E+03  0.12500000000E+03 0.  0.
        -11    1    1    0    0    0 -0.43724534492E+02 -0.32133678491E+02  0.21112599180E+02  0.58224995099E+02  0.51100000000E-03 0.  1.
         11    1    1    0    0    0 -0.32104328854E+01 -0.23511078253E+01  0.15624280240E+01  0.42750168314E+01  0.51100000000E-03 0. -1.
         22    1    1    0    0    0  0.46934967377E+02  0.34484786316E+02 -0.22675027204E+02  0.62499988069E+02  0.00000000000E+00 0.  1.
</event>
<event>
 4    1  0.1974401E-002  0.9118800E+02  0.7818608E-02  0.1130116E+00
         25   -1    0    0    0    0  0.00000000000E+00  0.00000000000E+00  0.99999998245E-14  0.12500000000E+03  0.12500000000E+03 0.  0.
        -11    1    1    0    0    0  0.28292250230E+02  0.14037534661E+02  0.10196644171E+02  0.33188482265E+02  0.51100000000E-03 0.  1.
         11    1    1    0    0    0  0.24948498168E+02  0.12464805290E+02  0.90204097869E+01  0.29311545929E+02  0.51100000000E-03 0. -1.
         22    1    1    0    0    0 -0.53240748399E+02 -0.26502339951E+02 -0.19217053958E+02  0.62499971806E+02  0.00000000000E+00 0.  1.
</event>
<event>
 4    1  0.1974401E-002  0.9118800E+02  0.7818608E-02  0.1130116E+00
         25   -1    0    0    0    0  0.00000000000E+00  0.00000000000E+00  0.99999998245E-14  0.12500000000E+03  0.12500000000E+03 0.  0.
        -11    1    1    0    0    0  0.19818691899E+01  0.79051742096E+01  0.99387271724E+01  0.12852932850E+02  0.51100000000E-03 0. -1.
         11    1    1    0    0    0  0.76144477536E+01  0.30556135945E+02  0.38381952041E+02  0.49647069412E+02  0.51100000000E-03 0.  1.
         22    1    1    0    0    0 -0.95963169435E+01 -0.38461310155E+02 -0.48320679213E+02  0.62499997738E+02  0.00000000000E+00 0.  1.
</event>
<event>
 4    1  0.1974401E-002  0.9118800E+02  0.7818608E-02  0.1130116E+00
         25   -1    0    0    0    0  0.00000000000E+00  0.00000000000E+00  0.99999998245E-14  0.12500000000E+03  0.12500000000E+03 0.  0.
        -11    1    1    0    0    0  0.78212395620E+01 -0.91756317418E+01  0.61364225922E+01  0.13528476952E+02  0.51100000000E-03 0. -1.
         11    1    1    0    0    0  0.28323622700E+02 -0.33325650869E+02  0.22031531431E+02  0.48971573245E+02  0.51100000000E-03 0.  1.
         22    1    1    0    0    0 -0.36144862262E+02  0.42501282611E+02 -0.28167954023E+02  0.62499949803E+02  0.00000000000E+00 0.  1.
</event>
<event>
 4    1  0.1974401E-002  0.9118800E+02  0.7818608E-02  0.1130116E+00
         25   -1    0    0    0    0  0.00000000000E+00  0.00000000000E+00  0.99999998245E-14  0.12500000000E+03  0.12500000000E+03 0.  0.
        -11    1    1    0    0    0 -0.49706760922E+01 -0.10364734845E+02 -0.66119535036E+01  0.13260968238E+02  0.51100000000E-03 0. -1.
         11    1    1    0    0    0 -0.16255440681E+02 -0.38338848485E+02 -0.26290933195E+02  0.49247536216E+02  0.51100000000E-03 0.  1.
         22    1    1    0    0    0  0.21226116773E+02  0.48703583330E+02  0.32902886698E+02  0.62491495545E+02  0.00000000000E+00 0.  1.
</event>
<event>
 4    1  0.1974401E-002  0.9118800E+02  0.7818608E-02  0.1130116E+00
         25   -1    0    0    0    0  0.00000000000E+00  0.00000000000E+00  0.99999998245E-14  0.12500000000E+03  0.12500000000E+03 0.  0.
        -11    1    1    0    0    0 -0.33732993558E+01 -0.18820976859E+01  0.26074497748E+00  0.38716183241E+01  0.51100000000E-03 0.  1.
         11    1    1    0    0    0 -0.43098087856E+02  0.39175111802E+02 -0.14171226244E+02  0.59941289734E+02  0.51100000000E-03 0. -1.
         22    1    1    0    0    0  0.46471387212E+02 -0.37293014116E+02  0.13910481266E+02  0.61187091942E+02  0.00000000000E+00 0. -1.
</event>
<event>
 4    1  0.1974401E-002  0.9118800E+02  0.7818608E-02  0.1130116E+00
         25   -1    0    0    0    0  0.00000000000E+00  0.00000000000E+00  0.99999998245E-14  0.12500000000E+03  0.12500000000E+03 0.  0.
        -11    1    1    0    0    0  0.21990805836E+02  0.25300047215E+00  0.47620900941E+02  0.52453882194E+02  0.51100000000E-03 0. -1.
         11    1    1    0    0    0  0.65320404739E+01  0.23925012852E+00  0.78226403186E+01  0.10194042142E+02  0.51100000000E-03 0.  1.
         22    1    1    0    0    0 -0.28522846310E+02 -0.49225060067E+00 -0.55443541259E+02  0.62352075664E+02  0.00000000000E+00 0. -1.
</event>
<event>
 4    1  0.1974401E-002  0.9118800E+02  0.7818608E-02  0.1130116E+00
         25   -1    0    0    0    0  0.00000000000E+00  0.00000000000E+00  0.99999998245E-14  0.12500000000E+03  0.12500000000E+03 0.  0.
        -11    1    1    0    0    0  0.94695430104E+01 -0.51571141429E+01 -0.41640832055E+00  0.10790804755E+02  0.51100000000E-03 0. -1.
         11    1    1    0    0    0  0.46735610331E+02 -0.22128433644E+02 -0.89262317819E+00  0.51717324225E+02  0.51100000000E-03 0.  1.
         22    1    1    0    0    0 -0.56205153341E+02  0.27285547787E+02  0.13090314987E+01  0.62491871020E+02  0.00000000000E+00 0.  1.
</event>
<event>
 4    1  0.1974401E-002  0.9118800E+02  0.7818608E-02  0.1130116E+00
         25   -1    0    0    0    0  0.00000000000E+00  0.00000000000E+00  0.99999998245E-14  0.12500000000E+03  0.12500000000E+03 0.  0.
        -11    1    1    0    0    0 -0.22749596640E+01 -0.27206839435E+01  0.16555374344E+02  0.16930977011E+02  0.51100000000E-03 0.  1.
         11    1    1    0    0    0  0.50887300018E+02  0.14073187524E+02  0.62876596770E+01  0.53170542359E+02  0.51100000000E-03 0. -1.
         22    1    1    0    0    0 -0.48612340354E+02 -0.11352503580E+02 -0.22843034021E+02  0.54898480631E+02  0.00000000000E+00 0. -1.
</event>
<event>
 4    1  0.1974401E-002  0.9118800E+02  0.7818608E-02  0.1130116E+00
         25   -1    0    0    0    0  0.00000000000E+00  0.00000000000E+00  0.99999998245E-14  0.12500000000E+03  0.12500000000E+03 0.  0.
        -11    1    1    0    0    0  0.23206395134E+02 -0.39016595735E+02 -0.50173156292E+01  0.45672803442E+02  0.51100000000E-03 0.  1.
         11    1    1    0    0    0  0.85529511732E+01 -0.14372530762E+02 -0.18525498405E+01  0.16827196898E+02  0.51100000000E-03 0. -1.
         22    1    1    0    0    0 -0.31759346307E+02  0.53389126497E+02  0.68698654697E+01  0.62499999660E+02  0.00000000000E+00 0.  1.
</event>
<event>
 4    1  0.1974401E-002  0.9118800E+02  0.7818608E-02  0.1130116E+00
         25   -1    0    0    0    0  0.00000000000E+00  0.00000000000E+00  0.99999998245E-14  0.12500000000E+03  0.12500000000E+03 0.  0.
        -11    1    1    0    0    0 -0.30862756502E+02 -0.32600580579E+02  0.80271293176E+01  0.45604192771E+02  0.51100000000E-03 0.  1.
         11    1    1    0    0    0 -0.11440023122E+02 -0.12065578110E+02  0.30027269500E+01  0.16895818227E+02  0.51100000000E-03 0. -1.
         22    1    1    0    0    0  0.42302779625E+02  0.44666158688E+02 -0.11029856268E+02  0.62499989002E+02  0.00000000000E+00 0.  1.
</event>
<event>
 4    1  0.1974401E-002  0.9118800E+02  0.7818608E-02  0.1130116E+00
         25   -1    0    0    0    0  0.00000000000E+00  0.00000000000E+00  0.99999998245E-14  0.12500000000E+03  0.12500000000E+03 0.  0.
        -11    1    1    0    0    0 -0.31734450380E+01 -0.76149087923E+01 -0.24258111693E+01  0.85989621126E+01  0.51100000000E-03 0. -1.
         11    1    1    0    0    0 -0.14648671357E+02 -0.48751197422E+02 -0.17789931408E+02  0.53923505842E+02  0.51100000000E-03 0.  1.
         22    1    1    0    0    0  0.17822116395E+02  0.56366106214E+02  0.20215742577E+02  0.62477532045E+02  0.00000000000E+00 0.  1.
</event>
<event>
 4    1  0.1974401E-002  0.9118800E+02  0.7818608E-02  0.1130116E+00
         25   -1    0    0    0    0  0.00000000000E+00  0.00000000000E+00  0.99999998245E-14  0.12500000000E+03  0.12500000000E+03 0.  0.
        -11    1    1    0    0    0 -0.25419234300E+01 -0.15074548804E+01 -0.36177834270E+01  0.46714186417E+01  0.51100000000E-03 0. -1.
         11    1    1    0    0    0 -0.31478631883E+02 -0.18694079458E+02 -0.44763512092E+02  0.57828581922E+02  0.51100000000E-03 0.  1.
         22    1    1    0    0    0  0.34020555313E+02  0.20201534338E+02  0.48381295519E+02  0.62499999436E+02  0.00000000000E+00 0.  1.
</event>
<event>
 4    1  0.1974401E-002  0.9118800E+02  0.7818608E-02  0.1130116E+00
         25   -1    0    0    0    0  0.00000000000E+00  0.00000000000E+00  0.99999998245E-14  0.12500000000E+03  0.12500000000E+03 0.  0.
        -11    1    1    0    0    0 -0.37550672180E+02  0.13954617067E+01  0.40155949854E+02  0.54995459845E+02  0.51100000000E-03 0. -1.
         11    1    1    0    0    0 -0.51207146701E+01  0.19262417657E+00  0.54826372511E+01  0.75045409116E+01  0.51100000000E-03 0.  1.
         22    1    1    0    0    0  0.42671386850E+02 -0.15880858832E+01 -0.45638587105E+02  0.62499999244E+02  0.00000000000E+00 0. -1.
</event>
<event>
 4    1  0.1974401E-002  0.9118800E+02  0.7818608E-02  0.1130116E+00
         25   -1    0    0    0    0  0.00000000000E+00  0.00000000000E+00  0.99999998245E-14  0.12500000000E+03  0.12500000000E+03 0.  0.
        -11    1    1    0    0    0 -0.16374752473E+01 -0.48914297591E+01 -0.27429791734E+01  0.58422038034E+01  0.51100000000E-03 0.  1.
         11    1    1    0    0    0  0.81873741316E+01 -0.53225866938E+02 -0.18489695684E+02  0.56937640039E+02  0.51100000000E-03 0. -1.
         22    1    1    0    0    0 -0.65498988844E+01  0.58117296697E+02  0.21232674857E+02  0.62220156158E+02  0.00000000000E+00 0. -1.
</event>
<event>
 4    1  0.1974401E-002  0.9118800E+02  0.7818608E-02  0.1130116E+00
         25   -1    0    0    0    0  0.00000000000E+00  0.00000000000E+00  0.99999998245E-14  0.12500000000E+03  0.12500000000E+03 0.  0.
        -11    1    1    0    0    0  0.13063348854E+02  0.72324170727E+01 -0.25746121413E+02  0.29762757064E+02  0.51100000000E-03 0. -1.
         11    1    1    0    0    0  0.14368290014E+02  0.79732427581E+01 -0.28314427415E+02  0.32737244205E+02  0.51100000000E-03 0.  1.
         22    1    1    0    0    0 -0.27431638868E+02 -0.15205659831E+02  0.54060548828E+02  0.62499998731E+02  0.00000000000E+00 0. -1.
</event>
<event>
 4    1  0.1974401E-002  0.9118800E+02  0.7818608E-02  0.1130116E+00
         25   -1    0    0    0    0  0.00000000000E+00  0.00000000000E+00  0.99999998245E-14  0.12500000000E+03  0.12500000000E+03 0.  0.
        -11    1    1    0    0    0 -0.31953980183E+02 -0.38418279268E+02  0.60375671936E+01  0.50333619473E+02  0.51100000000E-03 0. -1.
         11    1    1    0    0    0 -0.77149737187E+01 -0.92911857159E+01  0.14744476395E+01  0.12166385971E+02  0.51100000000E-03 0.  1.
         22    1    1    0    0    0  0.39668953901E+02  0.47709464983E+02 -0.75120148330E+01  0.62499994556E+02  0.00000000000E+00 0.  1.
</event>
<event>
 4    1  0.1974401E-002  0.9118800E+02  0.7818608E-02  0.1130116E+00
         25   -1    0    0    0    0  0.00000000000E+00  0.00000000000E+00  0.99999998245E-14  0.12500000000E+03  0.12500000000E+03 0.  0.
        -11    1    1    0    0    0 -0.78994234088E+01  0.35975914447E+02  0.20542184563E+02  0.42174028233E+02  0.51100000000E-03 0.  1.
         11    1    1    0    0    0 -0.38012805903E+01  0.17339493023E+02  0.99013831342E+01  0.20325972071E+02  0.51100000000E-03 0. -1.
         22    1    1    0    0    0  0.11700703999E+02 -0.53315407470E+02 -0.30443567698E+02  0.62499999696E+02  0.00000000000E+00 0.  1.
</event>
<event>
 4    1  0.1974401E-002  0.9118800E+02  0.7818608E-02  0.1130116E+00
         25   -1    0    0    0    0  0.00000000000E+00  0.00000000000E+00  0.99999998245E-14  0.12500000000E+03  0.12500000000E+03 0.  0.
        -11    1    1    0    0    0 -0.14412686536E+02  0.88677909773E+01  0.23420712073E+02  0.28894515124E+02  0.51100000000E-03 0.  1.
         11    1    1    0    0    0 -0.16991197421E+02  0.10665516668E+02  0.26961696866E+02  0.33606355556E+02  0.51100000000E-03 0. -1.
         22    1    1    0    0    0  0.31403883957E+02 -0.19533307645E+02 -0.50382408939E+02  0.62499129319E+02  0.00000000000E+00 0. -1.
</event>
<event>
 4    1  0.1974401E-002  0.9118800E+02  0.7818608E-02  0.1130116E+00
         25   -1    0    0    0    0  0.00000000000E+00  0.00000000000E+00  0.99999998245E-14  0.12500000000E+03  0.12500000000E+03 0.  0.
        -11    1    1    0    0    0  0.10198436635E+01  0.36870052579E+01  0.35002565559E+01  0.51851600832E+01  0.51100000000E-03 0. -1.
         11    1    1    0    0    0  0.12255012782E+02  0.40271426612E+02  0.38898190464E+02  0.57315289071E+02  0.51100000000E-03 0.  1.
         22    1    1    0    0    0 -0.13274856445E+02 -0.43958431870E+02 -0.42398447020E+02  0.62499550845E+02  0.00000000000E+00 0.  1.
</event>
<event>
 4    1  0.1974401E-002  0.9118800E+02  0.7818608E-02  0.1130116E+00
         25   -1    0    0    0    0  0.00000000000E+00  0.00000000000E+00  0.99999998245E-14  0.12500000000E+03  0.12500000000E+03 0.  0.
        -11    1    1    0    0    0  0.28519204817E+02 -0.45668837240E+02  0.26200778641E+02  0.59878782051E+02  0.51100000000E-03 0.  1.
         11    1    1    0    0    0  0.18256179998E+01 -0.15278529206E+01  0.12136910312E+01  0.26721268324E+01  0.51100000000E-03 0. -1.
         22    1    1    0    0    0 -0.30344822817E+02  0.47196690160E+02 -0.27414469673E+02  0.62449091117E+02  0.00000000000E+00 0.  1.
</event>
<event>
 4    1  0.1974401E-002  0.9118800E+02  0.7818608E-02  0.1130116E+00
         25   -1    0    0    0    0  0.00000000000E+00  0.00000000000E+00  0.99999998245E-14  0.12500000000E+03  0.12500000000E+03 0.  0.
        -11    1    1    0    0    0 -0.10119477619E+02 -0.12387171481E+01 -0.89485589082E+01  0.13565211176E+02  0.51100000000E-03 0.  1.
         11    1    1    0    0    0 -0.35783129544E+02 -0.54672618665E+01 -0.32931762711E+02  0.48936942159E+02  0.51100000000E-03 0. -1.
         22    1    1    0    0    0  0.45902607163E+02  0.67059790146E+01  0.41880321620E+02  0.62497846666E+02  0.00000000000E+00 0.  1.
</event>
<event>
 4    1  0.1974401E-002  0.9118800E+02  0.7818608E-02  0.1130116E+00
         25   -1    0    0    0    0  0.00000000000E+00  0.00000000000E+00  0.99999998245E-14  0.12500000000E+03  0.12500000000E+03 0.  0.
        -11    1    1    0    0    0 -0.27687259242E+01  0.58502839270E+00  0.26563524616E+01  0.38812768678E+01  0.51100000000E-03 0.  1.
         11    1    1    0    0    0 -0.41765300869E+02  0.88018752039E+01  0.40178869657E+02  0.58618725088E+02  0.51100000000E-03 0. -1.
         22    1    1    0    0    0  0.44534026793E+02 -0.93869035966E+01 -0.42835222119E+02  0.62499998044E+02  0.00000000000E+00 0. -1.
</event>
<event>
 4    1  0.1974401E-002  0.9118800E+02  0.7818608E-02  0.1130116E+00
         25   -1    0    0    0    0  0.00000000000E+00  0.00000000000E+00  0.99999998245E-14  0.12500000000E+03  0.12500000000E+03 0.  0.
        -11    1    1    0    0    0  0.31112721277E+01 -0.93736193177E+00 -0.57634783525E+01  0.66163694444E+01  0.51100000000E-03 0. -1.
         11    1    1    0    0    0  0.27752351170E+02 -0.78876119056E+01 -0.47861500224E+02  0.55884976702E+02  0.51100000000E-03 0.  1.
         22    1    1    0    0    0 -0.30863623297E+02  0.88249738374E+01  0.53624978576E+02  0.62498653854E+02  0.00000000000E+00 0.  1.
</event>
<event>
 4    1  0.1974401E-002  0.9118800E+02  0.7818608E-02  0.1130116E+00
         25   -1    0    0    0    0  0.00000000000E+00  0.00000000000E+00  0.99999998245E-14  0.12500000000E+03  0.12500000000E+03 0.  0.
        -11    1    1    0    0    0 -0.75375130372E+01 -0.12750505522E+01  0.15379556608E+01  0.77977666401E+01  0.51100000000E-03 0. -1.
         11    1    1    0    0    0 -0.52913044152E+02 -0.88117000284E+01  0.10719119650E+02  0.54702246984E+02  0.51100000000E-03 0.  1.
         22    1    1    0    0    0  0.60450557189E+02  0.10086750581E+02 -0.12257075311E+02  0.62499986375E+02  0.00000000000E+00 0.  1.
</event>
<event>
 4    1  0.1974401E-002  0.9118800E+02  0.7818608E-02  0.1130116E+00
         25   -1    0    0    0    0  0.00000000000E+00  0.00000000000E+00  0.99999998245E-14  0.12500000000E+03  0.12500000000E+03 0.  0.
        -11    1    1    0    0    0 -0.35230128223E+01 -0.50244902548E+01 -0.11510187649E+02  0.13043831555E+02  0.51100000000E-03 0.  1.
         11    1    1    0    0    0 -0.14459509460E+02 -0.18897183504E+02 -0.43357458388E+02  0.49457559142E+02  0.51100000000E-03 0. -1.
         22    1    1    0    0    0  0.17982522282E+02  0.23921673759E+02  0.54867646037E+02  0.62498609302E+02  0.00000000000E+00 0.  1.
</event>
<event>
 4    1  0.1974401E-002  0.9118800E+02  0.7818608E-02  0.1130116E+00
         25   -1    0    0    0    0  0.00000000000E+00  0.00000000000E+00  0.99999998245E-14  0.12500000000E+03  0.12500000000E+03 0.  0.
        -11    1    1    0    0    0  0.21411259815E+01 -0.23911591625E+01 -0.31556047458E+01  0.45011003301E+01  0.51100000000E-03 0.  1.
         11    1    1    0    0    0  0.27147891190E+02 -0.30882631911E+02 -0.40903994137E+02  0.57998980046E+02  0.51100000000E-03 0. -1.
         22    1    1    0    0    0 -0.29289017171E+02  0.33273791074E+02  0.44059598883E+02  0.62499919624E+02  0.00000000000E+00 0. -1.
</event>
<event>
 4    1  0.1974401E-002  0.9118800E+02  0.7818608E-02  0.1130116E+00
         25   -1    0    0    0    0  0.00000000000E+00  0.00000000000E+00  0.99999998245E-14  0.12500000000E+03  0.12500000000E+03 0.  0.
        -11    1    1    0    0    0  0.43746754205E+02 -0.55521888325E+01 -0.10548726820E+02  0.45341823321E+02  0.51100000000E-03 0.  1.
         11    1    1    0    0    0  0.16574895198E+02 -0.21465361116E+01 -0.38824603150E+01  0.17158329361E+02  0.51100000000E-03 0. -1.
         22    1    1    0    0    0 -0.60321649404E+02  0.76987249440E+01  0.14431187135E+02  0.62499847317E+02  0.00000000000E+00 0.  1.
</event>
<event>
 4    1  0.1974401E-002  0.9118800E+02  0.7818608E-02  0.1130116E+00
         25   -1    0    0    0    0  0.00000000000E+00  0.00000000000E+00  0.99999998245E-14  0.12500000000E+03  0.12500000000E+03 0.  0.
        -11    1    1    0    0    0  0.36539572982E+02  0.17491804319E+02  0.30341102402E+02  0.50613102130E+02  0.51100000000E-03 0. -1.
         11    1    1    0    0    0  0.85791091536E+01  0.41110929182E+01  0.71271417042E+01  0.11886898165E+02  0.51100000000E-03 0.  1.
         22    1    1    0    0    0 -0.45118682135E+02 -0.21602897237E+02 -0.37468244106E+02  0.62499999705E+02  0.00000000000E+00 0. -1.
</event>
<event>
 4    1  0.1974401E-002  0.9118800E+02  0.7818608E-02  0.1130116E+00
         25   -1    0    0    0    0  0.00000000000E+00  0.00000000000E+00  0.99999998245E-14  0.12500000000E+03  0.12500000000E+03 0.  0.
        -11    1    1    0    0    0 -0.48607497899E+02 -0.95080308754E+01  0.49889743622E+01  0.49779326719E+02  0.51100000000E-03 0.  1.
         11    1    1    0    0    0 -0.12420623098E+02 -0.24308638942E+01  0.12784979860E+01  0.12720673519E+02  0.51100000000E-03 0. -1.
         22    1    1    0    0    0  0.61028120997E+02  0.11938894770E+02 -0.62674723482E+01  0.62499999763E+02  0.00000000000E+00 0.  1.
</event>
<event>
 4    1  0.1974401E-002  0.9118800E+02  0.7818608E-02  0.1130116E+00
         25   -1    0    0    0    0  0.00000000000E+00  0.00000000000E+00  0.99999998245E-14  0.12500000000E+03  0.12500000000E+03 0.  0.
        -11    1    1    0    0    0 -0.17222587288E+01  0.31460951116E+02 -0.83624643488E+01  0.32598902290E+02  0.51100000000E-03 0. -1.
         11    1    1    0    0    0 -0.15809708284E+01  0.28856834308E+02 -0.76719808600E+01  0.29901097733E+02  0.51100000000E-03 0.  1.
         22    1    1    0    0    0  0.33032295572E+01 -0.60317785424E+02  0.16034445209E+02  0.62499999977E+02  0.00000000000E+00 0.  1.
</event>
<event>
 4    1  0.1974401E-002  0.9118800E+02  0.7818608E-02  0.1130116E+00
         25   -1    0    0    0    0  0.00000000000E+00  0.00000000000E+00  0.99999998245E-14  0.12500000000E+03  0.12500000000E+03 0.  0.
        -11    1    1    0    0    0  0.73495991223E+00  0.60623499717E+00  0.20887340197E+00  0.97535393757E+00  0.51100000000E-03 0.  1.
         11    1    1    0    0    0  0.45967785667E+02  0.38594476027E+02  0.13517184372E+02  0.61524671251E+02  0.51100000000E-03 0. -1.
         22    1    1    0    0    0 -0.46702745579E+02 -0.39200711024E+02 -0.13726057774E+02  0.62499974812E+02  0.00000000000E+00 0. -1.
</event>
<event>
 4    1  0.1974401E-002  0.9118800E+02  0.7818608E-02  0.1130116E+00
         25   -1    0    0    0    0  0.00000000000E+00  0.00000000000E+00  0.99999998245E-14  0.12500000000E+03  0.12500000000E+03 0.  0.
        -11    1    1    0    0    0  0.23419827862E+02  0.89761685231E+00  0.56984236355E+02  0.61615722396E+02  0.51100000000E-03 0. -1.
         11    1    1    0    0    0  0.34027916060E+00  0.13028435100E-01  0.81608648321E+00  0.88428335756E+00  0.51100000000E-03 0.  1.
         22    1    1    0    0    0 -0.23760107023E+02 -0.91064528741E+00 -0.57800322839E+02  0.62499994247E+02  0.00000000000E+00 0. -1.
</event>
<event>
 4    1  0.1974401E-002  0.9118800E+02  0.7818608E-02  0.1130116E+00
         25   -1    0    0    0    0  0.00000000000E+00  0.00000000000E+00  0.99999998245E-14  0.12500000000E+03  0.12500000000E+03 0.  0.
        -11    1    1    0    0    0 -0.11027011245E+01  0.18724738999E+01  0.16565006774E+01  0.27324170676E+01  0.51100000000E-03 0. -1.
         11    1    1    0    0    0 -0.50020184909E+02  0.28055093624E+02  0.17578752379E+02  0.59984328887E+02  0.51100000000E-03 0.  1.
         22    1    1    0    0    0  0.51122886034E+02 -0.29927567523E+02 -0.19235253056E+02  0.62283254045E+02  0.00000000000E+00 0.  1.
</event>
<event>
 4    1  0.1974401E-002  0.9118800E+02  0.7818608E-02  0.1130116E+00
         25   -1    0    0    0    0  0.00000000000E+00  0.00000000000E+00  0.99999998245E-14  0.12500000000E+03  0.12500000000E+03 0.  0.
        -11    1    1    0    0    0 -0.39536942077E+02  0.40182907801E+02 -0.67187834214E+01  0.56771277237E+02  0.51100000000E-03 0. -1.
         11    1    1    0    0    0 -0.39281448513E+01  0.41492793025E+01 -0.44846661905E+00  0.57313142710E+01  0.51100000000E-03 0.  1.
         22    1    1    0    0    0  0.43465086928E+02 -0.44332187104E+02  0.71672500404E+01  0.62497408492E+02  0.00000000000E+00 0. -1.
</event>
<event>
 4    1  0.1974401E-002  0.9118800E+02  0.7818608E-02  0.1130116E+00
         25   -1    0    0    0    0  0.00000000000E+00  0.00000000000E+00  0.99999998245E-14  0.12500000000E+03  0.12500000000E+03 0.  0.
        -11    1    1    0    0    0 -0.94049530125E+01 -0.65917766284E+01  0.13893170872E+02  0.18025672177E+02  0.51100000000E-03 0.  1.
         11    1    1    0    0    0 -0.23208792230E+02 -0.16269050711E+02  0.34272960163E+02  0.44474327948E+02  0.51100000000E-03 0. -1.
         22    1    1    0    0    0  0.32613745243E+02  0.22860827340E+02 -0.48166131035E+02  0.62499999875E+02  0.00000000000E+00 0. -1.
</event>
<event>
 4    1  0.1974401E-002  0.9118800E+02  0.7818608E-02  0.1130116E+00
         25   -1    0    0    0    0  0.00000000000E+00  0.00000000000E+00  0.99999998245E-14  0.12500000000E+03  0.12500000000E+03 0.  0.
        -11    1    1    0    0    0  0.27258920964E+02  0.10184670770E+01 -0.28161717138E+02  0.39206738703E+02  0.51100000000E-03 0.  1.
         11    1    1    0    0    0  0.16199456458E+02  0.59516288940E+00 -0.16727207057E+02  0.23293262215E+02  0.51100000000E-03 0. -1.
         22    1    1    0    0    0 -0.43458377422E+02 -0.16136299664E+01  0.44888924195E+02  0.62499999082E+02  0.00000000000E+00 0.  1.
</event>
<event>
 4    1  0.1974401E-002  0.9118800E+02  0.7818608E-02  0.1130116E+00
         25   -1    0    0    0    0  0.00000000000E+00  0.00000000000E+00  0.99999998245E-14  0.12500000000E+03  0.12500000000E+03 0.  0.
        -11    1    1    0    0    0 -0.12949617047E+02 -0.46845517796E+02  0.13981614604E+02  0.50573517442E+02  0.51100000000E-03 0.  1.
         11    1    1    0    0    0 -0.51796336339E+01 -0.10480841026E+02  0.27643927590E+01  0.12013263536E+02  0.51100000000E-03 0. -1.
         22    1    1    0    0    0  0.18129250681E+02  0.57326358822E+02 -0.16746007363E+02  0.62413219022E+02  0.00000000000E+00 0.  1.
</event>
<event>
 4    1  0.1974401E-002  0.9118800E+02  0.7818608E-02  0.1130116E+00
         25   -1    0    0    0    0  0.00000000000E+00  0.00000000000E+00  0.99999998245E-14  0.12500000000E+03  0.12500000000E+03 0.  0.
        -11    1    1    0    0    0 -0.27730554615E+02 -0.21567962087E+02  0.47697455184E+02  0.59238567497E+02  0.51100000000E-03 0. -1.
         11    1    1    0    0    0  0.45861973830E+01  0.20868775655E+02 -0.16967016443E+02  0.27284036560E+02  0.51100000000E-03 0.  1.
         22    1    1    0    0    0  0.23144357232E+02  0.69918643154E+00 -0.30730438741E+02  0.38477395943E+02  0.00000000000E+00 0. -1.
</event>
<event>
 4    1  0.1974401E-002  0.9118800E+02  0.7818608E-02  0.1130116E+00
         25   -1    0    0    0    0  0.00000000000E+00  0.00000000000E+00  0.99999998245E-14  0.12500000000E+03  0.12500000000E+03 0.  0.
        -11    1    1    0    0    0  0.49914600876E+02 -0.21967089880E+01 -0.26408821222E+02  0.56512996289E+02  0.51100000000E-03 0.  1.
         11    1    1    0    0    0  0.60249968141E+01 -0.43573270777E+00 -0.10247035483E+01  0.61270276012E+01  0.51100000000E-03 0. -1.
         22    1    1    0    0    0 -0.55939597690E+02  0.26324416957E+01  0.27433524771E+02  0.62359976109E+02  0.00000000000E+00 0.  1.
</event>
<event>
 4    1  0.1974401E-002  0.9118800E+02  0.7818608E-02  0.1130116E+00
         25   -1    0    0    0    0  0.00000000000E+00  0.00000000000E+00  0.99999998245E-14  0.12500000000E+03  0.12500000000E+03 0.  0.
        -11    1    1    0    0    0 -0.31612409818E+01  0.62795927664E+01  0.26007798640E+02  0.26941275401E+02  0.51100000000E-03 0.  1.
         11    1    1    0    0    0 -0.41633368384E+01  0.75982621725E+01  0.34488609668E+02  0.35560246889E+02  0.51100000000E-03 0. -1.
         22    1    1    0    0    0  0.73245778202E+01 -0.13877854939E+02 -0.60496408308E+02  0.62498477711E+02  0.00000000000E+00 0.  1.
</event>
<event>
 4    1  0.1974401E-002  0.9118800E+02  0.7818608E-02  0.1130116E+00
         25   -1    0    0    0    0  0.00000000000E+00  0.00000000000E+00  0.99999998245E-14  0.12500000000E+03  0.12500000000E+03 0.  0.
        -11    1    1    0    0    0 -0.89846524164E+01  0.63258408355E+01  0.61409337482E+01  0.12587744392E+02  0.51100000000E-03 0.  1.
         11    1    1    0    0    0 -0.36111601826E+02  0.24986204537E+02  0.23726334079E+02  0.49912895455E+02  0.51100000000E-03 0. -1.
         22    1    1    0    0    0  0.45096254243E+02 -0.31312045373E+02 -0.29867267827E+02  0.62499360153E+02  0.00000000000E+00 0.  1.
</event>
<event>
 4    1  0.1974401E-002  0.9118800E+02  0.7818608E-02  0.1130116E+00
         25   -1    0    0    0    0  0.00000000000E+00  0.00000000000E+00  0.99999998245E-14  0.12500000000E+03  0.12500000000E+03 0.  0.
        -11    1    1    0    0    0  0.36020088181E+02 -0.23748424159E+02 -0.35278167964E+02  0.55731351480E+02  0.51100000000E-03 0. -1.
         11    1    1    0    0    0  0.43743420105E+01 -0.28834688636E+01 -0.42854804476E+01  0.67686485830E+01  0.51100000000E-03 0.  1.
         22    1    1    0    0    0 -0.40394430192E+02  0.26631893022E+02  0.39563648412E+02  0.62499999937E+02  0.00000000000E+00 0. -1.
</event>
<event>
 4    1  0.1974401E-002  0.9118800E+02  0.7818608E-02  0.1130116E+00
         25   -1    0    0    0    0  0.00000000000E+00  0.00000000000E+00  0.99999998245E-14  0.12500000000E+03  0.12500000000E+03 0.  0.
        -11    1    1    0    0    0 -0.13197825144E+02 -0.48265269863E+02  0.64300784346E+01  0.50448634991E+02  0.51100000000E-03 0.  1.
         11    1    1    0    0    0  0.32894857222E+00 -0.11367441533E+02 -0.73469409262E+01  0.13538998316E+02  0.51100000000E-03 0. -1.
         22    1    1    0    0    0  0.12868876572E+02  0.59632711396E+02  0.91686249161E+00  0.61012366693E+02  0.00000000000E+00 0.  1.
</event>
<event>
 4    1  0.1974401E-002  0.9118800E+02  0.7818608E-02  0.1130116E+00
         25   -1    0    0    0    0  0.00000000000E+00  0.00000000000E+00  0.99999998245E-14  0.12500000000E+03  0.12500000000E+03 0.  0.
        -11    1    1    0    0    0 -0.10716023932E+00  0.71443316647E+00  0.69439264116E+00  0.10020376577E+01  0.51100000000E-03 0. -1.
         11    1    1    0    0    0 -0.11212529460E+02  0.40961411390E+02  0.44482673783E+02  0.61500132579E+02  0.51100000000E-03 0.  1.
         22    1    1    0    0    0  0.11319689700E+02 -0.41675844557E+02 -0.45177066425E+02  0.62497829764E+02  0.00000000000E+00 0.  1.
</event>
<event>
 4    1  0.1974401E-002  0.9118800E+02  0.7818608E-02  0.1130116E+00
         25   -1    0    0    0    0  0.00000000000E+00  0.00000000000E+00  0.99999998245E-14  0.12500000000E+03  0.12500000000E+03 0.  0.
        -11    1    1    0    0    0 -0.29054260452E+02 -0.34624427932E+02  0.34979584411E+02  0.57153935874E+02  0.51100000000E-03 0. -1.
         11    1    1    0    0    0 -0.27334072310E+01 -0.35605182706E+01  0.29215158224E+01  0.53557502189E+01  0.51100000000E-03 0.  1.
         22    1    1    0    0    0  0.31787667683E+02  0.38184946203E+02 -0.37901100234E+02  0.62490313907E+02  0.00000000000E+00 0. -1.
</event>
<event>
 4    1  0.1974401E-002  0.9118800E+02  0.7818608E-02  0.1130116E+00
         25   -1    0    0    0    0  0.00000000000E+00  0.00000000000E+00  0.99999998245E-14  0.12500000000E+03  0.12500000000E+03 0.  0.
        -11    1    1    0    0    0 -0.67615242884E+01  0.17923211339E+02  0.12321242595E+02  0.22776583035E+02  0.51100000000E-03 0. -1.
         11    1    1    0    0    0 -0.11794567831E+02  0.31257857761E+02  0.21489168305E+02  0.39723416983E+02  0.51100000000E-03 0.  1.
         22    1    1    0    0    0  0.18556092120E+02 -0.49181069100E+02 -0.33810410900E+02  0.62499999982E+02  0.00000000000E+00 0.  1.
</event>
<event>
 4    1  0.1974401E-002  0.9118800E+02  0.7818608E-02  0.1130116E+00
         25   -1    0    0    0    0  0.00000000000E+00  0.00000000000E+00  0.99999998245E-14  0.12500000000E+03  0.12500000000E+03 0.  0.
        -11    1    1    0    0    0 -0.30567464388E+02  0.53883432647E+02 -0.65940681798E+01  0.62299887065E+02  0.51100000000E-03 0. -1.
         11    1    1    0    0    0 -0.14758188935E-01  0.21066258683E+00  0.39826891214E-01  0.21490223828E+00  0.51100000000E-03 0.  1.
         22    1    1    0    0    0  0.30582222577E+02 -0.54094095234E+02  0.65542412886E+01  0.62485210696E+02  0.00000000000E+00 0. -1.
</event>
<event>
 4    1  0.1974401E-002  0.9118800E+02  0.7818608E-02  0.1130116E+00
         25   -1    0    0    0    0  0.00000000000E+00  0.00000000000E+00  0.99999998245E-14  0.12500000000E+03  0.12500000000E+03 0.  0.
        -11    1    1    0    0    0  0.39381972768E+01 -0.10851596579E+02  0.83798582796E+01  0.14264942031E+02  0.51100000000E-03 0. -1.
         11    1    1    0    0    0  0.14280191764E+02 -0.35147701072E+02  0.29798641111E+02  0.48241515107E+02  0.51100000000E-03 0.  1.
         22    1    1    0    0    0 -0.18218389041E+02  0.45999297652E+02 -0.38178499390E+02  0.62493542862E+02  0.00000000000E+00 0.  1.
</event>
<event>
 4    1  0.1974401E-002  0.9118800E+02  0.7818608E-02  0.1130116E+00
         25   -1    0    0    0    0  0.00000000000E+00  0.00000000000E+00  0.99999998245E-14  0.12500000000E+03  0.12500000000E+03 0.  0.
        -11    1    1    0    0    0  0.12052852056E-01  0.15350398022E-01  0.31268503156E+00  0.31329394511E+00  0.51100000000E-03 0. -1.
         11    1    1    0    0    0  0.70510385518E+01  0.15613102391E+01  0.61766429014E+02  0.62187189900E+02  0.51100000000E-03 0.  1.
         22    1    1    0    0    0 -0.70630914038E+01 -0.15766606371E+01 -0.62079114045E+02  0.62499516155E+02  0.00000000000E+00 0.  1.
</event>
<event>
 4    1  0.1974401E-002  0.9118800E+02  0.7818608E-02  0.1130116E+00
         25   -1    0    0    0    0  0.00000000000E+00  0.00000000000E+00  0.99999998245E-14  0.12500000000E+03  0.12500000000E+03 0.  0.
        -11    1    1    0    0    0 -0.59159847828E-01  0.99467223676E+00  0.13988572149E+01  0.17174616488E+01  0.51100000000E-03 0.  1.
         11    1    1    0    0    0  0.21796341363E+02  0.52823381001E+02 -0.22654997039E+02  0.61470635009E+02  0.51100000000E-03 0. -1.
         22    1    1    0    0    0 -0.21737181515E+02 -0.53818053238E+02  0.21256139825E+02  0.61811903343E+02  0.00000000000E+00 0. -1.
</event>
<event>
 4    1  0.1974401E-002  0.9118800E+02  0.7818608E-02  0.1130116E+00
         25   -1    0    0    0    0  0.00000000000E+00  0.00000000000E+00  0.99999998245E-14  0.12500000000E+03  0.12500000000E+03 0.  0.
        -11    1    1    0    0    0 -0.58159290493E+00 -0.82382001175E-01  0.39082339796E+00  0.70553546381E+00  0.51100000000E-03 0. -1.
         11    1    1    0    0    0 -0.48394367575E+02 -0.12637288882E+02  0.36291409766E+02  0.61796296866E+02  0.51100000000E-03 0.  1.
         22    1    1    0    0    0  0.48975960480E+02  0.12719670883E+02 -0.36682233163E+02  0.62498167671E+02  0.00000000000E+00 0.  1.
</event>
<event>
 4    1  0.1974401E-002  0.9118800E+02  0.7818608E-02  0.1130116E+00
         25   -1    0    0    0    0  0.00000000000E+00  0.00000000000E+00  0.99999998245E-14  0.12500000000E+03  0.12500000000E+03 0.  0.
        -11    1    1    0    0    0  0.77911140622E+01 -0.14350507440E+01  0.88731622232E+01  0.11895118203E+02  0.51100000000E-03 0.  1.
         11    1    1    0    0    0  0.45151188003E+02  0.18981985803E+02  0.16699136975E+02  0.51747528821E+02  0.51100000000E-03 0. -1.
         22    1    1    0    0    0 -0.52942302065E+02 -0.17546935059E+02 -0.25572299198E+02  0.61357352976E+02  0.00000000000E+00 0. -1.
</event>
<event>
 4    1  0.1974401E-002  0.9118800E+02  0.7818608E-02  0.1130116E+00
         25   -1    0    0    0    0  0.00000000000E+00  0.00000000000E+00  0.99999998245E-14  0.12500000000E+03  0.12500000000E+03 0.  0.
        -11    1    1    0    0    0  0.55613185956E+01  0.33534364721E+01  0.62379856261E+01  0.90047912595E+01  0.51100000000E-03 0. -1.
         11    1    1    0    0    0  0.33011870192E+02  0.19956077795E+02  0.37063578902E+02  0.53495210027E+02  0.51100000000E-03 0.  1.
         22    1    1    0    0    0 -0.38573188788E+02 -0.23309514267E+02 -0.43301564528E+02  0.62499998714E+02  0.00000000000E+00 0.  1.
</event>
<event>
 4    1  0.1974401E-002  0.9118800E+02  0.7818608E-02  0.1130116E+00
         25   -1    0    0    0    0  0.00000000000E+00  0.00000000000E+00  0.99999998245E-14  0.12500000000E+03  0.12500000000E+03 0.  0.
        -11    1    1    0    0    0 -0.33818248027E+02  0.78455087737E+01  0.37570001087E+02  0.51153991921E+02  0.51100000000E-03 0. -1.
         11    1    1    0    0    0  0.13832069640E+02 -0.20846752817E+01  0.13043018330E+02  0.19125698654E+02  0.51100000000E-03 0.  1.
         22    1    1    0    0    0  0.19986178387E+02 -0.57608334920E+01 -0.50613019417E+02  0.54720309425E+02  0.00000000000E+00 0. -1.
</event>
<event>
 4    1  0.1974401E-002  0.9118800E+02  0.7818608E-02  0.1130116E+00
         25   -1    0    0    0    0  0.00000000000E+00  0.00000000000E+00  0.99999998245E-14  0.12500000000E+03  0.12500000000E+03 0.  0.
        -11    1    1    0    0    0 -0.25793314853E+01 -0.40233991565E+01  0.25019466049E+00  0.47857381158E+01  0.51100000000E-03 0.  1.
         11    1    1    0    0    0 -0.31251079212E+02 -0.48441910802E+02  0.27732072468E+01  0.57714290715E+02  0.51100000000E-03 0. -1.
         22    1    1    0    0    0  0.33830410697E+02  0.52465309959E+02 -0.30234019073E+01  0.62499971169E+02  0.00000000000E+00 0. -1.
</event>
<event>
 4    1  0.1974401E-002  0.9118800E+02  0.7818608E-02  0.1130116E+00
         25   -1    0    0    0    0  0.00000000000E+00  0.00000000000E+00  0.99999998245E-14  0.12500000000E+03  0.12500000000E+03 0.  0.
        -11    1    1    0    0    0  0.45262340155E+02 -0.40425968703E+02 -0.61359923364E+01  0.60996629284E+02  0.51100000000E-03 0.  1.
         11    1    1    0    0    0  0.11155422202E+01 -0.99622675522E+00 -0.15238717043E+00  0.15033709800E+01  0.51100000000E-03 0. -1.
         22    1    1    0    0    0 -0.46377882375E+02  0.41422195458E+02  0.62883795068E+01  0.62499999736E+02  0.00000000000E+00 0.  1.
</event>
<event>
 4    1  0.1974401E-002  0.9118800E+02  0.7818608E-02  0.1130116E+00
         25   -1    0    0    0    0  0.00000000000E+00  0.00000000000E+00  0.99999998245E-14  0.12500000000E+03  0.12500000000E+03 0.  0.
        -11    1    1    0    0    0  0.34935520450E+01  0.25789430349E+01  0.11875042279E+02  0.12644069062E+02  0.51100000000E-03 0. -1.
         11    1    1    0    0    0  0.13774565735E+02  0.10166451343E+02  0.46824336158E+02  0.49855930951E+02  0.51100000000E-03 0. -1.
         22    1    1    0    0    0 -0.17268117780E+02 -0.12745394378E+02 -0.58699378437E+02  0.62499999987E+02  0.00000000000E+00 0. -1.
</event>
<event>
 4    1  0.1974401E-002  0.9118800E+02  0.7818608E-02  0.1130116E+00
         25   -1    0    0    0    0  0.00000000000E+00  0.00000000000E+00  0.99999998245E-14  0.12500000000E+03  0.12500000000E+03 0.  0.
        -11    1    1    0    0    0 -0.34756499703E+02  0.18032177174E+02 -0.47291358125E+01  0.39440314540E+02  0.51100000000E-03 0. -1.
         11    1    1    0    0    0 -0.20475799692E+02  0.10331896044E+02 -0.24091876969E+01  0.23061019806E+02  0.51100000000E-03 0.  1.
         22    1    1    0    0    0  0.55232299395E+02 -0.28364073218E+02  0.71383235094E+01  0.62498665654E+02  0.00000000000E+00 0. -1.
</event>
<event>
 4    1  0.1974401E-002  0.9118800E+02  0.7818608E-02  0.1130116E+00
         25   -1    0    0    0    0  0.00000000000E+00  0.00000000000E+00  0.99999998245E-14  0.12500000000E+03  0.12500000000E+03 0.  0.
        -11    1    1    0    0    0  0.79352845500E+01 -0.10236901150E+02  0.32459099914E+02  0.34947904851E+02  0.51100000000E-03 0.  1.
         11    1    1    0    0    0  0.62157568034E+01 -0.80502146096E+01  0.25606190668E+02  0.27552106792E+02  0.51100000000E-03 0. -1.
         22    1    1    0    0    0 -0.14151041353E+02  0.18287115759E+02 -0.58065290582E+02  0.62499988356E+02  0.00000000000E+00 0. -1.
</event>
<event>
 4    1  0.1974401E-002  0.9118800E+02  0.7818608E-02  0.1130116E+00
         25   -1    0    0    0    0  0.00000000000E+00  0.00000000000E+00  0.99999998245E-14  0.12500000000E+03  0.12500000000E+03 0.  0.
        -11    1    1    0    0    0  0.37902455794E-01 -0.58034096912E+01  0.11447203221E+02  0.12834308025E+02  0.51100000000E-03 0. -1.
         11    1    1    0    0    0 -0.31132544476E+02  0.48220812533E+02 -0.15387697561E+02  0.59424433724E+02  0.51100000000E-03 0.  1.
         22    1    1    0    0    0  0.31094642020E+02 -0.42417402842E+02  0.39404943396E+01  0.52741258251E+02  0.00000000000E+00 0.  1.
</event>
<event>
 4    1  0.1974401E-002  0.9118800E+02  0.7818608E-02  0.1130116E+00
         25   -1    0    0    0    0  0.00000000000E+00  0.00000000000E+00  0.99999998245E-14  0.12500000000E+03  0.12500000000E+03 0.  0.
        -11    1    1    0    0    0  0.18844860940E+02 -0.42736135283E+02 -0.32021576966E+02  0.56629386669E+02  0.51100000000E-03 0. -1.
         11    1    1    0    0    0  0.53084236687E+01 -0.47514318878E+01  0.41125196259E+01  0.82260734719E+01  0.51100000000E-03 0.  1.
         22    1    1    0    0    0 -0.24153284609E+02  0.47487567171E+02  0.27909057340E+02  0.60144539859E+02  0.00000000000E+00 0. -1.
</event>
<event>
 4    1  0.1974401E-002  0.9118800E+02  0.7818608E-02  0.1130116E+00
         25   -1    0    0    0    0  0.00000000000E+00  0.00000000000E+00  0.99999998245E-14  0.12500000000E+03  0.12500000000E+03 0.  0.
        -11    1    1    0    0    0  0.50063651829E+01 -0.72022233389E+01  0.10881835940E+02  0.13976768835E+02  0.51100000000E-03 0.  1.
         11    1    1    0    0    0  0.17816322897E+02 -0.13204502103E+02  0.43380361843E+02  0.48719975690E+02  0.51100000000E-03 0. -1.
         22    1    1    0    0    0 -0.22822688080E+02  0.20406725442E+02 -0.54262197784E+02  0.62303255475E+02  0.00000000000E+00 0. -1.
</event>
<event>
 4    1  0.1974401E-002  0.9118800E+02  0.7818608E-02  0.1130116E+00
         25   -1    0    0    0    0  0.00000000000E+00  0.00000000000E+00  0.99999998245E-14  0.12500000000E+03  0.12500000000E+03 0.  0.
        -11    1    1    0    0    0  0.33614530054E+01 -0.76667556014E+01  0.31649154227E+01  0.89495920383E+01  0.51100000000E-03 0. -1.
         11    1    1    0    0    0  0.16647564427E+02 -0.46633195537E+02  0.20418330697E+02  0.53560288984E+02  0.51100000000E-03 0.  1.
         22    1    1    0    0    0 -0.20009017432E+02  0.54299951139E+02 -0.23583246120E+02  0.62490118977E+02  0.00000000000E+00 0.  1.
</event>
<event>
 4    1  0.1974401E-002  0.9118800E+02  0.7818608E-02  0.1130116E+00
         25   -1    0    0    0    0  0.00000000000E+00  0.00000000000E+00  0.99999998245E-14  0.12500000000E+03  0.12500000000E+03 0.  0.
        -11    1    1    0    0    0  0.27843090331E+01 -0.23760139994E+01 -0.47859889581E+01  0.60252394048E+01  0.51100000000E-03 0. -1.
         11    1    1    0    0    0  0.26224719625E+02 -0.22338664822E+02 -0.44750958541E+02  0.56474774511E+02  0.51100000000E-03 0.  1.
         22    1    1    0    0    0 -0.29009028659E+02  0.24714678822E+02  0.49536947499E+02  0.62499986084E+02  0.00000000000E+00 0.  1.
</event>
<event>
 4    1  0.1974401E-002  0.9118800E+02  0.7818608E-02  0.1130116E+00
         25   -1    0    0    0    0  0.00000000000E+00  0.00000000000E+00  0.99999998245E-14  0.12500000000E+03  0.12500000000E+03 0.  0.
        -11    1    1    0    0    0 -0.66484148327E+01  0.12573738340E+02  0.16028069630E+02  0.21428936790E+02  0.51100000000E-03 0. -1.
         11    1    1    0    0    0 -0.12743980335E+02  0.24102659066E+02  0.30716201412E+02  0.41071063272E+02  0.51100000000E-03 0.  1.
         22    1    1    0    0    0  0.19392395168E+02 -0.36676397406E+02 -0.46744271042E+02  0.62499999938E+02  0.00000000000E+00 0. -1.
</event>
<event>
 4    1  0.1974401E-002  0.9118800E+02  0.7818608E-02  0.1130116E+00
         25   -1    0    0    0    0  0.00000000000E+00  0.00000000000E+00  0.99999998245E-14  0.12500000000E+03  0.12500000000E+03 0.  0.
        -11    1    1    0    0    0 -0.16258522331E+02 -0.20125831848E+02 -0.25685875348E+02  0.36457548582E+02  0.51100000000E-03 0. -1.
         11    1    1    0    0    0 -0.11582676139E+02 -0.14370964198E+02 -0.18371900701E+02  0.26042460217E+02  0.51100000000E-03 0.  1.
         22    1    1    0    0    0  0.27841198471E+02  0.34496796046E+02  0.44057776049E+02  0.62499991201E+02  0.00000000000E+00 0.  1.
</event>
<event>
 4    1  0.1974401E-002  0.9118800E+02  0.7818608E-02  0.1130116E+00
         25   -1    0    0    0    0  0.00000000000E+00  0.00000000000E+00  0.99999998245E-14  0.12500000000E+03  0.12500000000E+03 0.  0.
        -11    1    1    0    0    0  0.95829999605E+01 -0.12384725317E+02 -0.13646244285E+02  0.20771020504E+02  0.51100000000E-03 0. -1.
         11    1    1    0    0    0  0.21151547515E+02 -0.25403956664E+02 -0.25491543558E+02  0.41744074666E+02  0.51100000000E-03 0.  1.
         22    1    1    0    0    0 -0.30734547476E+02  0.37788681981E+02  0.39137787843E+02  0.62484904830E+02  0.00000000000E+00 0.  1.
</event>
<event>
 4    1  0.1974401E-002  0.9118800E+02  0.7818608E-02  0.1130116E+00
         25   -1    0    0    0    0  0.00000000000E+00  0.00000000000E+00  0.99999998245E-14  0.12500000000E+03  0.12500000000E+03 0.  0.
        -11    1    1    0    0    0 -0.15804367363E+02  0.36504423389E+02 -0.31937222627E+02  0.51013107571E+02  0.51100000000E-03 0.  1.
         11    1    1    0    0    0 -0.15510198749E+01  0.71581228889E+01 -0.90457982725E+01  0.11639194671E+02  0.51100000000E-03 0. -1.
         22    1    1    0    0    0  0.17355387238E+02 -0.43662546277E+02  0.40983020900E+02  0.62347697758E+02  0.00000000000E+00 0. -1.
</event>
<event>
 4    1  0.1974401E-002  0.9118800E+02  0.7818608E-02  0.1130116E+00
         25   -1    0    0    0    0  0.00000000000E+00  0.00000000000E+00  0.99999998245E-14  0.12500000000E+03  0.12500000000E+03 0.  0.
        -11    1    1    0    0    0 -0.25460986767E+02 -0.45739127620E+02 -0.29947430436E+02  0.60309022813E+02  0.51100000000E-03 0.  1.
         11    1    1    0    0    0 -0.96864531174E+00 -0.16723207723E+01 -0.10333746838E+01  0.21915277784E+01  0.51100000000E-03 0. -1.
         22    1    1    0    0    0  0.26429632079E+02  0.47411448393E+02  0.30980805120E+02  0.62499449409E+02  0.00000000000E+00 0.  1.
</event>
<event>
 4    1  0.1974401E-002  0.9118800E+02  0.7818608E-02  0.1130116E+00
         25   -1    0    0    0    0  0.00000000000E+00  0.00000000000E+00  0.99999998245E-14  0.12500000000E+03  0.12500000000E+03 0.  0.
        -11    1    1    0    0    0 -0.47289166840E+02 -0.84015270590E+01  0.14312099760E+02  0.50116735300E+02  0.51100000000E-03 0. -1.
         11    1    1    0    0    0 -0.11684804466E+02 -0.20764943389E+01  0.35353586699E+01  0.12383264729E+02  0.51100000000E-03 0. -1.
         22    1    1    0    0    0  0.58973971306E+02  0.10478021398E+02 -0.17847458430E+02  0.62499999971E+02  0.00000000000E+00 0. -1.
</event>
<event>
 4    1  0.1974401E-002  0.9118800E+02  0.7818608E-02  0.1130116E+00
         25   -1    0    0    0    0  0.00000000000E+00  0.00000000000E+00  0.99999998245E-14  0.12500000000E+03  0.12500000000E+03 0.  0.
        -11    1    1    0    0    0 -0.43767080498E+02  0.80301055232E+01  0.17277259613E+02  0.47734092953E+02  0.51100000000E-03 0.  1.
         11    1    1    0    0    0 -0.13539531577E+02  0.24876305290E+01  0.53408613646E+01  0.14765907400E+02  0.51100000000E-03 0. -1.
         22    1    1    0    0    0  0.57306612075E+02 -0.10517736052E+02 -0.22618120978E+02  0.62499999646E+02  0.00000000000E+00 0.  1.
</event>
<event>
 4    1  0.1974401E-002  0.9118800E+02  0.7818608E-02  0.1130116E+00
         25   -1    0    0    0    0  0.00000000000E+00  0.00000000000E+00  0.99999998245E-14  0.12500000000E+03  0.12500000000E+03 0.  0.
        -11    1    1    0    0    0 -0.28048243690E+01 -0.43503872355E+01  0.13024018317E+02  0.14014919273E+02  0.51100000000E-03 0.  1.
         11    1    1    0    0    0 -0.89559421213E+01 -0.14537371035E+02  0.45380203234E+02  0.48486151649E+02  0.51100000000E-03 0. -1.
         22    1    1    0    0    0  0.11760766490E+02  0.18887758270E+02 -0.58404221551E+02  0.62498929078E+02  0.00000000000E+00 0. -1.
</event>
<event>
 4    1  0.1974401E-002  0.9118800E+02  0.7818608E-02  0.1130116E+00
         25   -1    0    0    0    0  0.00000000000E+00  0.00000000000E+00  0.99999998245E-14  0.12500000000E+03  0.12500000000E+03 0.  0.
        -11    1    1    0    0    0  0.45054220078E+00  0.65395594359E+00 -0.18374334017E+00  0.81511258549E+00  0.51100000000E-03 0.  1.
         11    1    1    0    0    0  0.33916818321E+02  0.49732279035E+02 -0.13467629467E+02  0.61684902422E+02  0.51100000000E-03 0. -1.
         22    1    1    0    0    0 -0.34367360522E+02 -0.50386234978E+02  0.13651372807E+02  0.62499984993E+02  0.00000000000E+00 0. -1.
</event>
<event>
 4    1  0.1974401E-002  0.9118800E+02  0.7818608E-02  0.1130116E+00
         25   -1    0    0    0    0  0.00000000000E+00  0.00000000000E+00  0.99999998245E-14  0.12500000000E+03  0.12500000000E+03 0.  0.
        -11    1    1    0    0    0  0.46628215529E+02  0.37164758086E+02 -0.52109953538E+01  0.59854525308E+02  0.51100000000E-03 0. -1.
         11    1    1    0    0    0  0.21253025014E+01  0.15580153910E+01 -0.24438303223E+00  0.26465158244E+01  0.51100000000E-03 0.  1.
         22    1    1    0    0    0 -0.48753518031E+02 -0.38722773477E+02  0.54553783860E+01  0.62498958867E+02  0.00000000000E+00 0. -1.
</event>
<event>
 4    1  0.1974401E-002  0.9118800E+02  0.7818608E-02  0.1130116E+00
         25   -1    0    0    0    0  0.00000000000E+00  0.00000000000E+00  0.99999998245E-14  0.12500000000E+03  0.12500000000E+03 0.  0.
        -11    1    1    0    0    0  0.32662642357E+02  0.38144976503E+02  0.16901501433E+02  0.52986301901E+02  0.51100000000E-03 0. -1.
         11    1    1    0    0    0  0.68725963225E+01  0.66915296167E+01  0.92008757785E+00  0.96361667813E+01  0.51100000000E-03 0.  1.
         22    1    1    0    0    0 -0.39535238679E+02 -0.44836506120E+02 -0.17821589011E+02  0.62377531318E+02  0.00000000000E+00 0. -1.
</event>
<event>
 4    1  0.1974401E-002  0.9118800E+02  0.7818608E-02  0.1130116E+00
         25   -1    0    0    0    0  0.00000000000E+00  0.00000000000E+00  0.99999998245E-14  0.12500000000E+03  0.12500000000E+03 0.  0.
        -11    1    1    0    0    0 -0.24039489221E+02  0.30339851132E+02 -0.36235051201E+02  0.53022472071E+02  0.51100000000E-03 0. -1.
         11    1    1    0    0    0 -0.42967453199E+01  0.54224362440E+01 -0.64775536113E+01  0.94775279590E+01  0.51100000000E-03 0. -1.
         22    1    1    0    0    0  0.28336234541E+02 -0.35762287376E+02  0.42712604812E+02  0.62499999970E+02  0.00000000000E+00 0. -1.
</event>
<event>
 4    1  0.1974401E-002  0.9118800E+02  0.7818608E-02  0.1130116E+00
         25   -1    0    0    0    0  0.00000000000E+00  0.00000000000E+00  0.99999998245E-14  0.12500000000E+03  0.12500000000E+03 0.  0.
        -11    1    1    0    0    0 -0.47592314959E+02  0.34502676281E+02 -0.75092489151E+01  0.59260880294E+02  0.51100000000E-03 0. -1.
         11    1    1    0    0    0 -0.26000520064E+01  0.18897778052E+01 -0.40052519520E+00  0.32391281669E+01  0.51100000000E-03 0.  1.
         22    1    1    0    0    0  0.50192366965E+02 -0.36392454086E+02  0.79097741103E+01  0.62499991539E+02  0.00000000000E+00 0. -1.
</event>
<event>
 4    1  0.1974401E-002  0.9118800E+02  0.7818608E-02  0.1130116E+00
         25   -1    0    0    0    0  0.00000000000E+00  0.00000000000E+00  0.99999998245E-14  0.12500000000E+03  0.12500000000E+03 0.  0.
        -11    1    1    0    0    0 -0.16032820403E+02  0.49795652745E+01 -0.90007599061E+01  0.19048912818E+02  0.51100000000E-03 0. -1.
         11    1    1    0    0    0 -0.36409978112E+02  0.11221753780E+02 -0.20890409706E+02  0.43451392175E+02  0.51100000000E-03 0.  1.
         22    1    1    0    0    0  0.52442798515E+02 -0.16201319054E+02  0.29891169612E+02  0.62499695007E+02  0.00000000000E+00 0.  1.
</event>
<event>
 4    1  0.1974401E-002  0.9118800E+02  0.7818608E-02  0.1130116E+00
         25   -1    0    0    0    0  0.00000000000E+00  0.00000000000E+00  0.99999998245E-14  0.12500000000E+03  0.12500000000E+03 0.  0.
        -11    1    1    0    0    0  0.82889567300E+00  0.14976976770E+01 -0.25124902477E+01  0.30401930653E+01  0.51100000000E-03 0.  1.
         11    1    1    0    0    0  0.21939659749E+02  0.39583876078E+02 -0.38643148748E+02  0.59510712151E+02  0.51100000000E-03 0. -1.
         22    1    1    0    0    0 -0.22768555422E+02 -0.41081573755E+02  0.41155638996E+02  0.62449094784E+02  0.00000000000E+00 0. -1.
</event>
<event>
 4    1  0.1974401E-002  0.9118800E+02  0.7818608E-02  0.1130116E+00
         25   -1    0    0    0    0  0.00000000000E+00  0.00000000000E+00  0.99999998245E-14  0.12500000000E+03  0.12500000000E+03 0.  0.
        -11    1    1    0    0    0  0.53900257372E+01 -0.52282754704E+01 -0.11066785128E+02  0.13373891550E+02  0.51100000000E-03 0.  1.
         11    1    1    0    0    0  0.19769867622E+02 -0.19204734014E+02 -0.40665773949E+02  0.49126109610E+02  0.51100000000E-03 0. -1.
         22    1    1    0    0    0 -0.25159893359E+02  0.24433009484E+02  0.51732559077E+02  0.62499998840E+02  0.00000000000E+00 0. -1.
</event>
<event>
 4    1  0.1974401E-002  0.9118800E+02  0.7818608E-02  0.1130116E+00
         25   -1    0    0    0    0  0.00000000000E+00  0.00000000000E+00  0.99999998245E-14  0.12500000000E+03  0.12500000000E+03 0.  0.
        -11    1    1    0    0    0  0.11678282934E+02 -0.11232851283E+02 -0.33742677470E+01  0.16551281622E+02  0.51100000000E-03 0.  1.
         11    1    1    0    0    0  0.32325345424E+02 -0.31185090533E+02 -0.96882257580E+01  0.45948879714E+02  0.51100000000E-03 0. -1.
         22    1    1    0    0    0 -0.44003628358E+02  0.42417941815E+02  0.13062493505E+02  0.62499838665E+02  0.00000000000E+00 0. -1.
</event>
<event>
 4    1  0.1974401E-002  0.9118800E+02  0.7818608E-02  0.1130116E+00
         25   -1    0    0    0    0  0.00000000000E+00  0.00000000000E+00  0.99999998245E-14  0.12500000000E+03  0.12500000000E+03 0.  0.
        -11    1    1    0    0    0  0.30462198412E+02 -0.15541183488E+02  0.43005879834E+01  0.34466925792E+02  0.51100000000E-03 0.  1.
         11    1    1    0    0    0  0.24786296078E+02 -0.12621494474E+02  0.34915312072E+01  0.28033076650E+02  0.51100000000E-03 0. -1.
         22    1    1    0    0    0 -0.55248494490E+02  0.28162677962E+02 -0.77921191906E+01  0.62499997559E+02  0.00000000000E+00 0.  1.
</event>
<event>
 4    1  0.1974401E-002  0.9118800E+02  0.7818608E-02  0.1130116E+00
         25   -1    0    0    0    0  0.00000000000E+00  0.00000000000E+00  0.99999998245E-14  0.12500000000E+03  0.12500000000E+03 0.  0.
        -11    1    1    0    0    0  0.21638460979E+02 -0.32437080758E+02 -0.71609377480E+01  0.39644245879E+02  0.51100000000E-03 0.  1.
         11    1    1    0    0    0  0.12441344222E+02 -0.18728429897E+02 -0.41042847482E+01  0.22855771394E+02  0.51100000000E-03 0. -1.
         22    1    1    0    0    0 -0.34079805201E+02  0.51165510654E+02  0.11265222496E+02  0.62499982727E+02  0.00000000000E+00 0.  1.
</event>
<event>
 4    1  0.1974401E-002  0.9118800E+02  0.7818608E-02  0.1130116E+00
         25   -1    0    0    0    0  0.00000000000E+00  0.00000000000E+00  0.99999998245E-14  0.12500000000E+03  0.12500000000E+03 0.  0.
        -11    1    1    0    0    0  0.20347850405E+02  0.39148385373E+01 -0.25840178084E+01  0.20881525930E+02  0.51100000000E-03 0.  1.
         11    1    1    0    0    0  0.40512333439E+02  0.79236078079E+01 -0.52982142305E+01  0.41618551100E+02  0.51100000000E-03 0. -1.
         22    1    1    0    0    0 -0.60860183844E+02 -0.11838446345E+02  0.78822320389E+01  0.62499922970E+02  0.00000000000E+00 0. -1.
</event>
<event>
 4    1  0.1974401E-002  0.9118800E+02  0.7818608E-02  0.1130116E+00
         25   -1    0    0    0    0  0.00000000000E+00  0.00000000000E+00  0.99999998245E-14  0.12500000000E+03  0.12500000000E+03 0.  0.
        -11    1    1    0    0    0 -0.45920244038E+02 -0.22275742161E+02  0.17007748996E+02  0.53797221374E+02  0.51100000000E-03 0. -1.
         11    1    1    0    0    0 -0.74230091471E+01 -0.36058080665E+01  0.27632436206E+01  0.87027830134E+01  0.51100000000E-03 0.  1.
         22    1    1    0    0    0  0.53343253185E+02  0.25881550228E+02 -0.19770992616E+02  0.62499995613E+02  0.00000000000E+00 0. -1.
</event>
<event>
 4    1  0.1974401E-002  0.9118800E+02  0.7818608E-02  0.1130116E+00
         25   -1    0    0    0    0  0.00000000000E+00  0.00000000000E+00  0.99999998245E-14  0.12500000000E+03  0.12500000000E+03 0.  0.
        -11    1    1    0    0    0  0.14916170033E+02 -0.16649623523E+02  0.26959375420E+02  0.35021565002E+02  0.51100000000E-03 0. -1.
         11    1    1    0    0    0  0.11704131881E+02 -0.13063468301E+02  0.21152387168E+02  0.27478435005E+02  0.51100000000E-03 0. -1.
         22    1    1    0    0    0 -0.26620301914E+02  0.29713091824E+02 -0.48111762588E+02  0.62499999993E+02  0.00000000000E+00 0. -1.
</event>
<event>
 4    1  0.1974401E-002  0.9118800E+02  0.7818608E-02  0.1130116E+00
         25   -1    0    0    0    0  0.00000000000E+00  0.00000000000E+00  0.99999998245E-14  0.12500000000E+03  0.12500000000E+03 0.  0.
        -11    1    1    0    0    0 -0.24680846088E+02 -0.23647272616E+02 -0.45919555997E+01  0.34488022881E+02  0.51100000000E-03 0.  1.
         11    1    1    0    0    0 -0.18383715205E+02 -0.21307145600E+02  0.15764748525E+01  0.28185824657E+02  0.51100000000E-03 0. -1.
         22    1    1    0    0    0  0.43064561293E+02  0.44954418216E+02  0.30154807472E+01  0.62326152461E+02  0.00000000000E+00 0.  1.
</event>
<event>
 4    1  0.1974401E-002  0.9118800E+02  0.7818608E-02  0.1130116E+00
         25   -1    0    0    0    0  0.00000000000E+00  0.00000000000E+00  0.99999998245E-14  0.12500000000E+03  0.12500000000E+03 0.  0.
        -11    1    1    0    0    0  0.12635483885E+02 -0.11283999811E+02  0.35098934889E+02  0.38973315683E+02  0.51100000000E-03 0.  1.
         11    1    1    0    0    0  0.76306688937E+01 -0.68392230367E+01  0.21177890957E+02  0.23526690060E+02  0.51100000000E-03 0. -1.
         22    1    1    0    0    0 -0.20266152779E+02  0.18123222848E+02 -0.56276825846E+02  0.62499994257E+02  0.00000000000E+00 0.  1.
</event>
<event>
 4    1  0.1974401E-002  0.9118800E+02  0.7818608E-02  0.1130116E+00
         25   -1    0    0    0    0  0.00000000000E+00  0.00000000000E+00  0.99999998245E-14  0.12500000000E+03  0.12500000000E+03 0.  0.
        -11    1    1    0    0    0 -0.17874322646E+02  0.72792660347E+01  0.40084958651E+02  0.44489133891E+02  0.51100000000E-03 0.  1.
         11    1    1    0    0    0  0.13751807059E+02  0.28384693711E+02 -0.84315671637E+01  0.32648037607E+02  0.51100000000E-03 0. -1.
         22    1    1    0    0    0  0.41225155866E+01 -0.35663959746E+02 -0.31653391488E+02  0.47862828502E+02  0.00000000000E+00 0.  1.
</event>
<event>
 4    1  0.1974401E-002  0.9118800E+02  0.7818608E-02  0.1130116E+00
         25   -1    0    0    0    0  0.00000000000E+00  0.00000000000E+00  0.99999998245E-14  0.12500000000E+03  0.12500000000E+03 0.  0.
        -11    1    1    0    0    0  0.15751728473E+02  0.21498452411E+02 -0.56134776711E+02  0.62140273274E+02  0.51100000000E-03 0. -1.
         11    1    1    0    0    0  0.93453735446E-01  0.12464058888E+00 -0.32424857278E+00  0.35973083707E+00  0.51100000000E-03 0.  1.
         22    1    1    0    0    0 -0.15845182208E+02 -0.21623093000E+02  0.56459025284E+02  0.62499995889E+02  0.00000000000E+00 0. -1.
</event>
<event>
 4    1  0.1974401E-002  0.9118800E+02  0.7818608E-02  0.1130116E+00
         25   -1    0    0    0    0  0.00000000000E+00  0.00000000000E+00  0.99999998245E-14  0.12500000000E+03  0.12500000000E+03 0.  0.
        -11    1    1    0    0    0  0.15253592728E+02 -0.39097087126E+01 -0.84890435509E+01  0.17889152411E+02  0.51100000000E-03 0.  1.
         11    1    1    0    0    0  0.36266526334E+02 -0.24241716096E+02 -0.11463093683E+02  0.45103483775E+02  0.51100000000E-03 0. -1.
         22    1    1    0    0    0 -0.51520119062E+02  0.28151424809E+02  0.19952137234E+02  0.62007363813E+02  0.00000000000E+00 0. -1.
</event>
<event>
 4    1  0.1974401E-002  0.9118800E+02  0.7818608E-02  0.1130116E+00
         25   -1    0    0    0    0  0.00000000000E+00  0.00000000000E+00  0.99999998245E-14  0.12500000000E+03  0.12500000000E+03 0.  0.
        -11    1    1    0    0    0 -0.12363609466E+02 -0.55516996728E+01  0.12293846512E+02  0.18298056470E+02  0.51100000000E-03 0. -1.
         11    1    1    0    0    0 -0.31327311403E+02 -0.13023742727E+02  0.28344243564E+02  0.44208759967E+02  0.51100000000E-03 0.  1.
         22    1    1    0    0    0  0.43690920869E+02  0.18575442400E+02 -0.40638090076E+02  0.62493183562E+02  0.00000000000E+00 0.  1.
</event>
<event>
 4    1  0.1974401E-002  0.9118800E+02  0.7818608E-02  0.1130116E+00
         25   -1    0    0    0    0  0.00000000000E+00  0.00000000000E+00  0.99999998245E-14  0.12500000000E+03  0.12500000000E+03 0.  0.
        -11    1    1    0    0    0 -0.10120550702E+02 -0.16298188621E+01  0.73079938854E+01  0.12589226780E+02  0.51100000000E-03 0.  1.
         11    1    1    0    0    0 -0.40128750339E+02 -0.64677275708E+01  0.28964412546E+02  0.49910773367E+02  0.51100000000E-03 0. -1.
         22    1    1    0    0    0  0.50249301041E+02  0.80975464329E+01 -0.36272406431E+02  0.62499999853E+02  0.00000000000E+00 0. -1.
</event>
<event>
 4    1  0.1974401E-002  0.9118800E+02  0.7818608E-02  0.1130116E+00
         25   -1    0    0    0    0  0.00000000000E+00  0.00000000000E+00  0.99999998245E-14  0.12500000000E+03  0.12500000000E+03 0.  0.
        -11    1    1    0    0    0 -0.51598659077E+02  0.18239959380E+02 -0.76282102160E+01  0.55256740114E+02  0.51100000000E-03 0. -1.
         11    1    1    0    0    0 -0.70990085927E+01  0.14223335324E+01 -0.73602785289E+00  0.72774097684E+01  0.51100000000E-03 0.  1.
         22    1    1    0    0    0  0.58697667669E+02 -0.19662292913E+02  0.83642380689E+01  0.62465850117E+02  0.00000000000E+00 0. -1.
</event>
<event>
 4    1  0.1974401E-002  0.9118800E+02  0.7818608E-02  0.1130116E+00
         25   -1    0    0    0    0  0.00000000000E+00  0.00000000000E+00  0.99999998245E-14  0.12500000000E+03  0.12500000000E+03 0.  0.
        -11    1    1    0    0    0  0.14664001510E+02  0.28834125946E+01 -0.12692746407E+02  0.19607468477E+02  0.51100000000E-03 0. -1.
         11    1    1    0    0    0  0.16059776405E+02 -0.24217542534E+02 -0.34543264976E+02  0.45140258528E+02  0.51100000000E-03 0.  1.
         22    1    1    0    0    0 -0.30723777915E+02  0.21334129940E+02  0.47236011383E+02  0.60252272994E+02  0.00000000000E+00 0.  1.
</event>
<event>
 4    1  0.1974401E-002  0.9118800E+02  0.7818608E-02  0.1130116E+00
         25   -1    0    0    0    0  0.00000000000E+00  0.00000000000E+00  0.99999998245E-14  0.12500000000E+03  0.12500000000E+03 0.  0.
        -11    1    1    0    0    0 -0.29165689509E+02 -0.25617823602E+01 -0.38138414190E+02  0.48080545032E+02  0.51100000000E-03 0.  1.
         11    1    1    0    0    0  0.47789690918E+01  0.46931252166E+01 -0.16086334898E+02  0.17425100877E+02  0.51100000000E-03 0. -1.
         22    1    1    0    0    0  0.24386720417E+02 -0.21313428564E+01  0.54224749087E+02  0.59494354091E+02  0.00000000000E+00 0.  1.
</event>
<event>
 4    1  0.1974401E-002  0.9118800E+02  0.7818608E-02  0.1130116E+00
         25   -1    0    0    0    0  0.00000000000E+00  0.00000000000E+00  0.99999998245E-14  0.12500000000E+03  0.12500000000E+03 0.  0.
        -11    1    1    0    0    0  0.91699190920E-01  0.77627348441E+01  0.10455649969E+00  0.77639805077E+01  0.51100000000E-03 0.  1.
         11    1    1    0    0    0  0.35731612865E+01  0.54617601088E+02  0.84588487633E+00  0.54740892865E+02  0.51100000000E-03 0. -1.
         22    1    1    0    0    0 -0.36648604774E+01 -0.62380335932E+02 -0.95044137603E+00  0.62495126627E+02  0.00000000000E+00 0.  1.
</event>
<event>
 4    1  0.1974401E-002  0.9118800E+02  0.7818608E-02  0.1130116E+00
         25   -1    0    0    0    0  0.00000000000E+00  0.00000000000E+00  0.99999998245E-14  0.12500000000E+03  0.12500000000E+03 0.  0.
        -11    1    1    0    0    0 -0.34071739732E+02  0.10693799347E+02 -0.22660478679E+02  0.42293475704E+02  0.51100000000E-03 0.  1.
         11    1    1    0    0    0 -0.16406510118E+02  0.15302922164E+02  0.30802946870E+01  0.22645997806E+02  0.51100000000E-03 0. -1.
         22    1    1    0    0    0  0.50478249850E+02 -0.25996721511E+02  0.19580183992E+02  0.60060526491E+02  0.00000000000E+00 0.  1.
</event>
<event>
 4    1  0.1974401E-002  0.9118800E+02  0.7818608E-02  0.1130116E+00
         25   -1    0    0    0    0  0.00000000000E+00  0.00000000000E+00  0.99999998245E-14  0.12500000000E+03  0.12500000000E+03 0.  0.
        -11    1    1    0    0    0 -0.12485184905E+02  0.28796748392E+01 -0.40918294531E+02  0.42877490562E+02  0.51100000000E-03 0.  1.
         11    1    1    0    0    0 -0.54912119040E+01  0.12095372610E+01 -0.18800249852E+02  0.19623093113E+02  0.51100000000E-03 0. -1.
         22    1    1    0    0    0  0.17976396809E+02 -0.40892121001E+01  0.59718544383E+02  0.62499416325E+02  0.00000000000E+00 0.  1.
</event>
<event>
 4    1  0.1974401E-002  0.9118800E+02  0.7818608E-02  0.1130116E+00
         25   -1    0    0    0    0  0.00000000000E+00  0.00000000000E+00  0.99999998245E-14  0.12500000000E+03  0.12500000000E+03 0.  0.
        -11    1    1    0    0    0 -0.97865550444E+01 -0.78243973229E+01  0.30646071431E+02  0.33108602319E+02  0.51100000000E-03 0. -1.
         11    1    1    0    0    0 -0.11001268032E+02 -0.30416173600E+01  0.27185226683E+02  0.29484163284E+02  0.51100000000E-03 0.  1.
         22    1    1    0    0    0  0.20787823077E+02  0.10866014683E+02 -0.57831298115E+02  0.62407234396E+02  0.00000000000E+00 0. -1.
</event>
<event>
 4    1  0.1974401E-002  0.9118800E+02  0.7818608E-02  0.1130116E+00
         25   -1    0    0    0    0  0.00000000000E+00  0.00000000000E+00  0.99999998245E-14  0.12500000000E+03  0.12500000000E+03 0.  0.
        -11    1    1    0    0    0 -0.20887267845E+01  0.34088169402E+02  0.39275832382E+02  0.52047642428E+02  0.51100000000E-03 0. -1.
         11    1    1    0    0    0 -0.44870865576E+00  0.68628981689E+01  0.78709377765E+01  0.10452385971E+02  0.51100000000E-03 0.  1.
         22    1    1    0    0    0  0.25374354403E+01 -0.40951067571E+02 -0.47146770159E+02  0.62499971601E+02  0.00000000000E+00 0. -1.
</event>
<event>
 4    1  0.1974401E-002  0.9118800E+02  0.7818608E-02  0.1130116E+00
         25   -1    0    0    0    0  0.00000000000E+00  0.00000000000E+00  0.99999998245E-14  0.12500000000E+03  0.12500000000E+03 0.  0.
        -11    1    1    0    0    0 -0.42179707863E+02  0.12698170144E+02 -0.30133340684E+02  0.53370305428E+02  0.51100000000E-03 0. -1.
         11    1    1    0    0    0 -0.69008469764E+01  0.20418481021E+01 -0.56308823416E+01  0.91377058866E+01  0.51100000000E-03 0.  1.
         22    1    1    0    0    0  0.49080554840E+02 -0.14740018246E+02  0.35764223025E+02  0.62491988686E+02  0.00000000000E+00 0. -1.
</event>
<event>
 4    1  0.1974401E-002  0.9118800E+02  0.7818608E-02  0.1130116E+00
         25   -1    0    0    0    0  0.00000000000E+00  0.00000000000E+00  0.99999998245E-14  0.12500000000E+03  0.12500000000E+03 0.  0.
        -11    1    1    0    0    0 -0.27829751385E+02  0.42483127522E+02  0.36148075956E+02  0.62337746043E+02  0.51100000000E-03 0.  1.
         11    1    1    0    0    0 -0.33847791464E+00 -0.50447257071E+00 -0.23708579361E+00  0.65212714094E+00  0.51100000000E-03 0. -1.
         22    1    1    0    0    0  0.28168229299E+02 -0.41978654951E+02 -0.35910990162E+02  0.62010126816E+02  0.00000000000E+00 0.  1.
</event>
<event>
 4    1  0.1974401E-002  0.9118800E+02  0.7818608E-02  0.1130116E+00
         25   -1    0    0    0    0  0.00000000000E+00  0.00000000000E+00  0.99999998245E-14  0.12500000000E+03  0.12500000000E+03 0.  0.
        -11    1    1    0    0    0  0.24055314233E+02 -0.20725715133E+01 -0.27595823022E+02  0.36667194385E+02  0.51100000000E-03 0. -1.
         11    1    1    0    0    0  0.16959988936E+02 -0.14639049797E+01 -0.19430637926E+02  0.25832807300E+02  0.51100000000E-03 0.  1.
         22    1    1    0    0    0 -0.41015303169E+02  0.35364764929E+01  0.47026460948E+02  0.62499998315E+02  0.00000000000E+00 0.  1.
</event>
<event>
 4    1  0.1974401E-002  0.9118800E+02  0.7818608E-02  0.1130116E+00
         25   -1    0    0    0    0  0.00000000000E+00  0.00000000000E+00  0.99999998245E-14  0.12500000000E+03  0.12500000000E+03 0.  0.
        -11    1    1    0    0    0  0.13333319725E+02  0.11132581151E+02 -0.46468669133E+02  0.49608960775E+02  0.51100000000E-03 0. -1.
         11    1    1    0    0    0  0.34606642708E+01  0.29017815575E+01 -0.12074038157E+02  0.12891040729E+02  0.51100000000E-03 0.  1.
         22    1    1    0    0    0 -0.16793983996E+02 -0.14034362709E+02  0.58542707290E+02  0.62499998495E+02  0.00000000000E+00 0. -1.
</event>
<event>
 4    1  0.1974401E-002  0.9118800E+02  0.7818608E-02  0.1130116E+00
         25   -1    0    0    0    0  0.00000000000E+00  0.00000000000E+00  0.99999998245E-14  0.12500000000E+03  0.12500000000E+03 0.  0.
        -11    1    1    0    0    0 -0.41293033299E+02  0.35659346212E+02  0.10707095055E+01  0.54569680138E+02  0.51100000000E-03 0.  1.
         11    1    1    0    0    0 -0.59868041146E+01  0.51990146216E+01  0.13696168924E+00  0.79303426980E+01  0.51100000000E-03 0. -1.
         22    1    1    0    0    0  0.47279837413E+02 -0.40858360833E+02 -0.12076711947E+01  0.62499977164E+02  0.00000000000E+00 0.  1.
</event>
<event>
 4    1  0.1974401E-002  0.9118800E+02  0.7818608E-02  0.1130116E+00
         25   -1    0    0    0    0  0.00000000000E+00  0.00000000000E+00  0.99999998245E-14  0.12500000000E+03  0.12500000000E+03 0.  0.
        -11    1    1    0    0    0  0.26907048137E+02  0.43635448168E+02 -0.16395368162E+01  0.51290639082E+02  0.51100000000E-03 0. -1.
         11    1    1    0    0    0  0.70647795060E+01  0.86983411713E+01  0.15756454412E+01  0.11316134827E+02  0.51100000000E-03 0.  1.
         22    1    1    0    0    0 -0.33971827643E+02 -0.52333789339E+02  0.63891375008E-01  0.62393226091E+02  0.00000000000E+00 0. -1.
</event>
<event>
 4    1  0.1974401E-002  0.9118800E+02  0.7818608E-02  0.1130116E+00
         25   -1    0    0    0    0  0.00000000000E+00  0.00000000000E+00  0.99999998245E-14  0.12500000000E+03  0.12500000000E+03 0.  0.
        -11    1    1    0    0    0  0.10581899563E+02  0.96002124150E+01 -0.11946869378E+01  0.14337641156E+02  0.51100000000E-03 0.  1.
         11    1    1    0    0    0  0.35193339862E+02  0.32358157773E+02 -0.58651832787E+01  0.48166605862E+02  0.51100000000E-03 0. -1.
         22    1    1    0    0    0 -0.45775239425E+02 -0.41958370188E+02  0.70598702165E+01  0.62495752982E+02  0.00000000000E+00 0. -1.
</event>
