<event>
 5    1  0.6622912E-004  0.9118800E+02  0.7818608E-02  0.1130116E+00
         25   -1    0    0    0    0  0.00000000000E+00  0.00000000000E+00  0.99999998245E-14  0.12500000000E+03  0.12500000000E+03 0.  0.
        -11    1    3    3    0    0 -0.31893477323E+02 -0.24277746280E+02 -0.57385624113E+01  0.40491159023E+02  0.51100000000E-03 0.  1.
         23    2    1    0    0    0 -0.10899836439E+02  0.18228380010E+02  0.21177674996E+02  0.95007097666E+02  0.90148624041E+02 0.  0.
         11    1    3    3    0    0  0.20993640884E+02  0.42506126290E+02  0.26916237407E+02  0.54515938643E+02  0.51100000000E-03 0. -1.
         22    1    1    0    0    0  0.10899836439E+02 -0.18228380010E+02 -0.21177674996E+02  0.29992902334E+02  0.00000000000E+00 0. -1.
</event>
<event>
 5    1  0.6622912E-004  0.9118800E+02  0.7818608E-02  0.1130116E+00
         25   -1    0    0    0    0  0.00000000000E+00  0.00000000000E+00  0.99999998245E-14  0.12500000000E+03  0.12500000000E+03 0.  0.
        -11    1    3    3    0    0  0.40205128927E+02  0.16093828895E+02  0.18572499520E+02  0.47121136014E+02  0.51100000000E-03 0. -1.
         23    2    1    0    0    0 -0.23159343775E+01  0.29313963220E+02 -0.56756713887E+00  0.95589217553E+02  0.90952209365E+02 0.  0.
         11    1    3    3    0    0 -0.42521063305E+02  0.13220134324E+02 -0.19140066659E+02  0.48468081539E+02  0.51100000000E-03 0.  1.
         22    1    1    0    0    0  0.23159343775E+01 -0.29313963220E+02  0.56756713887E+00  0.29410782447E+02  0.00000000000E+00 0.  1.
</event>
<event>
 5    1  0.6622912E-004  0.9118800E+02  0.7818608E-02  0.1130116E+00
         25   -1    0    0    0    0  0.00000000000E+00  0.00000000000E+00  0.99999998245E-14  0.12500000000E+03  0.12500000000E+03 0.  0.
        -11    1    3    3    0    0  0.32462576492E+02  0.16748182528E+02 -0.98992861045E+00  0.36541763086E+02  0.51100000000E-03 0. -1.
         23    2    1    0    0    0 -0.78083051459E+01 -0.24123402734E+02 -0.14911791402E+02  0.95584532784E+02  0.90945770632E+02 0.  0.
         11    1    3    3    0    0 -0.40270881638E+02 -0.40871585262E+02 -0.13921862791E+02  0.59042769698E+02  0.51100000000E-03 0.  1.
         22    1    1    0    0    0  0.78083051459E+01  0.24123402734E+02  0.14911791402E+02  0.29415467216E+02  0.00000000000E+00 0.  1.
</event>
<event>
 5    1  0.6622912E-004  0.9118800E+02  0.7818608E-02  0.1130116E+00
         25   -1    0    0    0    0  0.00000000000E+00  0.00000000000E+00  0.99999998245E-14  0.12500000000E+03  0.12500000000E+03 0.  0.
        -11    1    3    3    0    0  0.78778701809E+01 -0.33081001126E+02  0.70100576611E+00  0.34013304507E+02  0.51100000000E-03 0.  1.
         23    2    1    0    0    0 -0.24487678639E+02  0.16658311150E+02  0.92592125488E+01  0.93969712336E+02  0.88698523572E+02 0.  0.
         11    1    3    3    0    0 -0.32365548820E+02  0.49739312276E+02  0.85582067827E+01  0.59956407829E+02  0.51100000000E-03 0. -1.
         22    1    1    0    0    0  0.24487678639E+02 -0.16658311150E+02 -0.92592125488E+01  0.31030287664E+02  0.00000000000E+00 0. -1.
</event>
<event>
 5    1  0.6622912E-004  0.9118800E+02  0.7818608E-02  0.1130116E+00
         25   -1    0    0    0    0  0.00000000000E+00  0.00000000000E+00  0.99999998245E-14  0.12500000000E+03  0.12500000000E+03 0.  0.
        -11    1    3    3    0    0  0.11376509915E+02  0.17448552883E+02 -0.56698615149E+02  0.60403724518E+02  0.51100000000E-03 0.  1.
         23    2    1    0    0    0 -0.47187073206E+01  0.13362947032E+02 -0.22728611463E+02  0.98215222024E+02  0.94492356866E+02 0.  0.
         11    1    3    3    0    0 -0.16095217236E+02 -0.40856058517E+01  0.33970003685E+02  0.37811497507E+02  0.51100000000E-03 0. -1.
         22    1    1    0    0    0  0.47187073206E+01 -0.13362947032E+02  0.22728611463E+02  0.26784777976E+02  0.00000000000E+00 0.  1.
</event>
<event>
 5    1  0.6622912E-004  0.9118800E+02  0.7818608E-02  0.1130116E+00
         25   -1    0    0    0    0  0.00000000000E+00  0.00000000000E+00  0.99999998245E-14  0.12500000000E+03  0.12500000000E+03 0.  0.
        -11    1    3    3    0    0  0.22914875793E+02  0.10586239011E+02  0.27054208391E+02  0.37001218641E+02  0.51100000000E-03 0. -1.
         23    2    1    0    0    0 -0.18203786466E+02 -0.21791923356E+02 -0.13966534379E+01  0.96570852878E+02  0.92291457999E+02 0.  0.
         11    1    3    3    0    0 -0.41118662258E+02 -0.32378162366E+02 -0.28450861829E+02  0.59569634238E+02  0.51100000000E-03 0.  1.
         22    1    1    0    0    0  0.18203786466E+02  0.21791923356E+02  0.13966534379E+01  0.28429147122E+02  0.00000000000E+00 0.  1.
</event>
<event>
 5    1  0.6622912E-004  0.9118800E+02  0.7818608E-02  0.1130116E+00
         25   -1    0    0    0    0  0.00000000000E+00  0.00000000000E+00  0.99999998245E-14  0.12500000000E+03  0.12500000000E+03 0.  0.
        -11    1    3    3    0    0 -0.20740646327E+02  0.10166427205E+02 -0.27133131384E+02  0.35633375803E+02  0.51100000000E-03 0. -1.
         23    2    1    0    0    0 -0.91487482443E+00 -0.22834264837E+02  0.18686989708E+02  0.95479765737E+02  0.90801659865E+02 0.  0.
         11    1    3    3    0    0  0.19825771503E+02 -0.33000692042E+02  0.45820121092E+02  0.59846389934E+02  0.51100000000E-03 0.  1.
         22    1    1    0    0    0  0.91487482443E+00  0.22834264837E+02 -0.18686989708E+02  0.29520234263E+02  0.00000000000E+00 0.  1.
</event>
<event>
 5    1  0.6622912E-004  0.9118800E+02  0.7818608E-02  0.1130116E+00
         25   -1    0    0    0    0  0.00000000000E+00  0.00000000000E+00  0.99999998245E-14  0.12500000000E+03  0.12500000000E+03 0.  0.
        -11    1    3    3    0    0  0.82680191701E+01 -0.84380960908E+01 -0.38459073500E+02  0.40232597994E+02  0.51100000000E-03 0. -1.
         23    2    1    0    0    0 -0.14240492871E+02 -0.22573926058E+02  0.10801903084E+02  0.96206686798E+02  0.91796904630E+02 0.  0.
         11    1    3    3    0    0 -0.22508512041E+02 -0.14135829968E+02  0.49260976584E+02  0.55974088804E+02  0.51100000000E-03 0.  1.
         22    1    1    0    0    0  0.14240492871E+02  0.22573926058E+02 -0.10801903084E+02  0.28793313202E+02  0.00000000000E+00 0.  1.
</event>
<event>
 5    1  0.6622912E-004  0.9118800E+02  0.7818608E-02  0.1130116E+00
         25   -1    0    0    0    0  0.00000000000E+00  0.00000000000E+00  0.99999998245E-14  0.12500000000E+03  0.12500000000E+03 0.  0.
        -11    1    3    3    0    0  0.12863168481E+02  0.46340408565E+02  0.23204526735E+02  0.53397983395E+02  0.51100000000E-03 0. -1.
         23    2    1    0    0    0 -0.11880695209E+01  0.61545023778E+01  0.28062575912E+02  0.96245912021E+02  0.91850302151E+02 0.  0.
         11    1    3    3    0    0 -0.14051238001E+02 -0.40185906188E+02  0.48580491769E+01  0.42847928626E+02  0.51100000000E-03 0.  1.
         22    1    1    0    0    0  0.11880695209E+01 -0.61545023778E+01 -0.28062575912E+02  0.28754087979E+02  0.00000000000E+00 0. -1.
</event>
<event>
 5    1  0.6622912E-004  0.9118800E+02  0.7818608E-02  0.1130116E+00
         25   -1    0    0    0    0  0.00000000000E+00  0.00000000000E+00  0.99999998245E-14  0.12500000000E+03  0.12500000000E+03 0.  0.
        -11    1    3    3    0    0 -0.11552721948E+02 -0.26404841577E+02 -0.54101363651E+02  0.61299580686E+02  0.51100000000E-03 0. -1.
         23    2    1    0    0    0 -0.12540149359E+02 -0.73659173273E+01 -0.22349735888E+02  0.98334989625E+02  0.94650659830E+02 0.  0.
         11    1    3    3    0    0 -0.98742741121E+00  0.19038924250E+02  0.31751627762E+02  0.37035408939E+02  0.51100000000E-03 0.  1.
         22    1    1    0    0    0  0.12540149359E+02  0.73659173273E+01  0.22349735888E+02  0.26665010375E+02  0.00000000000E+00 0. -1.
</event>
<event>
 5    1  0.6622912E-004  0.9118800E+02  0.7818608E-02  0.1130116E+00
         25   -1    0    0    0    0  0.00000000000E+00  0.00000000000E+00  0.99999998245E-14  0.12500000000E+03  0.12500000000E+03 0.  0.
        -11    1    3    3    0    0 -0.88510952868E+01 -0.59956807522E+02 -0.97732086531E+00  0.60614485170E+02  0.51100000000E-03 0.  1.
         23    2    1    0    0    0  0.65136993382E+01 -0.29855088930E+02 -0.13490545521E+01  0.94412836642E+02  0.89320821540E+02 0.  0.
         11    1    3    3    0    0  0.15364794625E+02  0.30101718592E+02 -0.37173368675E+00  0.33798351473E+02  0.51100000000E-03 0. -1.
         22    1    1    0    0    0 -0.65136993382E+01  0.29855088930E+02  0.13490545521E+01  0.30587163358E+02  0.00000000000E+00 0.  1.
</event>
<event>
 5    1  0.6622912E-004  0.9118800E+02  0.7818608E-02  0.1130116E+00
         25   -1    0    0    0    0  0.00000000000E+00  0.00000000000E+00  0.99999998245E-14  0.12500000000E+03  0.12500000000E+03 0.  0.
        -11    1    3    3    0    0  0.28301907761E+01  0.39148990236E+02 -0.29970156154E+02  0.49384852702E+02  0.51100000000E-03 0.  1.
         23    2    1    0    0    0  0.20796250611E+02  0.17304468394E+02  0.80519027170E+01  0.96773030569E+02  0.92564883418E+02 0.  0.
         11    1    3    3    0    0  0.17966059835E+02 -0.21844521842E+02  0.38022058871E+02  0.47388177867E+02  0.51100000000E-03 0. -1.
         22    1    1    0    0    0 -0.20796250611E+02 -0.17304468394E+02 -0.80519027170E+01  0.28226969431E+02  0.00000000000E+00 0.  1.
</event>
<event>
 5    1  0.6622912E-004  0.9118800E+02  0.7818608E-02  0.1130116E+00
         25   -1    0    0    0    0  0.00000000000E+00  0.00000000000E+00  0.99999998245E-14  0.12500000000E+03  0.12500000000E+03 0.  0.
        -11    1    3    3    0    0 -0.29260373829E+02  0.17121292969E+02  0.20371036670E+02  0.39551071853E+02  0.51100000000E-03 0.  1.
         23    2    1    0    0    0  0.31399761019E+01  0.13471344043E+02 -0.25594664146E+02  0.95906643490E+02  0.91387421851E+02 0.  0.
         11    1    3    3    0    0  0.32400349931E+02 -0.36499489255E+01 -0.45965700816E+02  0.56355571637E+02  0.51100000000E-03 0. -1.
         22    1    1    0    0    0 -0.31399761019E+01 -0.13471344043E+02  0.25594664146E+02  0.29093356510E+02  0.00000000000E+00 0. -1.
</event>
<event>
 5    1  0.6622912E-004  0.9118800E+02  0.7818608E-02  0.1130116E+00
         25   -1    0    0    0    0  0.00000000000E+00  0.00000000000E+00  0.99999998245E-14  0.12500000000E+03  0.12500000000E+03 0.  0.
        -11    1    3    3    0    0  0.41244998972E+02  0.24487716518E+02 -0.29740384689E+02  0.56438361796E+02  0.51100000000E-03 0. -1.
         23    2    1    0    0    0  0.97592537156E+01  0.27039187834E+02 -0.68511016050E+01  0.95448378978E+02  0.90758441726E+02 0.  0.
         11    1    3    3    0    0 -0.31485745257E+02  0.25514713157E+01  0.22889283084E+02  0.39010017183E+02  0.51100000000E-03 0.  1.
         22    1    1    0    0    0 -0.97592537156E+01 -0.27039187834E+02  0.68511016050E+01  0.29551621022E+02  0.00000000000E+00 0.  1.
</event>
<event>
 5    1  0.6622912E-004  0.9118800E+02  0.7818608E-02  0.1130116E+00
         25   -1    0    0    0    0  0.00000000000E+00  0.00000000000E+00  0.99999998245E-14  0.12500000000E+03  0.12500000000E+03 0.  0.
        -11    1    3    3    0    0  0.10623963983E+02 -0.18572243579E+02  0.25454893246E+02  0.33252795863E+02  0.51100000000E-03 0.  1.
         23    2    1    0    0    0  0.32281620349E+02  0.20896936706E+02 -0.28623208068E+01  0.86438648151E+02  0.77360597450E+02 0.  0.
         11    1    3    3    0    0  0.21657656366E+02  0.39469180285E+02 -0.28317214053E+02  0.53185852288E+02  0.51100000000E-03 0. -1.
         22    1    1    0    0    0 -0.32281620349E+02 -0.20896936706E+02  0.28623208068E+01  0.38561351849E+02  0.00000000000E+00 0. -1.
</event>
<event>
 5    1  0.6622912E-004  0.9118800E+02  0.7818608E-02  0.1130116E+00
         25   -1    0    0    0    0  0.00000000000E+00  0.00000000000E+00  0.99999998245E-14  0.12500000000E+03  0.12500000000E+03 0.  0.
        -11    1    3    3    0    0 -0.92663381971E+01 -0.37013438726E+02 -0.14132744338E+01  0.38181893808E+02  0.51100000000E-03 0. -1.
         23    2    1    0    0    0  0.11781470804E+02  0.11970392798E+02 -0.23687516171E+02  0.95962235272E+02  0.91463428855E+02 0.  0.
         11    1    3    3    0    0  0.21047809001E+02  0.48983831523E+02 -0.22274241737E+02  0.57780341464E+02  0.51100000000E-03 0.  1.
         22    1    1    0    0    0 -0.11781470804E+02 -0.11970392798E+02  0.23687516171E+02  0.29037764728E+02  0.00000000000E+00 0.  1.
</event>
<event>
 5    1  0.6622912E-004  0.9118800E+02  0.7818608E-02  0.1130116E+00
         25   -1    0    0    0    0  0.00000000000E+00  0.00000000000E+00  0.99999998245E-14  0.12500000000E+03  0.12500000000E+03 0.  0.
        -11    1    3    3    0    0  0.10616794578E+02 -0.53831920894E+02  0.14409425173E+01  0.54887779604E+02  0.51100000000E-03 0.  1.
         23    2    1    0    0    0  0.23513410793E+02 -0.16407513807E+02  0.84957721042E+01  0.95095733747E+02  0.90271443086E+02 0.  0.
         11    1    3    3    0    0  0.12896616216E+02  0.37424407087E+02  0.70548295869E+01  0.40207954143E+02  0.51100000000E-03 0. -1.
         22    1    1    0    0    0 -0.23513410793E+02  0.16407513807E+02 -0.84957721042E+01  0.29904266253E+02  0.00000000000E+00 0.  1.
</event>
<event>
 5    1  0.6622912E-004  0.9118800E+02  0.7818608E-02  0.1130116E+00
         25   -1    0    0    0    0  0.00000000000E+00  0.00000000000E+00  0.99999998245E-14  0.12500000000E+03  0.12500000000E+03 0.  0.
        -11    1    3    3    0    0  0.54717290184E+01 -0.26272159349E+02  0.37907973197E+02  0.46445458416E+02  0.51100000000E-03 0. -1.
         23    2    1    0    0    0 -0.97259502255E+01 -0.64139513324E+01 -0.15612520887E+02  0.10551965894E+03  0.10370590501E+03 0.  0.
         11    1    3    3    0    0 -0.15197679244E+02  0.19858208017E+02 -0.53520494083E+02  0.59074200521E+02  0.51100000000E-03 0.  1.
         22    1    1    0    0    0  0.97259502255E+01  0.64139513324E+01  0.15612520887E+02  0.19480341063E+02  0.00000000000E+00 0.  1.
</event>
<event>
 5    1  0.6622912E-004  0.9118800E+02  0.7818608E-02  0.1130116E+00
         25   -1    0    0    0    0  0.00000000000E+00  0.00000000000E+00  0.99999998245E-14  0.12500000000E+03  0.12500000000E+03 0.  0.
        -11    1    3    3    0    0  0.14953240157E+02 -0.49264217196E+02  0.38163629296E+01  0.51624869137E+02  0.51100000000E-03 0. -1.
         23    2    1    0    0    0 -0.19319603929E+02 -0.23222800653E+02  0.24883291359E+01  0.94689319572E+02  0.89706911065E+02 0.  0.
         11    1    3    3    0    0 -0.34272844085E+02  0.26041416542E+02 -0.13280337937E+01  0.43064450435E+02  0.51100000000E-03 0.  1.
         22    1    1    0    0    0  0.19319603929E+02  0.23222800653E+02 -0.24883291359E+01  0.30310680428E+02  0.00000000000E+00 0.  1.
</event>
<event>
 5    1  0.6622912E-004  0.9118800E+02  0.7818608E-02  0.1130116E+00
         25   -1    0    0    0    0  0.00000000000E+00  0.00000000000E+00  0.99999998245E-14  0.12500000000E+03  0.12500000000E+03 0.  0.
        -11    1    3    3    0    0 -0.23229909080E+02 -0.98664758532E+01  0.34630751802E+02  0.42851662654E+02  0.51100000000E-03 0. -1.
         23    2    1    0    0    0  0.12207854097E+02  0.23071595583E+02  0.12725794068E+02  0.95960784117E+02  0.91461445589E+02 0.  0.
         11    1    3    3    0    0  0.35437763177E+02  0.32938071436E+02 -0.21904957734E+02  0.53109121463E+02  0.51100000000E-03 0.  1.
         22    1    1    0    0    0 -0.12207854097E+02 -0.23071595583E+02 -0.12725794068E+02  0.29039215883E+02  0.00000000000E+00 0.  1.
</event>
<event>
 5    1  0.6622912E-004  0.9118800E+02  0.7818608E-02  0.1130116E+00
         25   -1    0    0    0    0  0.00000000000E+00  0.00000000000E+00  0.99999998245E-14  0.12500000000E+03  0.12500000000E+03 0.  0.
        -11    1    3    3    0    0  0.50002290161E+01  0.54379857733E+02 -0.23958224214E+02  0.59633612376E+02  0.51100000000E-03 0.  1.
         23    2    1    0    0    0 -0.11113131909E+02  0.22617300148E+02 -0.10146475570E+02  0.97833937839E+02  0.93986618515E+02 0.  0.
         11    1    3    3    0    0 -0.16113360926E+02 -0.31762557585E+02  0.13811748644E+02  0.38200325464E+02  0.51100000000E-03 0. -1.
         22    1    1    0    0    0  0.11113131909E+02 -0.22617300148E+02  0.10146475570E+02  0.27166062161E+02  0.00000000000E+00 0.  1.
</event>
<event>
 5    1  0.6622912E-004  0.9118800E+02  0.7818608E-02  0.1130116E+00
         25   -1    0    0    0    0  0.00000000000E+00  0.00000000000E+00  0.99999998245E-14  0.12500000000E+03  0.12500000000E+03 0.  0.
        -11    1    3    3    0    0  0.96798855820E+01 -0.22781805646E+02  0.36686857523E+02  0.44256483915E+02  0.51100000000E-03 0.  1.
         23    2    1    0    0    0  0.10392361638E+02 -0.23905581923E+02 -0.14305199870E+02  0.95265898856E+02  0.90506766123E+02 0.  0.
         11    1    3    3    0    0  0.71247605578E+00 -0.11237762779E+01 -0.50992057393E+02  0.51009414941E+02  0.51100000000E-03 0. -1.
         22    1    1    0    0    0 -0.10392361638E+02  0.23905581923E+02  0.14305199870E+02  0.29734101144E+02  0.00000000000E+00 0. -1.
</event>
<event>
 5    1  0.6622912E-004  0.9118800E+02  0.7818608E-02  0.1130116E+00
         25   -1    0    0    0    0  0.00000000000E+00  0.00000000000E+00  0.99999998245E-14  0.12500000000E+03  0.12500000000E+03 0.  0.
        -11    1    3    3    0    0 -0.55479270223E+02  0.57698794271E+00 -0.18069619598E+02  0.58350608328E+02  0.51100000000E-03 0.  1.
         23    2    1    0    0    0 -0.27853951764E+02  0.23558203114E+01  0.75242508821E+01  0.96051651696E+02  0.91585549755E+02 0.  0.
         11    1    3    3    0    0  0.27625318459E+02  0.17788323687E+01  0.25593870480E+02  0.37701043368E+02  0.51100000000E-03 0. -1.
         22    1    1    0    0    0  0.27853951764E+02 -0.23558203114E+01 -0.75242508821E+01  0.28948348304E+02  0.00000000000E+00 0.  1.
</event>
<event>
 5    1  0.6622912E-004  0.9118800E+02  0.7818608E-02  0.1130116E+00
         25   -1    0    0    0    0  0.00000000000E+00  0.00000000000E+00  0.99999998245E-14  0.12500000000E+03  0.12500000000E+03 0.  0.
        -11    1    3    3    0    0 -0.48690213511E+01 -0.60066568793E+01 -0.41417700669E+02  0.42133279302E+02  0.51100000000E-03 0.  1.
         23    2    1    0    0    0 -0.79388140646E+01  0.27970081127E+02  0.17151024772E+00  0.95924587316E+02  0.91411962176E+02 0.  0.
         11    1    3    3    0    0 -0.30697927135E+01  0.33976738006E+02  0.41589210917E+02  0.53791308013E+02  0.51100000000E-03 0. -1.
         22    1    1    0    0    0  0.79388140646E+01 -0.27970081127E+02 -0.17151024772E+00  0.29075412684E+02  0.00000000000E+00 0.  1.
</event>
<event>
 5    1  0.6622912E-004  0.9118800E+02  0.7818608E-02  0.1130116E+00
         25   -1    0    0    0    0  0.00000000000E+00  0.00000000000E+00  0.99999998245E-14  0.12500000000E+03  0.12500000000E+03 0.  0.
        -11    1    3    3    0    0 -0.54495960562E+01  0.12275118380E+02 -0.54791713417E+02  0.56413726059E+02  0.51100000000E-03 0. -1.
         23    2    1    0    0    0 -0.18891574277E+02  0.16121441167E+02 -0.22972844596E+02  0.91168889572E+02  0.84659449520E+02 0.  0.
         11    1    3    3    0    0 -0.13441978221E+02  0.38463227868E+01  0.31818868821E+02  0.34755163513E+02  0.51100000000E-03 0.  1.
         22    1    1    0    0    0  0.18891574277E+02 -0.16121441167E+02  0.22972844596E+02  0.33831110428E+02  0.00000000000E+00 0.  1.
</event>
<event>
 5    1  0.6622912E-004  0.9118800E+02  0.7818608E-02  0.1130116E+00
         25   -1    0    0    0    0  0.00000000000E+00  0.00000000000E+00  0.99999998245E-14  0.12500000000E+03  0.12500000000E+03 0.  0.
        -11    1    3    3    0    0  0.29578502346E+02 -0.24570576785E+02 -0.10417075993E+02  0.39838630964E+02  0.51100000000E-03 0. -1.
         23    2    1    0    0    0  0.13415362737E+02  0.18183828513E+02  0.20066853770E+02  0.94779109924E+02  0.89831940205E+02 0.  0.
         11    1    3    3    0    0 -0.16163139609E+02  0.42754405297E+02  0.30483929764E+02  0.54940478961E+02  0.51100000000E-03 0.  1.
         22    1    1    0    0    0 -0.13415362737E+02 -0.18183828513E+02 -0.20066853770E+02  0.30220890076E+02  0.00000000000E+00 0.  1.
</event>
<event>
 5    1  0.6622912E-004  0.9118800E+02  0.7818608E-02  0.1130116E+00
         25   -1    0    0    0    0  0.00000000000E+00  0.00000000000E+00  0.99999998245E-14  0.12500000000E+03  0.12500000000E+03 0.  0.
        -11    1    3    3    0    0  0.94164058162E+01 -0.18980032698E+02  0.32676335169E+02  0.38944232179E+02  0.51100000000E-03 0. -1.
         23    2    1    0    0    0  0.21650982551E+02  0.65392538833E+00 -0.19396114385E+02  0.95924203931E+02  0.91411437920E+02 0.  0.
         11    1    3    3    0    0  0.12234576734E+02  0.19633958086E+02 -0.52072449554E+02  0.56979971752E+02  0.51100000000E-03 0.  1.
         22    1    1    0    0    0 -0.21650982551E+02 -0.65392538833E+00  0.19396114385E+02  0.29075796069E+02  0.00000000000E+00 0.  1.
</event>
<event>
 5    1  0.6622912E-004  0.9118800E+02  0.7818608E-02  0.1130116E+00
         25   -1    0    0    0    0  0.00000000000E+00  0.00000000000E+00  0.99999998245E-14  0.12500000000E+03  0.12500000000E+03 0.  0.
        -11    1    3    3    0    0 -0.43501675638E+02 -0.32988693906E+02 -0.11533214173E+00  0.54595448626E+02  0.51100000000E-03 0.  1.
         23    2    1    0    0    0 -0.27385516835E+02  0.55149875425E+01  0.49071391041E+01  0.96636967121E+02  0.92380960053E+02 0.  0.
         11    1    3    3    0    0  0.16116158803E+02  0.38503681448E+02  0.50224712459E+01  0.42041518495E+02  0.51100000000E-03 0. -1.
         22    1    1    0    0    0  0.27385516835E+02 -0.55149875425E+01 -0.49071391041E+01  0.28363032879E+02  0.00000000000E+00 0.  1.
</event>
<event>
 5    1  0.6622912E-004  0.9118800E+02  0.7818608E-02  0.1130116E+00
         25   -1    0    0    0    0  0.00000000000E+00  0.00000000000E+00  0.99999998245E-14  0.12500000000E+03  0.12500000000E+03 0.  0.
        -11    1    3    3    0    0  0.33000277000E+02  0.16443917899E+02  0.36824530600E+00  0.36872161895E+02  0.51100000000E-03 0. -1.
         23    2    1    0    0    0 -0.91978217798E+01 -0.83131705981E+00  0.31559394262E+02  0.92117080730E+02  0.86048069022E+02 0.  0.
         11    1    3    3    0    0 -0.42198098780E+02 -0.17275234959E+02  0.31191148956E+02  0.55244918834E+02  0.51100000000E-03 0.  1.
         22    1    1    0    0    0  0.91978217798E+01  0.83131705981E+00 -0.31559394262E+02  0.32882919270E+02  0.00000000000E+00 0.  1.
</event>
<event>
 5    1  0.6622912E-004  0.9118800E+02  0.7818608E-02  0.1130116E+00
         25   -1    0    0    0    0  0.00000000000E+00  0.00000000000E+00  0.99999998245E-14  0.12500000000E+03  0.12500000000E+03 0.  0.
        -11    1    3    3    0    0 -0.34120992212E+01 -0.69468032038E+01 -0.38134427973E+02  0.38911888838E+02  0.51100000000E-03 0.  1.
         23    2    1    0    0    0 -0.29973148283E+02 -0.29482878557E+02 -0.17037794666E+02  0.79635738813E+02  0.65451773874E+02 0.  0.
         11    1    3    3    0    0 -0.26561049062E+02 -0.22536075353E+02  0.21096633307E+02  0.40723849974E+02  0.51100000000E-03 0. -1.
         22    1    1    0    0    0  0.29973148283E+02  0.29482878557E+02  0.17037794666E+02  0.45364261187E+02  0.00000000000E+00 0.  1.
</event>
<event>
 5    1  0.6622912E-004  0.9118800E+02  0.7818608E-02  0.1130116E+00
         25   -1    0    0    0    0  0.00000000000E+00  0.00000000000E+00  0.99999998245E-14  0.12500000000E+03  0.12500000000E+03 0.  0.
        -11    1    3    3    0    0 -0.49324576801E+02  0.36109644297E+01  0.27906800777E+02  0.56786815992E+02  0.51100000000E-03 0.  1.
         23    2    1    0    0    0 -0.58337568713E+01 -0.69283226912E+01  0.21083132765E+02  0.10205369612E+03  0.99440555259E+02 0.  0.
         11    1    3    3    0    0  0.43490819930E+02 -0.10539287121E+02 -0.68236680119E+01  0.45266880128E+02  0.51100000000E-03 0. -1.
         22    1    1    0    0    0  0.58337568713E+01  0.69283226912E+01 -0.21083132765E+02  0.22946303879E+02  0.00000000000E+00 0.  1.
</event>
<event>
 5    1  0.6622912E-004  0.9118800E+02  0.7818608E-02  0.1130116E+00
         25   -1    0    0    0    0  0.00000000000E+00  0.00000000000E+00  0.99999998245E-14  0.12500000000E+03  0.12500000000E+03 0.  0.
        -11    1    3    3    0    0 -0.22328667456E+02  0.53516101798E+02 -0.19809870759E+02  0.61277838749E+02  0.51100000000E-03 0.  1.
         23    2    1    0    0    0 -0.11944369752E+02  0.93016729750E+01 -0.44995234021E+01  0.10920649501E+03  0.10805842750E+03 0.  0.
         11    1    3    3    0    0  0.10384297704E+02 -0.44214428823E+02  0.15310347357E+02  0.47928656265E+02  0.51100000000E-03 0. -1.
         22    1    1    0    0    0  0.11944369752E+02 -0.93016729750E+01  0.44995234021E+01  0.15793504986E+02  0.00000000000E+00 0.  1.
</event>
<event>
 5    1  0.6622912E-004  0.9118800E+02  0.7818608E-02  0.1130116E+00
         25   -1    0    0    0    0  0.00000000000E+00  0.00000000000E+00  0.99999998245E-14  0.12500000000E+03  0.12500000000E+03 0.  0.
        -11    1    3    3    0    0  0.40957603095E+02 -0.35946189227E+02  0.23456303366E+02  0.59328340101E+02  0.51100000000E-03 0.  1.
         23    2    1    0    0    0  0.10317412541E+02 -0.15985937880E+02  0.21983821568E+02  0.95926169462E+02  0.91414125634E+02 0.  0.
         11    1    3    3    0    0 -0.30640190554E+02  0.19960251347E+02 -0.14724817976E+01  0.36597829361E+02  0.51100000000E-03 0. -1.
         22    1    1    0    0    0 -0.10317412541E+02  0.15985937880E+02 -0.21983821568E+02  0.29073830538E+02  0.00000000000E+00 0.  1.
</event>
<event>
 5    1  0.6622912E-004  0.9118800E+02  0.7818608E-02  0.1130116E+00
         25   -1    0    0    0    0  0.00000000000E+00  0.00000000000E+00  0.99999998245E-14  0.12500000000E+03  0.12500000000E+03 0.  0.
        -11    1    3    3    0    0 -0.18834324462E+02  0.55463642298E+01  0.49039142654E+02  0.52823587976E+02  0.51100000000E-03 0.  1.
         23    2    1    0    0    0 -0.11481406240E+02  0.24888559403E+02  0.12369150823E+02  0.94929100936E+02  0.90040408896E+02 0.  0.
         11    1    3    3    0    0  0.73529182214E+01  0.19342195173E+02 -0.36669991832E+02  0.42105512961E+02  0.51100000000E-03 0. -1.
         22    1    1    0    0    0  0.11481406240E+02 -0.24888559403E+02 -0.12369150823E+02  0.30070899064E+02  0.00000000000E+00 0.  1.
</event>
<event>
 5    1  0.6622912E-004  0.9118800E+02  0.7818608E-02  0.1130116E+00
         25   -1    0    0    0    0  0.00000000000E+00  0.00000000000E+00  0.99999998245E-14  0.12500000000E+03  0.12500000000E+03 0.  0.
        -11    1    3    3    0    0 -0.49185820478E+02  0.25472810527E+02 -0.28563051982E+02  0.62321400425E+02  0.51100000000E-03 0.  1.
         23    2    1    0    0    0 -0.22280951034E+02  0.15267717156E+02 -0.13341888509E+02  0.94874430211E+02  0.89964479395E+02 0.  0.
         11    1    3    3    0    0  0.26904869444E+02 -0.10205093372E+02  0.15221163472E+02  0.32553029786E+02  0.51100000000E-03 0. -1.
         22    1    1    0    0    0  0.22280951034E+02 -0.15267717156E+02  0.13341888509E+02  0.30125569789E+02  0.00000000000E+00 0.  1.
</event>
<event>
 5    1  0.6622912E-004  0.9118800E+02  0.7818608E-02  0.1130116E+00
         25   -1    0    0    0    0  0.00000000000E+00  0.00000000000E+00  0.99999998245E-14  0.12500000000E+03  0.12500000000E+03 0.  0.
        -11    1    3    3    0    0  0.98654595114E+01  0.35378741985E+02  0.38193682206E+02  0.52988112218E+02  0.51100000000E-03 0.  1.
         23    2    1    0    0    0  0.26493746070E+02  0.68379099758E+01  0.12103434776E+02  0.95080629568E+02  0.90250525716E+02 0.  0.
         11    1    3    3    0    0  0.16628286559E+02 -0.28540832009E+02 -0.26090247430E+02  0.42092517350E+02  0.51100000000E-03 0. -1.
         22    1    1    0    0    0 -0.26493746070E+02 -0.68379099758E+01 -0.12103434776E+02  0.29919370432E+02  0.00000000000E+00 0.  1.
</event>
<event>
 5    1  0.6622912E-004  0.9118800E+02  0.7818608E-02  0.1130116E+00
         25   -1    0    0    0    0  0.00000000000E+00  0.00000000000E+00  0.99999998245E-14  0.12500000000E+03  0.12500000000E+03 0.  0.
        -11    1    3    3    0    0 -0.12886123247E+02 -0.37979113716E+02 -0.36804156339E+02  0.54433548250E+02  0.51100000000E-03 0.  1.
         23    2    1    0    0    0 -0.20607055206E+02 -0.10029369794E+01 -0.21536032911E+02  0.95176228938E+02  0.90382837057E+02 0.  0.
         11    1    3    3    0    0 -0.77209319587E+01  0.36976176737E+02  0.15268123428E+02  0.40742680688E+02  0.51100000000E-03 0. -1.
         22    1    1    0    0    0  0.20607055206E+02  0.10029369794E+01  0.21536032911E+02  0.29823771062E+02  0.00000000000E+00 0.  1.
</event>
<event>
 5    1  0.6622912E-004  0.9118800E+02  0.7818608E-02  0.1130116E+00
         25   -1    0    0    0    0  0.00000000000E+00  0.00000000000E+00  0.99999998245E-14  0.12500000000E+03  0.12500000000E+03 0.  0.
        -11    1    3    3    0    0 -0.44225096261E+02  0.25109668723E+02  0.12835402223E+02  0.52450949973E+02  0.51100000000E-03 0. -1.
         23    2    1    0    0    0  0.11097767053E+00  0.25808661069E+02  0.11318053863E+02  0.96818487523E+02  0.92626248336E+02 0.  0.
         11    1    3    3    0    0  0.44336073931E+02  0.69899234652E+00 -0.15173483602E+01  0.44367537550E+02  0.51100000000E-03 0.  1.
         22    1    1    0    0    0 -0.11097767053E+00 -0.25808661069E+02 -0.11318053863E+02  0.28181512477E+02  0.00000000000E+00 0. -1.
</event>
<event>
 5    1  0.6622912E-004  0.9118800E+02  0.7818608E-02  0.1130116E+00
         25   -1    0    0    0    0  0.00000000000E+00  0.00000000000E+00  0.99999998245E-14  0.12500000000E+03  0.12500000000E+03 0.  0.
        -11    1    3    3    0    0  0.15837592400E+02 -0.18924026491E+02 -0.25472120907E+02  0.35465152692E+02  0.51100000000E-03 0.  1.
         23    2    1    0    0    0 -0.18327848586E+02  0.23088418894E+02  0.48841728752E+00  0.95517400517E+02  0.90853454140E+02 0.  0.
         11    1    3    3    0    0 -0.34165440987E+02  0.42012445386E+02  0.25960538195E+02  0.60052247824E+02  0.51100000000E-03 0. -1.
         22    1    1    0    0    0  0.18327848586E+02 -0.23088418894E+02 -0.48841728752E+00  0.29482599483E+02  0.00000000000E+00 0. -1.
</event>
<event>
 5    1  0.6622912E-004  0.9118800E+02  0.7818608E-02  0.1130116E+00
         25   -1    0    0    0    0  0.00000000000E+00  0.00000000000E+00  0.99999998245E-14  0.12500000000E+03  0.12500000000E+03 0.  0.
        -11    1    3    3    0    0  0.27526151524E+02 -0.25197382438E+02 -0.87813569829E+01  0.38336788209E+02  0.51100000000E-03 0. -1.
         23    2    1    0    0    0  0.17717279393E+02  0.17727619339E+02  0.21666084235E+02  0.91870108926E+02  0.85688547843E+02 0.  0.
         11    1    3    3    0    0 -0.98088721303E+01  0.42925001777E+02  0.30447441218E+02  0.53533320717E+02  0.51100000000E-03 0.  1.
         22    1    1    0    0    0 -0.17717279393E+02 -0.17727619339E+02 -0.21666084235E+02  0.33129891074E+02  0.00000000000E+00 0.  1.
</event>
<event>
 5    1  0.6622912E-004  0.9118800E+02  0.7818608E-02  0.1130116E+00
         25   -1    0    0    0    0  0.00000000000E+00  0.00000000000E+00  0.99999998245E-14  0.12500000000E+03  0.12500000000E+03 0.  0.
        -11    1    3    3    0    0  0.17185231366E+01 -0.31937080703E+02  0.26417859979E+02  0.41482933500E+02  0.51100000000E-03 0.  1.
         23    2    1    0    0    0 -0.78666194349E+00  0.20817453647E+02  0.22339760831E+02  0.94454130764E+02  0.89378591906E+02 0.  0.
         11    1    3    3    0    0 -0.25051850801E+01  0.52754534350E+02 -0.40780991481E+01  0.52971197265E+02  0.51100000000E-03 0. -1.
         22    1    1    0    0    0  0.78666194349E+00 -0.20817453647E+02 -0.22339760831E+02  0.30545869236E+02  0.00000000000E+00 0. -1.
</event>
<event>
 5    1  0.6622912E-004  0.9118800E+02  0.7818608E-02  0.1130116E+00
         25   -1    0    0    0    0  0.00000000000E+00  0.00000000000E+00  0.99999998245E-14  0.12500000000E+03  0.12500000000E+03 0.  0.
        -11    1    3    3    0    0 -0.54820307135E+02  0.14375005675E+02  0.16192947540E+02  0.58941652614E+02  0.51100000000E-03 0.  1.
         23    2    1    0    0    0 -0.28761268297E+02 -0.60871908998E+01  0.51334225963E+00  0.95597143550E+02  0.90963101792E+02 0.  0.
         11    1    3    3    0    0  0.26059038838E+02 -0.20462196574E+02 -0.15679605280E+02  0.36655490937E+02  0.51100000000E-03 0. -1.
         22    1    1    0    0    0  0.28761268297E+02  0.60871908998E+01 -0.51334225963E+00  0.29402856450E+02  0.00000000000E+00 0.  1.
</event>
<event>
 5    1  0.6622912E-004  0.9118800E+02  0.7818608E-02  0.1130116E+00
         25   -1    0    0    0    0  0.00000000000E+00  0.00000000000E+00  0.99999998245E-14  0.12500000000E+03  0.12500000000E+03 0.  0.
        -11    1    3    3    0    0  0.25448927421E+02 -0.40537570737E+02 -0.33793582746E+02  0.58591371235E+02  0.51100000000E-03 0.  1.
         23    2    1    0    0    0  0.15683443051E+02 -0.36433735907E+02 -0.10827180367E+02  0.83882907048E+02  0.73114477103E+02 0.  0.
         11    1    3    3    0    0 -0.97654843693E+01  0.41038348302E+01  0.22966402379E+02  0.25291535813E+02  0.51100000000E-03 0. -1.
         22    1    1    0    0    0 -0.15683443051E+02  0.36433735907E+02  0.10827180367E+02  0.41117092952E+02  0.00000000000E+00 0.  1.
</event>
<event>
 5    1  0.6622912E-004  0.9118800E+02  0.7818608E-02  0.1130116E+00
         25   -1    0    0    0    0  0.00000000000E+00  0.00000000000E+00  0.99999998245E-14  0.12500000000E+03  0.12500000000E+03 0.  0.
        -11    1    3    3    0    0  0.48263441625E+02 -0.15307136394E+02  0.28897384788E+02  0.58298602641E+02  0.51100000000E-03 0. -1.
         23    2    1    0    0    0  0.13341696939E+02 -0.59891032720E+00  0.25337593433E+02  0.96358191193E+02  0.92002977116E+02 0.  0.
         11    1    3    3    0    0 -0.34921744686E+02  0.14708226066E+02 -0.35597913556E+01  0.38059588551E+02  0.51100000000E-03 0.  1.
         22    1    1    0    0    0 -0.13341696939E+02  0.59891032720E+00 -0.25337593433E+02  0.28641808807E+02  0.00000000000E+00 0. -1.
</event>
<event>
 5    1  0.6622912E-004  0.9118800E+02  0.7818608E-02  0.1130116E+00
         25   -1    0    0    0    0  0.00000000000E+00  0.00000000000E+00  0.99999998245E-14  0.12500000000E+03  0.12500000000E+03 0.  0.
        -11    1    3    3    0    0  0.32445032545E+01 -0.28010410948E+02  0.37283520640E+02  0.46745810875E+02  0.51100000000E-03 0.  1.
         23    2    1    0    0    0 -0.10182218123E+02  0.16590375949E+02  0.21669545572E+02  0.95871193891E+02  0.91338920908E+02 0.  0.
         11    1    3    3    0    0 -0.13426721377E+02  0.44600786897E+02 -0.15613975068E+02  0.49125383016E+02  0.51100000000E-03 0. -1.
         22    1    1    0    0    0  0.10182218123E+02 -0.16590375949E+02 -0.21669545572E+02  0.29128806109E+02  0.00000000000E+00 0. -1.
</event>
<event>
 5    1  0.6622912E-004  0.9118800E+02  0.7818608E-02  0.1130116E+00
         25   -1    0    0    0    0  0.00000000000E+00  0.00000000000E+00  0.99999998245E-14  0.12500000000E+03  0.12500000000E+03 0.  0.
        -11    1    3    3    0    0 -0.34810204249E+02  0.32877042673E+02 -0.12902926168E+02  0.49589673912E+02  0.51100000000E-03 0. -1.
         23    2    1    0    0    0 -0.22750618986E+02 -0.13292527776E+02 -0.74437152263E+01  0.97619516891E+02  0.93701009720E+02 0.  0.
         11    1    3    3    0    0  0.12059585263E+02 -0.46169570449E+02  0.54592109413E+01  0.48029842978E+02  0.51100000000E-03 0.  1.
         22    1    1    0    0    0  0.22750618986E+02  0.13292527776E+02  0.74437152263E+01  0.27380483109E+02  0.00000000000E+00 0. -1.
</event>
<event>
 5    1  0.6622912E-004  0.9118800E+02  0.7818608E-02  0.1130116E+00
         25   -1    0    0    0    0  0.00000000000E+00  0.00000000000E+00  0.99999998245E-14  0.12500000000E+03  0.12500000000E+03 0.  0.
        -11    1    3    3    0    0 -0.17585437472E+02  0.57839963749E+02 -0.11210860562E+02  0.61484895807E+02  0.51100000000E-03 0. -1.
         23    2    1    0    0    0 -0.88972536390E+01  0.27814436654E+02  0.26492183181E+01  0.95677272187E+02  0.91073146683E+02 0.  0.
         11    1    3    3    0    0  0.86881838335E+01 -0.30025527095E+02  0.13860078880E+02  0.34192376380E+02  0.51100000000E-03 0.  1.
         22    1    1    0    0    0  0.88972536390E+01 -0.27814436654E+02 -0.26492183181E+01  0.29322727813E+02  0.00000000000E+00 0. -1.
</event>
<event>
 5    1  0.6622912E-004  0.9118800E+02  0.7818608E-02  0.1130116E+00
         25   -1    0    0    0    0  0.00000000000E+00  0.00000000000E+00  0.99999998245E-14  0.12500000000E+03  0.12500000000E+03 0.  0.
        -11    1    3    3    0    0 -0.42138882327E+02 -0.43465518336E+02  0.99563019829E+01  0.61351973378E+02  0.51100000000E-03 0.  1.
         23    2    1    0    0    0 -0.17015280861E+02 -0.23331736043E+02 -0.28101338413E+01  0.95986442105E+02  0.91496505541E+02 0.  0.
         11    1    3    3    0    0  0.25123601466E+02  0.20133782293E+02 -0.12766435824E+02  0.34634468727E+02  0.51100000000E-03 0. -1.
         22    1    1    0    0    0  0.17015280861E+02  0.23331736043E+02  0.28101338413E+01  0.29013557895E+02  0.00000000000E+00 0.  1.
</event>
<event>
 5    1  0.6622912E-004  0.9118800E+02  0.7818608E-02  0.1130116E+00
         25   -1    0    0    0    0  0.00000000000E+00  0.00000000000E+00  0.99999998245E-14  0.12500000000E+03  0.12500000000E+03 0.  0.
        -11    1    3    3    0    0  0.45859050978E+02 -0.33529801132E+02 -0.13039097660E+02  0.58286518069E+02  0.51100000000E-03 0.  1.
         23    2    1    0    0    0  0.29233349758E+02 -0.17461662087E+01 -0.28432525190E+01  0.95576847222E+02  0.90935206634E+02 0.  0.
         11    1    3    3    0    0 -0.16625701219E+02  0.31783634923E+02  0.10195845141E+02  0.37290329153E+02  0.51100000000E-03 0. -1.
         22    1    1    0    0    0 -0.29233349758E+02  0.17461662087E+01  0.28432525190E+01  0.29423152778E+02  0.00000000000E+00 0.  1.
</event>
<event>
 5    1  0.6622912E-004  0.9118800E+02  0.7818608E-02  0.1130116E+00
         25   -1    0    0    0    0  0.00000000000E+00  0.00000000000E+00  0.99999998245E-14  0.12500000000E+03  0.12500000000E+03 0.  0.
        -11    1    3    3    0    0  0.38218416474E+02  0.28229950745E+02 -0.21453245096E+02  0.52132707605E+02  0.51100000000E-03 0. -1.
         23    2    1    0    0    0 -0.30594301675E+00  0.15307415347E+02 -0.27803352161E+02  0.93259852597E+02  0.87692434961E+02 0.  0.
         11    1    3    3    0    0 -0.38524359490E+02 -0.12922535397E+02 -0.63501070655E+01  0.41127144993E+02  0.51100000000E-03 0.  1.
         22    1    1    0    0    0  0.30594301675E+00 -0.15307415347E+02  0.27803352161E+02  0.31740147403E+02  0.00000000000E+00 0. -1.
</event>
<event>
 5    1  0.6622912E-004  0.9118800E+02  0.7818608E-02  0.1130116E+00
         25   -1    0    0    0    0  0.00000000000E+00  0.00000000000E+00  0.99999998245E-14  0.12500000000E+03  0.12500000000E+03 0.  0.
        -11    1    3    3    0    0 -0.33418463560E+02  0.12600109158E+02  0.13432964822E+02  0.38157581182E+02  0.51100000000E-03 0. -1.
         23    2    1    0    0    0  0.22236806117E+02  0.17366825797E+02 -0.36012631694E+01  0.96556173236E+02  0.92271573678E+02 0.  0.
         11    1    3    3    0    0  0.55655269677E+02  0.47667166391E+01 -0.17034227991E+02  0.58398592054E+02  0.51100000000E-03 0.  1.
         22    1    1    0    0    0 -0.22236806117E+02 -0.17366825797E+02  0.36012631694E+01  0.28443826764E+02  0.00000000000E+00 0.  1.
</event>
<event>
 5    1  0.6622912E-004  0.9118800E+02  0.7818608E-02  0.1130116E+00
         25   -1    0    0    0    0  0.00000000000E+00  0.00000000000E+00  0.99999998245E-14  0.12500000000E+03  0.12500000000E+03 0.  0.
        -11    1    3    3    0    0 -0.44652184791E+01  0.34437601251E+02  0.45094737721E+02  0.56915919797E+02  0.51100000000E-03 0.  1.
         23    2    1    0    0    0  0.64292274933E+01  0.22998742805E+01  0.30309069120E+02  0.93931300980E+02  0.88644375146E+02 0.  0.
         11    1    3    3    0    0  0.10894445972E+02 -0.32137726970E+02 -0.14785668601E+02  0.37015381183E+02  0.51100000000E-03 0. -1.
         22    1    1    0    0    0 -0.64292274933E+01 -0.22998742805E+01 -0.30309069120E+02  0.31068699020E+02  0.00000000000E+00 0.  1.
</event>
<event>
 5    1  0.6622912E-004  0.9118800E+02  0.7818608E-02  0.1130116E+00
         25   -1    0    0    0    0  0.00000000000E+00  0.00000000000E+00  0.99999998245E-14  0.12500000000E+03  0.12500000000E+03 0.  0.
        -11    1    3    3    0    0  0.32387746328E+02 -0.28668689382E+02 -0.36035695274E+02  0.56297701527E+02  0.51100000000E-03 0.  1.
         23    2    1    0    0    0  0.51390241588E+01 -0.26911430323E+02 -0.58806030659E+01  0.96978291563E+02  0.92841654933E+02 0.  0.
         11    1    3    3    0    0 -0.27248722170E+02  0.17572590591E+01  0.30155092208E+02  0.40680590035E+02  0.51100000000E-03 0. -1.
         22    1    1    0    0    0 -0.51390241588E+01  0.26911430323E+02  0.58806030659E+01  0.28021708437E+02  0.00000000000E+00 0. -1.
</event>
<event>
 5    1  0.6622912E-004  0.9118800E+02  0.7818608E-02  0.1130116E+00
         25   -1    0    0    0    0  0.00000000000E+00  0.00000000000E+00  0.99999998245E-14  0.12500000000E+03  0.12500000000E+03 0.  0.
        -11    1    3    3    0    0 -0.30409985166E+01  0.25569049724E+02 -0.23750577638E+02  0.35030185757E+02  0.51100000000E-03 0.  1.
         23    2    1    0    0    0  0.15019576456E+02 -0.17424548911E+02  0.16547204192E+02  0.96662523962E+02  0.92415534357E+02 0.  0.
         11    1    3    3    0    0  0.18060574972E+02 -0.42993598635E+02  0.40297781830E+02  0.61632338205E+02  0.51100000000E-03 0. -1.
         22    1    1    0    0    0 -0.15019576456E+02  0.17424548911E+02 -0.16547204192E+02  0.28337476038E+02  0.00000000000E+00 0. -1.
</event>
<event>
 5    1  0.6622912E-004  0.9118800E+02  0.7818608E-02  0.1130116E+00
         25   -1    0    0    0    0  0.00000000000E+00  0.00000000000E+00  0.99999998245E-14  0.12500000000E+03  0.12500000000E+03 0.  0.
        -11    1    3    3    0    0 -0.50795629770E+02  0.27586004327E+02  0.10806821951E+02  0.58804515468E+02  0.51100000000E-03 0.  1.
         23    2    1    0    0    0 -0.26812321455E+02  0.23299566983E+01  0.15490383333E+02  0.93947121617E+02  0.88666681478E+02 0.  0.
         11    1    3    3    0    0  0.23983308314E+02 -0.25256047629E+02  0.46835613823E+01  0.35142606150E+02  0.51100000000E-03 0. -1.
         22    1    1    0    0    0  0.26812321455E+02 -0.23299566983E+01 -0.15490383333E+02  0.31052878383E+02  0.00000000000E+00 0.  1.
</event>
<event>
 5    1  0.6622912E-004  0.9118800E+02  0.7818608E-02  0.1130116E+00
         25   -1    0    0    0    0  0.00000000000E+00  0.00000000000E+00  0.99999998245E-14  0.12500000000E+03  0.12500000000E+03 0.  0.
        -11    1    3    3    0    0  0.19938845257E+02 -0.21246208309E+02 -0.67083339714E+01  0.29899174949E+02  0.51100000000E-03 0. -1.
         23    2    1    0    0    0 -0.19092259654E+02  0.26616840108E+02  0.15402243311E+01  0.92207579427E+02  0.86179434071E+02 0.  0.
         11    1    3    3    0    0 -0.39031104911E+02  0.47863048417E+02  0.82485583025E+01  0.62308404478E+02  0.51100000000E-03 0.  1.
         22    1    1    0    0    0  0.19092259654E+02 -0.26616840108E+02 -0.15402243311E+01  0.32792420573E+02  0.00000000000E+00 0.  1.
</event>
<event>
 5    1  0.6622912E-004  0.9118800E+02  0.7818608E-02  0.1130116E+00
         25   -1    0    0    0    0  0.00000000000E+00  0.00000000000E+00  0.99999998245E-14  0.12500000000E+03  0.12500000000E+03 0.  0.
        -11    1    3    3    0    0  0.19399554549E+02  0.11882133416E+02  0.39961146537E+02  0.45982834232E+02  0.51100000000E-03 0. -1.
         23    2    1    0    0    0  0.27069683212E+02  0.10016482035E+02 -0.83645474288E+01  0.94948988117E+02  0.90068013352E+02 0.  0.
         11    1    3    3    0    0  0.76701286629E+01 -0.18656513817E+01 -0.48325693965E+02  0.48966153885E+02  0.51100000000E-03 0.  1.
         22    1    1    0    0    0 -0.27069683212E+02 -0.10016482035E+02  0.83645474288E+01  0.30051011883E+02  0.00000000000E+00 0.  1.
</event>
<event>
 5    1  0.6622912E-004  0.9118800E+02  0.7818608E-02  0.1130116E+00
         25   -1    0    0    0    0  0.00000000000E+00  0.00000000000E+00  0.99999998245E-14  0.12500000000E+03  0.12500000000E+03 0.  0.
        -11    1    3    3    0    0 -0.47502018571E+01  0.37481568951E+02 -0.93956198345E+00  0.37793057639E+02  0.51100000000E-03 0.  1.
         23    2    1    0    0    0  0.18194376147E+02 -0.16659681727E+02  0.11315915864E+02  0.97859066514E+02  0.94020033124E+02 0.  0.
         11    1    3    3    0    0  0.22944578004E+02 -0.54141250678E+02  0.12255477847E+02  0.60066008876E+02  0.51100000000E-03 0. -1.
         22    1    1    0    0    0 -0.18194376147E+02  0.16659681727E+02 -0.11315915864E+02  0.27140933486E+02  0.00000000000E+00 0. -1.
</event>
<event>
 5    1  0.6622912E-004  0.9118800E+02  0.7818608E-02  0.1130116E+00
         25   -1    0    0    0    0  0.00000000000E+00  0.00000000000E+00  0.99999998245E-14  0.12500000000E+03  0.12500000000E+03 0.  0.
        -11    1    3    3    0    0  0.28901701196E+02  0.47521320883E+01  0.18686142572E+02  0.34742812435E+02  0.51100000000E-03 0. -1.
         23    2    1    0    0    0 -0.16554713939E+02  0.10081268353E+02 -0.21786904499E+02  0.95839071811E+02  0.91294950314E+02 0.  0.
         11    1    3    3    0    0 -0.45456415135E+02  0.53291362643E+01 -0.40473047071E+02  0.61096259376E+02  0.51100000000E-03 0.  1.
         22    1    1    0    0    0  0.16554713939E+02 -0.10081268353E+02  0.21786904499E+02  0.29160928189E+02  0.00000000000E+00 0.  1.
</event>
<event>
 5    1  0.6622912E-004  0.9118800E+02  0.7818608E-02  0.1130116E+00
         25   -1    0    0    0    0  0.00000000000E+00  0.00000000000E+00  0.99999998245E-14  0.12500000000E+03  0.12500000000E+03 0.  0.
        -11    1    3    3    0    0 -0.24806484625E+02  0.15668055578E+02  0.14372335594E+02  0.32671297429E+02  0.51100000000E-03 0. -1.
         23    2    1    0    0    0  0.12043985125E+02  0.31504275773E+01 -0.30492500562E+02  0.92064071864E+02  0.85971029807E+02 0.  0.
         11    1    3    3    0    0  0.36850469750E+02 -0.12517628001E+02 -0.44864836156E+02  0.59392774435E+02  0.51100000000E-03 0.  1.
         22    1    1    0    0    0 -0.12043985125E+02 -0.31504275773E+01  0.30492500562E+02  0.32935928136E+02  0.00000000000E+00 0.  1.
</event>
<event>
 5    1  0.6622912E-004  0.9118800E+02  0.7818608E-02  0.1130116E+00
         25   -1    0    0    0    0  0.00000000000E+00  0.00000000000E+00  0.99999998245E-14  0.12500000000E+03  0.12500000000E+03 0.  0.
        -11    1    3    3    0    0 -0.62814169545E+01  0.39268733335E+02  0.31182510508E+02  0.50535517990E+02  0.51100000000E-03 0. -1.
         23    2    1    0    0    0  0.23758714052E+02  0.10328191281E+02  0.12201445577E+02  0.96363950993E+02  0.92010802346E+02 0.  0.
         11    1    3    3    0    0  0.30040131007E+02 -0.28940542055E+02 -0.18981064931E+02  0.45828433003E+02  0.51100000000E-03 0.  1.
         22    1    1    0    0    0 -0.23758714052E+02 -0.10328191281E+02 -0.12201445577E+02  0.28636049007E+02  0.00000000000E+00 0. -1.
</event>
<event>
 5    1  0.6622912E-004  0.9118800E+02  0.7818608E-02  0.1130116E+00
         25   -1    0    0    0    0  0.00000000000E+00  0.00000000000E+00  0.99999998245E-14  0.12500000000E+03  0.12500000000E+03 0.  0.
        -11    1    3    3    0    0 -0.18001919249E+02 -0.23862695883E+02  0.18122240052E+02  0.34955871269E+02  0.51100000000E-03 0.  1.
         23    2    1    0    0    0  0.14811721550E+02  0.11183994295E+02 -0.21062276569E+02  0.96927089250E+02  0.92772691632E+02 0.  0.
         11    1    3    3    0    0  0.32813640799E+02  0.35046690178E+02 -0.39184516621E+02  0.61971217981E+02  0.51100000000E-03 0. -1.
         22    1    1    0    0    0 -0.14811721550E+02 -0.11183994295E+02  0.21062276569E+02  0.28072910750E+02  0.00000000000E+00 0. -1.
</event>
<event>
 5    1  0.6622912E-004  0.9118800E+02  0.7818608E-02  0.1130116E+00
         25   -1    0    0    0    0  0.00000000000E+00  0.00000000000E+00  0.99999998245E-14  0.12500000000E+03  0.12500000000E+03 0.  0.
        -11    1    3    3    0    0 -0.55383861628E+02  0.47871281356E+01  0.26441453947E+02  0.61558421127E+02  0.51100000000E-03 0.  1.
         23    2    1    0    0    0 -0.27747036132E+02  0.91351958000E+01  0.94191392692E+01  0.94306841137E+02  0.89172362783E+02 0.  0.
         11    1    3    3    0    0  0.27636825496E+02  0.43480676643E+01 -0.17022314678E+02  0.32748420010E+02  0.51100000000E-03 0. -1.
         22    1    1    0    0    0  0.27747036132E+02 -0.91351958000E+01 -0.94191392692E+01  0.30693158863E+02  0.00000000000E+00 0.  1.
</event>
<event>
 5    1  0.6622912E-004  0.9118800E+02  0.7818608E-02  0.1130116E+00
         25   -1    0    0    0    0  0.00000000000E+00  0.00000000000E+00  0.99999998245E-14  0.12500000000E+03  0.12500000000E+03 0.  0.
        -11    1    3    3    0    0  0.60473007222E+02  0.12891664339E+01  0.12405946019E+02  0.61745882854E+02  0.51100000000E-03 0.  1.
         23    2    1    0    0    0  0.26611235408E+02 -0.34207439761E+01  0.11116738182E+02  0.95957940722E+02  0.91457559450E+02 0.  0.
         11    1    3    3    0    0 -0.33861771814E+02 -0.47099104100E+01 -0.12892078372E+01  0.34212057868E+02  0.51100000000E-03 0. -1.
         22    1    1    0    0    0 -0.26611235408E+02  0.34207439761E+01 -0.11116738182E+02  0.29042059278E+02  0.00000000000E+00 0.  1.
</event>
<event>
 5    1  0.6622912E-004  0.9118800E+02  0.7818608E-02  0.1130116E+00
         25   -1    0    0    0    0  0.00000000000E+00  0.00000000000E+00  0.99999998245E-14  0.12500000000E+03  0.12500000000E+03 0.  0.
        -11    1    3    3    0    0  0.30265162154E+02 -0.95744797736E+01 -0.60260898492E+01  0.32310438906E+02  0.51100000000E-03 0. -1.
         23    2    1    0    0    0 -0.27698157039E+02  0.24535388070E+01  0.12742713931E+02  0.94412673958E+02  0.89320593871E+02 0.  0.
         11    1    3    3    0    0 -0.57963319193E+02  0.12028018581E+02  0.18768803781E+02  0.62102235052E+02  0.51100000000E-03 0.  1.
         22    1    1    0    0    0  0.27698157039E+02 -0.24535388070E+01 -0.12742713931E+02  0.30587326042E+02  0.00000000000E+00 0.  1.
</event>
<event>
 5    1  0.6622912E-004  0.9118800E+02  0.7818608E-02  0.1130116E+00
         25   -1    0    0    0    0  0.00000000000E+00  0.00000000000E+00  0.99999998245E-14  0.12500000000E+03  0.12500000000E+03 0.  0.
        -11    1    3    3    0    0  0.10546942761E+02  0.11110276202E+02  0.31728379108E+02  0.35233028254E+02  0.51100000000E-03 0.  1.
         23    2    1    0    0    0 -0.38774938096E+01 -0.23538351946E+02 -0.16241557154E+02  0.96140388960E+02  0.91706582316E+02 0.  0.
         11    1    3    3    0    0 -0.14424436571E+02 -0.34648628148E+02 -0.47969936262E+02  0.60907360706E+02  0.51100000000E-03 0. -1.
         22    1    1    0    0    0  0.38774938096E+01  0.23538351946E+02  0.16241557154E+02  0.28859611040E+02  0.00000000000E+00 0. -1.
</event>
<event>
 5    1  0.6622912E-004  0.9118800E+02  0.7818608E-02  0.1130116E+00
         25   -1    0    0    0    0  0.00000000000E+00  0.00000000000E+00  0.99999998245E-14  0.12500000000E+03  0.12500000000E+03 0.  0.
        -11    1    3    3    0    0 -0.23732980538E+02  0.19898226903E+02  0.14768375094E+02  0.34311786638E+02  0.51100000000E-03 0. -1.
         23    2    1    0    0    0  0.73467047280E+01 -0.19984870487E+02 -0.20089803365E+02  0.95725961707E+02  0.91139949674E+02 0.  0.
         11    1    3    3    0    0  0.31079685266E+02 -0.39883097390E+02 -0.34858178459E+02  0.61414175069E+02  0.51100000000E-03 0.  1.
         22    1    1    0    0    0 -0.73467047280E+01  0.19984870487E+02  0.20089803365E+02  0.29274038293E+02  0.00000000000E+00 0.  1.
</event>
<event>
 5    1  0.6622912E-004  0.9118800E+02  0.7818608E-02  0.1130116E+00
         25   -1    0    0    0    0  0.00000000000E+00  0.00000000000E+00  0.99999998245E-14  0.12500000000E+03  0.12500000000E+03 0.  0.
        -11    1    3    3    0    0  0.21930373794E+02  0.33442186562E+01 -0.24878743676E+02  0.33332821368E+02  0.51100000000E-03 0.  1.
         23    2    1    0    0    0 -0.26147967369E+02  0.26751590204E+01  0.14047341611E+02  0.95197307511E+02  0.90411984148E+02 0.  0.
         11    1    3    3    0    0 -0.48078341163E+02 -0.66905963576E+00  0.38926085287E+02  0.61864486143E+02  0.51100000000E-03 0. -1.
         22    1    1    0    0    0  0.26147967369E+02 -0.26751590204E+01 -0.14047341611E+02  0.29802692489E+02  0.00000000000E+00 0. -1.
</event>
<event>
 4    1  0.6622912E-004  0.9118800E+02  0.7818608E-02  0.1130116E+00
         25   -1    0    0    0    0  0.00000000000E+00  0.00000000000E+00  0.99999998245E-14  0.12500000000E+03  0.12500000000E+03 0.  0.
        -11    1    1    0    0    0  0.54155508411E+01  0.37414292635E+02 -0.44549897380E+02  0.58428168217E+02  0.51100000000E-03 0. -1.
         11    1    1    0    0    0  0.65527766904E+01 -0.38327814527E+01 -0.20837025238E+01  0.78721605984E+01  0.51100000000E-03 0.  1.
         22    1    1    0    0    0 -0.11968327531E+02 -0.33581511182E+02  0.46633599904E+02  0.58699671185E+02  0.00000000000E+00 0. -1.
</event>
<event>
 5    1  0.6622912E-004  0.9118800E+02  0.7818608E-02  0.1130116E+00
         25   -1    0    0    0    0  0.00000000000E+00  0.00000000000E+00  0.99999998245E-14  0.12500000000E+03  0.12500000000E+03 0.  0.
        -11    1    3    3    0    0  0.10031008994E+02  0.39719068095E+02  0.15264003268E+02  0.43717448551E+02  0.51100000000E-03 0.  1.
         23    2    1    0    0    0 -0.17147164036E+02 -0.34970581059E+01  0.23780047136E+02  0.95474666951E+02  0.90794640468E+02 0.  0.
         11    1    3    3    0    0 -0.27178173029E+02 -0.43216126201E+02  0.85160438677E+01  0.51757218400E+02  0.51100000000E-03 0. -1.
         22    1    1    0    0    0  0.17147164036E+02  0.34970581059E+01 -0.23780047136E+02  0.29525333049E+02  0.00000000000E+00 0. -1.
</event>
<event>
 5    1  0.6622912E-004  0.9118800E+02  0.7818608E-02  0.1130116E+00
         25   -1    0    0    0    0  0.00000000000E+00  0.00000000000E+00  0.99999998245E-14  0.12500000000E+03  0.12500000000E+03 0.  0.
        -11    1    3    3    0    0 -0.48179928075E+02  0.33863133369E+02  0.24900528159E+01  0.58942494299E+02  0.51100000000E-03 0.  1.
         23    2    1    0    0    0 -0.25674726588E+02  0.51778533070E+01 -0.92139138598E+01  0.97234950768E+02  0.93186574634E+02 0.  0.
         11    1    3    3    0    0  0.22505201488E+02 -0.28685280062E+02 -0.11703966676E+02  0.38292456469E+02  0.51100000000E-03 0. -1.
         22    1    1    0    0    0  0.25674726588E+02 -0.51778533070E+01  0.92139138598E+01  0.27765049232E+02  0.00000000000E+00 0.  1.
</event>
<event>
 5    1  0.6622912E-004  0.9118800E+02  0.7818608E-02  0.1130116E+00
         25   -1    0    0    0    0  0.00000000000E+00  0.00000000000E+00  0.99999998245E-14  0.12500000000E+03  0.12500000000E+03 0.  0.
        -11    1    3    3    0    0 -0.29551939108E+02 -0.20405005950E+02  0.50430455676E+02  0.61910517950E+02  0.51100000000E-03 0. -1.
         23    2    1    0    0    0 -0.14186318643E+02 -0.34708416637E+01  0.24446720606E+02  0.96522982479E+02  0.92226599307E+02 0.  0.
         11    1    3    3    0    0  0.15365620464E+02  0.16934164286E+02 -0.25983735070E+02  0.34612464529E+02  0.51100000000E-03 0.  1.
         22    1    1    0    0    0  0.14186318643E+02  0.34708416637E+01 -0.24446720606E+02  0.28477017521E+02  0.00000000000E+00 0. -1.
</event>
<event>
 5    1  0.6622912E-004  0.9118800E+02  0.7818608E-02  0.1130116E+00
         25   -1    0    0    0    0  0.00000000000E+00  0.00000000000E+00  0.99999998245E-14  0.12500000000E+03  0.12500000000E+03 0.  0.
        -11    1    3    3    0    0  0.22513074520E+01 -0.17932671737E+02 -0.56639931329E+02  0.59453603104E+02  0.51100000000E-03 0.  1.
         23    2    1    0    0    0 -0.72928865227E+01 -0.18123053893E+02 -0.21134989616E+02  0.96219467303E+02  0.91814306215E+02 0.  0.
         11    1    3    3    0    0 -0.95441939747E+01 -0.19038215579E+00  0.35504941713E+02  0.36765864199E+02  0.51100000000E-03 0. -1.
         22    1    1    0    0    0  0.72928865227E+01  0.18123053893E+02  0.21134989616E+02  0.28780532697E+02  0.00000000000E+00 0.  1.
</event>
<event>
 5    1  0.6622912E-004  0.9118800E+02  0.7818608E-02  0.1130116E+00
         25   -1    0    0    0    0  0.00000000000E+00  0.00000000000E+00  0.99999998245E-14  0.12500000000E+03  0.12500000000E+03 0.  0.
        -11    1    3    3    0    0 -0.46716560842E+02  0.21508023696E+02 -0.84874748841E+01  0.52125515541E+02  0.51100000000E-03 0. -1.
         23    2    1    0    0    0 -0.24364050433E+02 -0.79397856665E+01 -0.21735856292E+02  0.91397997103E+02  0.84997054512E+02 0.  0.
         11    1    3    3    0    0  0.22352510409E+02 -0.29447809362E+02 -0.13248381408E+02  0.39272481562E+02  0.51100000000E-03 0.  1.
         22    1    1    0    0    0  0.24364050433E+02  0.79397856665E+01  0.21735856292E+02  0.33602002897E+02  0.00000000000E+00 0. -1.
</event>
<event>
 5    1  0.6622912E-004  0.9118800E+02  0.7818608E-02  0.1130116E+00
         25   -1    0    0    0    0  0.00000000000E+00  0.00000000000E+00  0.99999998245E-14  0.12500000000E+03  0.12500000000E+03 0.  0.
        -11    1    3    3    0    0  0.14181642039E+02 -0.15006161727E+02 -0.41499604335E+02  0.46352141492E+02  0.51100000000E-03 0.  1.
         23    2    1    0    0    0  0.27207623749E+02  0.69257706673E+01  0.20793842545E+01  0.96847825514E+02  0.92665831774E+02 0.  0.
         11    1    3    3    0    0  0.13025981710E+02  0.21931932394E+02  0.43578988589E+02  0.50495684021E+02  0.51100000000E-03 0. -1.
         22    1    1    0    0    0 -0.27207623749E+02 -0.69257706673E+01 -0.20793842545E+01  0.28152174486E+02  0.00000000000E+00 0. -1.
</event>
<event>
 5    1  0.6622912E-004  0.9118800E+02  0.7818608E-02  0.1130116E+00
         25   -1    0    0    0    0  0.00000000000E+00  0.00000000000E+00  0.99999998245E-14  0.12500000000E+03  0.12500000000E+03 0.  0.
        -11    1    3    3    0    0  0.16162650151E+01 -0.53460986565E+02 -0.31722134392E+02  0.62185072226E+02  0.51100000000E-03 0.  1.
         23    2    1    0    0    0 -0.33276823340E+00 -0.22936015095E+02 -0.18599917715E+02  0.95468178821E+02  0.90785707605E+02 0.  0.
         11    1    3    3    0    0 -0.19490332485E+01  0.30524971470E+02  0.13122216677E+02  0.33283106595E+02  0.51100000000E-03 0. -1.
         22    1    1    0    0    0  0.33276823340E+00  0.22936015095E+02  0.18599917715E+02  0.29531821179E+02  0.00000000000E+00 0.  1.
</event>
<event>
 5    1  0.6622912E-004  0.9118800E+02  0.7818608E-02  0.1130116E+00
         25   -1    0    0    0    0  0.00000000000E+00  0.00000000000E+00  0.99999998245E-14  0.12500000000E+03  0.12500000000E+03 0.  0.
        -11    1    3    3    0    0 -0.42673500465E+02 -0.15393024206E+02  0.35261111077E+02  0.57457103919E+02  0.51100000000E-03 0.  1.
         23    2    1    0    0    0 -0.15135885958E+02 -0.23246441301E+02  0.10413827420E+02  0.95369949739E+02  0.90650358161E+02 0.  0.
         11    1    3    3    0    0  0.27537614507E+02 -0.78534170958E+01 -0.24847283656E+02  0.37912845820E+02  0.51100000000E-03 0. -1.
         22    1    1    0    0    0  0.15135885958E+02  0.23246441301E+02 -0.10413827420E+02  0.29630050261E+02  0.00000000000E+00 0.  1.
</event>
<event>
 5    1  0.6622912E-004  0.9118800E+02  0.7818608E-02  0.1130116E+00
         25   -1    0    0    0    0  0.00000000000E+00  0.00000000000E+00  0.99999998245E-14  0.12500000000E+03  0.12500000000E+03 0.  0.
        -11    1    3    3    0    0  0.34536394660E+02 -0.91579478235E+01 -0.67375913723E+01  0.36359671371E+02  0.51100000000E-03 0. -1.
         23    2    1    0    0    0 -0.18320253839E+02  0.14383929217E+02 -0.18315776269E+02  0.95368989542E+02  0.90649034112E+02 0.  0.
         11    1    3    3    0    0 -0.52856648500E+02  0.23541877040E+02 -0.11578184897E+02  0.59009318170E+02  0.51100000000E-03 0.  1.
         22    1    1    0    0    0  0.18320253839E+02 -0.14383929217E+02  0.18315776269E+02  0.29631010458E+02  0.00000000000E+00 0.  1.
</event>
<event>
 5    1  0.6622912E-004  0.9118800E+02  0.7818608E-02  0.1130116E+00
         25   -1    0    0    0    0  0.00000000000E+00  0.00000000000E+00  0.99999998245E-14  0.12500000000E+03  0.12500000000E+03 0.  0.
        -11    1    3    3    0    0  0.32893569754E+01 -0.31406859961E+02 -0.25545071555E+02  0.40617254990E+02  0.51100000000E-03 0.  1.
         23    2    1    0    0    0 -0.26631140098E+02  0.97301119203E+01 -0.22711114685E+01  0.96556184360E+02  0.92271588747E+02 0.  0.
         11    1    3    3    0    0 -0.29920497073E+02  0.41136971881E+02  0.23273960087E+02  0.55938929370E+02  0.51100000000E-03 0. -1.
         22    1    1    0    0    0  0.26631140098E+02 -0.97301119203E+01  0.22711114685E+01  0.28443815640E+02  0.00000000000E+00 0.  1.
</event>
<event>
 5    1  0.6622912E-004  0.9118800E+02  0.7818608E-02  0.1130116E+00
         25   -1    0    0    0    0  0.00000000000E+00  0.00000000000E+00  0.99999998245E-14  0.12500000000E+03  0.12500000000E+03 0.  0.
        -11    1    3    3    0    0 -0.40464388584E+02  0.10243636599E+02  0.20615117890E+02  0.46554075226E+02  0.51100000000E-03 0.  1.
         23    2    1    0    0    0  0.74237865089E+01  0.21959062244E+02  0.17505669438E+02  0.95952427240E+02  0.91450023565E+02 0.  0.
         11    1    3    3    0    0  0.47888175093E+02  0.11715425645E+02 -0.31094484526E+01  0.49398352014E+02  0.51100000000E-03 0. -1.
         22    1    1    0    0    0 -0.74237865089E+01 -0.21959062244E+02 -0.17505669438E+02  0.29047572760E+02  0.00000000000E+00 0.  1.
</event>
<event>
 5    1  0.6622912E-004  0.9118800E+02  0.7818608E-02  0.1130116E+00
         25   -1    0    0    0    0  0.00000000000E+00  0.00000000000E+00  0.99999998245E-14  0.12500000000E+03  0.12500000000E+03 0.  0.
        -11    1    3    3    0    0 -0.33382222545E+02 -0.45314570673E+02 -0.63210776240E+01  0.56636905988E+02  0.51100000000E-03 0.  1.
         23    2    1    0    0    0 -0.28343060774E+02 -0.81200713913E+01  0.31534588461E+01  0.95348542091E+02  0.90620833822E+02 0.  0.
         11    1    3    3    0    0  0.50391617706E+01  0.37194499282E+02  0.94745364701E+01  0.38711636103E+02  0.51100000000E-03 0. -1.
         22    1    1    0    0    0  0.28343060774E+02  0.81200713913E+01 -0.31534588461E+01  0.29651457909E+02  0.00000000000E+00 0.  1.
</event>
<event>
 5    1  0.6622912E-004  0.9118800E+02  0.7818608E-02  0.1130116E+00
         25   -1    0    0    0    0  0.00000000000E+00  0.00000000000E+00  0.99999998245E-14  0.12500000000E+03  0.12500000000E+03 0.  0.
        -11    1    3    3    0    0  0.81134890285E+01  0.27482632702E+02 -0.24930382790E+02  0.37982203606E+02  0.51100000000E-03 0.  1.
         23    2    1    0    0    0 -0.16714253923E+02 -0.22051144756E+02 -0.11766919981E+02  0.94932082296E+02  0.90044547719E+02 0.  0.
         11    1    3    3    0    0 -0.24827742951E+02 -0.49533777458E+02  0.13163462809E+02  0.56949878689E+02  0.51100000000E-03 0. -1.
         22    1    1    0    0    0  0.16714253923E+02  0.22051144756E+02  0.11766919981E+02  0.30067917704E+02  0.00000000000E+00 0. -1.
</event>
<event>
 5    1  0.6622912E-004  0.9118800E+02  0.7818608E-02  0.1130116E+00
         25   -1    0    0    0    0  0.00000000000E+00  0.00000000000E+00  0.99999998245E-14  0.12500000000E+03  0.12500000000E+03 0.  0.
        -11    1    3    3    0    0  0.55136802307E+02 -0.10633683667E+02  0.12235642711E+02  0.57470454582E+02  0.51100000000E-03 0. -1.
         23    2    1    0    0    0  0.20815355973E+02 -0.21966896122E+02  0.51620974193E+01  0.94300312391E+02  0.89163210450E+02 0.  0.
         11    1    3    3    0    0 -0.34321446334E+02 -0.11333212455E+02 -0.70735452920E+01  0.36829857809E+02  0.51100000000E-03 0.  1.
         22    1    1    0    0    0 -0.20815355973E+02  0.21966896122E+02 -0.51620974193E+01  0.30699687609E+02  0.00000000000E+00 0. -1.
</event>
<event>
 5    1  0.6622912E-004  0.9118800E+02  0.7818608E-02  0.1130116E+00
         25   -1    0    0    0    0  0.00000000000E+00  0.00000000000E+00  0.99999998245E-14  0.12500000000E+03  0.12500000000E+03 0.  0.
        -11    1    3    3    0    0 -0.30240557290E+02  0.46776864457E+02 -0.20425348811E+02  0.59327575612E+02  0.51100000000E-03 0.  1.
         23    2    1    0    0    0 -0.16580790192E+02  0.22397800372E+02  0.44978185826E+01  0.96772098256E+02  0.92563624411E+02 0.  0.
         11    1    3    3    0    0  0.13659767099E+02 -0.24379064086E+02  0.24923167393E+02  0.37444522644E+02  0.51100000000E-03 0. -1.
         22    1    1    0    0    0  0.16580790192E+02 -0.22397800372E+02 -0.44978185826E+01  0.28227901744E+02  0.00000000000E+00 0.  1.
</event>
<event>
 5    1  0.6622912E-004  0.9118800E+02  0.7818608E-02  0.1130116E+00
         25   -1    0    0    0    0  0.00000000000E+00  0.00000000000E+00  0.99999998245E-14  0.12500000000E+03  0.12500000000E+03 0.  0.
        -11    1    3    3    0    0 -0.22131010781E+02  0.23548121265E+02  0.25347125461E+02  0.41070335069E+02  0.51100000000E-03 0.  1.
         23    2    1    0    0    0  0.23626787883E+02 -0.44721979916E+01  0.17416814532E+02  0.95308737161E+02  0.90565911303E+02 0.  0.
         11    1    3    3    0    0  0.45757798664E+02 -0.28020319257E+02 -0.79303109288E+01  0.54238402092E+02  0.51100000000E-03 0. -1.
         22    1    1    0    0    0 -0.23626787883E+02  0.44721979916E+01 -0.17416814532E+02  0.29691262839E+02  0.00000000000E+00 0. -1.
</event>
<event>
 5    1  0.6622912E-004  0.9118800E+02  0.7818608E-02  0.1130116E+00
         25   -1    0    0    0    0  0.00000000000E+00  0.00000000000E+00  0.99999998245E-14  0.12500000000E+03  0.12500000000E+03 0.  0.
        -11    1    3    3    0    0 -0.33650287129E+02  0.93886854949E+01  0.43744615749E+02  0.55982860292E+02  0.51100000000E-03 0. -1.
         23    2    1    0    0    0 -0.41654553536E+01 -0.66574256584E+01  0.32773784371E+02  0.91298467740E+02  0.84850556480E+02 0.  0.
         11    1    3    3    0    0  0.29484831776E+02 -0.16046111153E+02 -0.10970831378E+02  0.35315607447E+02  0.51100000000E-03 0.  1.
         22    1    1    0    0    0  0.41654553536E+01  0.66574256584E+01 -0.32773784371E+02  0.33701532260E+02  0.00000000000E+00 0. -1.
</event>
<event>
 5    1  0.6622912E-004  0.9118800E+02  0.7818608E-02  0.1130116E+00
         25   -1    0    0    0    0  0.00000000000E+00  0.00000000000E+00  0.99999998245E-14  0.12500000000E+03  0.12500000000E+03 0.  0.
        -11    1    3    3    0    0  0.35263532942E+02  0.37273334152E+01 -0.13335855470E+02  0.37884756979E+02  0.51100000000E-03 0. -1.
         23    2    1    0    0    0 -0.99189003040E+01  0.15345653540E+02  0.21994710454E+02  0.96405578276E+02  0.92067337145E+02 0.  0.
         11    1    3    3    0    0 -0.45182433246E+02  0.11618320124E+02  0.35330565924E+02  0.58520821297E+02  0.51100000000E-03 0.  1.
         22    1    1    0    0    0  0.99189003040E+01 -0.15345653540E+02 -0.21994710454E+02  0.28594421724E+02  0.00000000000E+00 0.  1.
</event>
<event>
 5    1  0.6622912E-004  0.9118800E+02  0.7818608E-02  0.1130116E+00
         25   -1    0    0    0    0  0.00000000000E+00  0.00000000000E+00  0.99999998245E-14  0.12500000000E+03  0.12500000000E+03 0.  0.
        -11    1    3    3    0    0  0.32171502903E+02 -0.17396852714E+02  0.56136345962E+01  0.37002283403E+02  0.51100000000E-03 0. -1.
         23    2    1    0    0    0 -0.18325864133E+02 -0.20039824501E+01 -0.21769901290E+02  0.96473138201E+02  0.92159017737E+02 0.  0.
         11    1    3    3    0    0 -0.50497367036E+02  0.15392870264E+02 -0.27383535887E+02  0.59470854798E+02  0.51100000000E-03 0.  1.
         22    1    1    0    0    0  0.18325864133E+02  0.20039824501E+01  0.21769901290E+02  0.28526861799E+02  0.00000000000E+00 0.  1.
</event>
<event>
 5    1  0.6622912E-004  0.9118800E+02  0.7818608E-02  0.1130116E+00
         25   -1    0    0    0    0  0.00000000000E+00  0.00000000000E+00  0.99999998245E-14  0.12500000000E+03  0.12500000000E+03 0.  0.
        -11    1    3    3    0    0  0.40055147847E+02  0.44318093609E+02  0.17280205104E+02  0.62186122076E+02  0.51100000000E-03 0.  1.
         23    2    1    0    0    0  0.13872600210E+02  0.21741551604E+02  0.64418284554E+01  0.98417275223E+02  0.94759267651E+02 0.  0.
         11    1    3    3    0    0 -0.26182547638E+02 -0.22576542004E+02 -0.10838376649E+02  0.36231153147E+02  0.51100000000E-03 0. -1.
         22    1    1    0    0    0 -0.13872600210E+02 -0.21741551604E+02 -0.64418284554E+01  0.26582724777E+02  0.00000000000E+00 0.  1.
</event>
<event>
 5    1  0.6622912E-004  0.9118800E+02  0.7818608E-02  0.1130116E+00
         25   -1    0    0    0    0  0.00000000000E+00  0.00000000000E+00  0.99999998245E-14  0.12500000000E+03  0.12500000000E+03 0.  0.
        -11    1    3    3    0    0 -0.16692867854E+02  0.23040859249E+02 -0.17536309751E+02  0.33422375620E+02  0.51100000000E-03 0.  1.
         23    2    1    0    0    0  0.16823689698E+02 -0.24446841552E+02  0.32376883233E+01  0.95147575934E+02  0.90343201092E+02 0.  0.
         11    1    3    3    0    0  0.33516557552E+02 -0.47487700801E+02  0.20773998074E+02  0.61725200314E+02  0.51100000000E-03 0. -1.
         22    1    1    0    0    0 -0.16823689698E+02  0.24446841552E+02 -0.32376883233E+01  0.29852424066E+02  0.00000000000E+00 0. -1.
</event>
<event>
 5    1  0.6622912E-004  0.9118800E+02  0.7818608E-02  0.1130116E+00
         25   -1    0    0    0    0  0.00000000000E+00  0.00000000000E+00  0.99999998245E-14  0.12500000000E+03  0.12500000000E+03 0.  0.
        -11    1    3    3    0    0  0.89789732884E+00 -0.14568508475E+02  0.44026955445E+02  0.46383407214E+02  0.51100000000E-03 0. -1.
         23    2    1    0    0    0  0.18351092256E+02  0.14628176306E+02  0.62903652344E+00  0.10152359022E+03  0.98771947211E+02 0.  0.
         11    1    3    3    0    0  0.17453194927E+02  0.29196684781E+02 -0.43397918921E+02  0.55140183010E+02  0.51100000000E-03 0.  1.
         22    1    1    0    0    0 -0.18351092256E+02 -0.14628176306E+02 -0.62903652344E+00  0.23476409776E+02  0.00000000000E+00 0.  1.
</event>
<event>
 5    1  0.6622912E-004  0.9118800E+02  0.7818608E-02  0.1130116E+00
         25   -1    0    0    0    0  0.00000000000E+00  0.00000000000E+00  0.99999998245E-14  0.12500000000E+03  0.12500000000E+03 0.  0.
        -11    1    3    3    0    0  0.12569719648E+02 -0.31099748660E+02  0.28641663739E+02  0.44108243229E+02  0.51100000000E-03 0. -1.
         23    2    1    0    0    0 -0.26973305681E+02 -0.31727289623E+01  0.84988395256E+01  0.96542036234E+02  0.92252420340E+02 0.  0.
         11    1    3    3    0    0 -0.39543025329E+02  0.27927019698E+02 -0.20142824213E+02  0.52433793005E+02  0.51100000000E-03 0.  1.
         22    1    1    0    0    0  0.26973305681E+02  0.31727289623E+01 -0.84988395256E+01  0.28457963766E+02  0.00000000000E+00 0.  1.
</event>
<event>
 5    1  0.6622912E-004  0.9118800E+02  0.7818608E-02  0.1130116E+00
         25   -1    0    0    0    0  0.00000000000E+00  0.00000000000E+00  0.99999998245E-14  0.12500000000E+03  0.12500000000E+03 0.  0.
        -11    1    3    3    0    0  0.19218222015E+02  0.97442320863E+01  0.42812002988E+02  0.47928673218E+02  0.51100000000E-03 0.  1.
         23    2    1    0    0    0  0.16814909600E+02  0.20768029994E+01 -0.12578213942E+02  0.10389867868E+03  0.10173332625E+03 0.  0.
         11    1    3    3    0    0 -0.24033124150E+01 -0.76674290869E+01 -0.55390216930E+02  0.55970005460E+02  0.51100000000E-03 0. -1.
         22    1    1    0    0    0 -0.16814909600E+02 -0.20768029994E+01  0.12578213942E+02  0.21101321322E+02  0.00000000000E+00 0.  1.
</event>
<event>
 5    1  0.6622912E-004  0.9118800E+02  0.7818608E-02  0.1130116E+00
         25   -1    0    0    0    0  0.00000000000E+00  0.00000000000E+00  0.99999998245E-14  0.12500000000E+03  0.12500000000E+03 0.  0.
        -11    1    3    3    0    0 -0.29292492777E+02  0.55001156606E+01 -0.20389918043E+02  0.36111634738E+02  0.51100000000E-03 0. -1.
         23    2    1    0    0    0  0.46558369949E+01 -0.23075827472E+02  0.18456006251E+02  0.95086879160E+02  0.90259181196E+02 0.  0.
         11    1    3    3    0    0  0.33948329772E+02 -0.28575943132E+02  0.38845924294E+02  0.58975244423E+02  0.51100000000E-03 0.  1.
         22    1    1    0    0    0 -0.46558369949E+01  0.23075827472E+02 -0.18456006251E+02  0.29913120840E+02  0.00000000000E+00 0.  1.
</event>
<event>
 5    1  0.6622912E-004  0.9118800E+02  0.7818608E-02  0.1130116E+00
         25   -1    0    0    0    0  0.00000000000E+00  0.00000000000E+00  0.99999998245E-14  0.12500000000E+03  0.12500000000E+03 0.  0.
        -11    1    3    3    0    0 -0.25659278296E+01  0.36010579071E+02  0.11449066832E+02  0.37873828988E+02  0.51100000000E-03 0. -1.
         23    2    1    0    0    0 -0.28831467426E+01 -0.19076312640E+02  0.23833374711E+02  0.94336536576E+02  0.89213979532E+02 0.  0.
         11    1    3    3    0    0 -0.31721891301E+00 -0.55086891711E+02  0.12384307879E+02  0.56462707587E+02  0.51100000000E-03 0.  1.
         22    1    1    0    0    0  0.28831467426E+01  0.19076312640E+02 -0.23833374711E+02  0.30663463424E+02  0.00000000000E+00 0.  1.
</event>
<event>
 5    1  0.6622912E-004  0.9118800E+02  0.7818608E-02  0.1130116E+00
         25   -1    0    0    0    0  0.00000000000E+00  0.00000000000E+00  0.99999998245E-14  0.12500000000E+03  0.12500000000E+03 0.  0.
        -11    1    3    3    0    0 -0.39915171414E+02  0.42307260302E+02  0.14185155914E+02  0.59869389773E+02  0.51100000000E-03 0.  1.
         23    2    1    0    0    0 -0.27606287021E+02  0.11338399038E+02  0.30748434904E+01  0.94997982763E+02  0.90135984438E+02 0.  0.
         11    1    3    3    0    0  0.12308884393E+02 -0.30968861264E+02 -0.11110312424E+02  0.35128592989E+02  0.51100000000E-03 0. -1.
         22    1    1    0    0    0  0.27606287021E+02 -0.11338399038E+02 -0.30748434904E+01  0.30002017237E+02  0.00000000000E+00 0.  1.
</event>
<event>
 5    1  0.6622912E-004  0.9118800E+02  0.7818608E-02  0.1130116E+00
         25   -1    0    0    0    0  0.00000000000E+00  0.00000000000E+00  0.99999998245E-14  0.12500000000E+03  0.12500000000E+03 0.  0.
        -11    1    3    3    0    0  0.44774049545E+02 -0.17051169455E+02 -0.37928975638E+02  0.61106997027E+02  0.51100000000E-03 0. -1.
         23    2    1    0    0    0  0.24945968817E+02 -0.11070447039E+02 -0.98773173714E+01  0.95975569665E+02  0.91481650707E+02 0.  0.
         11    1    3    3    0    0 -0.19828080729E+02  0.59807224157E+01  0.28051658267E+02  0.34868572637E+02  0.51100000000E-03 0.  1.
         22    1    1    0    0    0 -0.24945968817E+02  0.11070447039E+02  0.98773173714E+01  0.29024430335E+02  0.00000000000E+00 0. -1.
</event>
<event>
 5    1  0.6622912E-004  0.9118800E+02  0.7818608E-02  0.1130116E+00
         25   -1    0    0    0    0  0.00000000000E+00  0.00000000000E+00  0.99999998245E-14  0.12500000000E+03  0.12500000000E+03 0.  0.
        -11    1    3    3    0    0  0.61426121471E+01 -0.48003518904E+02  0.98012988244E+01  0.49377474318E+02  0.51100000000E-03 0. -1.
         23    2    1    0    0    0  0.18997456625E+02 -0.42682522898E+01  0.21045278594E+02  0.96329020126E+02  0.91963335256E+02 0.  0.
         11    1    3    3    0    0  0.12854844478E+02  0.43735266614E+02  0.11243979770E+02  0.46951545807E+02  0.51100000000E-03 0.  1.
         22    1    1    0    0    0 -0.18997456625E+02  0.42682522898E+01 -0.21045278594E+02  0.28670979874E+02  0.00000000000E+00 0.  1.
</event>
<event>
 5    1  0.6622912E-004  0.9118800E+02  0.7818608E-02  0.1130116E+00
         25   -1    0    0    0    0  0.00000000000E+00  0.00000000000E+00  0.99999998245E-14  0.12500000000E+03  0.12500000000E+03 0.  0.
        -11    1    3    3    0    0 -0.10427415975E+02  0.18764584006E+02 -0.28423744264E+02  0.35619515088E+02  0.51100000000E-03 0. -1.
         23    2    1    0    0    0  0.20150180253E+02  0.69124466402E+00  0.20611004682E+02  0.96167360554E+02  0.91743338387E+02 0.  0.
         11    1    3    3    0    0  0.30577596228E+02 -0.18073339342E+02  0.49034748947E+02  0.60547845466E+02  0.51100000000E-03 0.  1.
         22    1    1    0    0    0 -0.20150180253E+02 -0.69124466402E+00 -0.20611004682E+02  0.28832639446E+02  0.00000000000E+00 0.  1.
</event>
<event>
 5    1  0.6622912E-004  0.9118800E+02  0.7818608E-02  0.1130116E+00
         25   -1    0    0    0    0  0.00000000000E+00  0.00000000000E+00  0.99999998245E-14  0.12500000000E+03  0.12500000000E+03 0.  0.
        -11    1    3    3    0    0  0.91912918266E+01 -0.25279122146E+02  0.26907009472E+02  0.38046038176E+02  0.51100000000E-03 0.  1.
         23    2    1    0    0    0  0.16815961793E+02  0.24980006365E+02  0.15656094463E+01  0.94846585236E+02  0.89925782226E+02 0.  0.
         11    1    3    3    0    0  0.76246699660E+01  0.50259128511E+02 -0.25341400026E+02  0.56800547060E+02  0.51100000000E-03 0. -1.
         22    1    1    0    0    0 -0.16815961793E+02 -0.24980006365E+02 -0.15656094463E+01  0.30153414764E+02  0.00000000000E+00 0. -1.
</event>
<event>
 5    1  0.6622912E-004  0.9118800E+02  0.7818608E-02  0.1130116E+00
         25   -1    0    0    0    0  0.00000000000E+00  0.00000000000E+00  0.99999998245E-14  0.12500000000E+03  0.12500000000E+03 0.  0.
        -11    1    3    3    0    0 -0.13409218733E+02  0.41931129468E+02 -0.28077080179E+02  0.52214453910E+02  0.51100000000E-03 0. -1.
         23    2    1    0    0    0 -0.25346371744E+02  0.13494384156E+02  0.31611947712E+01  0.96111765081E+02  0.91667558440E+02 0.  0.
         11    1    3    3    0    0 -0.11937153011E+02 -0.28436745312E+02  0.31238274950E+02  0.43897311171E+02  0.51100000000E-03 0.  1.
         22    1    1    0    0    0  0.25346371744E+02 -0.13494384156E+02 -0.31611947712E+01  0.28888234919E+02  0.00000000000E+00 0. -1.
</event>
<event>
 5    1  0.6622912E-004  0.9118800E+02  0.7818608E-02  0.1130116E+00
         25   -1    0    0    0    0  0.00000000000E+00  0.00000000000E+00  0.99999998245E-14  0.12500000000E+03  0.12500000000E+03 0.  0.
        -11    1    3    3    0    0  0.39384117936E+02  0.45541664526E+02 -0.16039158318E+02  0.62308960456E+02  0.51100000000E-03 0. -1.
         23    2    1    0    0    0  0.15852553691E+02  0.23283031712E+02 -0.62420294433E+01  0.96149246877E+02  0.91718655241E+02 0.  0.
         11    1    3    3    0    0 -0.23531564245E+02 -0.22258632814E+02  0.97971288748E+01  0.33840286420E+02  0.51100000000E-03 0.  1.
         22    1    1    0    0    0 -0.15852553691E+02 -0.23283031712E+02  0.62420294433E+01  0.28850753123E+02  0.00000000000E+00 0. -1.
</event>
<event>
 5    1  0.6622912E-004  0.9118800E+02  0.7818608E-02  0.1130116E+00
         25   -1    0    0    0    0  0.00000000000E+00  0.00000000000E+00  0.99999998245E-14  0.12500000000E+03  0.12500000000E+03 0.  0.
        -11    1    3    3    0    0  0.64148303380E+01 -0.29554025450E+02 -0.21455561770E+02  0.37080070114E+02  0.51100000000E-03 0.  1.
         23    2    1    0    0    0  0.15550633922E+02  0.18453805768E+02  0.13671524917E+02  0.97264179186E+02  0.93225773241E+02 0.  0.
         11    1    3    3    0    0  0.91358035841E+01  0.48007831218E+02  0.35127086686E+02  0.60184109071E+02  0.51100000000E-03 0. -1.
         22    1    1    0    0    0 -0.15550633922E+02 -0.18453805768E+02 -0.13671524917E+02  0.27735820814E+02  0.00000000000E+00 0. -1.
</event>
<event>
 5    1  0.6622912E-004  0.9118800E+02  0.7818608E-02  0.1130116E+00
         25   -1    0    0    0    0  0.00000000000E+00  0.00000000000E+00  0.99999998245E-14  0.12500000000E+03  0.12500000000E+03 0.  0.
        -11    1    3    3    0    0  0.34623437347E+02  0.17277054669E+02 -0.13020040457E+01  0.38716588777E+02  0.51100000000E-03 0.  1.
         23    2    1    0    0    0 -0.20967908488E+02  0.16850705132E+02 -0.12356400158E+02  0.95397971782E+02  0.90688990210E+02 0.  0.
         11    1    3    3    0    0 -0.55591345835E+02 -0.42634953689E+00 -0.11054396112E+02  0.56681383004E+02  0.51100000000E-03 0. -1.
         22    1    1    0    0    0  0.20967908488E+02 -0.16850705132E+02  0.12356400158E+02  0.29602028218E+02  0.00000000000E+00 0. -1.
</event>
<event>
 5    1  0.6622912E-004  0.9118800E+02  0.7818608E-02  0.1130116E+00
         25   -1    0    0    0    0  0.00000000000E+00  0.00000000000E+00  0.99999998245E-14  0.12500000000E+03  0.12500000000E+03 0.  0.
        -11    1    3    3    0    0  0.29068398272E+02 -0.14983026585E+02 -0.25808456920E+02  0.41659804520E+02  0.51100000000E-03 0. -1.
         23    2    1    0    0    0  0.12218235068E+02  0.26608948273E+02  0.38754516187E+01  0.95464588684E+02  0.90780764322E+02 0.  0.
         11    1    3    3    0    0 -0.16850163204E+02  0.41591974857E+02  0.29683908539E+02  0.53804784164E+02  0.51100000000E-03 0.  1.
         22    1    1    0    0    0 -0.12218235068E+02 -0.26608948273E+02 -0.38754516187E+01  0.29535411316E+02  0.00000000000E+00 0.  1.
</event>
<event>
 5    1  0.6622912E-004  0.9118800E+02  0.7818608E-02  0.1130116E+00
         25   -1    0    0    0    0  0.00000000000E+00  0.00000000000E+00  0.99999998245E-14  0.12500000000E+03  0.12500000000E+03 0.  0.
        -11    1    3    3    0    0  0.11935250798E+02  0.37997250470E+02  0.84349549341E-01  0.39827733679E+02  0.51100000000E-03 0.  1.
         23    2    1    0    0    0  0.19004210171E+01 -0.98085097418E+01  0.27428875856E+02  0.95808191318E+02  0.91252659301E+02 0.  0.
         11    1    3    3    0    0 -0.10034829781E+02 -0.47805760212E+02  0.27344526307E+02  0.55980457639E+02  0.51100000000E-03 0. -1.
         22    1    1    0    0    0 -0.19004210171E+01  0.98085097418E+01 -0.27428875856E+02  0.29191808682E+02  0.00000000000E+00 0. -1.
</event>
<event>
 5    1  0.6622912E-004  0.9118800E+02  0.7818608E-02  0.1130116E+00
         25   -1    0    0    0    0  0.00000000000E+00  0.00000000000E+00  0.99999998245E-14  0.12500000000E+03  0.12500000000E+03 0.  0.
        -11    1    3    3    0    0 -0.12717559873E+02  0.56937943306E+01  0.47132297971E+02  0.49148846734E+02  0.51100000000E-03 0.  1.
         23    2    1    0    0    0 -0.23291610713E+02  0.19001630066E+02  0.50693486549E+01  0.94516244153E+02  0.89465418113E+02 0.  0.
         11    1    3    3    0    0 -0.10574050841E+02  0.13307835735E+02 -0.42062949316E+02  0.45367397419E+02  0.51100000000E-03 0. -1.
         22    1    1    0    0    0  0.23291610713E+02 -0.19001630066E+02 -0.50693486549E+01  0.30483755847E+02  0.00000000000E+00 0. -1.
</event>
<event>
 5    1  0.6622912E-004  0.9118800E+02  0.7818608E-02  0.1130116E+00
         25   -1    0    0    0    0  0.00000000000E+00  0.00000000000E+00  0.99999998245E-14  0.12500000000E+03  0.12500000000E+03 0.  0.
        -11    1    3    3    0    0  0.90658157632E+01  0.32816210729E+01 -0.52534985097E+02  0.53412383505E+02  0.51100000000E-03 0.  1.
         23    2    1    0    0    0  0.77299676858E+01 -0.21336819681E+02 -0.17080503321E+02  0.96596551825E+02  0.92326258217E+02 0.  0.
         11    1    3    3    0    0 -0.13358480774E+01 -0.24618440754E+02  0.35454481776E+02  0.43184168320E+02  0.51100000000E-03 0. -1.
         22    1    1    0    0    0 -0.77299676858E+01  0.21336819681E+02  0.17080503321E+02  0.28403448175E+02  0.00000000000E+00 0.  1.
</event>
<event>
 5    1  0.6622912E-004  0.9118800E+02  0.7818608E-02  0.1130116E+00
         25   -1    0    0    0    0  0.00000000000E+00  0.00000000000E+00  0.99999998245E-14  0.12500000000E+03  0.12500000000E+03 0.  0.
        -11    1    3    3    0    0 -0.99754174169E+01 -0.31075422093E+02  0.31364049609E+02  0.45264714945E+02  0.51100000000E-03 0.  1.
         23    2    1    0    0    0  0.13760008366E+02  0.42001651256E+01  0.34220730463E+02  0.87878071026E+02  0.79652481170E+02 0.  0.
         11    1    3    3    0    0  0.23735425783E+02  0.35275587219E+02  0.28566808543E+01  0.42613356081E+02  0.51100000000E-03 0. -1.
         22    1    1    0    0    0 -0.13760008366E+02 -0.42001651256E+01 -0.34220730463E+02  0.37121928974E+02  0.00000000000E+00 0.  1.
</event>
<event>
 5    1  0.6622912E-004  0.9118800E+02  0.7818608E-02  0.1130116E+00
         25   -1    0    0    0    0  0.00000000000E+00  0.00000000000E+00  0.99999998245E-14  0.12500000000E+03  0.12500000000E+03 0.  0.
        -11    1    3    3    0    0  0.31780942994E+02  0.12351205327E+02 -0.49959742988E+02  0.60486002763E+02  0.51100000000E-03 0.  1.
         23    2    1    0    0    0  0.76084772859E+01 -0.24251657349E+00 -0.29409298228E+02  0.94621478588E+02  0.89612329772E+02 0.  0.
         11    1    3    3    0    0 -0.24172465708E+02 -0.12593721900E+02  0.20550444760E+02  0.34135475825E+02  0.51100000000E-03 0. -1.
         22    1    1    0    0    0 -0.76084772859E+01  0.24251657349E+00  0.29409298228E+02  0.30378521412E+02  0.00000000000E+00 0.  1.
</event>
<event>
 5    1  0.6622912E-004  0.9118800E+02  0.7818608E-02  0.1130116E+00
         25   -1    0    0    0    0  0.00000000000E+00  0.00000000000E+00  0.99999998245E-14  0.12500000000E+03  0.12500000000E+03 0.  0.
        -11    1    3    3    0    0 -0.10355644932E+02  0.18713387466E+02 -0.34413767864E+02  0.40518362149E+02  0.51100000000E-03 0.  1.
         23    2    1    0    0    0  0.26834273789E+02 -0.87713682083E+01 -0.25992715601E+01  0.96649138238E+02  0.92397427234E+02 0.  0.
         11    1    3    3    0    0  0.37189918721E+02 -0.27484755674E+02  0.31814496304E+02  0.56130776088E+02  0.51100000000E-03 0. -1.
         22    1    1    0    0    0 -0.26834273789E+02  0.87713682083E+01  0.25992715601E+01  0.28350861762E+02  0.00000000000E+00 0. -1.
</event>
<event>
 5    1  0.6622912E-004  0.9118800E+02  0.7818608E-02  0.1130116E+00
         25   -1    0    0    0    0  0.00000000000E+00  0.00000000000E+00  0.99999998245E-14  0.12500000000E+03  0.12500000000E+03 0.  0.
        -11    1    3    3    0    0  0.13324957916E+02 -0.55809173348E+02  0.15276768724E+02  0.59376746257E+02  0.51100000000E-03 0.  1.
         23    2    1    0    0    0  0.10889890031E+02 -0.22057848658E+02 -0.64229552286E+01  0.99575744924E+02  0.96275314754E+02 0.  0.
         11    1    3    3    0    0 -0.24350678850E+01  0.33751324689E+02 -0.21699723952E+02  0.40198998666E+02  0.51100000000E-03 0. -1.
         22    1    1    0    0    0 -0.10889890031E+02  0.22057848658E+02  0.64229552286E+01  0.25424255076E+02  0.00000000000E+00 0.  1.
</event>
<event>
 5    1  0.6622912E-004  0.9118800E+02  0.7818608E-02  0.1130116E+00
         25   -1    0    0    0    0  0.00000000000E+00  0.00000000000E+00  0.99999998245E-14  0.12500000000E+03  0.12500000000E+03 0.  0.
        -11    1    3    3    0    0  0.65050041262E+00  0.36252128771E+02 -0.14653961429E+02  0.39107270130E+02  0.51100000000E-03 0.  1.
         23    2    1    0    0    0 -0.29587824358E+02 -0.58990538432E+01  0.46807742467E+01  0.94468903819E+02  0.89399250303E+02 0.  0.
         11    1    3    3    0    0 -0.30238324771E+02 -0.42151182614E+02  0.19334735676E+02  0.55361633688E+02  0.51100000000E-03 0. -1.
         22    1    1    0    0    0  0.29587824358E+02  0.58990538432E+01 -0.46807742467E+01  0.30531096181E+02  0.00000000000E+00 0. -1.
</event>
<event>
 5    1  0.6622912E-004  0.9118800E+02  0.7818608E-02  0.1130116E+00
         25   -1    0    0    0    0  0.00000000000E+00  0.00000000000E+00  0.99999998245E-14  0.12500000000E+03  0.12500000000E+03 0.  0.
        -11    1    3    3    0    0 -0.10418449148E+01  0.48543405531E+02 -0.70243561946E+00  0.48559665129E+02  0.51100000000E-03 0. -1.
         23    2    1    0    0    0  0.21348651269E+02  0.10779476502E+02 -0.17287225355E+02  0.95490506864E+02  0.90816445185E+02 0.  0.
         11    1    3    3    0    0  0.22390496184E+02 -0.37763929030E+02 -0.16584789735E+02  0.46930841735E+02  0.51100000000E-03 0.  1.
         22    1    1    0    0    0 -0.21348651269E+02 -0.10779476502E+02  0.17287225355E+02  0.29509493136E+02  0.00000000000E+00 0.  1.
</event>
<event>
 5    1  0.6622912E-004  0.9118800E+02  0.7818608E-02  0.1130116E+00
         25   -1    0    0    0    0  0.00000000000E+00  0.00000000000E+00  0.99999998245E-14  0.12500000000E+03  0.12500000000E+03 0.  0.
        -11    1    3    3    0    0 -0.14113483663E+02  0.16362800497E+02  0.30939197205E+02  0.37738118464E+02  0.51100000000E-03 0. -1.
         23    2    1    0    0    0  0.13140277284E+02  0.16576434397E+02 -0.20241109296E+02  0.95722917325E+02  0.91135774157E+02 0.  0.
         11    1    3    3    0    0  0.27253760947E+02  0.21363389933E+00 -0.51180306501E+02  0.57984798862E+02  0.51100000000E-03 0.  1.
         22    1    1    0    0    0 -0.13140277284E+02 -0.16576434397E+02  0.20241109296E+02  0.29277082675E+02  0.00000000000E+00 0.  1.
</event>
<event>
 5    1  0.6622912E-004  0.9118800E+02  0.7818608E-02  0.1130116E+00
         25   -1    0    0    0    0  0.00000000000E+00  0.00000000000E+00  0.99999998245E-14  0.12500000000E+03  0.12500000000E+03 0.  0.
        -11    1    3    3    0    0 -0.14761407892E+02  0.39605081905E+02  0.16319126845E+02  0.45307566442E+02  0.51100000000E-03 0. -1.
         23    2    1    0    0    0 -0.11476573046E+02  0.73197357136E+01 -0.24208507029E+02  0.97226954211E+02  0.93175847476E+02 0.  0.
         11    1    3    3    0    0  0.32848348459E+01 -0.32285346191E+02 -0.40527633874E+02  0.51919387769E+02  0.51100000000E-03 0.  1.
         22    1    1    0    0    0  0.11476573046E+02 -0.73197357136E+01  0.24208507029E+02  0.27773045789E+02  0.00000000000E+00 0.  1.
</event>
<event>
 5    1  0.6622912E-004  0.9118800E+02  0.7818608E-02  0.1130116E+00
         25   -1    0    0    0    0  0.00000000000E+00  0.00000000000E+00  0.99999998245E-14  0.12500000000E+03  0.12500000000E+03 0.  0.
        -11    1    3    3    0    0 -0.96106226578E+01 -0.60114918402E+02  0.10668424295E+01  0.60887647642E+02  0.51100000000E-03 0.  1.
         23    2    1    0    0    0 -0.99767137180E+01 -0.21132912548E+02 -0.68084609309E+01  0.10065888356E+03  0.97671494765E+02 0.  0.
         11    1    3    3    0    0 -0.36609106027E+00  0.38982005854E+02 -0.78753033603E+01  0.39771235916E+02  0.51100000000E-03 0. -1.
         22    1    1    0    0    0  0.99767137180E+01  0.21132912548E+02  0.68084609309E+01  0.24341116442E+02  0.00000000000E+00 0.  1.
</event>
<event>
 5    1  0.6622912E-004  0.9118800E+02  0.7818608E-02  0.1130116E+00
         25   -1    0    0    0    0  0.00000000000E+00  0.00000000000E+00  0.99999998245E-14  0.12500000000E+03  0.12500000000E+03 0.  0.
        -11    1    3    3    0    0 -0.29819349714E+01 -0.35234040229E+02  0.20494538577E+02  0.40869984570E+02  0.51100000000E-03 0. -1.
         23    2    1    0    0    0 -0.28153502841E+02  0.92630613319E+01  0.17895601928E+01  0.95307803161E+02  0.90564622178E+02 0.  0.
         11    1    3    3    0    0 -0.25171567869E+02  0.44497101561E+02 -0.18704978384E+02  0.54437818591E+02  0.51100000000E-03 0.  1.
         22    1    1    0    0    0  0.28153502841E+02 -0.92630613319E+01 -0.17895601928E+01  0.29692196839E+02  0.00000000000E+00 0.  1.
</event>
<event>
 5    1  0.6622912E-004  0.9118800E+02  0.7818608E-02  0.1130116E+00
         25   -1    0    0    0    0  0.00000000000E+00  0.00000000000E+00  0.99999998245E-14  0.12500000000E+03  0.12500000000E+03 0.  0.
        -11    1    3    3    0    0 -0.41081621699E+02  0.33846351581E+02 -0.17754522765E+02  0.56111480426E+02  0.51100000000E-03 0.  1.
         23    2    1    0    0    0 -0.25182020749E+02  0.74642104181E+01  0.93287324355E+01  0.97127543076E+02  0.93042386948E+02 0.  0.
         11    1    3    3    0    0  0.15899600951E+02 -0.26382141163E+02  0.27083255200E+02  0.41016062649E+02  0.51100000000E-03 0. -1.
         22    1    1    0    0    0  0.25182020749E+02 -0.74642104181E+01 -0.93287324355E+01  0.27872456924E+02  0.00000000000E+00 0.  1.
</event>
<event>
 5    1  0.6622912E-004  0.9118800E+02  0.7818608E-02  0.1130116E+00
         25   -1    0    0    0    0  0.00000000000E+00  0.00000000000E+00  0.99999998245E-14  0.12500000000E+03  0.12500000000E+03 0.  0.
        -11    1    3    3    0    0  0.62497268644E+01  0.44234153857E+02 -0.16824889856E+02  0.47736740277E+02  0.51100000000E-03 0. -1.
         23    2    1    0    0    0 -0.21505672128E+02  0.16830765775E+02  0.10906139850E+02  0.95594005769E+02  0.90958789803E+02 0.  0.
         11    1    3    3    0    0 -0.27755398992E+02 -0.27403388082E+02  0.27731029707E+02  0.47857265492E+02  0.51100000000E-03 0.  1.
         22    1    1    0    0    0  0.21505672128E+02 -0.16830765775E+02 -0.10906139850E+02  0.29405994231E+02  0.00000000000E+00 0.  1.
</event>
<event>
 5    1  0.6622912E-004  0.9118800E+02  0.7818608E-02  0.1130116E+00
         25   -1    0    0    0    0  0.00000000000E+00  0.00000000000E+00  0.99999998245E-14  0.12500000000E+03  0.12500000000E+03 0.  0.
        -11    1    3    3    0    0 -0.15795618473E+02  0.57931277002E+01  0.39117650744E+02  0.42582302562E+02  0.51100000000E-03 0. -1.
         23    2    1    0    0    0  0.22643562653E+02 -0.29377125147E+01 -0.48757427741E+01  0.10165189618E+03  0.98934190474E+02 0.  0.
         11    1    3    3    0    0  0.38439181127E+02 -0.87308402149E+01 -0.43993393518E+02  0.59069593617E+02  0.51100000000E-03 0.  1.
         22    1    1    0    0    0 -0.22643562653E+02  0.29377125147E+01  0.48757427741E+01  0.23348103821E+02  0.00000000000E+00 0.  1.
</event>
<event>
 5    1  0.6622912E-004  0.9118800E+02  0.7818608E-02  0.1130116E+00
         25   -1    0    0    0    0  0.00000000000E+00  0.00000000000E+00  0.99999998245E-14  0.12500000000E+03  0.12500000000E+03 0.  0.
        -11    1    3    3    0    0  0.23423361432E+02  0.25341211937E+02 -0.44490811071E+01  0.34794039808E+02  0.51100000000E-03 0. -1.
         23    2    1    0    0    0 -0.72925222901E+01 -0.25780613839E+02 -0.13302105507E+02  0.95087344783E+02  0.90259826034E+02 0.  0.
         11    1    3    3    0    0 -0.30715883722E+02 -0.51121825776E+02 -0.88530243995E+01  0.60293304975E+02  0.51100000000E-03 0.  1.
         22    1    1    0    0    0  0.72925222901E+01  0.25780613839E+02  0.13302105507E+02  0.29912655217E+02  0.00000000000E+00 0.  1.
</event>
<event>
 5    1  0.6622912E-004  0.9118800E+02  0.7818608E-02  0.1130116E+00
         25   -1    0    0    0    0  0.00000000000E+00  0.00000000000E+00  0.99999998245E-14  0.12500000000E+03  0.12500000000E+03 0.  0.
        -11    1    3    3    0    0  0.14353763121E+02  0.21911117649E+02 -0.36202137234E+02  0.44684699092E+02  0.51100000000E-03 0.  1.
         23    2    1    0    0    0  0.27589055346E+02  0.44881676766E-01  0.84594928168E+01  0.96143094276E+02  0.91710269703E+02 0.  0.
         11    1    3    3    0    0  0.13235292225E+02 -0.21866235972E+02  0.44661630051E+02  0.51458395184E+02  0.51100000000E-03 0. -1.
         22    1    1    0    0    0 -0.27589055346E+02 -0.44881676766E-01 -0.84594928168E+01  0.28856905724E+02  0.00000000000E+00 0.  1.
</event>
<event>
 5    1  0.6622912E-004  0.9118800E+02  0.7818608E-02  0.1130116E+00
         25   -1    0    0    0    0  0.00000000000E+00  0.00000000000E+00  0.99999998245E-14  0.12500000000E+03  0.12500000000E+03 0.  0.
        -11    1    3    3    0    0 -0.25615969875E+02 -0.43607600313E+01  0.50468337903E+02  0.56764841862E+02  0.51100000000E-03 0. -1.
         23    2    1    0    0    0 -0.23746249114E+02 -0.10624978893E+02  0.11026510590E+02  0.96744762269E+02  0.92526701914E+02 0.  0.
         11    1    3    3    0    0  0.18697207606E+01 -0.62642188616E+01 -0.39441827313E+02  0.39979920407E+02  0.51100000000E-03 0.  1.
         22    1    1    0    0    0  0.23746249114E+02  0.10624978893E+02 -0.11026510590E+02  0.28255237731E+02  0.00000000000E+00 0. -1.
</event>
<event>
 5    1  0.6622912E-004  0.9118800E+02  0.7818608E-02  0.1130116E+00
         25   -1    0    0    0    0  0.00000000000E+00  0.00000000000E+00  0.99999998245E-14  0.12500000000E+03  0.12500000000E+03 0.  0.
        -11    1    3    3    0    0 -0.20191143923E+02  0.17770685326E+02  0.25217061239E+02  0.36869767123E+02  0.51100000000E-03 0. -1.
         23    2    1    0    0    0 -0.11489484290E+02 -0.17637749742E+02 -0.20682717345E+02  0.95489438128E+02  0.90814974162E+02 0.  0.
         11    1    3    3    0    0  0.87016596335E+01 -0.35408435068E+02 -0.45899778585E+02  0.58619671005E+02  0.51100000000E-03 0.  1.
         22    1    1    0    0    0  0.11489484290E+02  0.17637749742E+02  0.20682717345E+02  0.29510561872E+02  0.00000000000E+00 0.  1.
</event>
<event>
 5    1  0.6622912E-004  0.9118800E+02  0.7818608E-02  0.1130116E+00
         25   -1    0    0    0    0  0.00000000000E+00  0.00000000000E+00  0.99999998245E-14  0.12500000000E+03  0.12500000000E+03 0.  0.
        -11    1    3    3    0    0 -0.11108740367E+02  0.29219856195E+02  0.16667076206E+02  0.35425916193E+02  0.51100000000E-03 0. -1.
         23    2    1    0    0    0 -0.11283364165E+02 -0.17856129380E+02 -0.20621084068E+02  0.95480772851E+02  0.90803046275E+02 0.  0.
         11    1    3    3    0    0 -0.17462379773E+00 -0.47075985575E+02 -0.37288160274E+02  0.60054856658E+02  0.51100000000E-03 0.  1.
         22    1    1    0    0    0  0.11283364165E+02  0.17856129380E+02  0.20621084068E+02  0.29519227149E+02  0.00000000000E+00 0.  1.
</event>
<event>
 5    1  0.6622912E-004  0.9118800E+02  0.7818608E-02  0.1130116E+00
         25   -1    0    0    0    0  0.00000000000E+00  0.00000000000E+00  0.99999998245E-14  0.12500000000E+03  0.12500000000E+03 0.  0.
        -11    1    3    3    0    0  0.39375371530E+02 -0.17310187010E+02  0.16272682049E+02  0.45987635716E+02  0.51100000000E-03 0. -1.
         23    2    1    0    0    0 -0.67162076052E+01 -0.11681202651E+02  0.28040889412E+02  0.93889721651E+02  0.88585723527E+02 0.  0.
         11    1    3    3    0    0 -0.46091579135E+02  0.56289843599E+01  0.11768207363E+02  0.47902085935E+02  0.51100000000E-03 0.  1.
         22    1    1    0    0    0  0.67162076052E+01  0.11681202651E+02 -0.28040889412E+02  0.31110278349E+02  0.00000000000E+00 0. -1.
</event>
<event>
 5    1  0.6622912E-004  0.9118800E+02  0.7818608E-02  0.1130116E+00
         25   -1    0    0    0    0  0.00000000000E+00  0.00000000000E+00  0.99999998245E-14  0.12500000000E+03  0.12500000000E+03 0.  0.
        -11    1    3    3    0    0 -0.36583827232E+02  0.30323478509E+02  0.24119500569E+02  0.53288273305E+02  0.51100000000E-03 0.  1.
         23    2    1    0    0    0  0.14025375496E+01  0.29284991317E+02  0.13347689586E+02  0.92786048902E+02  0.87014436880E+02 0.  0.
         11    1    3    3    0    0  0.37986364782E+02 -0.10384871920E+01 -0.10771810983E+02  0.39497775597E+02  0.51100000000E-03 0. -1.
         22    1    1    0    0    0 -0.14025375496E+01 -0.29284991317E+02 -0.13347689586E+02  0.32213951098E+02  0.00000000000E+00 0.  1.
</event>
<event>
 5    1  0.6622912E-004  0.9118800E+02  0.7818608E-02  0.1130116E+00
         25   -1    0    0    0    0  0.00000000000E+00  0.00000000000E+00  0.99999998245E-14  0.12500000000E+03  0.12500000000E+03 0.  0.
        -11    1    3    3    0    0  0.16985652455E+02  0.30966410968E+02  0.30903089461E+01  0.35453927952E+02  0.51100000000E-03 0.  1.
         23    2    1    0    0    0  0.67607145043E+01 -0.27849738904E+02  0.76852912535E+01  0.95328820056E+02  0.90593625681E+02 0.  0.
         11    1    3    3    0    0 -0.10224937951E+02 -0.58816149872E+02  0.45949823075E+01  0.59874892104E+02  0.51100000000E-03 0. -1.
         22    1    1    0    0    0 -0.67607145043E+01  0.27849738904E+02 -0.76852912535E+01  0.29671179944E+02  0.00000000000E+00 0. -1.
</event>
<event>
 5    1  0.6622912E-004  0.9118800E+02  0.7818608E-02  0.1130116E+00
         25   -1    0    0    0    0  0.00000000000E+00  0.00000000000E+00  0.99999998245E-14  0.12500000000E+03  0.12500000000E+03 0.  0.
        -11    1    3    3    0    0  0.18812559794E+02 -0.38398043381E+02 -0.12126576488E+02  0.44445202205E+02  0.51100000000E-03 0.  1.
         23    2    1    0    0    0 -0.22346971700E+02 -0.93131069176E+01 -0.17496760552E+02  0.95129316472E+02  0.90317933535E+02 0.  0.
         11    1    3    3    0    0 -0.41159531494E+02  0.29084936463E+02 -0.53701840637E+01  0.50684114267E+02  0.51100000000E-03 0. -1.
         22    1    1    0    0    0  0.22346971700E+02  0.93131069176E+01  0.17496760552E+02  0.29870683528E+02  0.00000000000E+00 0. -1.
</event>
<event>
 5    1  0.6622912E-004  0.9118800E+02  0.7818608E-02  0.1130116E+00
         25   -1    0    0    0    0  0.00000000000E+00  0.00000000000E+00  0.99999998245E-14  0.12500000000E+03  0.12500000000E+03 0.  0.
        -11    1    3    3    0    0 -0.13061447319E+02 -0.30999213246E+02  0.43733893051E+02  0.55174324007E+02  0.51100000000E-03 0.  1.
         23    2    1    0    0    0  0.13860547436E+02 -0.21389757218E+02  0.24630950407E+02  0.89555392413E+02  0.82242617318E+02 0.  0.
         11    1    3    3    0    0  0.26921994755E+02  0.96094560287E+01 -0.19102942645E+02  0.34381068406E+02  0.51100000000E-03 0. -1.
         22    1    1    0    0    0 -0.13860547436E+02  0.21389757218E+02 -0.24630950407E+02  0.35444607587E+02  0.00000000000E+00 0.  1.
</event>
<event>
 5    1  0.6622912E-004  0.9118800E+02  0.7818608E-02  0.1130116E+00
         25   -1    0    0    0    0  0.00000000000E+00  0.00000000000E+00  0.99999998245E-14  0.12500000000E+03  0.12500000000E+03 0.  0.
        -11    1    3    3    0    0  0.38846613087E+02  0.40570689028E+02 -0.19106275078E+02  0.59330345558E+02  0.51100000000E-03 0.  1.
         23    2    1    0    0    0  0.25171390358E+02  0.12279648042E+02  0.15758553274E+01  0.96948761727E+02  0.92801888084E+02 0.  0.
         11    1    3    3    0    0 -0.13675222728E+02 -0.28291040986E+02  0.20682130405E+02  0.37618416169E+02  0.51100000000E-03 0. -1.
         22    1    1    0    0    0 -0.25171390358E+02 -0.12279648042E+02 -0.15758553274E+01  0.28051238273E+02  0.00000000000E+00 0.  1.
</event>
<event>
 5    1  0.6622912E-004  0.9118800E+02  0.7818608E-02  0.1130116E+00
         25   -1    0    0    0    0  0.00000000000E+00  0.00000000000E+00  0.99999998245E-14  0.12500000000E+03  0.12500000000E+03 0.  0.
        -11    1    3    3    0    0  0.13184752441E+02  0.48711695349E+02  0.33984185296E+02  0.60840708504E+02  0.51100000000E-03 0. -1.
         23    2    1    0    0    0  0.10521076441E+02  0.16147283094E+02  0.22266025181E+02  0.95551677838E+02  0.90900602085E+02 0.  0.
         11    1    3    3    0    0 -0.26636760001E+01 -0.32564412255E+02 -0.11718160115E+02  0.34710969334E+02  0.51100000000E-03 0.  1.
         22    1    1    0    0    0 -0.10521076441E+02 -0.16147283094E+02 -0.22266025181E+02  0.29448322162E+02  0.00000000000E+00 0. -1.
</event>
<event>
 5    1  0.6622912E-004  0.9118800E+02  0.7818608E-02  0.1130116E+00
         25   -1    0    0    0    0  0.00000000000E+00  0.00000000000E+00  0.99999998245E-14  0.12500000000E+03  0.12500000000E+03 0.  0.
        -11    1    3    3    0    0 -0.19426427516E+02 -0.81945947068E+01 -0.39467316746E+02  0.44746022838E+02  0.51100000000E-03 0. -1.
         23    2    1    0    0    0 -0.27612426399E+01 -0.28746351929E+02  0.42133243728E+01  0.95815598131E+02  0.91262804761E+02 0.  0.
         11    1    3    3    0    0  0.16665184877E+02 -0.20551757222E+02  0.43680641118E+02  0.51069575294E+02  0.51100000000E-03 0.  1.
         22    1    1    0    0    0  0.27612426399E+01  0.28746351929E+02 -0.42133243728E+01  0.29184401869E+02  0.00000000000E+00 0.  1.
</event>
<event>
 5    1  0.6622912E-004  0.9118800E+02  0.7818608E-02  0.1130116E+00
         25   -1    0    0    0    0  0.00000000000E+00  0.00000000000E+00  0.99999998245E-14  0.12500000000E+03  0.12500000000E+03 0.  0.
        -11    1    3    3    0    0  0.21073779084E+02 -0.96341072609E+01 -0.43730312631E+02  0.49490003341E+02  0.51100000000E-03 0. -1.
         23    2    1    0    0    0  0.78055758007E+00  0.23042204462E+02 -0.15113687535E+02  0.97432337649E+02  0.93450973308E+02 0.  0.
         11    1    3    3    0    0 -0.20293221504E+02  0.32676311723E+02  0.28616625096E+02  0.47942334308E+02  0.51100000000E-03 0.  1.
         22    1    1    0    0    0 -0.78055758007E+00 -0.23042204462E+02  0.15113687535E+02  0.27567662351E+02  0.00000000000E+00 0.  1.
</event>
<event>
 5    1  0.6622912E-004  0.9118800E+02  0.7818608E-02  0.1130116E+00
         25   -1    0    0    0    0  0.00000000000E+00  0.00000000000E+00  0.99999998245E-14  0.12500000000E+03  0.12500000000E+03 0.  0.
        -11    1    3    3    0    0 -0.32474014342E+02  0.37550672779E+02 -0.54144508882E+01  0.49939272245E+02  0.51100000000E-03 0. -1.
         23    2    1    0    0    0  0.97769193693E+01  0.29189236404E+02  0.37969050124E+01  0.93983614623E+02  0.88718113459E+02 0.  0.
         11    1    3    3    0    0  0.42250933712E+02 -0.83614363749E+01  0.92113559007E+01  0.44044342378E+02  0.51100000000E-03 0.  1.
         22    1    1    0    0    0 -0.97769193693E+01 -0.29189236404E+02 -0.37969050124E+01  0.31016385377E+02  0.00000000000E+00 0. -1.
</event>
<event>
 5    1  0.6622912E-004  0.9118800E+02  0.7818608E-02  0.1130116E+00
         25   -1    0    0    0    0  0.00000000000E+00  0.00000000000E+00  0.99999998245E-14  0.12500000000E+03  0.12500000000E+03 0.  0.
        -11    1    3    3    0    0 -0.35551060787E+01  0.38948160311E+02 -0.22740669623E+01  0.39176132424E+02  0.51100000000E-03 0. -1.
         23    2    1    0    0    0  0.16875243520E+02 -0.92306886244E+01  0.21063256408E+02  0.96475620483E+02  0.92162384521E+02 0.  0.
         11    1    3    3    0    0  0.20430349598E+02 -0.48178848936E+02  0.23337323371E+02  0.57299488059E+02  0.51100000000E-03 0.  1.
         22    1    1    0    0    0 -0.16875243520E+02  0.92306886244E+01 -0.21063256408E+02  0.28524379517E+02  0.00000000000E+00 0.  1.
</event>
<event>
 5    1  0.6622912E-004  0.9118800E+02  0.7818608E-02  0.1130116E+00
         25   -1    0    0    0    0  0.00000000000E+00  0.00000000000E+00  0.99999998245E-14  0.12500000000E+03  0.12500000000E+03 0.  0.
        -11    1    3    3    0    0 -0.21445585432E+02 -0.16796601550E+02 -0.24577606062E+02  0.36689203836E+02  0.51100000000E-03 0.  1.
         23    2    1    0    0    0 -0.10843420110E+02  0.16713877729E+02  0.22181225062E+02  0.95184899570E+02  0.90394827797E+02 0.  0.
         11    1    3    3    0    0  0.10602165322E+02  0.33510479279E+02  0.46758831124E+02  0.58495695733E+02  0.51100000000E-03 0. -1.
         22    1    1    0    0    0  0.10843420110E+02 -0.16713877729E+02 -0.22181225062E+02  0.29815100430E+02  0.00000000000E+00 0. -1.
</event>
<event>
 5    1  0.6622912E-004  0.9118800E+02  0.7818608E-02  0.1130116E+00
         25   -1    0    0    0    0  0.00000000000E+00  0.00000000000E+00  0.99999998245E-14  0.12500000000E+03  0.12500000000E+03 0.  0.
        -11    1    3    3    0    0 -0.13281119978E+02  0.17705890912E+02 -0.34994625493E+02  0.41406648434E+02  0.51100000000E-03 0.  1.
         23    2    1    0    0    0 -0.15628743807E+02  0.17012909636E+02  0.18774369657E+02  0.95231330509E+02  0.90459010757E+02 0.  0.
         11    1    3    3    0    0 -0.23476238288E+01 -0.69298127596E+00  0.53768995151E+02  0.53824682075E+02  0.51100000000E-03 0. -1.
         22    1    1    0    0    0  0.15628743807E+02 -0.17012909636E+02 -0.18774369657E+02  0.29768669491E+02  0.00000000000E+00 0. -1.
</event>
<event>
 5    1  0.6622912E-004  0.9118800E+02  0.7818608E-02  0.1130116E+00
         25   -1    0    0    0    0  0.00000000000E+00  0.00000000000E+00  0.99999998245E-14  0.12500000000E+03  0.12500000000E+03 0.  0.
        -11    1    3    3    0    0  0.44899186141E+02  0.11415842914E+02  0.35755128589E+02  0.58520830533E+02  0.51100000000E-03 0.  1.
         23    2    1    0    0    0  0.14126845611E+02  0.19634727541E+02  0.14975459858E+02  0.96550840250E+02  0.92264348816E+02 0.  0.
         11    1    3    3    0    0 -0.30772340530E+02  0.82188846273E+01 -0.20779668731E+02  0.38030009717E+02  0.51100000000E-03 0. -1.
         22    1    1    0    0    0 -0.14126845611E+02 -0.19634727541E+02 -0.14975459858E+02  0.28449159750E+02  0.00000000000E+00 0.  1.
</event>
<event>
 5    1  0.6622912E-004  0.9118800E+02  0.7818608E-02  0.1130116E+00
         25   -1    0    0    0    0  0.00000000000E+00  0.00000000000E+00  0.99999998245E-14  0.12500000000E+03  0.12500000000E+03 0.  0.
        -11    1    3    3    0    0  0.41418587112E+01 -0.24194713147E+02 -0.23314568919E+02  0.33854220741E+02  0.51100000000E-03 0.  1.
         23    2    1    0    0    0 -0.71486118121E+01 -0.10060874392E+01  0.30567907604E+02  0.93591213999E+02  0.88163504352E+02 0.  0.
         11    1    3    3    0    0 -0.11290470523E+02  0.23188625708E+02  0.53882476523E+02  0.59736993257E+02  0.51100000000E-03 0. -1.
         22    1    1    0    0    0  0.71486118121E+01  0.10060874392E+01 -0.30567907604E+02  0.31408786001E+02  0.00000000000E+00 0. -1.
</event>
<event>
 5    1  0.6622912E-004  0.9118800E+02  0.7818608E-02  0.1130116E+00
         25   -1    0    0    0    0  0.00000000000E+00  0.00000000000E+00  0.99999998245E-14  0.12500000000E+03  0.12500000000E+03 0.  0.
        -11    1    3    3    0    0 -0.34593709482E+02  0.18859707483E+02  0.16445889560E+02  0.42695205653E+02  0.51100000000E-03 0.  1.
         23    2    1    0    0    0  0.91777591336E+01  0.25105360069E+02 -0.12447500937E+02  0.95513551478E+02  0.90848158316E+02 0.  0.
         11    1    3    3    0    0  0.43771468615E+02  0.62456525860E+01 -0.28893390497E+02  0.52818345825E+02  0.51100000000E-03 0. -1.
         22    1    1    0    0    0 -0.91777591336E+01 -0.25105360069E+02  0.12447500937E+02  0.29486448522E+02  0.00000000000E+00 0. -1.
</event>
<event>
 5    1  0.6622912E-004  0.9118800E+02  0.7818608E-02  0.1130116E+00
         25   -1    0    0    0    0  0.00000000000E+00  0.00000000000E+00  0.99999998245E-14  0.12500000000E+03  0.12500000000E+03 0.  0.
        -11    1    3    3    0    0 -0.19153535856E+02 -0.28838509154E+02 -0.84355894846E+01  0.35632523293E+02  0.51100000000E-03 0. -1.
         23    2    1    0    0    0 -0.19766706543E+02  0.26332746274E+02  0.28538663191E+01  0.91950328794E+02  0.85805490491E+02 0.  0.
         11    1    3    3    0    0 -0.61317068753E+00  0.55171255428E+02  0.11289455804E+02  0.56317805501E+02  0.51100000000E-03 0.  1.
         22    1    1    0    0    0  0.19766706543E+02 -0.26332746274E+02 -0.28538663191E+01  0.33049671206E+02  0.00000000000E+00 0.  1.
</event>
<event>
 5    1  0.6622912E-004  0.9118800E+02  0.7818608E-02  0.1130116E+00
         25   -1    0    0    0    0  0.00000000000E+00  0.00000000000E+00  0.99999998245E-14  0.12500000000E+03  0.12500000000E+03 0.  0.
        -11    1    3    3    0    0  0.33993403525E+02 -0.31199602330E+02 -0.86407678700E+01  0.46942832663E+02  0.51100000000E-03 0. -1.
         23    2    1    0    0    0  0.21078524945E+02  0.67886019925E+01  0.19127645302E+02  0.95738145212E+02  0.91156658029E+02 0.  0.
         11    1    3    3    0    0 -0.12914878581E+02  0.37988204322E+02  0.27768413172E+02  0.48795312549E+02  0.51100000000E-03 0.  1.
         22    1    1    0    0    0 -0.21078524945E+02 -0.67886019925E+01 -0.19127645302E+02  0.29261854788E+02  0.00000000000E+00 0. -1.
</event>
<event>
 5    1  0.6622912E-004  0.9118800E+02  0.7818608E-02  0.1130116E+00
         25   -1    0    0    0    0  0.00000000000E+00  0.00000000000E+00  0.99999998245E-14  0.12500000000E+03  0.12500000000E+03 0.  0.
        -11    1    3    3    0    0  0.27212895468E+02 -0.46830650970E+01  0.33345334379E+02  0.43294157846E+02  0.51100000000E-03 0.  1.
         23    2    1    0    0    0  0.35926657337E+01 -0.22737885980E+02 -0.13155047724E+02  0.98486343396E+02  0.94850333942E+02 0.  0.
         11    1    3    3    0    0 -0.23620229735E+02 -0.18054820883E+02 -0.46500382102E+02  0.55192185550E+02  0.51100000000E-03 0. -1.
         22    1    1    0    0    0 -0.35926657337E+01  0.22737885980E+02  0.13155047724E+02  0.26513656604E+02  0.00000000000E+00 0. -1.
</event>
<event>
 5    1  0.6622912E-004  0.9118800E+02  0.7818608E-02  0.1130116E+00
         25   -1    0    0    0    0  0.00000000000E+00  0.00000000000E+00  0.99999998245E-14  0.12500000000E+03  0.12500000000E+03 0.  0.
        -11    1    3    3    0    0  0.39846212297E+02  0.32587248778E+02 -0.89797938748E+01  0.52252139818E+02  0.51100000000E-03 0.  1.
         23    2    1    0    0    0  0.27100724879E+02 -0.77528164860E+01  0.40587030157E+01  0.96521437491E+02  0.92224505272E+02 0.  0.
         11    1    3    3    0    0 -0.12745487418E+02 -0.40340065264E+02  0.13038496890E+02  0.44269297673E+02  0.51100000000E-03 0. -1.
         22    1    1    0    0    0 -0.27100724879E+02  0.77528164860E+01 -0.40587030157E+01  0.28478562509E+02  0.00000000000E+00 0.  1.
</event>
<event>
 5    1  0.6622912E-004  0.9118800E+02  0.7818608E-02  0.1130116E+00
         25   -1    0    0    0    0  0.00000000000E+00  0.00000000000E+00  0.99999998245E-14  0.12500000000E+03  0.12500000000E+03 0.  0.
        -11    1    3    3    0    0 -0.26002300520E+02  0.48158409630E+02 -0.83143131363E+01  0.55357744296E+02  0.51100000000E-03 0. -1.
         23    2    1    0    0    0  0.56262229544E-01  0.23353740799E+02 -0.21087286289E+02  0.93534558357E+02  0.88083140211E+02 0.  0.
         11    1    3    3    0    0  0.26058562750E+02 -0.24804668831E+02 -0.12772973153E+02  0.38176814061E+02  0.51100000000E-03 0.  1.
         22    1    1    0    0    0 -0.56262229544E-01 -0.23353740799E+02  0.21087286289E+02  0.31465441643E+02  0.00000000000E+00 0. -1.
</event>
<event>
 5    1  0.6622912E-004  0.9118800E+02  0.7818608E-02  0.1130116E+00
         25   -1    0    0    0    0  0.00000000000E+00  0.00000000000E+00  0.99999998245E-14  0.12500000000E+03  0.12500000000E+03 0.  0.
        -11    1    3    3    0    0 -0.27290556195E+02  0.25228406290E+02 -0.47641107304E+02  0.60422860300E+02  0.51100000000E-03 0.  1.
         23    2    1    0    0    0 -0.86646684818E+01  0.21720507030E+02 -0.18515078319E+02  0.95172746847E+02  0.90378021176E+02 0.  0.
         11    1    3    3    0    0  0.18625887713E+02 -0.35078992607E+01  0.29126028985E+02  0.34749886547E+02  0.51100000000E-03 0. -1.
         22    1    1    0    0    0  0.86646684818E+01 -0.21720507030E+02  0.18515078319E+02  0.29827253153E+02  0.00000000000E+00 0.  1.
</event>
<event>
 5    1  0.6622912E-004  0.9118800E+02  0.7818608E-02  0.1130116E+00
         25   -1    0    0    0    0  0.00000000000E+00  0.00000000000E+00  0.99999998245E-14  0.12500000000E+03  0.12500000000E+03 0.  0.
        -11    1    3    3    0    0 -0.16012666329E+02 -0.14018204872E+02  0.27197787012E+02  0.34534550372E+02  0.51100000000E-03 0.  1.
         23    2    1    0    0    0  0.10888024885E+02  0.26366701435E+02 -0.90165639053E+01  0.95082606145E+02  0.90253263299E+02 0.  0.
         11    1    3    3    0    0  0.26900691214E+02  0.40384906306E+02 -0.36214350917E+02  0.60548055772E+02  0.51100000000E-03 0. -1.
         22    1    1    0    0    0 -0.10888024885E+02 -0.26366701435E+02  0.90165639053E+01  0.29917393855E+02  0.00000000000E+00 0. -1.
</event>
<event>
 5    1  0.6622912E-004  0.9118800E+02  0.7818608E-02  0.1130116E+00
         25   -1    0    0    0    0  0.00000000000E+00  0.00000000000E+00  0.99999998245E-14  0.12500000000E+03  0.12500000000E+03 0.  0.
        -11    1    3    3    0    0  0.44741848111E+02 -0.10459259470E+02  0.40542513661E+02  0.61277438713E+02  0.51100000000E-03 0. -1.
         23    2    1    0    0    0  0.17204029234E+02 -0.11659979922E+01  0.26065258538E+02  0.93747226109E+02  0.88384424687E+02 0.  0.
         11    1    3    3    0    0 -0.27537818877E+02  0.92932614778E+01 -0.14477255123E+02  0.32469787396E+02  0.51100000000E-03 0.  1.
         22    1    1    0    0    0 -0.17204029234E+02  0.11659979922E+01 -0.26065258538E+02  0.31252773891E+02  0.00000000000E+00 0. -1.
</event>
<event>
 5    1  0.6622912E-004  0.9118800E+02  0.7818608E-02  0.1130116E+00
         25   -1    0    0    0    0  0.00000000000E+00  0.00000000000E+00  0.99999998245E-14  0.12500000000E+03  0.12500000000E+03 0.  0.
        -11    1    3    3    0    0  0.10410552503E+02  0.79502164505E+01  0.29681734556E+02  0.32443657493E+02  0.51100000000E-03 0. -1.
         23    2    1    0    0    0 -0.34599786633E+02 -0.48065501775E+01 -0.36373695224E+01  0.89879085765E+02  0.82733133878E+02 0.  0.
         11    1    3    3    0    0 -0.45010339136E+02 -0.12756766628E+02 -0.33319104078E+02  0.57435428272E+02  0.51100000000E-03 0.  1.
         22    1    1    0    0    0  0.34599786633E+02  0.48065501775E+01  0.36373695224E+01  0.35120914235E+02  0.00000000000E+00 0.  1.
</event>
<event>
 5    1  0.6622912E-004  0.9118800E+02  0.7818608E-02  0.1130116E+00
         25   -1    0    0    0    0  0.00000000000E+00  0.00000000000E+00  0.99999998245E-14  0.12500000000E+03  0.12500000000E+03 0.  0.
        -11    1    3    3    0    0  0.55371675721E+02  0.64336725060E+01  0.10080086550E+02  0.56648237035E+02  0.51100000000E-03 0.  1.
         23    2    1    0    0    0  0.24089518532E+02 -0.15707947050E+02  0.14108353115E+00  0.96241272487E+02  0.91843987946E+02 0.  0.
         11    1    3    3    0    0 -0.31282157190E+02 -0.22141619556E+02 -0.99390030188E+01  0.39593035452E+02  0.51100000000E-03 0. -1.
         22    1    1    0    0    0 -0.24089518532E+02  0.15707947050E+02 -0.14108353115E+00  0.28758727513E+02  0.00000000000E+00 0.  1.
</event>
<event>
 5    1  0.6622912E-004  0.9118800E+02  0.7818608E-02  0.1130116E+00
         25   -1    0    0    0    0  0.00000000000E+00  0.00000000000E+00  0.99999998245E-14  0.12500000000E+03  0.12500000000E+03 0.  0.
        -11    1    3    3    0    0 -0.28092311264E+02 -0.10471288702E+02 -0.19571433882E+02  0.35803168347E+02  0.51100000000E-03 0.  1.
         23    2    1    0    0    0  0.90140789019E+01  0.19748371851E+02  0.18123095538E+02  0.96721060821E+02  0.92494676633E+02 0.  0.
         11    1    3    3    0    0  0.37106390166E+02  0.30219660553E+02  0.37694529419E+02  0.60917892474E+02  0.51100000000E-03 0. -1.
         22    1    1    0    0    0 -0.90140789019E+01 -0.19748371851E+02 -0.18123095538E+02  0.28278939179E+02  0.00000000000E+00 0. -1.
</event>
<event>
 5    1  0.6622912E-004  0.9118800E+02  0.7818608E-02  0.1130116E+00
         25   -1    0    0    0    0  0.00000000000E+00  0.00000000000E+00  0.99999998245E-14  0.12500000000E+03  0.12500000000E+03 0.  0.
        -11    1    3    3    0    0  0.51033652512E+01  0.18284903055E+02 -0.57621853616E+02  0.60668443453E+02  0.51100000000E-03 0. -1.
         23    2    1    0    0    0 -0.62834945904E+01  0.26290872800E+01 -0.28920125171E+02  0.95288587309E+02  0.90538096000E+02 0.  0.
         11    1    3    3    0    0 -0.11386859842E+02 -0.15655815775E+02  0.28701728445E+02  0.34620143856E+02  0.51100000000E-03 0.  1.
         22    1    1    0    0    0  0.62834945904E+01 -0.26290872800E+01  0.28920125171E+02  0.29711412691E+02  0.00000000000E+00 0. -1.
</event>
<event>
 5    1  0.6622912E-004  0.9118800E+02  0.7818608E-02  0.1130116E+00
         25   -1    0    0    0    0  0.00000000000E+00  0.00000000000E+00  0.99999998245E-14  0.12500000000E+03  0.12500000000E+03 0.  0.
        -11    1    3    3    0    0 -0.45757898532E+02  0.33776341433E+02  0.25472756367E+02  0.62317636636E+02  0.51100000000E-03 0. -1.
         23    2    1    0    0    0 -0.14002612502E+02  0.91817537281E+01  0.10775480085E+02  0.10508797525E+03  0.10318427115E+03 0.  0.
         11    1    3    3    0    0  0.31755286030E+02 -0.24594587705E+02 -0.14697276282E+02  0.42770338619E+02  0.51100000000E-03 0.  1.
         22    1    1    0    0    0  0.14002612502E+02 -0.91817537281E+01 -0.10775480085E+02  0.19912024745E+02  0.00000000000E+00 0. -1.
</event>
<event>
 5    1  0.6622912E-004  0.9118800E+02  0.7818608E-02  0.1130116E+00
         25   -1    0    0    0    0  0.00000000000E+00  0.00000000000E+00  0.99999998245E-14  0.12500000000E+03  0.12500000000E+03 0.  0.
        -11    1    3    3    0    0  0.94181369290E+01  0.15958343223E+02 -0.41230115933E+02  0.45202792854E+02  0.51100000000E-03 0.  1.
         23    2    1    0    0    0 -0.56574355814E+01 -0.10469621735E+02  0.12994214685E+02  0.10737986459E+03  0.10592434162E+03 0.  0.
         11    1    3    3    0    0 -0.15075572510E+02 -0.26427964958E+02  0.54224330618E+02  0.62177071735E+02  0.51100000000E-03 0. -1.
         22    1    1    0    0    0  0.56574355814E+01  0.10469621735E+02 -0.12994214685E+02  0.17620135411E+02  0.00000000000E+00 0. -1.
</event>
<event>
 5    1  0.6622912E-004  0.9118800E+02  0.7818608E-02  0.1130116E+00
         25   -1    0    0    0    0  0.00000000000E+00  0.00000000000E+00  0.99999998245E-14  0.12500000000E+03  0.12500000000E+03 0.  0.
        -11    1    3    3    0    0 -0.13542829291E+02 -0.25739753054E+02  0.18528571655E+02  0.34485519865E+02  0.51100000000E-03 0.  1.
         23    2    1    0    0    0  0.66168680160E+01  0.10514475888E+02 -0.26514113948E+02  0.95719709974E+02  0.91131374913E+02 0.  0.
         11    1    3    3    0    0  0.20159697307E+02  0.36254228943E+02 -0.45042685603E+02  0.61234190109E+02  0.51100000000E-03 0. -1.
         22    1    1    0    0    0 -0.66168680160E+01 -0.10514475888E+02  0.26514113948E+02  0.29280290026E+02  0.00000000000E+00 0. -1.
</event>
<event>
 5    1  0.6622912E-004  0.9118800E+02  0.7818608E-02  0.1130116E+00
         25   -1    0    0    0    0  0.00000000000E+00  0.00000000000E+00  0.99999998245E-14  0.12500000000E+03  0.12500000000E+03 0.  0.
        -11    1    3    3    0    0  0.40206645024E+02 -0.16176500575E+02  0.32271690803E+02  0.54034391848E+02  0.51100000000E-03 0.  1.
         23    2    1    0    0    0  0.57170781533E+01  0.63742861651E+01  0.28300050467E+02  0.95432968306E+02  0.90737214397E+02 0.  0.
         11    1    3    3    0    0 -0.34489566870E+02  0.22550786740E+02 -0.39716403352E+01  0.41398576458E+02  0.51100000000E-03 0. -1.
         22    1    1    0    0    0 -0.57170781533E+01 -0.63742861651E+01 -0.28300050467E+02  0.29567031694E+02  0.00000000000E+00 0.  1.
</event>
<event>
 5    1  0.6622912E-004  0.9118800E+02  0.7818608E-02  0.1130116E+00
         25   -1    0    0    0    0  0.00000000000E+00  0.00000000000E+00  0.99999998245E-14  0.12500000000E+03  0.12500000000E+03 0.  0.
        -11    1    3    3    0    0 -0.22313308693E+02 -0.15513042155E+02 -0.32227455170E+02  0.42156222420E+02  0.51100000000E-03 0. -1.
         23    2    1    0    0    0  0.32902114901E+00  0.27592692938E+02 -0.10491085886E+02  0.95478349613E+02  0.90799710370E+02 0.  0.
         11    1    3    3    0    0  0.22642329842E+02  0.43105735093E+02  0.21736369283E+02  0.53322127194E+02  0.51100000000E-03 0.  1.
         22    1    1    0    0    0 -0.32902114901E+00 -0.27592692938E+02  0.10491085886E+02  0.29521650387E+02  0.00000000000E+00 0.  1.
</event>
<event>
 5    1  0.6622912E-004  0.9118800E+02  0.7818608E-02  0.1130116E+00
         25   -1    0    0    0    0  0.00000000000E+00  0.00000000000E+00  0.99999998245E-14  0.12500000000E+03  0.12500000000E+03 0.  0.
        -11    1    3    3    0    0 -0.59532611957E+02  0.11762923434E+02  0.75602379383E+01  0.61152722360E+02  0.51100000000E-03 0. -1.
         23    2    1    0    0    0 -0.25380095581E+02 -0.22599032884E+01 -0.24414488558E+01  0.99402791420E+02  0.96050496381E+02 0.  0.
         11    1    3    3    0    0  0.34152516376E+02 -0.14022826722E+02 -0.10001686794E+02  0.38250069060E+02  0.51100000000E-03 0.  1.
         22    1    1    0    0    0  0.25380095581E+02  0.22599032884E+01  0.24414488558E+01  0.25597208580E+02  0.00000000000E+00 0. -1.
</event>
<event>
 5    1  0.6622912E-004  0.9118800E+02  0.7818608E-02  0.1130116E+00
         25   -1    0    0    0    0  0.00000000000E+00  0.00000000000E+00  0.99999998245E-14  0.12500000000E+03  0.12500000000E+03 0.  0.
        -11    1    3    3    0    0  0.38565463013E+02  0.18144471829E+02  0.42198068119E+02  0.59976610013E+02  0.51100000000E-03 0.  1.
         23    2    1    0    0    0  0.26824022950E+02  0.57293661155E+01  0.11200384327E+02  0.95372268862E+02  0.90653556000E+02 0.  0.
         11    1    3    3    0    0 -0.11741440063E+02 -0.12415105713E+02 -0.30997683792E+02  0.35395658849E+02  0.51100000000E-03 0. -1.
         22    1    1    0    0    0 -0.26824022950E+02 -0.57293661155E+01 -0.11200384327E+02  0.29627731138E+02  0.00000000000E+00 0.  1.
</event>
<event>
 5    1  0.6622912E-004  0.9118800E+02  0.7818608E-02  0.1130116E+00
         25   -1    0    0    0    0  0.00000000000E+00  0.00000000000E+00  0.99999998245E-14  0.12500000000E+03  0.12500000000E+03 0.  0.
        -11    1    3    3    0    0  0.91495594879E+01 -0.39232640239E+02  0.46517641584E+02  0.61537025259E+02  0.51100000000E-03 0. -1.
         23    2    1    0    0    0  0.11361489674E+02 -0.19312915079E+02  0.18745256025E+02  0.95786017732E+02  0.91222280355E+02 0.  0.
         11    1    3    3    0    0  0.22119301858E+01  0.19919725160E+02 -0.27772385558E+02  0.34248992473E+02  0.51100000000E-03 0.  1.
         22    1    1    0    0    0 -0.11361489674E+02  0.19312915079E+02 -0.18745256025E+02  0.29213982268E+02  0.00000000000E+00 0. -1.
</event>
<event>
 5    1  0.6622912E-004  0.9118800E+02  0.7818608E-02  0.1130116E+00
         25   -1    0    0    0    0  0.00000000000E+00  0.00000000000E+00  0.99999998245E-14  0.12500000000E+03  0.12500000000E+03 0.  0.
        -11    1    3    3    0    0  0.21337216180E+02 -0.41235481628E+00  0.27690934754E+02  0.34960473376E+02  0.51100000000E-03 0.  1.
         23    2    1    0    0    0  0.41920813641E+02  0.26553097067E+02  0.65140492351E+01  0.74951479367E+02  0.55793098514E+02 0.  0.
         11    1    3    3    0    0  0.20583597460E+02  0.26965451883E+02 -0.21176885519E+02  0.39991005992E+02  0.51100000000E-03 0. -1.
         22    1    1    0    0    0 -0.41920813641E+02 -0.26553097067E+02 -0.65140492351E+01  0.50048520633E+02  0.00000000000E+00 0.  1.
</event>
<event>
 5    1  0.6622912E-004  0.9118800E+02  0.7818608E-02  0.1130116E+00
         25   -1    0    0    0    0  0.00000000000E+00  0.00000000000E+00  0.99999998245E-14  0.12500000000E+03  0.12500000000E+03 0.  0.
        -11    1    3    3    0    0 -0.21447371853E+02  0.34866308802E+02 -0.22185427415E+02  0.46560094917E+02  0.51100000000E-03 0. -1.
         23    2    1    0    0    0  0.20354165803E+02  0.12147256951E+02 -0.19661552525E+02  0.94203497526E+02  0.89027379954E+02 0.  0.
         11    1    3    3    0    0  0.41801537656E+02 -0.22719051851E+02  0.25238748902E+01  0.47643402608E+02  0.51100000000E-03 0.  1.
         22    1    1    0    0    0 -0.20354165803E+02 -0.12147256951E+02  0.19661552525E+02  0.30796502474E+02  0.00000000000E+00 0.  1.
</event>
<event>
 5    1  0.6622912E-004  0.9118800E+02  0.7818608E-02  0.1130116E+00
         25   -1    0    0    0    0  0.00000000000E+00  0.00000000000E+00  0.99999998245E-14  0.12500000000E+03  0.12500000000E+03 0.  0.
        -11    1    3    3    0    0 -0.89704802678E+01  0.26487130282E+02  0.36785190806E+02  0.46208092903E+02  0.51100000000E-03 0.  1.
         23    2    1    0    0    0  0.26897651511E+02  0.71061208411E+01  0.82139482839E+01  0.95992250059E+02  0.91504439864E+02 0.  0.
         11    1    3    3    0    0  0.35868131779E+02 -0.19381009441E+02 -0.28571242522E+02  0.49784157156E+02  0.51100000000E-03 0. -1.
         22    1    1    0    0    0 -0.26897651511E+02 -0.71061208411E+01 -0.82139482839E+01  0.29007749941E+02  0.00000000000E+00 0. -1.
</event>
<event>
 5    1  0.6622912E-004  0.9118800E+02  0.7818608E-02  0.1130116E+00
         25   -1    0    0    0    0  0.00000000000E+00  0.00000000000E+00  0.99999998245E-14  0.12500000000E+03  0.12500000000E+03 0.  0.
        -11    1    3    3    0    0 -0.21601344329E+02 -0.53184859757E+01  0.41875690151E+02  0.47418116746E+02  0.51100000000E-03 0. -1.
         23    2    1    0    0    0  0.18455657491E+02  0.50255694940E+01  0.28071181820E+02  0.91031501491E+02  0.84456351880E+02 0.  0.
         11    1    3    3    0    0  0.40057001820E+02  0.10344055470E+02 -0.13804508331E+02  0.43613384745E+02  0.51100000000E-03 0.  1.
         22    1    1    0    0    0 -0.18455657491E+02 -0.50255694940E+01 -0.28071181820E+02  0.33968498509E+02  0.00000000000E+00 0.  1.
</event>
<event>
 5    1  0.6622912E-004  0.9118800E+02  0.7818608E-02  0.1130116E+00
         25   -1    0    0    0    0  0.00000000000E+00  0.00000000000E+00  0.99999998245E-14  0.12500000000E+03  0.12500000000E+03 0.  0.
        -11    1    3    3    0    0  0.21357233362E+02  0.32622533728E+02 -0.61568657277E+01  0.39474904934E+02  0.51100000000E-03 0.  1.
         23    2    1    0    0    0 -0.12212444405E+02 -0.65306493397E+01 -0.26646021478E+02  0.94969954383E+02  0.90097106478E+02 0.  0.
         11    1    3    3    0    0 -0.33569677767E+02 -0.39153183068E+02 -0.20489155751E+02  0.55495049449E+02  0.51100000000E-03 0. -1.
         22    1    1    0    0    0  0.12212444405E+02  0.65306493397E+01  0.26646021478E+02  0.30030045617E+02  0.00000000000E+00 0. -1.
</event>
<event>
 5    1  0.6622912E-004  0.9118800E+02  0.7818608E-02  0.1130116E+00
         25   -1    0    0    0    0  0.00000000000E+00  0.00000000000E+00  0.99999998245E-14  0.12500000000E+03  0.12500000000E+03 0.  0.
        -11    1    3    3    0    0 -0.77412853732E+01  0.13272769886E+01 -0.40217122580E+02  0.40976897300E+02  0.51100000000E-03 0. -1.
         23    2    1    0    0    0 -0.24828421980E+02 -0.15302404046E+02  0.79914816903E+01  0.94759664565E+02  0.89804878160E+02 0.  0.
         11    1    3    3    0    0 -0.17087136607E+02 -0.16629681034E+02  0.48208604271E+02  0.53782767265E+02  0.51100000000E-03 0.  1.
         22    1    1    0    0    0  0.24828421980E+02  0.15302404046E+02 -0.79914816903E+01  0.30240335435E+02  0.00000000000E+00 0.  1.
</event>
<event>
 5    1  0.6622912E-004  0.9118800E+02  0.7818608E-02  0.1130116E+00
         25   -1    0    0    0    0  0.00000000000E+00  0.00000000000E+00  0.99999998245E-14  0.12500000000E+03  0.12500000000E+03 0.  0.
        -11    1    3    3    0    0 -0.52905994472E+01 -0.15668633602E+00  0.38958173647E+02  0.39316081790E+02  0.51100000000E-03 0. -1.
         23    2    1    0    0    0  0.61483425981E+01  0.31640346793E+02 -0.23464956087E+01  0.92682517061E+02  0.86865581591E+02 0.  0.
         11    1    3    3    0    0  0.11438942045E+02  0.31797033129E+02 -0.41304669256E+02  0.53366435271E+02  0.51100000000E-03 0.  1.
         22    1    1    0    0    0 -0.61483425981E+01 -0.31640346793E+02  0.23464956087E+01  0.32317482939E+02  0.00000000000E+00 0. -1.
</event>
<event>
 5    1  0.6622912E-004  0.9118800E+02  0.7818608E-02  0.1130116E+00
         25   -1    0    0    0    0  0.00000000000E+00  0.00000000000E+00  0.99999998245E-14  0.12500000000E+03  0.12500000000E+03 0.  0.
        -11    1    3    3    0    0  0.18908209658E+02 -0.39230504666E+02 -0.22988963163E+02  0.49244749125E+02  0.51100000000E-03 0.  1.
         23    2    1    0    0    0 -0.15579816954E+02 -0.22436324913E+02  0.56382291310E+01  0.97108979946E+02  0.93017444528E+02 0.  0.
         11    1    3    3    0    0 -0.34488026612E+02  0.16794179753E+02  0.28627192294E+02  0.47864230821E+02  0.51100000000E-03 0. -1.
         22    1    1    0    0    0  0.15579816954E+02  0.22436324913E+02 -0.56382291310E+01  0.27891020054E+02  0.00000000000E+00 0. -1.
</event>
<event>
 5    1  0.6622912E-004  0.9118800E+02  0.7818608E-02  0.1130116E+00
         25   -1    0    0    0    0  0.00000000000E+00  0.00000000000E+00  0.99999998245E-14  0.12500000000E+03  0.12500000000E+03 0.  0.
        -11    1    3    3    0    0 -0.35415687253E+02  0.28279588983E+02  0.25751640752E+02  0.52126318289E+02  0.51100000000E-03 0.  1.
         23    2    1    0    0    0  0.17379002506E+01  0.25505153160E+01  0.27475383319E+02  0.97351815355E+02  0.93343204567E+02 0.  0.
         11    1    3    3    0    0  0.37153587504E+02 -0.25729073667E+02  0.17237425667E+01  0.45225497066E+02  0.51100000000E-03 0. -1.
         22    1    1    0    0    0 -0.17379002506E+01 -0.25505153160E+01 -0.27475383319E+02  0.27648184645E+02  0.00000000000E+00 0.  1.
</event>
<event>
 5    1  0.6622912E-004  0.9118800E+02  0.7818608E-02  0.1130116E+00
         25   -1    0    0    0    0  0.00000000000E+00  0.00000000000E+00  0.99999998245E-14  0.12500000000E+03  0.12500000000E+03 0.  0.
        -11    1    3    3    0    0  0.42518224082E+02  0.21410130837E+01 -0.36059458972E+02  0.55791288726E+02  0.51100000000E-03 0.  1.
         23    2    1    0    0    0  0.23771128311E+02  0.16930160675E+02 -0.43379714498E+01  0.95495510884E+02  0.90823332471E+02 0.  0.
         11    1    3    3    0    0 -0.18747095771E+02  0.14789147592E+02  0.31721487522E+02  0.39704222158E+02  0.51100000000E-03 0. -1.
         22    1    1    0    0    0 -0.23771128311E+02 -0.16930160675E+02  0.43379714498E+01  0.29504489116E+02  0.00000000000E+00 0.  1.
</event>
<event>
 5    1  0.6622912E-004  0.9118800E+02  0.7818608E-02  0.1130116E+00
         25   -1    0    0    0    0  0.00000000000E+00  0.00000000000E+00  0.99999998245E-14  0.12500000000E+03  0.12500000000E+03 0.  0.
        -11    1    3    3    0    0 -0.12105062972E+02 -0.12667622142E+02  0.27251249420E+02  0.32398021475E+02  0.51100000000E-03 0. -1.
         23    2    1    0    0    0  0.42918557892E+00  0.10677068109E+02 -0.28737509946E+02  0.94340116413E+02  0.89218995193E+02 0.  0.
         11    1    3    3    0    0  0.12534248551E+02  0.23344690251E+02 -0.55988759366E+02  0.61942094938E+02  0.51100000000E-03 0.  1.
         22    1    1    0    0    0 -0.42918557892E+00 -0.10677068109E+02  0.28737509946E+02  0.30659883587E+02  0.00000000000E+00 0.  1.
</event>
<event>
 5    1  0.6622912E-004  0.9118800E+02  0.7818608E-02  0.1130116E+00
         25   -1    0    0    0    0  0.00000000000E+00  0.00000000000E+00  0.99999998245E-14  0.12500000000E+03  0.12500000000E+03 0.  0.
        -11    1    3    3    0    0 -0.87978706538E+01 -0.24848601006E+02 -0.19765432082E+02  0.32947348993E+02  0.51100000000E-03 0. -1.
         23    2    1    0    0    0  0.38290672830E+01  0.27666812160E+02  0.10853739320E+02  0.95034721617E+02  0.90186919252E+02 0.  0.
         11    1    3    3    0    0  0.12626937937E+02  0.52515413166E+02  0.30619171402E+02  0.62087372624E+02  0.51100000000E-03 0.  1.
         22    1    1    0    0    0 -0.38290672830E+01 -0.27666812160E+02 -0.10853739320E+02  0.29965278383E+02  0.00000000000E+00 0.  1.
</event>
<event>
 5    1  0.6622912E-004  0.9118800E+02  0.7818608E-02  0.1130116E+00
         25   -1    0    0    0    0  0.00000000000E+00  0.00000000000E+00  0.99999998245E-14  0.12500000000E+03  0.12500000000E+03 0.  0.
        -11    1    3    3    0    0  0.48504174546E+02 -0.17551738327E+01  0.29218590111E+02  0.56652110216E+02  0.51100000000E-03 0.  1.
         23    2    1    0    0    0  0.26054400850E+02 -0.15136610483E+02  0.13802967319E+01  0.94836213771E+02  0.89911364370E+02 0.  0.
         11    1    3    3    0    0 -0.22449773696E+02 -0.13381436651E+02 -0.27838293379E+02  0.38184103556E+02  0.51100000000E-03 0. -1.
         22    1    1    0    0    0 -0.26054400850E+02  0.15136610483E+02 -0.13802967319E+01  0.30163786229E+02  0.00000000000E+00 0.  1.
</event>
<event>
 5    1  0.6622912E-004  0.9118800E+02  0.7818608E-02  0.1130116E+00
         25   -1    0    0    0    0  0.00000000000E+00  0.00000000000E+00  0.99999998245E-14  0.12500000000E+03  0.12500000000E+03 0.  0.
        -11    1    3    3    0    0  0.35271652294E+02  0.15057041004E+02  0.14775364471E+02  0.41098848340E+02  0.51100000000E-03 0. -1.
         23    2    1    0    0    0  0.12994755330E+02 -0.26374016402E+02 -0.95887479983E+01  0.94074339208E+02  0.88845848536E+02 0.  0.
         11    1    3    3    0    0 -0.22276896964E+02 -0.41431057405E+02 -0.24364112470E+02  0.52975490869E+02  0.51100000000E-03 0.  1.
         22    1    1    0    0    0 -0.12994755330E+02  0.26374016402E+02  0.95887479983E+01  0.30925660792E+02  0.00000000000E+00 0.  1.
</event>
<event>
 5    1  0.6622912E-004  0.9118800E+02  0.7818608E-02  0.1130116E+00
         25   -1    0    0    0    0  0.00000000000E+00  0.00000000000E+00  0.99999998245E-14  0.12500000000E+03  0.12500000000E+03 0.  0.
        -11    1    3    3    0    0  0.25660671760E+01  0.28849933358E+02 -0.34337520656E+02  0.44921806292E+02  0.51100000000E-03 0. -1.
         23    2    1    0    0    0 -0.12598354990E+02 -0.17108336865E+02 -0.21011840853E+02  0.95118380319E+02  0.90302796633E+02 0.  0.
         11    1    3    3    0    0 -0.15164422166E+02 -0.45958270223E+02  0.13325679803E+02  0.50196574027E+02  0.51100000000E-03 0.  1.
         22    1    1    0    0    0  0.12598354990E+02  0.17108336865E+02  0.21011840853E+02  0.29881619681E+02  0.00000000000E+00 0.  1.
</event>
<event>
 5    1  0.6622912E-004  0.9118800E+02  0.7818608E-02  0.1130116E+00
         25   -1    0    0    0    0  0.00000000000E+00  0.00000000000E+00  0.99999998245E-14  0.12500000000E+03  0.12500000000E+03 0.  0.
        -11    1    3    3    0    0 -0.28249519251E+02  0.52147002079E+02  0.44379833093E+01  0.59473026322E+02  0.51100000000E-03 0.  1.
         23    2    1    0    0    0 -0.17275630791E+02  0.21732256662E+02 -0.10791680628E+02  0.95214117948E+02  0.90435222602E+02 0.  0.
         11    1    3    3    0    0  0.10973888460E+02 -0.30414745417E+02 -0.15229663937E+02  0.35741091626E+02  0.51100000000E-03 0. -1.
         22    1    1    0    0    0  0.17275630791E+02 -0.21732256662E+02  0.10791680628E+02  0.29785882052E+02  0.00000000000E+00 0.  1.
</event>
<event>
 5    1  0.6622912E-004  0.9118800E+02  0.7818608E-02  0.1130116E+00
         25   -1    0    0    0    0  0.00000000000E+00  0.00000000000E+00  0.99999998245E-14  0.12500000000E+03  0.12500000000E+03 0.  0.
        -11    1    3    3    0    0  0.10277968901E+02 -0.49857055444E+02  0.16581426710E+02  0.53537896245E+02  0.51100000000E-03 0.  1.
         23    2    1    0    0    0  0.19088211241E+00 -0.24401274540E+02 -0.15788615815E+02  0.95935605554E+02  0.91427027670E+02 0.  0.
         11    1    3    3    0    0 -0.10087086789E+02  0.25455780904E+02 -0.32370042525E+02  0.42397709309E+02  0.51100000000E-03 0. -1.
         22    1    1    0    0    0 -0.19088211241E+00  0.24401274540E+02  0.15788615815E+02  0.29064394446E+02  0.00000000000E+00 0.  1.
</event>
<event>
 4    1  0.6622912E-004  0.9118800E+02  0.7818608E-02  0.1130116E+00
         25   -1    0    0    0    0  0.00000000000E+00  0.00000000000E+00  0.99999998245E-14  0.12500000000E+03  0.12500000000E+03 0.  0.
        -11    1    1    0    0    0 -0.39142766861E+02  0.20286552821E+02  0.36107080083E+02  0.56986153189E+02  0.51100000000E-03 0.  1.
         11    1    1    0    0    0  0.97862245716E+00 -0.88791132886E+01  0.54384116261E+01  0.10458139222E+02  0.51100000000E-03 0. -1.
         22    1    1    0    0    0  0.38164144404E+02 -0.11407439532E+02 -0.41545491709E+02  0.57555707589E+02  0.00000000000E+00 0.  1.
</event>
<event>
 5    1  0.6622912E-004  0.9118800E+02  0.7818608E-02  0.1130116E+00
         25   -1    0    0    0    0  0.00000000000E+00  0.00000000000E+00  0.99999998245E-14  0.12500000000E+03  0.12500000000E+03 0.  0.
        -11    1    3    3    0    0  0.48399860983E+01 -0.30081739322E+02 -0.16841569667E+02  0.34813430960E+02  0.51100000000E-03 0.  1.
         23    2    1    0    0    0  0.12597976515E+02  0.10630549374E+02  0.25868036568E+02  0.94326348307E+02  0.89199703345E+02 0.  0.
         11    1    3    3    0    0  0.77579904169E+01  0.40712288696E+02  0.42709606236E+02  0.59512917348E+02  0.51100000000E-03 0. -1.
         22    1    1    0    0    0 -0.12597976515E+02 -0.10630549374E+02 -0.25868036568E+02  0.30673651693E+02  0.00000000000E+00 0. -1.
</event>
<event>
 5    1  0.6622912E-004  0.9118800E+02  0.7818608E-02  0.1130116E+00
         25   -1    0    0    0    0  0.00000000000E+00  0.00000000000E+00  0.99999998245E-14  0.12500000000E+03  0.12500000000E+03 0.  0.
        -11    1    3    3    0    0  0.23835775659E+02  0.38260108377E+02  0.10993904142E+02  0.46398771782E+02  0.51100000000E-03 0.  1.
         23    2    1    0    0    0  0.21765986974E+02  0.81591503875E+01  0.33630226764E+02  0.84118193824E+02  0.73515634092E+02 0.  0.
         11    1    3    3    0    0 -0.20697886848E+01 -0.30100957990E+02  0.22636322622E+02  0.37719422042E+02  0.51100000000E-03 0. -1.
         22    1    1    0    0    0 -0.21765986974E+02 -0.81591503875E+01 -0.33630226764E+02  0.40881806176E+02  0.00000000000E+00 0. -1.
</event>
<event>
 5    1  0.6622912E-004  0.9118800E+02  0.7818608E-02  0.1130116E+00
         25   -1    0    0    0    0  0.00000000000E+00  0.00000000000E+00  0.99999998245E-14  0.12500000000E+03  0.12500000000E+03 0.  0.
        -11    1    3    3    0    0  0.74041112105E+01  0.40835450489E+02 -0.18168478876E+02  0.45303956829E+02  0.51100000000E-03 0. -1.
         23    2    1    0    0    0 -0.25095072717E+02  0.39607879686E+01 -0.16926870301E+02  0.94471825240E+02  0.89403335005E+02 0.  0.
         11    1    3    3    0    0 -0.32499183927E+02 -0.36874662520E+02  0.12416085752E+01  0.49167868411E+02  0.51100000000E-03 0.  1.
         22    1    1    0    0    0  0.25095072717E+02 -0.39607879686E+01  0.16926870301E+02  0.30528174760E+02  0.00000000000E+00 0. -1.
</event>
<event>
 5    1  0.6622912E-004  0.9118800E+02  0.7818608E-02  0.1130116E+00
         25   -1    0    0    0    0  0.00000000000E+00  0.00000000000E+00  0.99999998245E-14  0.12500000000E+03  0.12500000000E+03 0.  0.
        -11    1    3    3    0    0 -0.48277835725E+02 -0.21354559058E+02 -0.17980246181E+02  0.55767874873E+02  0.51100000000E-03 0.  1.
         23    2    1    0    0    0 -0.26922354908E+02  0.10169579379E+02 -0.75625278232E+01  0.95243902043E+02  0.90476380955E+02 0.  0.
         11    1    3    3    0    0  0.21355480816E+02  0.31524138437E+02  0.10417718357E+02  0.39476027170E+02  0.51100000000E-03 0. -1.
         22    1    1    0    0    0  0.26922354908E+02 -0.10169579379E+02  0.75625278232E+01  0.29756097957E+02  0.00000000000E+00 0.  1.
</event>
<event>
 5    1  0.6622912E-004  0.9118800E+02  0.7818608E-02  0.1130116E+00
         25   -1    0    0    0    0  0.00000000000E+00  0.00000000000E+00  0.99999998245E-14  0.12500000000E+03  0.12500000000E+03 0.  0.
        -11    1    3    3    0    0 -0.87894974372E+01 -0.23679370790E+02 -0.44780836417E+02  0.51412947559E+02  0.51100000000E-03 0. -1.
         23    2    1    0    0    0 -0.24972521413E+02  0.45205147005E+01 -0.14904212694E+02  0.95568767697E+02  0.90924099798E+02 0.  0.
         11    1    3    3    0    0 -0.16183023976E+02  0.28199885490E+02  0.29876623723E+02  0.44155820138E+02  0.51100000000E-03 0.  1.
         22    1    1    0    0    0  0.24972521413E+02 -0.45205147005E+01  0.14904212694E+02  0.29431232303E+02  0.00000000000E+00 0. -1.
</event>
<event>
 5    1  0.6622912E-004  0.9118800E+02  0.7818608E-02  0.1130116E+00
         25   -1    0    0    0    0  0.00000000000E+00  0.00000000000E+00  0.99999998245E-14  0.12500000000E+03  0.12500000000E+03 0.  0.
        -11    1    3    3    0    0 -0.32229479171E+02  0.88725296934E+01 -0.11553214300E+02  0.35368600082E+02  0.51100000000E-03 0.  1.
         23    2    1    0    0    0  0.21318902104E+02 -0.78324627928E+01  0.15357095816E+02  0.97583153861E+02  0.93652487768E+02 0.  0.
         11    1    3    3    0    0  0.53548381275E+02 -0.16704992486E+02  0.26910310116E+02  0.62214553779E+02  0.51100000000E-03 0. -1.
         22    1    1    0    0    0 -0.21318902104E+02  0.78324627928E+01 -0.15357095816E+02  0.27416846139E+02  0.00000000000E+00 0. -1.
</event>
<event>
 5    1  0.6622912E-004  0.9118800E+02  0.7818608E-02  0.1130116E+00
         25   -1    0    0    0    0  0.00000000000E+00  0.00000000000E+00  0.99999998245E-14  0.12500000000E+03  0.12500000000E+03 0.  0.
        -11    1    3    3    0    0  0.53321812649E+02 -0.53885126700E+01 -0.27048114264E+02  0.60032093570E+02  0.51100000000E-03 0. -1.
         23    2    1    0    0    0  0.31695071497E+02  0.28581636604E+00 -0.25472507614E+01  0.93201450746E+02  0.87609147276E+02 0.  0.
         11    1    3    3    0    0 -0.21626741151E+02  0.56743290360E+01  0.24500863502E+02  0.33169357176E+02  0.51100000000E-03 0.  1.
         22    1    1    0    0    0 -0.31695071497E+02 -0.28581636604E+00  0.25472507614E+01  0.31798549254E+02  0.00000000000E+00 0. -1.
</event>
<event>
 5    1  0.6622912E-004  0.9118800E+02  0.7818608E-02  0.1130116E+00
         25   -1    0    0    0    0  0.00000000000E+00  0.00000000000E+00  0.99999998245E-14  0.12500000000E+03  0.12500000000E+03 0.  0.
        -11    1    3    3    0    0  0.36025742254E+02 -0.13929182736E+02  0.21413111150E+01  0.38684124007E+02  0.51100000000E-03 0. -1.
         23    2    1    0    0    0 -0.38093516832E+01  0.26167533100E+02 -0.10409604520E+02  0.96581505757E+02  0.92305885182E+02 0.  0.
         11    1    3    3    0    0 -0.39835093937E+02  0.40096715837E+02 -0.12550915635E+02  0.57897381749E+02  0.51100000000E-03 0.  1.
         22    1    1    0    0    0  0.38093516832E+01 -0.26167533100E+02  0.10409604520E+02  0.28418494243E+02  0.00000000000E+00 0.  1.
</event>
<event>
 5    1  0.6622912E-004  0.9118800E+02  0.7818608E-02  0.1130116E+00
         25   -1    0    0    0    0  0.00000000000E+00  0.00000000000E+00  0.99999998245E-14  0.12500000000E+03  0.12500000000E+03 0.  0.
        -11    1    3    3    0    0  0.12467741788E+02  0.47582305842E+01 -0.59662944274E+02  0.61137159431E+02  0.51100000000E-03 0. -1.
         23    2    1    0    0    0  0.11732323969E+02  0.88636705484E+01 -0.25417018130E+02  0.95636129480E+02  0.91016659849E+02 0.  0.
         11    1    3    3    0    0 -0.73541781937E+00  0.41054399641E+01  0.34245926144E+02  0.34498970049E+02  0.51100000000E-03 0.  1.
         22    1    1    0    0    0 -0.11732323969E+02 -0.88636705484E+01  0.25417018130E+02  0.29363870520E+02  0.00000000000E+00 0. -1.
</event>
<event>
 5    1  0.6622912E-004  0.9118800E+02  0.7818608E-02  0.1130116E+00
         25   -1    0    0    0    0  0.00000000000E+00  0.00000000000E+00  0.99999998245E-14  0.12500000000E+03  0.12500000000E+03 0.  0.
        -11    1    3    3    0    0 -0.28741382111E+02  0.29223945119E+02 -0.37975870002E+02  0.55877300549E+02  0.51100000000E-03 0. -1.
         23    2    1    0    0    0  0.42617400679E+01  0.23100490772E+02 -0.20995902392E+02  0.93494079611E+02  0.88025677519E+02 0.  0.
         11    1    3    3    0    0  0.33003122179E+02 -0.61234543465E+01  0.16979967610E+02  0.37616779062E+02  0.51100000000E-03 0.  1.
         22    1    1    0    0    0 -0.42617400679E+01 -0.23100490772E+02  0.20995902392E+02  0.31505920389E+02  0.00000000000E+00 0. -1.
</event>
<event>
 5    1  0.6622912E-004  0.9118800E+02  0.7818608E-02  0.1130116E+00
         25   -1    0    0    0    0  0.00000000000E+00  0.00000000000E+00  0.99999998245E-14  0.12500000000E+03  0.12500000000E+03 0.  0.
        -11    1    3    3    0    0 -0.25315322116E+02 -0.36419344211E+01 -0.56222453113E+02  0.61766442786E+02  0.51100000000E-03 0. -1.
         23    2    1    0    0    0 -0.74460724877E+01 -0.66380901773E+01 -0.27713750213E+02  0.95545625324E+02  0.90892278720E+02 0.  0.
         11    1    3    3    0    0  0.17869249628E+02 -0.29961557562E+01  0.28508702900E+02  0.33779182537E+02  0.51100000000E-03 0.  1.
         22    1    1    0    0    0  0.74460724877E+01  0.66380901773E+01  0.27713750213E+02  0.29454374676E+02  0.00000000000E+00 0. -1.
</event>
<event>
 5    1  0.6622912E-004  0.9118800E+02  0.7818608E-02  0.1130116E+00
         25   -1    0    0    0    0  0.00000000000E+00  0.00000000000E+00  0.99999998245E-14  0.12500000000E+03  0.12500000000E+03 0.  0.
        -11    1    3    3    0    0  0.51190374347E+01 -0.63417953255E+00  0.42989778152E+02  0.43298126447E+02  0.51100000000E-03 0.  1.
         23    2    1    0    0    0  0.15801103370E+02  0.25336974772E+02 -0.58036412034E+00  0.95134066551E+02  0.90324507403E+02 0.  0.
         11    1    3    3    0    0  0.10682065935E+02  0.25971154304E+02 -0.43570142273E+02  0.51835940104E+02  0.51100000000E-03 0. -1.
         22    1    1    0    0    0 -0.15801103370E+02 -0.25336974772E+02  0.58036412034E+00  0.29865933449E+02  0.00000000000E+00 0. -1.
</event>
<event>
 5    1  0.6622912E-004  0.9118800E+02  0.7818608E-02  0.1130116E+00
         25   -1    0    0    0    0  0.00000000000E+00  0.00000000000E+00  0.99999998245E-14  0.12500000000E+03  0.12500000000E+03 0.  0.
        -11    1    3    3    0    0 -0.39203600429E+02  0.11500073049E+02  0.38759181494E+02  0.56315611664E+02  0.51100000000E-03 0. -1.
         23    2    1    0    0    0 -0.14099074386E+02  0.23237931560E+02  0.10596904892E+02  0.95826728757E+02  0.91278048781E+02 0.  0.
         11    1    3    3    0    0  0.25104526043E+02  0.11737858512E+02 -0.28162276602E+02  0.39511117093E+02  0.51100000000E-03 0.  1.
         22    1    1    0    0    0  0.14099074386E+02 -0.23237931560E+02 -0.10596904892E+02  0.29173271243E+02  0.00000000000E+00 0. -1.
</event>
<event>
 5    1  0.6622912E-004  0.9118800E+02  0.7818608E-02  0.1130116E+00
         25   -1    0    0    0    0  0.00000000000E+00  0.00000000000E+00  0.99999998245E-14  0.12500000000E+03  0.12500000000E+03 0.  0.
        -11    1    3    3    0    0 -0.30234736393E+02 -0.21912903943E+02 -0.21826076270E+02  0.43251499969E+02  0.51100000000E-03 0.  1.
         23    2    1    0    0    0 -0.16320045819E+02  0.88394402396E+01  0.20472214828E+02  0.97366846375E+02  0.93363331098E+02 0.  0.
         11    1    3    3    0    0  0.13914690574E+02  0.30752344183E+02  0.42298291099E+02  0.54115346406E+02  0.51100000000E-03 0. -1.
         22    1    1    0    0    0  0.16320045819E+02 -0.88394402396E+01 -0.20472214828E+02  0.27633153625E+02  0.00000000000E+00 0.  1.
</event>
<event>
 5    1  0.6622912E-004  0.9118800E+02  0.7818608E-02  0.1130116E+00
         25   -1    0    0    0    0  0.00000000000E+00  0.00000000000E+00  0.99999998245E-14  0.12500000000E+03  0.12500000000E+03 0.  0.
        -11    1    3    3    0    0  0.10811822919E+02 -0.37902670327E+02  0.22716407868E+02  0.45492231418E+02  0.51100000000E-03 0.  1.
         23    2    1    0    0    0  0.54701143258E+01 -0.24747495657E+02 -0.21394855810E+02  0.91832236325E+02  0.85633282556E+02 0.  0.
         11    1    3    3    0    0 -0.53417085933E+01  0.13155174669E+02 -0.44111263678E+02  0.46340004907E+02  0.51100000000E-03 0. -1.
         22    1    1    0    0    0 -0.54701143258E+01  0.24747495657E+02  0.21394855810E+02  0.33167763675E+02  0.00000000000E+00 0.  1.
</event>
<event>
 5    1  0.6622912E-004  0.9118800E+02  0.7818608E-02  0.1130116E+00
         25   -1    0    0    0    0  0.00000000000E+00  0.00000000000E+00  0.99999998245E-14  0.12500000000E+03  0.12500000000E+03 0.  0.
        -11    1    3    3    0    0 -0.44289489004E+02  0.22975481738E+02  0.30420653129E+02  0.58436698525E+02  0.51100000000E-03 0. -1.
         23    2    1    0    0    0 -0.96451997777E+01  0.18285507080E+02  0.22809407336E+02  0.94215934138E+02  0.89044840022E+02 0.  0.
         11    1    3    3    0    0  0.34644289227E+02 -0.46899746578E+01 -0.76112457931E+01  0.35779235614E+02  0.51100000000E-03 0.  1.
         22    1    1    0    0    0  0.96451997777E+01 -0.18285507080E+02 -0.22809407336E+02  0.30784065862E+02  0.00000000000E+00 0. -1.
</event>
<event>
 5    1  0.6622912E-004  0.9118800E+02  0.7818608E-02  0.1130116E+00
         25   -1    0    0    0    0  0.00000000000E+00  0.00000000000E+00  0.99999998245E-14  0.12500000000E+03  0.12500000000E+03 0.  0.
        -11    1    3    3    0    0  0.36557583772E+02 -0.45696659225E+02  0.47910635997E+00  0.58522398607E+02  0.51100000000E-03 0.  1.
         23    2    1    0    0    0  0.85650071012E+01 -0.22172308443E+02 -0.13495827768E+02  0.97666724026E+02  0.93763964328E+02 0.  0.
         11    1    3    3    0    0 -0.27992576670E+02  0.23524350782E+02 -0.13974934127E+02  0.39144325419E+02  0.51100000000E-03 0. -1.
         22    1    1    0    0    0 -0.85650071012E+01  0.22172308443E+02  0.13495827768E+02  0.27333275974E+02  0.00000000000E+00 0.  1.
</event>
<event>
 5    1  0.6622912E-004  0.9118800E+02  0.7818608E-02  0.1130116E+00
         25   -1    0    0    0    0  0.00000000000E+00  0.00000000000E+00  0.99999998245E-14  0.12500000000E+03  0.12500000000E+03 0.  0.
        -11    1    3    3    0    0 -0.17058002061E+01  0.45831283677E+02 -0.16921164714E+02  0.48884988835E+02  0.51100000000E-03 0.  1.
         23    2    1    0    0    0 -0.18622468835E+02  0.15682220564E+02  0.15384169117E+02  0.96200676279E+02  0.91788719731E+02 0.  0.
         11    1    3    3    0    0 -0.16916668629E+02 -0.30149063114E+02  0.32305333831E+02  0.47315687444E+02  0.51100000000E-03 0. -1.
         22    1    1    0    0    0  0.18622468835E+02 -0.15682220564E+02 -0.15384169117E+02  0.28799323721E+02  0.00000000000E+00 0.  1.
</event>
<event>
 5    1  0.6622912E-004  0.9118800E+02  0.7818608E-02  0.1130116E+00
         25   -1    0    0    0    0  0.00000000000E+00  0.00000000000E+00  0.99999998245E-14  0.12500000000E+03  0.12500000000E+03 0.  0.
        -11    1    3    3    0    0  0.34557114690E+02  0.27216751662E+02 -0.59037584762E+01  0.44382430207E+02  0.51100000000E-03 0.  1.
         23    2    1    0    0    0  0.56598055247E+01 -0.13249364463E+02 -0.23757335092E+02  0.97215291473E+02  0.93160200022E+02 0.  0.
         11    1    3    3    0    0 -0.28897309165E+02 -0.40466116125E+02 -0.17853576616E+02  0.52832861265E+02  0.51100000000E-03 0. -1.
         22    1    1    0    0    0 -0.56598055247E+01  0.13249364463E+02  0.23757335092E+02  0.27784708527E+02  0.00000000000E+00 0. -1.
</event>
<event>
 5    1  0.6622912E-004  0.9118800E+02  0.7818608E-02  0.1130116E+00
         25   -1    0    0    0    0  0.00000000000E+00  0.00000000000E+00  0.99999998245E-14  0.12500000000E+03  0.12500000000E+03 0.  0.
        -11    1    3    3    0    0  0.37943312994E+02 -0.20441739602E+02  0.39556895413E+02  0.58500493108E+02  0.51100000000E-03 0.  1.
         23    2    1    0    0    0  0.20090146177E+02  0.60489181547E+01  0.20328173594E+02  0.95786338369E+02  0.91222719715E+02 0.  0.
         11    1    3    3    0    0 -0.17853166817E+02  0.26490657756E+02 -0.19228721819E+02  0.37285845261E+02  0.51100000000E-03 0. -1.
         22    1    1    0    0    0 -0.20090146177E+02 -0.60489181547E+01 -0.20328173594E+02  0.29213661631E+02  0.00000000000E+00 0.  1.
</event>
<event>
 5    1  0.6622912E-004  0.9118800E+02  0.7818608E-02  0.1130116E+00
         25   -1    0    0    0    0  0.00000000000E+00  0.00000000000E+00  0.99999998245E-14  0.12500000000E+03  0.12500000000E+03 0.  0.
        -11    1    3    3    0    0  0.86048532967E+01  0.44777484301E+02 -0.12553070268E+02  0.47293193739E+02  0.51100000000E-03 0. -1.
         23    2    1    0    0    0 -0.25876967412E+02  0.14156408345E+02  0.13918275840E+01  0.95471056170E+02  0.90789669250E+02 0.  0.
         11    1    3    3    0    0 -0.34481820709E+02 -0.30621075956E+02  0.13944897852E+02  0.48177862431E+02  0.51100000000E-03 0.  1.
         22    1    1    0    0    0  0.25876967412E+02 -0.14156408345E+02 -0.13918275840E+01  0.29528943830E+02  0.00000000000E+00 0. -1.
</event>
<event>
 5    1  0.6622912E-004  0.9118800E+02  0.7818608E-02  0.1130116E+00
         25   -1    0    0    0    0  0.00000000000E+00  0.00000000000E+00  0.99999998245E-14  0.12500000000E+03  0.12500000000E+03 0.  0.
        -11    1    3    3    0    0  0.28794150888E+02  0.12274657446E+02  0.19695168328E+02  0.36982022613E+02  0.51100000000E-03 0.  1.
         23    2    1    0    0    0  0.49024795724E+01 -0.11329725186E+02 -0.27470300506E+02  0.94883320424E+02  0.89976830941E+02 0.  0.
         11    1    3    3    0    0 -0.23891671316E+02 -0.23604382632E+02 -0.47165468834E+02  0.57901297812E+02  0.51100000000E-03 0. -1.
         22    1    1    0    0    0 -0.49024795724E+01  0.11329725186E+02  0.27470300506E+02  0.30116679576E+02  0.00000000000E+00 0. -1.
</event>
<event>
 5    1  0.6622912E-004  0.9118800E+02  0.7818608E-02  0.1130116E+00
         25   -1    0    0    0    0  0.00000000000E+00  0.00000000000E+00  0.99999998245E-14  0.12500000000E+03  0.12500000000E+03 0.  0.
        -11    1    3    3    0    0  0.11972135814E+02 -0.21185061161E+02  0.21393346690E+02  0.32400835410E+02  0.51100000000E-03 0. -1.
         23    2    1    0    0    0 -0.10235728824E+02  0.22578026230E+02 -0.17194943171E+02  0.94830421221E+02  0.89903310869E+02 0.  0.
         11    1    3    3    0    0 -0.22207864638E+02  0.43763087392E+02 -0.38588289862E+02  0.62429585811E+02  0.51100000000E-03 0.  1.
         22    1    1    0    0    0  0.10235728824E+02 -0.22578026230E+02  0.17194943171E+02  0.30169578779E+02  0.00000000000E+00 0.  1.
</event>
<event>
 5    1  0.6622912E-004  0.9118800E+02  0.7818608E-02  0.1130116E+00
         25   -1    0    0    0    0  0.00000000000E+00  0.00000000000E+00  0.99999998245E-14  0.12500000000E+03  0.12500000000E+03 0.  0.
        -11    1    3    3    0    0 -0.48311054188E+02 -0.14259483687E+00 -0.18277389616E+02  0.51653085691E+02  0.51100000000E-03 0.  1.
         23    2    1    0    0    0 -0.60862706049E+01  0.92539129920E+01 -0.27031208834E+02  0.95787607997E+02  0.91224459435E+02 0.  0.
         11    1    3    3    0    0  0.42224783583E+02  0.93965078288E+01 -0.87538192173E+01  0.44134522305E+02  0.51100000000E-03 0. -1.
         22    1    1    0    0    0  0.60862706049E+01 -0.92539129920E+01  0.27031208834E+02  0.29212392003E+02  0.00000000000E+00 0.  1.
</event>
<event>
 5    1  0.6622912E-004  0.9118800E+02  0.7818608E-02  0.1130116E+00
         25   -1    0    0    0    0  0.00000000000E+00  0.00000000000E+00  0.99999998245E-14  0.12500000000E+03  0.12500000000E+03 0.  0.
        -11    1    3    3    0    0 -0.46957110033E+01 -0.51455579809E+02  0.27566880619E+02  0.58563293133E+02  0.51100000000E-03 0.  1.
         23    2    1    0    0    0 -0.17027093174E+02 -0.19535785541E+02  0.15248739989E+02  0.94931862547E+02  0.90044242663E+02 0.  0.
         11    1    3    3    0    0 -0.12331382170E+02  0.31919794268E+02 -0.12318140630E+02  0.36368569414E+02  0.51100000000E-03 0. -1.
         22    1    1    0    0    0  0.17027093174E+02  0.19535785541E+02 -0.15248739989E+02  0.30068137453E+02  0.00000000000E+00 0.  1.
</event>
<event>
 5    1  0.6622912E-004  0.9118800E+02  0.7818608E-02  0.1130116E+00
         25   -1    0    0    0    0  0.00000000000E+00  0.00000000000E+00  0.99999998245E-14  0.12500000000E+03  0.12500000000E+03 0.  0.
        -11    1    3    3    0    0  0.15953097333E+02 -0.30602913153E+02 -0.10817497451E+02  0.36167082538E+02  0.51100000000E-03 0. -1.
         23    2    1    0    0    0 -0.20561016396E+02  0.57242725855E+00  0.22429558408E+02  0.94566988999E+02  0.89536290127E+02 0.  0.
         11    1    3    3    0    0 -0.36514113729E+02  0.31175340411E+02  0.33247055859E+02  0.58399906461E+02  0.51100000000E-03 0.  1.
         22    1    1    0    0    0  0.20561016396E+02 -0.57242725855E+00 -0.22429558408E+02  0.30433011001E+02  0.00000000000E+00 0.  1.
</event>
<event>
 5    1  0.6622912E-004  0.9118800E+02  0.7818608E-02  0.1130116E+00
         25   -1    0    0    0    0  0.00000000000E+00  0.00000000000E+00  0.99999998245E-14  0.12500000000E+03  0.12500000000E+03 0.  0.
        -11    1    3    3    0    0  0.18749484578E+02 -0.43407529939E+02  0.37213263602E+02  0.60171287301E+02  0.51100000000E-03 0.  1.
         23    2    1    0    0    0  0.11792561298E+01 -0.23569820829E+02  0.28347427703E+02  0.88114992798E+02  0.80023422818E+02 0.  0.
         11    1    3    3    0    0 -0.17570228448E+02  0.19837709110E+02 -0.88658358991E+01  0.27943705497E+02  0.51100000000E-03 0. -1.
         22    1    1    0    0    0 -0.11792561298E+01  0.23569820829E+02 -0.28347427703E+02  0.36885007202E+02  0.00000000000E+00 0.  1.
</event>
<event>
 5    1  0.6622912E-004  0.9118800E+02  0.7818608E-02  0.1130116E+00
         25   -1    0    0    0    0  0.00000000000E+00  0.00000000000E+00  0.99999998245E-14  0.12500000000E+03  0.12500000000E+03 0.  0.
        -11    1    3    3    0    0 -0.23880933206E+02  0.57061807686E+02  0.80288167672E+00  0.61862698667E+02  0.51100000000E-03 0.  1.
         23    2    1    0    0    0 -0.18330121851E+02  0.27471238968E+02  0.52054601965E+00  0.91970720480E+02  0.85835191617E+02 0.  0.
         11    1    3    3    0    0  0.55508113551E+01 -0.29590568718E+02 -0.28233565707E+00  0.30108021812E+02  0.51100000000E-03 0. -1.
         22    1    1    0    0    0  0.18330121851E+02 -0.27471238968E+02 -0.52054601965E+00  0.33029279520E+02  0.00000000000E+00 0.  1.
</event>
<event>
 5    1  0.6622912E-004  0.9118800E+02  0.7818608E-02  0.1130116E+00
         25   -1    0    0    0    0  0.00000000000E+00  0.00000000000E+00  0.99999998245E-14  0.12500000000E+03  0.12500000000E+03 0.  0.
        -11    1    3    3    0    0  0.53289836733E+02  0.31393339384E+01 -0.25677779979E+02  0.59236901519E+02  0.51100000000E-03 0.  1.
         23    2    1    0    0    0  0.23135457230E+02 -0.11424063165E+02 -0.17845673877E+02  0.93627612833E+02  0.88215096261E+02 0.  0.
         11    1    3    3    0    0 -0.30154379504E+02 -0.14563397103E+02  0.78321061015E+01  0.34390711314E+02  0.51100000000E-03 0. -1.
         22    1    1    0    0    0 -0.23135457230E+02  0.11424063165E+02  0.17845673877E+02  0.31372387167E+02  0.00000000000E+00 0.  1.
</event>
<event>
 5    1  0.6622912E-004  0.9118800E+02  0.7818608E-02  0.1130116E+00
         25   -1    0    0    0    0  0.00000000000E+00  0.00000000000E+00  0.99999998245E-14  0.12500000000E+03  0.12500000000E+03 0.  0.
        -11    1    3    3    0    0 -0.43018100798E+02  0.16423979452E+02  0.21389849009E+02  0.50772332408E+02  0.51100000000E-03 0.  1.
         23    2    1    0    0    0  0.57289287940E+00  0.16673258664E+02  0.25467834805E+02  0.94554370259E+02  0.89518671598E+02 0.  0.
         11    1    3    3    0    0  0.43590993677E+02  0.24927921176E+00  0.40779857953E+01  0.43782037850E+02  0.51100000000E-03 0. -1.
         22    1    1    0    0    0 -0.57289287940E+00 -0.16673258664E+02 -0.25467834805E+02  0.30445629741E+02  0.00000000000E+00 0.  1.
</event>
<event>
 5    1  0.6622912E-004  0.9118800E+02  0.7818608E-02  0.1130116E+00
         25   -1    0    0    0    0  0.00000000000E+00  0.00000000000E+00  0.99999998245E-14  0.12500000000E+03  0.12500000000E+03 0.  0.
        -11    1    3    3    0    0 -0.15551620768E+02  0.17339782653E+02 -0.47155597528E+02  0.52594404165E+02  0.51100000000E-03 0. -1.
         23    2    1    0    0    0  0.55029678854E+01 -0.12889779676E+02 -0.26980918713E+02  0.94596068507E+02  0.89576878304E+02 0.  0.
         11    1    3    3    0    0  0.21054588653E+02 -0.30229562329E+02  0.20174678815E+02  0.42001664342E+02  0.51100000000E-03 0.  1.
         22    1    1    0    0    0 -0.55029678854E+01  0.12889779676E+02  0.26980918713E+02  0.30403931493E+02  0.00000000000E+00 0. -1.
</event>
<event>
 5    1  0.6622912E-004  0.9118800E+02  0.7818608E-02  0.1130116E+00
         25   -1    0    0    0    0  0.00000000000E+00  0.00000000000E+00  0.99999998245E-14  0.12500000000E+03  0.12500000000E+03 0.  0.
        -11    1    3    3    0    0  0.31381783311E+02  0.82516909416E+01  0.23466641983E+02  0.40044850023E+02  0.51100000000E-03 0. -1.
         23    2    1    0    0    0 -0.13120790239E+02  0.27823383957E+02 -0.47048071062E+00  0.94234480609E+02  0.89070871514E+02 0.  0.
         11    1    3    3    0    0 -0.44502573549E+02  0.19571693015E+02 -0.23937122693E+02  0.54189630586E+02  0.51100000000E-03 0.  1.
         22    1    1    0    0    0  0.13120790239E+02 -0.27823383957E+02  0.47048071062E+00  0.30765519391E+02  0.00000000000E+00 0.  1.
</event>
<event>
 5    1  0.6622912E-004  0.9118800E+02  0.7818608E-02  0.1130116E+00
         25   -1    0    0    0    0  0.00000000000E+00  0.00000000000E+00  0.99999998245E-14  0.12500000000E+03  0.12500000000E+03 0.  0.
        -11    1    3    3    0    0 -0.47711415410E+01 -0.14292050401E+02  0.57654711931E+02  0.59591042149E+02  0.51100000000E-03 0. -1.
         23    2    1    0    0    0 -0.13285614124E+02  0.10520606542E+01  0.25927438402E+02  0.95847874240E+02  0.91307001703E+02 0.  0.
         11    1    3    3    0    0 -0.85144725827E+01  0.15344111056E+02 -0.31727273529E+02  0.36256832091E+02  0.51100000000E-03 0.  1.
         22    1    1    0    0    0  0.13285614124E+02 -0.10520606542E+01 -0.25927438402E+02  0.29152125760E+02  0.00000000000E+00 0. -1.
</event>
<event>
 5    1  0.6622912E-004  0.9118800E+02  0.7818608E-02  0.1130116E+00
         25   -1    0    0    0    0  0.00000000000E+00  0.00000000000E+00  0.99999998245E-14  0.12500000000E+03  0.12500000000E+03 0.  0.
        -11    1    3    3    0    0 -0.33782540603E+02  0.13666174241E+02  0.17715905053E+02  0.40520089586E+02  0.51100000000E-03 0.  1.
         23    2    1    0    0    0  0.18408861610E+02 -0.62413175041E+01  0.20884727442E+02  0.96469103234E+02  0.92153544741E+02 0.  0.
         11    1    3    3    0    0  0.52191402213E+02 -0.19907491745E+02  0.31688223889E+01  0.55949013647E+02  0.51100000000E-03 0. -1.
         22    1    1    0    0    0 -0.18408861610E+02  0.62413175041E+01 -0.20884727442E+02  0.28530896766E+02  0.00000000000E+00 0. -1.
</event>
<event>
 5    1  0.6622912E-004  0.9118800E+02  0.7818608E-02  0.1130116E+00
         25   -1    0    0    0    0  0.00000000000E+00  0.00000000000E+00  0.99999998245E-14  0.12500000000E+03  0.12500000000E+03 0.  0.
        -11    1    3    3    0    0 -0.18918781723E+01 -0.43177135464E+02  0.90292236084E+01  0.44151682971E+02  0.51100000000E-03 0. -1.
         23    2    1    0    0    0 -0.28880817922E+02  0.54535473726E+00  0.49289011803E+01  0.95696533951E+02  0.91099580063E+02 0.  0.
         11    1    3    3    0    0 -0.26988939750E+02  0.43722490202E+02 -0.41003224281E+01  0.51544850980E+02  0.51100000000E-03 0.  1.
         22    1    1    0    0    0  0.28880817922E+02 -0.54535473726E+00 -0.49289011803E+01  0.29303466049E+02  0.00000000000E+00 0.  1.
</event>
<event>
 5    1  0.6622912E-004  0.9118800E+02  0.7818608E-02  0.1130116E+00
         25   -1    0    0    0    0  0.00000000000E+00  0.00000000000E+00  0.99999998245E-14  0.12500000000E+03  0.12500000000E+03 0.  0.
        -11    1    3    3    0    0  0.17942220716E+02  0.39543417722E+02  0.31974651437E+02  0.53925722101E+02  0.51100000000E-03 0.  1.
         23    2    1    0    0    0  0.27351138895E+02  0.83761698227E+01  0.55383774183E+01  0.95863791527E+02  0.91328789994E+02 0.  0.
         11    1    3    3    0    0  0.94089181790E+01 -0.31167247899E+02 -0.26436274019E+02  0.41938069426E+02  0.51100000000E-03 0. -1.
         22    1    1    0    0    0 -0.27351138895E+02 -0.83761698227E+01 -0.55383774183E+01  0.29136208473E+02  0.00000000000E+00 0.  1.
</event>
<event>
 5    1  0.6622912E-004  0.9118800E+02  0.7818608E-02  0.1130116E+00
         25   -1    0    0    0    0  0.00000000000E+00  0.00000000000E+00  0.99999998245E-14  0.12500000000E+03  0.12500000000E+03 0.  0.
        -11    1    3    3    0    0  0.38259392420E+02 -0.13462849391E+02 -0.36283553401E+02  0.54419901412E+02  0.51100000000E-03 0.  1.
         23    2    1    0    0    0  0.19327656346E+02 -0.21115390908E+02  0.36374120473E+00  0.96372210342E+02  0.92022022286E+02 0.  0.
         11    1    3    3    0    0 -0.18931736073E+02 -0.76525415166E+01  0.36647294605E+02  0.41952308930E+02  0.51100000000E-03 0. -1.
         22    1    1    0    0    0 -0.19327656346E+02  0.21115390908E+02 -0.36374120473E+00  0.28627789658E+02  0.00000000000E+00 0.  1.
</event>
<event>
 5    1  0.6622912E-004  0.9118800E+02  0.7818608E-02  0.1130116E+00
         25   -1    0    0    0    0  0.00000000000E+00  0.00000000000E+00  0.99999998245E-14  0.12500000000E+03  0.12500000000E+03 0.  0.
        -11    1    3    3    0    0  0.54060871493E+02  0.61370603965E+01  0.28028047445E+02  0.61203045518E+02  0.51100000000E-03 0. -1.
         23    2    1    0    0    0  0.28137966899E+02  0.21220670520E+00  0.49152545794E+01  0.96435162517E+02  0.92107494967E+02 0.  0.
         11    1    3    3    0    0 -0.25922904594E+02 -0.59248536913E+01 -0.23112792866E+02  0.35232116998E+02  0.51100000000E-03 0.  1.
         22    1    1    0    0    0 -0.28137966899E+02 -0.21220670520E+00 -0.49152545794E+01  0.28564837483E+02  0.00000000000E+00 0. -1.
</event>
<event>
 5    1  0.6622912E-004  0.9118800E+02  0.7818608E-02  0.1130116E+00
         25   -1    0    0    0    0  0.00000000000E+00  0.00000000000E+00  0.99999998245E-14  0.12500000000E+03  0.12500000000E+03 0.  0.
        -11    1    3    3    0    0  0.41607249164E+02  0.36745516998E+02  0.22233409721E+02  0.59797330295E+02  0.51100000000E-03 0. -1.
         23    2    1    0    0    0  0.24054021142E+02  0.81992170049E+01  0.18604941508E+02  0.93504493319E+02  0.88040464162E+02 0.  0.
         11    1    3    3    0    0 -0.17553228022E+02 -0.28546299993E+02 -0.36284682128E+01  0.33707163024E+02  0.51100000000E-03 0.  1.
         22    1    1    0    0    0 -0.24054021142E+02 -0.81992170049E+01 -0.18604941508E+02  0.31495506681E+02  0.00000000000E+00 0. -1.
</event>
<event>
 5    1  0.6622912E-004  0.9118800E+02  0.7818608E-02  0.1130116E+00
         25   -1    0    0    0    0  0.00000000000E+00  0.00000000000E+00  0.99999998245E-14  0.12500000000E+03  0.12500000000E+03 0.  0.
        -11    1    3    3    0    0 -0.20102014379E+02 -0.25408102321E+02 -0.32687926954E+02  0.46023507194E+02  0.51100000000E-03 0. -1.
         23    2    1    0    0    0 -0.27489335060E+02  0.21093798140E+01  0.85389718568E+01  0.96137791741E+02  0.91703042126E+02 0.  0.
         11    1    3    3    0    0 -0.73873206810E+01  0.27517482135E+02  0.41226898811E+02  0.50114284547E+02  0.51100000000E-03 0.  1.
         22    1    1    0    0    0  0.27489335060E+02 -0.21093798140E+01 -0.85389718568E+01  0.28862208259E+02  0.00000000000E+00 0.  1.
</event>
<event>
 5    1  0.6622912E-004  0.9118800E+02  0.7818608E-02  0.1130116E+00
         25   -1    0    0    0    0  0.00000000000E+00  0.00000000000E+00  0.99999998245E-14  0.12500000000E+03  0.12500000000E+03 0.  0.
        -11    1    3    3    0    0 -0.77406149096E+01  0.38527092429E+02  0.41381658927E+02  0.57067465916E+02  0.51100000000E-03 0.  1.
         23    2    1    0    0    0  0.14923498005E+02  0.16725731259E+02  0.16564195676E+02  0.97128267775E+02  0.93043360557E+02 0.  0.
         11    1    3    3    0    0  0.22664112914E+02 -0.21801361170E+02 -0.24817463251E+02  0.40060801858E+02  0.51100000000E-03 0. -1.
         22    1    1    0    0    0 -0.14923498005E+02 -0.16725731259E+02 -0.16564195676E+02  0.27871732225E+02  0.00000000000E+00 0.  1.
</event>
<event>
 5    1  0.6622912E-004  0.9118800E+02  0.7818608E-02  0.1130116E+00
         25   -1    0    0    0    0  0.00000000000E+00  0.00000000000E+00  0.99999998245E-14  0.12500000000E+03  0.12500000000E+03 0.  0.
        -11    1    3    3    0    0  0.98288508163E+01 -0.17279185015E+02  0.33234745076E+01  0.20154950415E+02  0.51100000000E-03 0. -1.
         23    2    1    0    0    0 -0.31242008392E+02 -0.57779712441E+01 -0.35167269681E+02  0.77606066877E+02  0.61453370284E+02 0.  0.
         11    1    3    3    0    0 -0.41070859209E+02  0.11501213771E+02 -0.38490744188E+02  0.57451116462E+02  0.51100000000E-03 0.  1.
         22    1    1    0    0    0  0.31242008392E+02  0.57779712441E+01  0.35167269681E+02  0.47393933123E+02  0.00000000000E+00 0.  1.
</event>
<event>
 5    1  0.6622912E-004  0.9118800E+02  0.7818608E-02  0.1130116E+00
         25   -1    0    0    0    0  0.00000000000E+00  0.00000000000E+00  0.99999998245E-14  0.12500000000E+03  0.12500000000E+03 0.  0.
        -11    1    3    3    0    0  0.31458026126E+02 -0.29611395305E+02 -0.36226874564E+02  0.56381101272E+02  0.51100000000E-03 0. -1.
         23    2    1    0    0    0  0.56460863848E+01 -0.28225709479E+02 -0.70442819342E+01  0.95365714535E+02  0.90644517946E+02 0.  0.
         11    1    3    3    0    0 -0.25811939742E+02  0.13856858259E+01  0.29182592629E+02  0.38984613263E+02  0.51100000000E-03 0.  1.
         22    1    1    0    0    0 -0.56460863848E+01  0.28225709479E+02  0.70442819342E+01  0.29634285465E+02  0.00000000000E+00 0. -1.
</event>
<event>
 5    1  0.6622912E-004  0.9118800E+02  0.7818608E-02  0.1130116E+00
         25   -1    0    0    0    0  0.00000000000E+00  0.00000000000E+00  0.99999998245E-14  0.12500000000E+03  0.12500000000E+03 0.  0.
        -11    1    3    3    0    0  0.41112486048E+02  0.29199212762E+00  0.16890544618E+02  0.44447860086E+02  0.51100000000E-03 0. -1.
         23    2    1    0    0    0  0.10134063976E+02 -0.28505773250E+02 -0.82370794942E+01  0.93645130524E+02  0.88239915180E+02 0.  0.
         11    1    3    3    0    0 -0.30978422072E+02 -0.28797765378E+02 -0.25127624112E+02  0.49197270438E+02  0.51100000000E-03 0.  1.
         22    1    1    0    0    0 -0.10134063976E+02  0.28505773250E+02  0.82370794942E+01  0.31354869476E+02  0.00000000000E+00 0. -1.
</event>
<event>
 5    1  0.6622912E-004  0.9118800E+02  0.7818608E-02  0.1130116E+00
         25   -1    0    0    0    0  0.00000000000E+00  0.00000000000E+00  0.99999998245E-14  0.12500000000E+03  0.12500000000E+03 0.  0.
        -11    1    3    3    0    0 -0.41099164816E+02 -0.11419674211E+02  0.40197771213E+02  0.58612380249E+02  0.51100000000E-03 0. -1.
         23    2    1    0    0    0 -0.64067871981E+01 -0.99632117877E+01  0.26561454079E+02  0.95916957619E+02  0.91401528460E+02 0.  0.
         11    1    3    3    0    0  0.34692377618E+02  0.14564624238E+01 -0.13636317134E+02  0.37304577371E+02  0.51100000000E-03 0.  1.
         22    1    1    0    0    0  0.64067871981E+01  0.99632117877E+01 -0.26561454079E+02  0.29083042381E+02  0.00000000000E+00 0.  1.
</event>
<event>
 5    1  0.6622912E-004  0.9118800E+02  0.7818608E-02  0.1130116E+00
         25   -1    0    0    0    0  0.00000000000E+00  0.00000000000E+00  0.99999998245E-14  0.12500000000E+03  0.12500000000E+03 0.  0.
        -11    1    3    3    0    0  0.34466937537E+02  0.32133101919E+01 -0.41186591996E+02  0.53801770473E+02  0.51100000000E-03 0. -1.
         23    2    1    0    0    0  0.66254550314E+01 -0.20223895833E+02 -0.19308033321E+02  0.96264955755E+02  0.91876215305E+02 0.  0.
         11    1    3    3    0    0 -0.27841482505E+02 -0.23437206025E+02  0.21878558675E+02  0.42463185282E+02  0.51100000000E-03 0.  1.
         22    1    1    0    0    0 -0.66254550314E+01  0.20223895833E+02  0.19308033321E+02  0.28735044245E+02  0.00000000000E+00 0. -1.
</event>
<event>
 5    1  0.6622912E-004  0.9118800E+02  0.7818608E-02  0.1130116E+00
         25   -1    0    0    0    0  0.00000000000E+00  0.00000000000E+00  0.99999998245E-14  0.12500000000E+03  0.12500000000E+03 0.  0.
        -11    1    3    3    0    0  0.36306635949E+02 -0.53841371151E+01  0.16277679320E+01  0.36739765583E+02  0.51100000000E-03 0. -1.
         23    2    1    0    0    0 -0.10776225004E+02  0.27720068299E+02  0.66832864193E+01  0.94517291308E+02  0.89466881175E+02 0.  0.
         11    1    3    3    0    0 -0.47082860952E+02  0.33104205414E+02  0.50555184873E+01  0.57777525726E+02  0.51100000000E-03 0.  1.
         22    1    1    0    0    0  0.10776225004E+02 -0.27720068299E+02 -0.66832864193E+01  0.30482708692E+02  0.00000000000E+00 0.  1.
</event>
<event>
 5    1  0.6622912E-004  0.9118800E+02  0.7818608E-02  0.1130116E+00
         25   -1    0    0    0    0  0.00000000000E+00  0.00000000000E+00  0.99999998245E-14  0.12500000000E+03  0.12500000000E+03 0.  0.
        -11    1    3    3    0    0 -0.24830108780E+02 -0.66318483873E+01 -0.50535038675E+02  0.56694848524E+02  0.51100000000E-03 0. -1.
         23    2    1    0    0    0 -0.25868729993E+02  0.26523573367E+01 -0.11974197370E+02  0.96371210408E+02  0.92020663994E+02 0.  0.
         11    1    3    3    0    0 -0.10386212127E+01  0.92842057240E+01  0.38560841305E+02  0.39676361884E+02  0.51100000000E-03 0.  1.
         22    1    1    0    0    0  0.25868729993E+02 -0.26523573367E+01  0.11974197370E+02  0.28628789592E+02  0.00000000000E+00 0. -1.
</event>
<event>
 5    1  0.6622912E-004  0.9118800E+02  0.7818608E-02  0.1130116E+00
         25   -1    0    0    0    0  0.00000000000E+00  0.00000000000E+00  0.99999998245E-14  0.12500000000E+03  0.12500000000E+03 0.  0.
        -11    1    3    3    0    0 -0.11095992329E+02 -0.42890517244E+02 -0.15232583215E+02  0.46848149450E+02  0.51100000000E-03 0.  1.
         23    2    1    0    0    0 -0.15248148645E+02  0.51911384239E+01 -0.24194765713E+02  0.95933857443E+02  0.91424637603E+02 0.  0.
         11    1    3    3    0    0 -0.41521563160E+01  0.48081655668E+02 -0.89621824979E+01  0.49085707994E+02  0.51100000000E-03 0. -1.
         22    1    1    0    0    0  0.15248148645E+02 -0.51911384239E+01  0.24194765713E+02  0.29066142557E+02  0.00000000000E+00 0.  1.
</event>
<event>
 4    1  0.6622912E-004  0.9118800E+02  0.7818608E-02  0.1130116E+00
         25   -1    0    0    0    0  0.00000000000E+00  0.00000000000E+00  0.99999998245E-14  0.12500000000E+03  0.12500000000E+03 0.  0.
        -11    1    1    0    0    0  0.37912970164E+02  0.63685253546E+01  0.24223186367E+02  0.45439126090E+02  0.51100000000E-03 0.  1.
         11    1    1    0    0    0  0.16431628741E+02 -0.61780793089E+01 -0.17524343169E+02  0.24804630430E+02  0.51100000000E-03 0. -1.
         22    1    1    0    0    0 -0.54344598905E+02 -0.19044604573E+00 -0.66988431982E+01  0.54756243480E+02  0.00000000000E+00 0.  1.
</event>
<event>
 5    1  0.6622912E-004  0.9118800E+02  0.7818608E-02  0.1130116E+00
         25   -1    0    0    0    0  0.00000000000E+00  0.00000000000E+00  0.99999998245E-14  0.12500000000E+03  0.12500000000E+03 0.  0.
        -11    1    3    3    0    0 -0.42164359772E+02 -0.26741449697E+02  0.11811714780E+02  0.51307455337E+02  0.51100000000E-03 0.  1.
         23    2    1    0    0    0 -0.76336892930E+01 -0.45696954518E+01  0.28150852425E+02  0.95476690210E+02  0.90797425913E+02 0.  0.
         11    1    3    3    0    0  0.34530670479E+02  0.22171754245E+02  0.16339137645E+02  0.44169234873E+02  0.51100000000E-03 0. -1.
         22    1    1    0    0    0  0.76336892930E+01  0.45696954518E+01 -0.28150852425E+02  0.29523309790E+02  0.00000000000E+00 0.  1.
</event>
<event>
 5    1  0.6622912E-004  0.9118800E+02  0.7818608E-02  0.1130116E+00
         25   -1    0    0    0    0  0.00000000000E+00  0.00000000000E+00  0.99999998245E-14  0.12500000000E+03  0.12500000000E+03 0.  0.
        -11    1    3    3    0    0  0.38120575981E+02  0.23011314091E+02  0.54221075375E+01  0.44856416929E+02  0.51100000000E-03 0.  1.
         23    2    1    0    0    0  0.16134076609E+02 -0.22022548596E+02 -0.76510289166E+01  0.96647939789E+02  0.92395805897E+02 0.  0.
         11    1    3    3    0    0 -0.21986499372E+02 -0.45033862687E+02 -0.13073136454E+02  0.51791522860E+02  0.51100000000E-03 0. -1.
         22    1    1    0    0    0 -0.16134076609E+02  0.22022548596E+02  0.76510289166E+01  0.28352060211E+02  0.00000000000E+00 0. -1.
</event>
<event>
 5    1  0.6622912E-004  0.9118800E+02  0.7818608E-02  0.1130116E+00
         25   -1    0    0    0    0  0.00000000000E+00  0.00000000000E+00  0.99999998245E-14  0.12500000000E+03  0.12500000000E+03 0.  0.
        -11    1    3    3    0    0  0.31702782061E+02  0.13053212059E+02 -0.46412493651E+02  0.57702446245E+02  0.51100000000E-03 0. -1.
         23    2    1    0    0    0  0.30445350176E+01  0.18798382942E+02 -0.22915251933E+02  0.95204745918E+02  0.90422267608E+02 0.  0.
         11    1    3    3    0    0 -0.28658247044E+02  0.57451708829E+01  0.23497241719E+02  0.37502299673E+02  0.51100000000E-03 0.  1.
         22    1    1    0    0    0 -0.30445350176E+01 -0.18798382942E+02  0.22915251933E+02  0.29795254082E+02  0.00000000000E+00 0. -1.
</event>
<event>
 5    1  0.6622912E-004  0.9118800E+02  0.7818608E-02  0.1130116E+00
         25   -1    0    0    0    0  0.00000000000E+00  0.00000000000E+00  0.99999998245E-14  0.12500000000E+03  0.12500000000E+03 0.  0.
        -11    1    3    3    0    0  0.54675426557E+02 -0.11374264359E+02  0.22290734229E+02  0.60130300113E+02  0.51100000000E-03 0.  1.
         23    2    1    0    0    0  0.21906661878E+02  0.35713089415E+01  0.18042300560E+02  0.96396142014E+02  0.92054524623E+02 0.  0.
         11    1    3    3    0    0 -0.32768764680E+02  0.14945573301E+02 -0.42484336690E+01  0.36265841901E+02  0.51100000000E-03 0. -1.
         22    1    1    0    0    0 -0.21906661878E+02 -0.35713089415E+01 -0.18042300560E+02  0.28603857986E+02  0.00000000000E+00 0.  1.
</event>
<event>
 5    1  0.6622912E-004  0.9118800E+02  0.7818608E-02  0.1130116E+00
         25   -1    0    0    0    0  0.00000000000E+00  0.00000000000E+00  0.99999998245E-14  0.12500000000E+03  0.12500000000E+03 0.  0.
        -11    1    3    3    0    0  0.31957909843E+02 -0.47078604163E+01 -0.16518117492E+02  0.36281126732E+02  0.51100000000E-03 0.  1.
         23    2    1    0    0    0 -0.62802256386E+01 -0.85430780282E+00  0.28690560130E+02  0.95617704030E+02  0.90991351279E+02 0.  0.
         11    1    3    3    0    0 -0.38238135481E+02  0.38535526135E+01  0.45208677622E+02  0.59336577298E+02  0.51100000000E-03 0. -1.
         22    1    1    0    0    0  0.62802256386E+01  0.85430780282E+00 -0.28690560130E+02  0.29382295970E+02  0.00000000000E+00 0. -1.
</event>
<event>
 5    1  0.6622912E-004  0.9118800E+02  0.7818608E-02  0.1130116E+00
         25   -1    0    0    0    0  0.00000000000E+00  0.00000000000E+00  0.99999998245E-14  0.12500000000E+03  0.12500000000E+03 0.  0.
        -11    1    3    3    0    0  0.14046788341E+02  0.57779436926E+02  0.21413505083E+01  0.59500932568E+02  0.51100000000E-03 0. -1.
         23    2    1    0    0    0  0.14819655586E+02  0.34306436475E+02  0.13076630099E+02  0.85407677133E+02  0.75676411670E+02 0.  0.
         11    1    3    3    0    0  0.77286724519E+00 -0.23473000452E+02  0.10935279591E+02  0.25906744565E+02  0.51100000000E-03 0.  1.
         22    1    1    0    0    0 -0.14819655586E+02 -0.34306436475E+02 -0.13076630099E+02  0.39592322867E+02  0.00000000000E+00 0. -1.
</event>
<event>
 5    1  0.6622912E-004  0.9118800E+02  0.7818608E-02  0.1130116E+00
         25   -1    0    0    0    0  0.00000000000E+00  0.00000000000E+00  0.99999998245E-14  0.12500000000E+03  0.12500000000E+03 0.  0.
        -11    1    3    3    0    0 -0.18849229574E+02  0.51809136130E+01  0.35624739247E+02  0.40635666207E+02  0.51100000000E-03 0. -1.
         23    2    1    0    0    0 -0.22114949778E+02 -0.48448528107E+01 -0.18490846933E+02  0.95768937366E+02  0.91198872479E+02 0.  0.
         11    1    3    3    0    0 -0.32657202044E+01 -0.10025766424E+02 -0.54115586180E+02  0.55133271159E+02  0.51100000000E-03 0.  1.
         22    1    1    0    0    0  0.22114949778E+02  0.48448528107E+01  0.18490846933E+02  0.29231062634E+02  0.00000000000E+00 0.  1.
</event>
<event>
 5    1  0.6622912E-004  0.9118800E+02  0.7818608E-02  0.1130116E+00
         25   -1    0    0    0    0  0.00000000000E+00  0.00000000000E+00  0.99999998245E-14  0.12500000000E+03  0.12500000000E+03 0.  0.
        -11    1    3    3    0    0  0.33634617871E+02  0.22534389906E+02  0.18468495054E+01  0.40527732494E+02  0.51100000000E-03 0.  1.
         23    2    1    0    0    0  0.90116180390E+01 -0.26543968013E+02  0.81757927463E+01  0.95800084168E+02  0.91241553264E+02 0.  0.
         11    1    3    3    0    0 -0.24622999832E+02 -0.49078357919E+02  0.63289432409E+01  0.55272351674E+02  0.51100000000E-03 0. -1.
         22    1    1    0    0    0 -0.90116180390E+01  0.26543968013E+02 -0.81757927463E+01  0.29199915832E+02  0.00000000000E+00 0. -1.
</event>
<event>
 5    1  0.6622912E-004  0.9118800E+02  0.7818608E-02  0.1130116E+00
         25   -1    0    0    0    0  0.00000000000E+00  0.00000000000E+00  0.99999998245E-14  0.12500000000E+03  0.12500000000E+03 0.  0.
        -11    1    3    3    0    0  0.43136108294E+02 -0.78357812521E+01  0.11925913522E+02  0.45435126501E+02  0.51100000000E-03 0. -1.
         23    2    1    0    0    0  0.12900104595E+02  0.23292220277E+02 -0.12882419960E+02  0.95421342694E+02  0.90721197487E+02 0.  0.
         11    1    3    3    0    0 -0.30236003698E+02  0.31128001529E+02 -0.24808333482E+02  0.49986216193E+02  0.51100000000E-03 0.  1.
         22    1    1    0    0    0 -0.12900104595E+02 -0.23292220277E+02  0.12882419960E+02  0.29578657306E+02  0.00000000000E+00 0. -1.
</event>
<event>
 5    1  0.6622912E-004  0.9118800E+02  0.7818608E-02  0.1130116E+00
         25   -1    0    0    0    0  0.00000000000E+00  0.00000000000E+00  0.99999998245E-14  0.12500000000E+03  0.12500000000E+03 0.  0.
        -11    1    3    3    0    0  0.22268205758E+02  0.19798179708E+01  0.35789455284E+02  0.42198077879E+02  0.51100000000E-03 0.  1.
         23    2    1    0    0    0 -0.18581590886E+02  0.21616754848E+02  0.78836338555E+01  0.95424481530E+02  0.90725522223E+02 0.  0.
         11    1    3    3    0    0 -0.40849796644E+02  0.19636936877E+02 -0.27905821429E+02  0.53226403651E+02  0.51100000000E-03 0. -1.
         22    1    1    0    0    0  0.18581590886E+02 -0.21616754848E+02 -0.78836338555E+01  0.29575518470E+02  0.00000000000E+00 0. -1.
</event>
<event>
 5    1  0.6622912E-004  0.9118800E+02  0.7818608E-02  0.1130116E+00
         25   -1    0    0    0    0  0.00000000000E+00  0.00000000000E+00  0.99999998245E-14  0.12500000000E+03  0.12500000000E+03 0.  0.
        -11    1    3    3    0    0  0.30561679241E+02  0.23733880552E+00  0.27004473106E+02  0.40783748427E+02  0.51100000000E-03 0.  1.
         23    2    1    0    0    0 -0.51348190739E+01  0.28351602014E+02 -0.41682759389E+01  0.95887215386E+02  0.91360844165E+02 0.  0.
         11    1    3    3    0    0 -0.35696498315E+02  0.28114263208E+02 -0.31172749045E+02  0.55103466960E+02  0.51100000000E-03 0. -1.
         22    1    1    0    0    0  0.51348190739E+01 -0.28351602014E+02  0.41682759389E+01  0.29112784614E+02  0.00000000000E+00 0. -1.
</event>
<event>
 5    1  0.6622912E-004  0.9118800E+02  0.7818608E-02  0.1130116E+00
         25   -1    0    0    0    0  0.00000000000E+00  0.00000000000E+00  0.99999998245E-14  0.12500000000E+03  0.12500000000E+03 0.  0.
        -11    1    3    3    0    0  0.13606424156E+02 -0.30273278424E+02 -0.10452823946E+02  0.34797524245E+02  0.51100000000E-03 0.  1.
         23    2    1    0    0    0 -0.77301351265E+01  0.25764834991E+02  0.69172130647E+01  0.97225379431E+02  0.93173734806E+02 0.  0.
         11    1    3    3    0    0 -0.21336559283E+02  0.56038113415E+02  0.17370037011E+02  0.62427855186E+02  0.51100000000E-03 0. -1.
         22    1    1    0    0    0  0.77301351265E+01 -0.25764834991E+02 -0.69172130647E+01  0.27774620569E+02  0.00000000000E+00 0. -1.
</event>
<event>
 5    1  0.6622912E-004  0.9118800E+02  0.7818608E-02  0.1130116E+00
         25   -1    0    0    0    0  0.00000000000E+00  0.00000000000E+00  0.99999998245E-14  0.12500000000E+03  0.12500000000E+03 0.  0.
        -11    1    3    3    0    0 -0.49588505081E+02 -0.13325805168E+02 -0.44413372156E+01  0.51539522661E+02  0.51100000000E-03 0. -1.
         23    2    1    0    0    0 -0.10403900904E+02 -0.27193643688E+02  0.77752233877E+01  0.94863817266E+02  0.89949732164E+02 0.  0.
         11    1    3    3    0    0  0.39184604178E+02 -0.13867838520E+02  0.12216560603E+02  0.43324294605E+02  0.51100000000E-03 0.  1.
         22    1    1    0    0    0  0.10403900904E+02  0.27193643688E+02 -0.77752233877E+01  0.30136182734E+02  0.00000000000E+00 0. -1.
</event>
<event>
 5    1  0.6622912E-004  0.9118800E+02  0.7818608E-02  0.1130116E+00
         25   -1    0    0    0    0  0.00000000000E+00  0.00000000000E+00  0.99999998245E-14  0.12500000000E+03  0.12500000000E+03 0.  0.
        -11    1    3    3    0    0 -0.13925014334E+02 -0.13123697254E+02 -0.45381061026E+02  0.49250158922E+02  0.51100000000E-03 0.  1.
         23    2    1    0    0    0  0.22496534722E+02 -0.42171099638E+01 -0.20704149863E+02  0.94136754667E+02  0.88933619440E+02 0.  0.
         11    1    3    3    0    0  0.36421549055E+02  0.89065872906E+01  0.24676911162E+02  0.44886595744E+02  0.51100000000E-03 0. -1.
         22    1    1    0    0    0 -0.22496534722E+02  0.42171099638E+01  0.20704149863E+02  0.30863245333E+02  0.00000000000E+00 0.  1.
</event>
<event>
 5    1  0.6622912E-004  0.9118800E+02  0.7818608E-02  0.1130116E+00
         25   -1    0    0    0    0  0.00000000000E+00  0.00000000000E+00  0.99999998245E-14  0.12500000000E+03  0.12500000000E+03 0.  0.
        -11    1    3    3    0    0 -0.49859739382E+01 -0.21850998784E+02 -0.56165906035E+02  0.60472597802E+02  0.51100000000E-03 0.  1.
         23    2    1    0    0    0  0.40599781536E+01 -0.18663267798E+02 -0.22458227767E+02  0.95518260195E+02  0.90854636914E+02 0.  0.
         11    1    3    3    0    0  0.90459520918E+01  0.31877309862E+01  0.33707678268E+02  0.35045662393E+02  0.51100000000E-03 0. -1.
         22    1    1    0    0    0 -0.40599781536E+01  0.18663267798E+02  0.22458227767E+02  0.29481739805E+02  0.00000000000E+00 0.  1.
</event>
<event>
 5    1  0.6622912E-004  0.9118800E+02  0.7818608E-02  0.1130116E+00
         25   -1    0    0    0    0  0.00000000000E+00  0.00000000000E+00  0.99999998245E-14  0.12500000000E+03  0.12500000000E+03 0.  0.
        -11    1    3    3    0    0  0.47972373553E+01 -0.17998588133E+02 -0.43502775320E+02  0.47322871023E+02  0.51100000000E-03 0.  1.
         23    2    1    0    0    0 -0.42807245173E+01 -0.29684928038E+02  0.17730591026E+01  0.94955644563E+02  0.90077250961E+02 0.  0.
         11    1    3    3    0    0 -0.90779618726E+01 -0.11686339905E+02  0.45275834423E+02  0.47632773540E+02  0.51100000000E-03 0. -1.
         22    1    1    0    0    0  0.42807245173E+01  0.29684928038E+02 -0.17730591026E+01  0.30044355437E+02  0.00000000000E+00 0. -1.
</event>
<event>
 5    1  0.6622912E-004  0.9118800E+02  0.7818608E-02  0.1130116E+00
         25   -1    0    0    0    0  0.00000000000E+00  0.00000000000E+00  0.99999998245E-14  0.12500000000E+03  0.12500000000E+03 0.  0.
        -11    1    3    3    0    0 -0.34298892533E+02 -0.10923679230E+02 -0.41338175722E+02  0.54814100095E+02  0.51100000000E-03 0. -1.
         23    2    1    0    0    0 -0.10565862353E+02  0.16754691221E+02 -0.18877212520E+02  0.97637502349E+02  0.93724999798E+02 0.  0.
         11    1    3    3    0    0  0.23733030180E+02  0.27678370451E+02  0.22460963202E+02  0.42823402254E+02  0.51100000000E-03 0.  1.
         22    1    1    0    0    0  0.10565862353E+02 -0.16754691221E+02  0.18877212520E+02  0.27362497651E+02  0.00000000000E+00 0. -1.
</event>
<event>
 5    1  0.6622912E-004  0.9118800E+02  0.7818608E-02  0.1130116E+00
         25   -1    0    0    0    0  0.00000000000E+00  0.00000000000E+00  0.99999998245E-14  0.12500000000E+03  0.12500000000E+03 0.  0.
        -11    1    3    3    0    0  0.80996606945E+00  0.19454872384E+01  0.33753225640E+02  0.33818947455E+02  0.51100000000E-03 0.  1.
         23    2    1    0    0    0  0.17359700598E+02  0.88692414334E+00 -0.24822251166E+02  0.94696699978E+02  0.89717194530E+02 0.  0.
         11    1    3    3    0    0  0.16549734529E+02 -0.10585630951E+01 -0.58575476806E+02  0.60877752522E+02  0.51100000000E-03 0. -1.
         22    1    1    0    0    0 -0.17359700598E+02 -0.88692414334E+00  0.24822251166E+02  0.30303300022E+02  0.00000000000E+00 0. -1.
</event>
<event>
 5    1  0.6622912E-004  0.9118800E+02  0.7818608E-02  0.1130116E+00
         25   -1    0    0    0    0  0.00000000000E+00  0.00000000000E+00  0.99999998245E-14  0.12500000000E+03  0.12500000000E+03 0.  0.
        -11    1    3    3    0    0 -0.34894295392E+02 -0.21889993804E+02 -0.42449456108E+00  0.41194221385E+02  0.51100000000E-03 0. -1.
         23    2    1    0    0    0 -0.75893386585E+01  0.17694448430E+02  0.23265424666E+02  0.94801133276E+02  0.89862580193E+02 0.  0.
         11    1    3    3    0    0  0.27304956733E+02  0.39584442234E+02  0.23689919227E+02  0.53606911891E+02  0.51100000000E-03 0.  1.
         22    1    1    0    0    0  0.75893386585E+01 -0.17694448430E+02 -0.23265424666E+02  0.30198866724E+02  0.00000000000E+00 0.  1.
</event>
<event>
 5    1  0.6622912E-004  0.9118800E+02  0.7818608E-02  0.1130116E+00
         25   -1    0    0    0    0  0.00000000000E+00  0.00000000000E+00  0.99999998245E-14  0.12500000000E+03  0.12500000000E+03 0.  0.
        -11    1    3    3    0    0  0.31412667998E+02 -0.16600170629E+02  0.10567990432E+02  0.37067557212E+02  0.51100000000E-03 0.  1.
         23    2    1    0    0    0 -0.10514256582E+01  0.25873571749E+02 -0.13616630687E+02  0.95743208614E+02  0.91163601034E+02 0.  0.
         11    1    3    3    0    0 -0.32464093656E+02  0.42473742378E+02 -0.24184621119E+02  0.58675651401E+02  0.51100000000E-03 0. -1.
         22    1    1    0    0    0  0.10514256582E+01 -0.25873571749E+02  0.13616630687E+02  0.29256791386E+02  0.00000000000E+00 0. -1.
</event>
<event>
 5    1  0.6622912E-004  0.9118800E+02  0.7818608E-02  0.1130116E+00
         25   -1    0    0    0    0  0.00000000000E+00  0.00000000000E+00  0.99999998245E-14  0.12500000000E+03  0.12500000000E+03 0.  0.
        -11    1    3    3    0    0 -0.51303932539E+02  0.10627093521E+01 -0.33965798502E+02  0.61537779561E+02  0.51100000000E-03 0.  1.
         23    2    1    0    0    0 -0.25423750406E+02  0.56472980957E+01 -0.10013291908E+02  0.97097937794E+02  0.93002604525E+02 0.  0.
         11    1    3    3    0    0  0.25880182133E+02  0.45845887436E+01  0.23952506594E+02  0.35560158233E+02  0.51100000000E-03 0. -1.
         22    1    1    0    0    0  0.25423750406E+02 -0.56472980957E+01  0.10013291908E+02  0.27902062206E+02  0.00000000000E+00 0.  1.
</event>
<event>
 5    1  0.6622912E-004  0.9118800E+02  0.7818608E-02  0.1130116E+00
         25   -1    0    0    0    0  0.00000000000E+00  0.00000000000E+00  0.99999998245E-14  0.12500000000E+03  0.12500000000E+03 0.  0.
        -11    1    3    3    0    0  0.21358284210E+02 -0.34829935765E+02 -0.73408305135E+01  0.41511305962E+02  0.51100000000E-03 0.  1.
         23    2    1    0    0    0  0.24817417878E+02  0.15953010167E+02  0.75524940524E+01  0.94546052310E+02  0.89507056020E+02 0.  0.
         11    1    3    3    0    0  0.34591336677E+01  0.50782945932E+02  0.14893324566E+02  0.53034746347E+02  0.51100000000E-03 0. -1.
         22    1    1    0    0    0 -0.24817417878E+02 -0.15953010167E+02 -0.75524940524E+01  0.30453947690E+02  0.00000000000E+00 0. -1.
</event>
<event>
 5    1  0.6622912E-004  0.9118800E+02  0.7818608E-02  0.1130116E+00
         25   -1    0    0    0    0  0.00000000000E+00  0.00000000000E+00  0.99999998245E-14  0.12500000000E+03  0.12500000000E+03 0.  0.
        -11    1    3    3    0    0 -0.15935892078E+02 -0.52452094781E+02  0.14397037754E+02  0.56678475629E+02  0.51100000000E-03 0. -1.
         23    2    1    0    0    0 -0.16325818607E+02 -0.15177812413E+02  0.20812854862E+02  0.94502897345E+02  0.89446768172E+02 0.  0.
         11    1    3    3    0    0 -0.38992652880E+00  0.37274282368E+02  0.64158171076E+01  0.37824421716E+02  0.51100000000E-03 0.  1.
         22    1    1    0    0    0  0.16325818607E+02  0.15177812413E+02 -0.20812854862E+02  0.30497102655E+02  0.00000000000E+00 0. -1.
</event>
<event>
 5    1  0.6622912E-004  0.9118800E+02  0.7818608E-02  0.1130116E+00
         25   -1    0    0    0    0  0.00000000000E+00  0.00000000000E+00  0.99999998245E-14  0.12500000000E+03  0.12500000000E+03 0.  0.
        -11    1    3    3    0    0 -0.21917965257E+02 -0.52691395424E+01  0.35189056792E+02  0.41790318863E+02  0.51100000000E-03 0. -1.
         23    2    1    0    0    0  0.48553077223E+01  0.25255392262E+02  0.33946299818E+02  0.82411737266E+02  0.70554477650E+02 0.  0.
         11    1    3    3    0    0  0.26773272979E+02  0.30524531804E+02 -0.12427569748E+01  0.40621418403E+02  0.51100000000E-03 0.  1.
         22    1    1    0    0    0 -0.48553077223E+01 -0.25255392262E+02 -0.33946299818E+02  0.42588262734E+02  0.00000000000E+00 0.  1.
</event>
<event>
 5    1  0.6622912E-004  0.9118800E+02  0.7818608E-02  0.1130116E+00
         25   -1    0    0    0    0  0.00000000000E+00  0.00000000000E+00  0.99999998245E-14  0.12500000000E+03  0.12500000000E+03 0.  0.
        -11    1    3    3    0    0 -0.42703394186E+02  0.17731588388E+02  0.45736450179E+00  0.46240656184E+02  0.51100000000E-03 0.  1.
         23    2    1    0    0    0 -0.16836916529E+02 -0.23662160020E+02 -0.55932591507E+01  0.95425278988E+02  0.90726620939E+02 0.  0.
         11    1    3    3    0    0  0.25866477657E+02 -0.41393748407E+02 -0.60506236525E+01  0.49184622804E+02  0.51100000000E-03 0. -1.
         22    1    1    0    0    0  0.16836916529E+02  0.23662160020E+02  0.55932591507E+01  0.29574721012E+02  0.00000000000E+00 0. -1.
</event>
<event>
 5    1  0.6622912E-004  0.9118800E+02  0.7818608E-02  0.1130116E+00
         25   -1    0    0    0    0  0.00000000000E+00  0.00000000000E+00  0.99999998245E-14  0.12500000000E+03  0.12500000000E+03 0.  0.
        -11    1    3    3    0    0  0.21757794959E+02  0.19171095347E+02 -0.23975640185E+02  0.37626637650E+02  0.51100000000E-03 0.  1.
         23    2    1    0    0    0 -0.51335899508E+01  0.11094041551E+02  0.26741226754E+02  0.95597198909E+02  0.90963177865E+02 0.  0.
         11    1    3    3    0    0 -0.26891384909E+02 -0.80770537965E+01  0.50716866939E+02  0.57970561259E+02  0.51100000000E-03 0. -1.
         22    1    1    0    0    0  0.51335899508E+01 -0.11094041551E+02 -0.26741226754E+02  0.29402801091E+02  0.00000000000E+00 0. -1.
</event>
<event>
 5    1  0.6622912E-004  0.9118800E+02  0.7818608E-02  0.1130116E+00
         25   -1    0    0    0    0  0.00000000000E+00  0.00000000000E+00  0.99999998245E-14  0.12500000000E+03  0.12500000000E+03 0.  0.
        -11    1    3    3    0    0 -0.21346479347E+02 -0.14183623218E+02  0.28100243034E+02  0.38032499351E+02  0.51100000000E-03 0.  1.
         23    2    1    0    0    0 -0.58304860176E+01  0.21404313159E+02 -0.16639892641E+02  0.97268696098E+02  0.93231829460E+02 0.  0.
         11    1    3    3    0    0  0.15515993329E+02  0.35587936377E+02 -0.44740135675E+02  0.59236196747E+02  0.51100000000E-03 0. -1.
         22    1    1    0    0    0  0.58304860176E+01 -0.21404313159E+02  0.16639892641E+02  0.27731303902E+02  0.00000000000E+00 0. -1.
</event>
<event>
 5    1  0.6622912E-004  0.9118800E+02  0.7818608E-02  0.1130116E+00
         25   -1    0    0    0    0  0.00000000000E+00  0.00000000000E+00  0.99999998245E-14  0.12500000000E+03  0.12500000000E+03 0.  0.
        -11    1    3    3    0    0 -0.54160756988E+02  0.20719831562E+01 -0.14930074442E+02  0.56219105603E+02  0.51100000000E-03 0. -1.
         23    2    1    0    0    0 -0.33015979365E+02 -0.15891401873E+02  0.12499526200E+01  0.88337295129E+02  0.80369918391E+02 0.  0.
         11    1    3    3    0    0  0.21144777623E+02 -0.17963385030E+02  0.16180027062E+02  0.32118189526E+02  0.51100000000E-03 0.  1.
         22    1    1    0    0    0  0.33015979365E+02  0.15891401873E+02 -0.12499526200E+01  0.36662704871E+02  0.00000000000E+00 0. -1.
</event>
<event>
 5    1  0.6622912E-004  0.9118800E+02  0.7818608E-02  0.1130116E+00
         25   -1    0    0    0    0  0.00000000000E+00  0.00000000000E+00  0.99999998245E-14  0.12500000000E+03  0.12500000000E+03 0.  0.
        -11    1    3    3    0    0 -0.97086308226E+00 -0.98075298782E+01  0.37229908480E+02  0.38512287690E+02  0.51100000000E-03 0.  1.
         23    2    1    0    0    0 -0.18766744847E+02 -0.13652917996E+02 -0.17333914259E+02  0.96033511336E+02  0.91560787644E+02 0.  0.
         11    1    3    3    0    0 -0.17795881765E+02 -0.38453881181E+01 -0.54563822739E+02  0.57521223646E+02  0.51100000000E-03 0. -1.
         22    1    1    0    0    0  0.18766744847E+02  0.13652917996E+02  0.17333914259E+02  0.28966488664E+02  0.00000000000E+00 0. -1.
</event>
<event>
 5    1  0.6622912E-004  0.9118800E+02  0.7818608E-02  0.1130116E+00
         25   -1    0    0    0    0  0.00000000000E+00  0.00000000000E+00  0.99999998245E-14  0.12500000000E+03  0.12500000000E+03 0.  0.
        -11    1    3    3    0    0 -0.46745773653E+02  0.80782118485E+01 -0.20702962427E+02  0.51759419574E+02  0.51100000000E-03 0. -1.
         23    2    1    0    0    0 -0.92120857212E+01  0.26166631790E+02 -0.13884055665E+02  0.93978682422E+02  0.88711163928E+02 0.  0.
         11    1    3    3    0    0  0.37533687932E+02  0.18088419941E+02  0.68189067614E+01  0.42219262848E+02  0.51100000000E-03 0.  1.
         22    1    1    0    0    0  0.92120857212E+01 -0.26166631790E+02  0.13884055665E+02  0.31021317578E+02  0.00000000000E+00 0.  1.
</event>
<event>
 5    1  0.6622912E-004  0.9118800E+02  0.7818608E-02  0.1130116E+00
         25   -1    0    0    0    0  0.00000000000E+00  0.00000000000E+00  0.99999998245E-14  0.12500000000E+03  0.12500000000E+03 0.  0.
        -11    1    3    3    0    0 -0.50734313844E+02  0.74579836215E+01  0.33849781089E+02  0.61444282085E+02  0.51100000000E-03 0.  1.
         23    2    1    0    0    0 -0.19077794175E+02  0.36588076551E+01  0.22468554572E+02  0.95298399898E+02  0.90551642583E+02 0.  0.
         11    1    3    3    0    0  0.31656519669E+02 -0.37991759664E+01 -0.11381226517E+02  0.33854117813E+02  0.51100000000E-03 0. -1.
         22    1    1    0    0    0  0.19077794175E+02 -0.36588076551E+01 -0.22468554572E+02  0.29701600102E+02  0.00000000000E+00 0.  1.
</event>
<event>
 5    1  0.6622912E-004  0.9118800E+02  0.7818608E-02  0.1130116E+00
         25   -1    0    0    0    0  0.00000000000E+00  0.00000000000E+00  0.99999998245E-14  0.12500000000E+03  0.12500000000E+03 0.  0.
        -11    1    3    3    0    0 -0.22489701558E+02  0.23181760596E+02  0.80866776793E+01  0.33295270785E+02  0.51100000000E-03 0.  1.
         23    2    1    0    0    0  0.22287999434E+02 -0.11113250197E+02 -0.16815166778E+02  0.94949890475E+02  0.90069265672E+02 0.  0.
         11    1    3    3    0    0  0.44777700992E+02 -0.34295010793E+02 -0.24901844457E+02  0.61654619690E+02  0.51100000000E-03 0. -1.
         22    1    1    0    0    0 -0.22287999434E+02  0.11113250197E+02  0.16815166778E+02  0.30050109525E+02  0.00000000000E+00 0. -1.
</event>
<event>
 5    1  0.6622912E-004  0.9118800E+02  0.7818608E-02  0.1130116E+00
         25   -1    0    0    0    0  0.00000000000E+00  0.00000000000E+00  0.99999998245E-14  0.12500000000E+03  0.12500000000E+03 0.  0.
        -11    1    3    3    0    0  0.21101932222E+01  0.36651296117E+02  0.50137217801E+02  0.62141057535E+02  0.51100000000E-03 0.  1.
         23    2    1    0    0    0 -0.37177778669E+01  0.16213269265E+02  0.23208718998E+02  0.96445900293E+02  0.92122066159E+02 0.  0.
         11    1    3    3    0    0 -0.58279710891E+01 -0.20438026852E+02 -0.26928498803E+02  0.34304842758E+02  0.51100000000E-03 0. -1.
         22    1    1    0    0    0  0.37177778669E+01 -0.16213269265E+02 -0.23208718998E+02  0.28554099707E+02  0.00000000000E+00 0.  1.
</event>
<event>
 5    1  0.6622912E-004  0.9118800E+02  0.7818608E-02  0.1130116E+00
         25   -1    0    0    0    0  0.00000000000E+00  0.00000000000E+00  0.99999998245E-14  0.12500000000E+03  0.12500000000E+03 0.  0.
        -11    1    3    3    0    0 -0.24173651495E+02  0.41792848688E+02  0.35022546092E+02  0.59645505808E+02  0.51100000000E-03 0. -1.
         23    2    1    0    0    0  0.10751569407E+01  0.23241841820E+02  0.19654847340E+02  0.94542616698E+02  0.89502257929E+02 0.  0.
         11    1    3    3    0    0  0.25248808436E+02 -0.18551006868E+02 -0.15367698752E+02  0.34897110890E+02  0.51100000000E-03 0.  1.
         22    1    1    0    0    0 -0.10751569407E+01 -0.23241841820E+02 -0.19654847340E+02  0.30457383302E+02  0.00000000000E+00 0. -1.
</event>
<event>
 5    1  0.6622912E-004  0.9118800E+02  0.7818608E-02  0.1130116E+00
         25   -1    0    0    0    0  0.00000000000E+00  0.00000000000E+00  0.99999998245E-14  0.12500000000E+03  0.12500000000E+03 0.  0.
        -11    1    3    3    0    0  0.16706791822E+02 -0.80930810006E+01  0.18234278825E+02  0.26021217834E+02  0.51100000000E-03 0.  1.
         23    2    1    0    0    0  0.26741902201E+02  0.11853254240E+02 -0.32393456604E+02  0.81354095265E+02  0.68655107722E+02 0.  0.
         11    1    3    3    0    0  0.10035110380E+02  0.19946335240E+02 -0.50627735429E+02  0.55332877431E+02  0.51100000000E-03 0. -1.
         22    1    1    0    0    0 -0.26741902201E+02 -0.11853254240E+02  0.32393456604E+02  0.43645904735E+02  0.00000000000E+00 0. -1.
</event>
<event>
 5    1  0.6622912E-004  0.9118800E+02  0.7818608E-02  0.1130116E+00
         25   -1    0    0    0    0  0.00000000000E+00  0.00000000000E+00  0.99999998245E-14  0.12500000000E+03  0.12500000000E+03 0.  0.
        -11    1    3    3    0    0 -0.10042533963E+02  0.38369363729E+02 -0.37231333332E+02  0.54398830349E+02  0.51100000000E-03 0.  1.
         23    2    1    0    0    0 -0.14993723476E+02 -0.69662191333E+00 -0.25365415077E+02  0.95526260710E+02  0.90865643548E+02 0.  0.
         11    1    3    3    0    0 -0.49511895121E+01 -0.39065985642E+02  0.11865918255E+02  0.41127430361E+02  0.51100000000E-03 0. -1.
         22    1    1    0    0    0  0.14993723476E+02  0.69662191333E+00  0.25365415077E+02  0.29473739290E+02  0.00000000000E+00 0.  1.
</event>
<event>
 5    1  0.6622912E-004  0.9118800E+02  0.7818608E-02  0.1130116E+00
         25   -1    0    0    0    0  0.00000000000E+00  0.00000000000E+00  0.99999998245E-14  0.12500000000E+03  0.12500000000E+03 0.  0.
        -11    1    3    3    0    0 -0.64165701403E+00  0.54863169289E+02 -0.46740590913E+01  0.55065650788E+02  0.51100000000E-03 0. -1.
         23    2    1    0    0    0  0.19546439403E+02  0.26687202495E+02 -0.10669389159E+02  0.90242181666E+02  0.83279922048E+02 0.  0.
         11    1    3    3    0    0  0.20188096417E+02 -0.28175966793E+02 -0.59953300675E+01  0.35176530877E+02  0.51100000000E-03 0.  1.
         22    1    1    0    0    0 -0.19546439403E+02 -0.26687202495E+02  0.10669389159E+02  0.34757818334E+02  0.00000000000E+00 0. -1.
</event>
<event>
 5    1  0.6622912E-004  0.9118800E+02  0.7818608E-02  0.1130116E+00
         25   -1    0    0    0    0  0.00000000000E+00  0.00000000000E+00  0.99999998245E-14  0.12500000000E+03  0.12500000000E+03 0.  0.
        -11    1    3    3    0    0  0.20747510347E+02  0.99366688844E+01  0.32310767363E+02  0.39663361708E+02  0.51100000000E-03 0.  1.
         23    2    1    0    0    0 -0.28677250874E+02  0.79096417544E+00  0.10588678128E+02  0.94420097343E+02  0.89330981947E+02 0.  0.
         11    1    3    3    0    0 -0.49424761221E+02 -0.91457047090E+01 -0.21722089235E+02  0.54756735635E+02  0.51100000000E-03 0. -1.
         22    1    1    0    0    0  0.28677250874E+02 -0.79096417544E+00 -0.10588678128E+02  0.30579902657E+02  0.00000000000E+00 0. -1.
</event>
<event>
 5    1  0.6622912E-004  0.9118800E+02  0.7818608E-02  0.1130116E+00
         25   -1    0    0    0    0  0.00000000000E+00  0.00000000000E+00  0.99999998245E-14  0.12500000000E+03  0.12500000000E+03 0.  0.
        -11    1    3    3    0    0 -0.47768100653E+01 -0.41933556451E+02  0.35757060628E+02  0.55315535395E+02  0.51100000000E-03 0. -1.
         23    2    1    0    0    0 -0.10189307808E+02 -0.24432982520E+02 -0.31709606289E+01  0.98338274255E+02  0.94654997563E+02 0.  0.
         11    1    3    3    0    0 -0.54124977427E+01  0.17500573932E+02 -0.38928021257E+02  0.43022738860E+02  0.51100000000E-03 0.  1.
         22    1    1    0    0    0  0.10189307808E+02  0.24432982520E+02  0.31709606289E+01  0.26661725745E+02  0.00000000000E+00 0. -1.
</event>
<event>
 5    1  0.6622912E-004  0.9118800E+02  0.7818608E-02  0.1130116E+00
         25   -1    0    0    0    0  0.00000000000E+00  0.00000000000E+00  0.99999998245E-14  0.12500000000E+03  0.12500000000E+03 0.  0.
        -11    1    3    3    0    0  0.41749655333E+01  0.30264025088E+02  0.24914768304E+02  0.39421913090E+02  0.51100000000E-03 0. -1.
         23    2    1    0    0    0 -0.26378302838E+02 -0.10294631449E+02 -0.14686614100E+01  0.96645965655E+02  0.92393135101E+02 0.  0.
         11    1    3    3    0    0 -0.30553268372E+02 -0.40558656537E+02 -0.26383429714E+02  0.57224052565E+02  0.51100000000E-03 0.  1.
         22    1    1    0    0    0  0.26378302838E+02  0.10294631449E+02  0.14686614100E+01  0.28354034345E+02  0.00000000000E+00 0.  1.
</event>
<event>
 5    1  0.6622912E-004  0.9118800E+02  0.7818608E-02  0.1130116E+00
         25   -1    0    0    0    0  0.00000000000E+00  0.00000000000E+00  0.99999998245E-14  0.12500000000E+03  0.12500000000E+03 0.  0.
        -11    1    3    3    0    0 -0.31098791945E+02  0.32411745112E+02  0.20101747194E+02  0.49211140224E+02  0.51100000000E-03 0. -1.
         23    2    1    0    0    0 -0.20786571580E+02  0.27593852311E+01 -0.17138038850E+02  0.97918490801E+02  0.94099004778E+02 0.  0.
         11    1    3    3    0    0  0.10312220365E+02 -0.29652359881E+02 -0.37239786044E+02  0.48707350577E+02  0.51100000000E-03 0.  1.
         22    1    1    0    0    0  0.20786571580E+02 -0.27593852311E+01  0.17138038850E+02  0.27081509199E+02  0.00000000000E+00 0. -1.
</event>
<event>
 5    1  0.6622912E-004  0.9118800E+02  0.7818608E-02  0.1130116E+00
         25   -1    0    0    0    0  0.00000000000E+00  0.00000000000E+00  0.99999998245E-14  0.12500000000E+03  0.12500000000E+03 0.  0.
        -11    1    3    3    0    0  0.21459449680E+02 -0.34790507796E+02 -0.28836098149E+02  0.50024073904E+02  0.51100000000E-03 0. -1.
         23    2    1    0    0    0  0.26328369395E+01  0.73201939588E+01 -0.27766812248E+02  0.96164034049E+02  0.91738805923E+02 0.  0.
         11    1    3    3    0    0 -0.18826612740E+02  0.42110701754E+02  0.10692859011E+01  0.46139960144E+02  0.51100000000E-03 0.  1.
         22    1    1    0    0    0 -0.26328369395E+01 -0.73201939588E+01  0.27766812248E+02  0.28835965951E+02  0.00000000000E+00 0.  1.
</event>
<event>
 5    1  0.6622912E-004  0.9118800E+02  0.7818608E-02  0.1130116E+00
         25   -1    0    0    0    0  0.00000000000E+00  0.00000000000E+00  0.99999998245E-14  0.12500000000E+03  0.12500000000E+03 0.  0.
        -11    1    3    3    0    0 -0.31898899556E+02 -0.36257701446E+02 -0.15490636398E+02  0.50716077562E+02  0.51100000000E-03 0. -1.
         23    2    1    0    0    0 -0.13894804640E+01 -0.64466340772E+01 -0.28842806231E+02  0.95412887633E+02  0.90709546953E+02 0.  0.
         11    1    3    3    0    0  0.30509419092E+02  0.29811067369E+02 -0.13352169833E+02  0.44696810071E+02  0.51100000000E-03 0.  1.
         22    1    1    0    0    0  0.13894804640E+01  0.64466340772E+01  0.28842806231E+02  0.29587112367E+02  0.00000000000E+00 0. -1.
</event>
<event>
 5    1  0.6622912E-004  0.9118800E+02  0.7818608E-02  0.1130116E+00
         25   -1    0    0    0    0  0.00000000000E+00  0.00000000000E+00  0.99999998245E-14  0.12500000000E+03  0.12500000000E+03 0.  0.
        -11    1    3    3    0    0 -0.12403538398E+02 -0.18500697616E+02  0.41938330847E+02  0.47486284036E+02  0.51100000000E-03 0.  1.
         23    2    1    0    0    0 -0.23507660769E+02 -0.21208467518E+02 -0.23753258733E+01  0.93250175082E+02  0.87678639192E+02 0.  0.
         11    1    3    3    0    0 -0.11104122371E+02 -0.27077699025E+01 -0.44313656720E+02  0.45763891046E+02  0.51100000000E-03 0. -1.
         22    1    1    0    0    0  0.23507660769E+02  0.21208467518E+02  0.23753258733E+01  0.31749824918E+02  0.00000000000E+00 0.  1.
</event>
<event>
 5    1  0.6622912E-004  0.9118800E+02  0.7818608E-02  0.1130116E+00
         25   -1    0    0    0    0  0.00000000000E+00  0.00000000000E+00  0.99999998245E-14  0.12500000000E+03  0.12500000000E+03 0.  0.
        -11    1    3    3    0    0  0.45674220841E+02  0.34027165427E+02  0.81996962519E+01  0.57543179051E+02  0.51100000000E-03 0. -1.
         23    2    1    0    0    0  0.81451381100E+01  0.27714430264E+02  0.42155171842E+01  0.95807475189E+02  0.91251678326E+02 0.  0.
         11    1    3    3    0    0 -0.37529082731E+02 -0.63127351629E+01 -0.39841790678E+01  0.38264296138E+02  0.51100000000E-03 0.  1.
         22    1    1    0    0    0 -0.81451381100E+01 -0.27714430264E+02 -0.42155171842E+01  0.29192524811E+02  0.00000000000E+00 0. -1.
</event>
<event>
 5    1  0.6622912E-004  0.9118800E+02  0.7818608E-02  0.1130116E+00
         25   -1    0    0    0    0  0.00000000000E+00  0.00000000000E+00  0.99999998245E-14  0.12500000000E+03  0.12500000000E+03 0.  0.
        -11    1    3    3    0    0  0.22099543065E+02 -0.48119743344E+02 -0.17256460067E+02  0.55692772579E+02  0.51100000000E-03 0.  1.
         23    2    1    0    0    0  0.13749079373E+02 -0.21839407949E+02  0.12554259486E+02  0.96301457277E+02  0.91925863168E+02 0.  0.
         11    1    3    3    0    0 -0.83504636924E+01  0.26280335395E+02  0.29810719553E+02  0.40608684698E+02  0.51100000000E-03 0. -1.
         22    1    1    0    0    0 -0.13749079373E+02  0.21839407949E+02 -0.12554259486E+02  0.28698542723E+02  0.00000000000E+00 0.  1.
</event>
<event>
 5    1  0.6622912E-004  0.9118800E+02  0.7818608E-02  0.1130116E+00
         25   -1    0    0    0    0  0.00000000000E+00  0.00000000000E+00  0.99999998245E-14  0.12500000000E+03  0.12500000000E+03 0.  0.
        -11    1    3    3    0    0 -0.19504151022E+02  0.28655442723E+02 -0.35167207405E+02  0.49378930544E+02  0.51100000000E-03 0.  1.
         23    2    1    0    0    0 -0.59380114056E+01 -0.14440930359E+02 -0.24735267401E+02  0.95748779470E+02  0.91171239256E+02 0.  0.
         11    1    3    3    0    0  0.13566139616E+02 -0.43096373082E+02  0.10431940005E+02  0.46369848926E+02  0.51100000000E-03 0. -1.
         22    1    1    0    0    0  0.59380114056E+01  0.14440930359E+02  0.24735267401E+02  0.29251220530E+02  0.00000000000E+00 0. -1.
</event>
<event>
 5    1  0.6622912E-004  0.9118800E+02  0.7818608E-02  0.1130116E+00
         25   -1    0    0    0    0  0.00000000000E+00  0.00000000000E+00  0.99999998245E-14  0.12500000000E+03  0.12500000000E+03 0.  0.
        -11    1    3    3    0    0 -0.27823978737E+02  0.18289058868E+02  0.38465765948E+02  0.50875127688E+02  0.51100000000E-03 0. -1.
         23    2    1    0    0    0 -0.28352750738E+02  0.21463141111E+01 -0.39790006963E+01  0.96289068542E+02  0.91909015528E+02 0.  0.
         11    1    3    3    0    0 -0.52877200119E+00 -0.16142744757E+02 -0.42444766644E+02  0.45413940854E+02  0.51100000000E-03 0.  1.
         22    1    1    0    0    0  0.28352750738E+02 -0.21463141111E+01  0.39790006963E+01  0.28710931458E+02  0.00000000000E+00 0. -1.
</event>
<event>
 5    1  0.6622912E-004  0.9118800E+02  0.7818608E-02  0.1130116E+00
         25   -1    0    0    0    0  0.00000000000E+00  0.00000000000E+00  0.99999998245E-14  0.12500000000E+03  0.12500000000E+03 0.  0.
        -11    1    3    3    0    0  0.17972304953E+02  0.23004636238E+02 -0.18465112352E+02  0.34542400151E+02  0.51100000000E-03 0.  1.
         23    2    1    0    0    0 -0.16045288042E+02 -0.24625076867E+02 -0.11248333596E+01  0.95587231868E+02  0.90949480301E+02 0.  0.
         11    1    3    3    0    0 -0.34017592995E+02 -0.47629713105E+02  0.17340278992E+02  0.61044831718E+02  0.51100000000E-03 0. -1.
         22    1    1    0    0    0  0.16045288042E+02  0.24625076867E+02  0.11248333596E+01  0.29412768132E+02  0.00000000000E+00 0. -1.
</event>
<event>
 5    1  0.6622912E-004  0.9118800E+02  0.7818608E-02  0.1130116E+00
         25   -1    0    0    0    0  0.00000000000E+00  0.00000000000E+00  0.99999998245E-14  0.12500000000E+03  0.12500000000E+03 0.  0.
        -11    1    3    3    0    0 -0.44586617433E+01 -0.30928171050E+02  0.25858631174E+02  0.40559835249E+02  0.51100000000E-03 0.  1.
         23    2    1    0    0    0 -0.72044167961E+01 -0.95368471591E+01 -0.25814359109E+02  0.96552922623E+02  0.92267169978E+02 0.  0.
         11    1    3    3    0    0 -0.27457550527E+01  0.21391323890E+02 -0.51672990283E+02  0.55993087373E+02  0.51100000000E-03 0. -1.
         22    1    1    0    0    0  0.72044167961E+01  0.95368471591E+01  0.25814359109E+02  0.28447077377E+02  0.00000000000E+00 0. -1.
</event>
<event>
 5    1  0.6622912E-004  0.9118800E+02  0.7818608E-02  0.1130116E+00
         25   -1    0    0    0    0  0.00000000000E+00  0.00000000000E+00  0.99999998245E-14  0.12500000000E+03  0.12500000000E+03 0.  0.
        -11    1    3    3    0    0 -0.21709041922E+02 -0.53135588480E+02 -0.21928047499E+02  0.61445199419E+02  0.51100000000E-03 0. -1.
         23    2    1    0    0    0 -0.28018634060E+01 -0.24866763410E+02 -0.13843848316E+02  0.96401774579E+02  0.92062172713E+02 0.  0.
         11    1    3    3    0    0  0.18907178516E+02  0.28268825069E+02  0.80841991826E+01  0.34956575160E+02  0.51100000000E-03 0.  1.
         22    1    1    0    0    0  0.28018634060E+01  0.24866763410E+02  0.13843848316E+02  0.28598225421E+02  0.00000000000E+00 0. -1.
</event>
<event>
 5    1  0.6622912E-004  0.9118800E+02  0.7818608E-02  0.1130116E+00
         25   -1    0    0    0    0  0.00000000000E+00  0.00000000000E+00  0.99999998245E-14  0.12500000000E+03  0.12500000000E+03 0.  0.
        -11    1    3    3    0    0  0.15846258379E+02  0.12575944257E+02 -0.57145787869E+02  0.60620948112E+02  0.51100000000E-03 0. -1.
         23    2    1    0    0    0  0.78403793147E+01  0.16215638890E+02 -0.23532752606E+02  0.95365409778E+02  0.90644097681E+02 0.  0.
         11    1    3    3    0    0 -0.80058790644E+01  0.36396946329E+01  0.33613035263E+02  0.34744461666E+02  0.51100000000E-03 0.  1.
         22    1    1    0    0    0 -0.78403793147E+01 -0.16215638890E+02  0.23532752606E+02  0.29634590222E+02  0.00000000000E+00 0. -1.
</event>
<event>
 5    1  0.6622912E-004  0.9118800E+02  0.7818608E-02  0.1130116E+00
         25   -1    0    0    0    0  0.00000000000E+00  0.00000000000E+00  0.99999998245E-14  0.12500000000E+03  0.12500000000E+03 0.  0.
        -11    1    3    3    0    0 -0.13250881518E+02  0.55758390728E+02  0.93260308559E+01  0.58065125931E+02  0.51100000000E-03 0.  1.
         23    2    1    0    0    0  0.34601453698E+01  0.22279333439E+02  0.17612690804E+02  0.96389718949E+02  0.92045802388E+02 0.  0.
         11    1    3    3    0    0  0.16711026888E+02 -0.33479057289E+02  0.82866599485E+01  0.38324593018E+02  0.51100000000E-03 0. -1.
         22    1    1    0    0    0 -0.34601453698E+01 -0.22279333439E+02 -0.17612690804E+02  0.28610281051E+02  0.00000000000E+00 0.  1.
</event>
<event>
 5    1  0.6622912E-004  0.9118800E+02  0.7818608E-02  0.1130116E+00
         25   -1    0    0    0    0  0.00000000000E+00  0.00000000000E+00  0.99999998245E-14  0.12500000000E+03  0.12500000000E+03 0.  0.
        -11    1    3    3    0    0 -0.47454245016E+02  0.12542880500E+02 -0.37291546373E+02  0.61643236875E+02  0.51100000000E-03 0.  1.
         23    2    1    0    0    0 -0.24590719076E+02  0.99957621698E+01 -0.11888972998E+02  0.95914498372E+02  0.91398165151E+02 0.  0.
         11    1    3    3    0    0  0.22863525940E+02 -0.25471183300E+01  0.25402573375E+02  0.34271261496E+02  0.51100000000E-03 0. -1.
         22    1    1    0    0    0  0.24590719076E+02 -0.99957621698E+01  0.11888972998E+02  0.29085501628E+02  0.00000000000E+00 0.  1.
</event>
<event>
 5    1  0.6622912E-004  0.9118800E+02  0.7818608E-02  0.1130116E+00
         25   -1    0    0    0    0  0.00000000000E+00  0.00000000000E+00  0.99999998245E-14  0.12500000000E+03  0.12500000000E+03 0.  0.
        -11    1    3    3    0    0  0.21541225414E+02 -0.36415969578E+02 -0.26461197220E+02  0.49903328458E+02  0.51100000000E-03 0.  1.
         23    2    1    0    0    0 -0.92367976741E+01 -0.35362083189E+01 -0.28343867833E+02  0.94980039236E+02  0.90111097035E+02 0.  0.
         11    1    3    3    0    0 -0.30778023088E+02  0.32879761259E+02 -0.18826706133E+01  0.45076710778E+02  0.51100000000E-03 0. -1.
         22    1    1    0    0    0  0.92367976741E+01  0.35362083189E+01  0.28343867833E+02  0.30019960764E+02  0.00000000000E+00 0. -1.
</event>
<event>
 5    1  0.6622912E-004  0.9118800E+02  0.7818608E-02  0.1130116E+00
         25   -1    0    0    0    0  0.00000000000E+00  0.00000000000E+00  0.99999998245E-14  0.12500000000E+03  0.12500000000E+03 0.  0.
        -11    1    3    3    0    0 -0.10753570005E+02  0.38022827591E+02 -0.45790192557E+02  0.60482364542E+02  0.51100000000E-03 0. -1.
         23    2    1    0    0    0 -0.76935591357E+01  0.25227288611E+02 -0.13454504092E+02  0.95392051351E+02  0.90680829495E+02 0.  0.
         11    1    3    3    0    0  0.30600108694E+01 -0.12795538981E+02  0.32335688465E+02  0.34909686809E+02  0.51100000000E-03 0.  1.
         22    1    1    0    0    0  0.76935591357E+01 -0.25227288611E+02  0.13454504092E+02  0.29607948649E+02  0.00000000000E+00 0. -1.
</event>
<event>
 5    1  0.6622912E-004  0.9118800E+02  0.7818608E-02  0.1130116E+00
         25   -1    0    0    0    0  0.00000000000E+00  0.00000000000E+00  0.99999998245E-14  0.12500000000E+03  0.12500000000E+03 0.  0.
        -11    1    3    3    0    0  0.11558138744E+02 -0.49668927039E+01  0.44642141083E+02  0.46380829608E+02  0.51100000000E-03 0.  1.
         23    2    1    0    0    0 -0.25532223805E+02  0.29067204008E+01  0.11087248346E+02  0.97013028892E+02  0.92888412748E+02 0.  0.
         11    1    3    3    0    0 -0.37090362550E+02  0.78736131047E+01 -0.33554892738E+02  0.50632199284E+02  0.51100000000E-03 0. -1.
         22    1    1    0    0    0  0.25532223805E+02 -0.29067204008E+01 -0.11087248346E+02  0.27986971108E+02  0.00000000000E+00 0. -1.
</event>
<event>
 5    1  0.6622912E-004  0.9118800E+02  0.7818608E-02  0.1130116E+00
         25   -1    0    0    0    0  0.00000000000E+00  0.00000000000E+00  0.99999998245E-14  0.12500000000E+03  0.12500000000E+03 0.  0.
        -11    1    3    3    0    0 -0.45268060808E+02 -0.55595894505E+01 -0.27288173903E+02  0.53148384730E+02  0.51100000000E-03 0.  1.
         23    2    1    0    0    0 -0.22769161485E+02 -0.53427926320E+01 -0.39758342643E+02  0.78872936820E+02  0.63978388578E+02 0.  0.
         11    1    3    3    0    0  0.22498899323E+02  0.21679681844E+00 -0.12470168740E+02  0.25724552091E+02  0.51100000000E-03 0. -1.
         22    1    1    0    0    0  0.22769161485E+02  0.53427926320E+01  0.39758342643E+02  0.46127063180E+02  0.00000000000E+00 0.  1.
</event>
<event>
 5    1  0.6622912E-004  0.9118800E+02  0.7818608E-02  0.1130116E+00
         25   -1    0    0    0    0  0.00000000000E+00  0.00000000000E+00  0.99999998245E-14  0.12500000000E+03  0.12500000000E+03 0.  0.
        -11    1    3    3    0    0 -0.29185206758E+02 -0.12847344583E+02  0.20567432803E+02  0.37945353453E+02  0.51100000000E-03 0. -1.
         23    2    1    0    0    0  0.18556934293E+02  0.15853025489E+02 -0.63036565665E+01  0.99792574236E+02  0.96556426814E+02 0.  0.
         11    1    3    3    0    0  0.47742141051E+02  0.28700370072E+02 -0.26871089369E+02  0.61847220783E+02  0.51100000000E-03 0.  1.
         22    1    1    0    0    0 -0.18556934293E+02 -0.15853025489E+02  0.63036565665E+01  0.25207425764E+02  0.00000000000E+00 0.  1.
</event>
<event>
 5    1  0.6622912E-004  0.9118800E+02  0.7818608E-02  0.1130116E+00
         25   -1    0    0    0    0  0.00000000000E+00  0.00000000000E+00  0.99999998245E-14  0.12500000000E+03  0.12500000000E+03 0.  0.
        -11    1    3    3    0    0 -0.81408794186E+01  0.38616692100E+02  0.23939085280E+02  0.46158451346E+02  0.51100000000E-03 0. -1.
         23    2    1    0    0    0  0.24418553659E+02  0.15112615196E+02 -0.52557379203E+01  0.95806170482E+02  0.91249891071E+02 0.  0.
         11    1    3    3    0    0  0.32559433077E+02 -0.23504076903E+02 -0.29194823200E+02  0.49647719135E+02  0.51100000000E-03 0.  1.
         22    1    1    0    0    0 -0.24418553659E+02 -0.15112615196E+02  0.52557379203E+01  0.29193829518E+02  0.00000000000E+00 0.  1.
</event>
<event>
 5    1  0.6622912E-004  0.9118800E+02  0.7818608E-02  0.1130116E+00
         25   -1    0    0    0    0  0.00000000000E+00  0.00000000000E+00  0.99999998245E-14  0.12500000000E+03  0.12500000000E+03 0.  0.
        -11    1    3    3    0    0  0.84622642103E+01  0.15327952809E+02 -0.29913606537E+02  0.34660927702E+02  0.51100000000E-03 0. -1.
         23    2    1    0    0    0 -0.13052394598E+02  0.53707211449E+00  0.25740269900E+02  0.96134537147E+02  0.91698605696E+02 0.  0.
         11    1    3    3    0    0 -0.21514658808E+02 -0.14790880695E+02  0.55653876437E+02  0.61473609444E+02  0.51100000000E-03 0.  1.
         22    1    1    0    0    0  0.13052394598E+02 -0.53707211449E+00 -0.25740269900E+02  0.28865462853E+02  0.00000000000E+00 0.  1.
</event>
<event>
 5    1  0.6622912E-004  0.9118800E+02  0.7818608E-02  0.1130116E+00
         25   -1    0    0    0    0  0.00000000000E+00  0.00000000000E+00  0.99999998245E-14  0.12500000000E+03  0.12500000000E+03 0.  0.
        -11    1    3    3    0    0 -0.23290238517E+02  0.26252899964E+02  0.27896648708E+02  0.44831606887E+02  0.51100000000E-03 0.  1.
         23    2    1    0    0    0 -0.91925290334E+00 -0.15528703840E+02  0.28837177887E+02  0.92234644861E+02  0.86218682519E+02 0.  0.
         11    1    3    3    0    0  0.22370985613E+02 -0.41781603804E+02  0.94052917906E+00  0.47403037974E+02  0.51100000000E-03 0. -1.
         22    1    1    0    0    0  0.91925290334E+00  0.15528703840E+02 -0.28837177887E+02  0.32765355139E+02  0.00000000000E+00 0. -1.
</event>
<event>
 5    1  0.6622912E-004  0.9118800E+02  0.7818608E-02  0.1130116E+00
         25   -1    0    0    0    0  0.00000000000E+00  0.00000000000E+00  0.99999998245E-14  0.12500000000E+03  0.12500000000E+03 0.  0.
        -11    1    3    3    0    0  0.26549914019E+02 -0.32315436611E+02 -0.21705810749E+02  0.47120352273E+02  0.51100000000E-03 0. -1.
         23    2    1    0    0    0  0.24321897044E+02  0.35043405868E+01  0.13132712774E+02  0.97137781432E+02  0.93056140893E+02 0.  0.
         11    1    3    3    0    0 -0.22280169754E+01  0.35819777198E+02  0.34838523522E+02  0.50017429159E+02  0.51100000000E-03 0.  1.
         22    1    1    0    0    0 -0.24321897044E+02 -0.35043405868E+01 -0.13132712774E+02  0.27862218568E+02  0.00000000000E+00 0.  1.
</event>
<event>
 5    1  0.6622912E-004  0.9118800E+02  0.7818608E-02  0.1130116E+00
         25   -1    0    0    0    0  0.00000000000E+00  0.00000000000E+00  0.99999998245E-14  0.12500000000E+03  0.12500000000E+03 0.  0.
        -11    1    3    3    0    0 -0.44855282706E+02 -0.75931010855E+01 -0.46556786557E-01  0.45493447205E+02  0.51100000000E-03 0. -1.
         23    2    1    0    0    0  0.90863789646E+00 -0.26897742286E+02  0.10218935549E+02  0.96212141332E+02  0.91804331777E+02 0.  0.
         11    1    3    3    0    0  0.45763920603E+02 -0.19304641201E+02  0.10265492336E+02  0.50718694127E+02  0.51100000000E-03 0.  1.
         22    1    1    0    0    0 -0.90863789646E+00  0.26897742286E+02 -0.10218935549E+02  0.28787858668E+02  0.00000000000E+00 0. -1.
</event>
<event>
 5    1  0.6622912E-004  0.9118800E+02  0.7818608E-02  0.1130116E+00
         25   -1    0    0    0    0  0.00000000000E+00  0.00000000000E+00  0.99999998245E-14  0.12500000000E+03  0.12500000000E+03 0.  0.
        -11    1    3    3    0    0 -0.32549533930E+02  0.19592526066E+02  0.11491748568E+02  0.39691302852E+02  0.51100000000E-03 0. -1.
         23    2    1    0    0    0  0.43582382445E+01 -0.21633797770E+02  0.19437020103E+02  0.95592293577E+02  0.90956436794E+02 0.  0.
         11    1    3    3    0    0  0.36907772175E+02 -0.41226323836E+02  0.79452715357E+01  0.55900990725E+02  0.51100000000E-03 0.  1.
         22    1    1    0    0    0 -0.43582382445E+01  0.21633797770E+02 -0.19437020103E+02  0.29407706423E+02  0.00000000000E+00 0.  1.
</event>
<event>
 5    1  0.6622912E-004  0.9118800E+02  0.7818608E-02  0.1130116E+00
         25   -1    0    0    0    0  0.00000000000E+00  0.00000000000E+00  0.99999998245E-14  0.12500000000E+03  0.12500000000E+03 0.  0.
        -11    1    3    3    0    0 -0.21844582980E+02  0.14992783931E+02 -0.56560296521E+02  0.62458278221E+02  0.51100000000E-03 0.  1.
         23    2    1    0    0    0 -0.11622867874E+02  0.60214758704E+01 -0.27550451002E+02  0.94497924993E+02  0.89439819143E+02 0.  0.
         11    1    3    3    0    0  0.10221715105E+02 -0.89713080604E+01  0.29009845519E+02  0.32039646772E+02  0.51100000000E-03 0. -1.
         22    1    1    0    0    0  0.11622867874E+02 -0.60214758704E+01  0.27550451002E+02  0.30502075007E+02  0.00000000000E+00 0.  1.
</event>
<event>
 5    1  0.6622912E-004  0.9118800E+02  0.7818608E-02  0.1130116E+00
         25   -1    0    0    0    0  0.00000000000E+00  0.00000000000E+00  0.99999998245E-14  0.12500000000E+03  0.12500000000E+03 0.  0.
        -11    1    3    3    0    0 -0.82471192377E-02 -0.41743219532E+02  0.26068959405E+02  0.49214703998E+02  0.51100000000E-03 0.  1.
         23    2    1    0    0    0  0.27036859662E+02 -0.94378915661E+01  0.66757924451E+01  0.95595378214E+02  0.90960675864E+02 0.  0.
         11    1    3    3    0    0  0.27045106781E+02  0.32305327966E+02 -0.19393166960E+02  0.46380674216E+02  0.51100000000E-03 0. -1.
         22    1    1    0    0    0 -0.27036859662E+02  0.94378915661E+01 -0.66757924451E+01  0.29404621786E+02  0.00000000000E+00 0. -1.
</event>
<event>
 5    1  0.6622912E-004  0.9118800E+02  0.7818608E-02  0.1130116E+00
         25   -1    0    0    0    0  0.00000000000E+00  0.00000000000E+00  0.99999998245E-14  0.12500000000E+03  0.12500000000E+03 0.  0.
        -11    1    3    3    0    0 -0.13409811772E+02  0.27856165453E+02  0.29656227357E+02  0.42840177717E+02  0.51100000000E-03 0.  1.
         23    2    1    0    0    0 -0.17351633848E+01  0.17660957611E+02 -0.21978776715E+02  0.96751339119E+02  0.92535586558E+02 0.  0.
         11    1    3    3    0    0  0.11674648387E+02 -0.10195207842E+02 -0.51635004072E+02  0.53911161402E+02  0.51100000000E-03 0. -1.
         22    1    1    0    0    0  0.17351633848E+01 -0.17660957611E+02  0.21978776715E+02  0.28248660881E+02  0.00000000000E+00 0. -1.
</event>
<event>
 5    1  0.6622912E-004  0.9118800E+02  0.7818608E-02  0.1130116E+00
         25   -1    0    0    0    0  0.00000000000E+00  0.00000000000E+00  0.99999998245E-14  0.12500000000E+03  0.12500000000E+03 0.  0.
        -11    1    3    3    0    0 -0.25806919339E+02 -0.39521697829E+01 -0.26553688684E+02  0.37238623964E+02  0.51100000000E-03 0.  1.
         23    2    1    0    0    0 -0.74348873453E+01 -0.27942926592E+01  0.28565639663E+02  0.95350693251E+02  0.90623801028E+02 0.  0.
         11    1    3    3    0    0  0.18372031994E+02  0.11578771237E+01  0.55119328348E+02  0.58112069287E+02  0.51100000000E-03 0. -1.
         22    1    1    0    0    0  0.74348873453E+01  0.27942926592E+01 -0.28565639663E+02  0.29649306749E+02  0.00000000000E+00 0.  1.
</event>
<event>
 5    1  0.6622912E-004  0.9118800E+02  0.7818608E-02  0.1130116E+00
         25   -1    0    0    0    0  0.00000000000E+00  0.00000000000E+00  0.99999998245E-14  0.12500000000E+03  0.12500000000E+03 0.  0.
        -11    1    3    3    0    0 -0.87976183955E+00 -0.48909647536E+02  0.11325404355E+02  0.50211476647E+02  0.51100000000E-03 0. -1.
         23    2    1    0    0    0  0.84379187809E+01 -0.20814514559E+02 -0.21147809459E+02  0.94150813064E+02  0.88953376923E+02 0.  0.
         11    1    3    3    0    0  0.93176806204E+01  0.28095132976E+02 -0.32473213814E+02  0.43939336417E+02  0.51100000000E-03 0.  1.
         22    1    1    0    0    0 -0.84379187809E+01  0.20814514559E+02  0.21147809459E+02  0.30849186936E+02  0.00000000000E+00 0.  1.
</event>
<event>
 5    1  0.6622912E-004  0.9118800E+02  0.7818608E-02  0.1130116E+00
         25   -1    0    0    0    0  0.00000000000E+00  0.00000000000E+00  0.99999998245E-14  0.12500000000E+03  0.12500000000E+03 0.  0.
        -11    1    3    3    0    0  0.19413754246E+02 -0.33103526626E+02 -0.13425258475E+01  0.38399735740E+02  0.51100000000E-03 0. -1.
         23    2    1    0    0    0  0.92450397774E+01  0.16008294206E+02 -0.25044467116E+02  0.93871852336E+02  0.88560505215E+02 0.  0.
         11    1    3    3    0    0 -0.10168714469E+02  0.49111820832E+02 -0.23701941269E+02  0.55472116595E+02  0.51100000000E-03 0.  1.
         22    1    1    0    0    0 -0.92450397774E+01 -0.16008294206E+02  0.25044467116E+02  0.31128147664E+02  0.00000000000E+00 0.  1.
</event>
<event>
 5    1  0.6622912E-004  0.9118800E+02  0.7818608E-02  0.1130116E+00
         25   -1    0    0    0    0  0.00000000000E+00  0.00000000000E+00  0.99999998245E-14  0.12500000000E+03  0.12500000000E+03 0.  0.
        -11    1    3    3    0    0 -0.30607467557E+02  0.32404247944E+02  0.94837069828E+01  0.45571844964E+02  0.51100000000E-03 0. -1.
         23    2    1    0    0    0 -0.17180415313E+02 -0.91362444548E+00 -0.24527319164E+02  0.95040180820E+02  0.90194485446E+02 0.  0.
         11    1    3    3    0    0  0.13427052244E+02 -0.33317872389E+02 -0.34011026146E+02  0.49468335855E+02  0.51100000000E-03 0.  1.
         22    1    1    0    0    0  0.17180415313E+02  0.91362444548E+00  0.24527319164E+02  0.29959819180E+02  0.00000000000E+00 0.  1.
</event>
<event>
 5    1  0.6622912E-004  0.9118800E+02  0.7818608E-02  0.1130116E+00
         25   -1    0    0    0    0  0.00000000000E+00  0.00000000000E+00  0.99999998245E-14  0.12500000000E+03  0.12500000000E+03 0.  0.
        -11    1    3    3    0    0 -0.37393250495E+02  0.30897700101E+02 -0.22686577047E+02  0.53550012441E+02  0.51100000000E-03 0. -1.
         23    2    1    0    0    0 -0.25745394333E+01  0.90886690366E+01 -0.28436654197E+02  0.95035429920E+02  0.90187900963E+02 0.  0.
         11    1    3    3    0    0  0.34818711062E+02 -0.21809031064E+02 -0.57500771500E+01  0.41485417479E+02  0.51100000000E-03 0.  1.
         22    1    1    0    0    0  0.25745394333E+01 -0.90886690366E+01  0.28436654197E+02  0.29964570080E+02  0.00000000000E+00 0. -1.
</event>
<event>
 5    1  0.6622912E-004  0.9118800E+02  0.7818608E-02  0.1130116E+00
         25   -1    0    0    0    0  0.00000000000E+00  0.00000000000E+00  0.99999998245E-14  0.12500000000E+03  0.12500000000E+03 0.  0.
        -11    1    3    3    0    0  0.47226429634E+02  0.23191260475E+02  0.20037253148E+02  0.56299748955E+02  0.51100000000E-03 0.  1.
         23    2    1    0    0    0  0.22040387707E+02  0.23120865628E+02 -0.59703744071E+01  0.92503869642E+02  0.86608125545E+02 0.  0.
         11    1    3    3    0    0 -0.25186041927E+02 -0.70394846710E-01 -0.26007627555E+02  0.36204120687E+02  0.51100000000E-03 0. -1.
         22    1    1    0    0    0 -0.22040387707E+02 -0.23120865628E+02  0.59703744071E+01  0.32496130358E+02  0.00000000000E+00 0.  1.
</event>
<event>
 5    1  0.6622912E-004  0.9118800E+02  0.7818608E-02  0.1130116E+00
         25   -1    0    0    0    0  0.00000000000E+00  0.00000000000E+00  0.99999998245E-14  0.12500000000E+03  0.12500000000E+03 0.  0.
        -11    1    3    3    0    0 -0.53588187786E+01  0.36018887927E+02 -0.14475193569E+02  0.39186840334E+02  0.51100000000E-03 0. -1.
         23    2    1    0    0    0 -0.17421594315E+02 -0.14029518253E+02 -0.24703110401E+02  0.91674589360E+02  0.85402853230E+02 0.  0.
         11    1    3    3    0    0 -0.12062775536E+02 -0.50048406180E+02 -0.10227916833E+02  0.52487749026E+02  0.51100000000E-03 0.  1.
         22    1    1    0    0    0  0.17421594315E+02  0.14029518253E+02  0.24703110401E+02  0.33325410640E+02  0.00000000000E+00 0. -1.
</event>
<event>
 5    1  0.6622912E-004  0.9118800E+02  0.7818608E-02  0.1130116E+00
         25   -1    0    0    0    0  0.00000000000E+00  0.00000000000E+00  0.99999998245E-14  0.12500000000E+03  0.12500000000E+03 0.  0.
        -11    1    3    3    0    0  0.20917539928E+02  0.53407045777E+02  0.24668517422E+02  0.62437102490E+02  0.51100000000E-03 0.  1.
         23    2    1    0    0    0  0.81683229525E+01  0.25264150881E+02  0.12654956602E+02  0.95586623006E+02  0.90948643484E+02 0.  0.
         11    1    3    3    0    0 -0.12749216976E+02 -0.28142894896E+02 -0.12013560820E+02  0.33149520517E+02  0.51100000000E-03 0. -1.
         22    1    1    0    0    0 -0.81683229525E+01 -0.25264150881E+02 -0.12654956602E+02  0.29413376994E+02  0.00000000000E+00 0.  1.
</event>
<event>
 5    1  0.6622912E-004  0.9118800E+02  0.7818608E-02  0.1130116E+00
         25   -1    0    0    0    0  0.00000000000E+00  0.00000000000E+00  0.99999998245E-14  0.12500000000E+03  0.12500000000E+03 0.  0.
        -11    1    3    3    0    0  0.35703221232E+02  0.22218748634E+02 -0.21454307666E+02  0.47208898683E+02  0.51100000000E-03 0.  1.
         23    2    1    0    0    0  0.13420993072E+01 -0.14038426007E+02 -0.23930884846E+02  0.97222925193E+02  0.93170442192E+02 0.  0.
         11    1    3    3    0    0 -0.34361121925E+02 -0.36257174641E+02 -0.24765771806E+01  0.50014026510E+02  0.51100000000E-03 0. -1.
         22    1    1    0    0    0 -0.13420993072E+01  0.14038426007E+02  0.23930884846E+02  0.27777074807E+02  0.00000000000E+00 0. -1.
</event>
<event>
 5    1  0.6622912E-004  0.9118800E+02  0.7818608E-02  0.1130116E+00
         25   -1    0    0    0    0  0.00000000000E+00  0.00000000000E+00  0.99999998245E-14  0.12500000000E+03  0.12500000000E+03 0.  0.
        -11    1    3    3    0    0 -0.85151312927E+01 -0.79804426666E-01 -0.39958514157E+02  0.40855803548E+02  0.51100000000E-03 0.  1.
         23    2    1    0    0    0  0.43028065036E+01  0.29023842323E+02  0.42903394268E+01  0.95346929680E+02  0.90618609678E+02 0.  0.
         11    1    3    3    0    0  0.12817937796E+02  0.29103646750E+02  0.44248853583E+02  0.54491126132E+02  0.51100000000E-03 0. -1.
         22    1    1    0    0    0 -0.43028065036E+01 -0.29023842323E+02 -0.42903394268E+01  0.29653070320E+02  0.00000000000E+00 0. -1.
</event>
<event>
 5    1  0.6622912E-004  0.9118800E+02  0.7818608E-02  0.1130116E+00
         25   -1    0    0    0    0  0.00000000000E+00  0.00000000000E+00  0.99999998245E-14  0.12500000000E+03  0.12500000000E+03 0.  0.
        -11    1    3    3    0    0 -0.23634842165E+02  0.22189461904E+02 -0.38158547241E+02  0.50070477445E+02  0.51100000000E-03 0. -1.
         23    2    1    0    0    0  0.16727852411E+02  0.11587505733E+02 -0.22549965027E+02  0.94625796173E+02  0.89618352157E+02 0.  0.
         11    1    3    3    0    0  0.40362694575E+02 -0.10601956171E+02  0.15608582214E+02  0.44555318729E+02  0.51100000000E-03 0.  1.
         22    1    1    0    0    0 -0.16727852411E+02 -0.11587505733E+02  0.22549965027E+02  0.30374203827E+02  0.00000000000E+00 0. -1.
</event>
<event>
 5    1  0.6622912E-004  0.9118800E+02  0.7818608E-02  0.1130116E+00
         25   -1    0    0    0    0  0.00000000000E+00  0.00000000000E+00  0.99999998245E-14  0.12500000000E+03  0.12500000000E+03 0.  0.
        -11    1    3    3    0    0  0.33168989758E+01 -0.29568845203E+02  0.79646398080E+01  0.30801849181E+02  0.51100000000E-03 0.  1.
         23    2    1    0    0    0 -0.18574036827E+02  0.15894463498E+02  0.30371333554E+02  0.86012223508E+02  0.76668480336E+02 0.  0.
         11    1    3    3    0    0 -0.21890935803E+02  0.45463308701E+02  0.22406693746E+02  0.55210374327E+02  0.51100000000E-03 0. -1.
         22    1    1    0    0    0  0.18574036827E+02 -0.15894463498E+02 -0.30371333554E+02  0.38987776492E+02  0.00000000000E+00 0. -1.
</event>
<event>
 4    1  0.6622912E-004  0.9118800E+02  0.7818608E-02  0.1130116E+00
         25   -1    0    0    0    0  0.00000000000E+00  0.00000000000E+00  0.99999998245E-14  0.12500000000E+03  0.12500000000E+03 0.  0.
        -11    1    1    0    0    0  0.22127290815E+02  0.25749841944E+02  0.26134219119E+02  0.42844705253E+02  0.51100000000E-03 0.  1.
         11    1    1    0    0    0 -0.12288150199E+02  0.20328877876E+02  0.67530847475E+01  0.24695466485E+02  0.51100000000E-03 0. -1.
         22    1    1    0    0    0 -0.98391406156E+01 -0.46078719820E+02 -0.32887303867E+02  0.57459828263E+02  0.00000000000E+00 0.  1.
</event>
<event>
 5    1  0.6622912E-004  0.9118800E+02  0.7818608E-02  0.1130116E+00
         25   -1    0    0    0    0  0.00000000000E+00  0.00000000000E+00  0.99999998245E-14  0.12500000000E+03  0.12500000000E+03 0.  0.
        -11    1    3    3    0    0 -0.37239257855E+02 -0.14813760126E+02  0.21558964461E+02  0.45508227427E+02  0.51100000000E-03 0. -1.
         23    2    1    0    0    0 -0.19019082508E+02  0.24211796919E+02 -0.11345807428E+01  0.94190522839E+02  0.89009160819E+02 0.  0.
         11    1    3    3    0    0  0.18220175347E+02  0.39025557046E+02 -0.22693545204E+02  0.48682295412E+02  0.51100000000E-03 0.  1.
         22    1    1    0    0    0  0.19019082508E+02 -0.24211796919E+02  0.11345807428E+01  0.30809477161E+02  0.00000000000E+00 0. -1.
</event>
<event>
 5    1  0.6622912E-004  0.9118800E+02  0.7818608E-02  0.1130116E+00
         25   -1    0    0    0    0  0.00000000000E+00  0.00000000000E+00  0.99999998245E-14  0.12500000000E+03  0.12500000000E+03 0.  0.
        -11    1    3    3    0    0 -0.26350660429E+02 -0.45972406994E+01 -0.10128637594E+02  0.28602119272E+02  0.51100000000E-03 0.  1.
         23    2    1    0    0    0  0.23645021745E+02  0.15719667315E+02  0.19868805002E+02  0.90345066642E+02  0.83434205579E+02 0.  0.
         11    1    3    3    0    0  0.49995682174E+02  0.20316908014E+02  0.29997442596E+02  0.61742947370E+02  0.51100000000E-03 0. -1.
         22    1    1    0    0    0 -0.23645021745E+02 -0.15719667315E+02 -0.19868805002E+02  0.34654933358E+02  0.00000000000E+00 0. -1.
</event>
<event>
 5    1  0.6622912E-004  0.9118800E+02  0.7818608E-02  0.1130116E+00
         25   -1    0    0    0    0  0.00000000000E+00  0.00000000000E+00  0.99999998245E-14  0.12500000000E+03  0.12500000000E+03 0.  0.
        -11    1    3    3    0    0  0.11810699334E+02 -0.38100303824E+02 -0.16363169421E+02  0.43114720038E+02  0.51100000000E-03 0.  1.
         23    2    1    0    0    0  0.32684548559E+02  0.50095746970E-01  0.56085810554E+01  0.91837696016E+02  0.85641251766E+02 0.  0.
         11    1    3    3    0    0  0.20873849225E+02  0.38150399571E+02  0.21971750476E+02  0.48722975978E+02  0.51100000000E-03 0. -1.
         22    1    1    0    0    0 -0.32684548559E+02 -0.50095746970E-01 -0.56085810554E+01  0.33162303984E+02  0.00000000000E+00 0.  1.
</event>
<event>
 5    1  0.6622912E-004  0.9118800E+02  0.7818608E-02  0.1130116E+00
         25   -1    0    0    0    0  0.00000000000E+00  0.00000000000E+00  0.99999998245E-14  0.12500000000E+03  0.12500000000E+03 0.  0.
        -11    1    3    3    0    0  0.26288806463E+02  0.22167179236E+02  0.13173392143E+02  0.36824223567E+02  0.51100000000E-03 0. -1.
         23    2    1    0    0    0 -0.28395025370E+02  0.62747991835E+00  0.49517822088E+01  0.96169610757E+02  0.91746404231E+02 0.  0.
         11    1    3    3    0    0 -0.54683831833E+02 -0.21539699317E+02 -0.82216099342E+01  0.59345387191E+02  0.51100000000E-03 0.  1.
         22    1    1    0    0    0  0.28395025370E+02 -0.62747991835E+00 -0.49517822088E+01  0.28830389243E+02  0.00000000000E+00 0.  1.
</event>
<event>
 5    1  0.6622912E-004  0.9118800E+02  0.7818608E-02  0.1130116E+00
         25   -1    0    0    0    0  0.00000000000E+00  0.00000000000E+00  0.99999998245E-14  0.12500000000E+03  0.12500000000E+03 0.  0.
        -11    1    3    3    0    0 -0.30782394752E+02 -0.13570183133E+02 -0.99558407178E+01  0.35083107924E+02  0.51100000000E-03 0.  1.
         23    2    1    0    0    0  0.15454712052E+02  0.20694289224E+02  0.11795351649E+02  0.96605774325E+02  0.92338743664E+02 0.  0.
         11    1    3    3    0    0  0.46237106804E+02  0.34264472357E+02  0.21751192367E+02  0.61522666402E+02  0.51100000000E-03 0. -1.
         22    1    1    0    0    0 -0.15454712052E+02 -0.20694289224E+02 -0.11795351649E+02  0.28394225675E+02  0.00000000000E+00 0. -1.
</event>
<event>
 5    1  0.6622912E-004  0.9118800E+02  0.7818608E-02  0.1130116E+00
         25   -1    0    0    0    0  0.00000000000E+00  0.00000000000E+00  0.99999998245E-14  0.12500000000E+03  0.12500000000E+03 0.  0.
        -11    1    3    3    0    0  0.44730268214E+02  0.26373132678E+02 -0.44586353177E+01  0.52117352685E+02  0.51100000000E-03 0. -1.
         23    2    1    0    0    0  0.20637282267E+02 -0.10824151371E+02  0.11231372159E+02  0.99131034175E+02  0.95696178314E+02 0.  0.
         11    1    3    3    0    0 -0.24092985947E+02 -0.37197284048E+02  0.15690007477E+02  0.47013681491E+02  0.51100000000E-03 0.  1.
         22    1    1    0    0    0 -0.20637282267E+02  0.10824151371E+02 -0.11231372159E+02  0.25868965825E+02  0.00000000000E+00 0.  1.
</event>
<event>
 5    1  0.6622912E-004  0.9118800E+02  0.7818608E-02  0.1130116E+00
         25   -1    0    0    0    0  0.00000000000E+00  0.00000000000E+00  0.99999998245E-14  0.12500000000E+03  0.12500000000E+03 0.  0.
        -11    1    3    3    0    0  0.13540755700E+02  0.41858875196E+01 -0.25526509347E+02  0.29197198478E+02  0.51100000000E-03 0.  1.
         23    2    1    0    0    0 -0.99983221615E+01  0.81649112286E+01  0.31466753537E+02  0.90988401984E+02  0.84392538154E+02 0.  0.
         11    1    3    3    0    0 -0.23539077861E+02  0.39790237090E+01  0.56993262885E+02  0.61791203506E+02  0.51100000000E-03 0. -1.
         22    1    1    0    0    0  0.99983221615E+01 -0.81649112286E+01 -0.31466753537E+02  0.34011598016E+02  0.00000000000E+00 0. -1.
</event>
<event>
 5    1  0.6622912E-004  0.9118800E+02  0.7818608E-02  0.1130116E+00
         25   -1    0    0    0    0  0.00000000000E+00  0.00000000000E+00  0.99999998245E-14  0.12500000000E+03  0.12500000000E+03 0.  0.
        -11    1    3    3    0    0  0.10592609832E+02 -0.69370013012E+01 -0.32828207181E+02  0.35185459455E+02  0.51100000000E-03 0.  1.
         23    2    1    0    0    0  0.94329124631E+01 -0.30346544531E+01  0.27561044132E+02  0.95711775082E+02  0.91120490399E+02 0.  0.
         11    1    3    3    0    0 -0.11596973688E+01  0.39023468482E+01  0.60389251313E+02  0.60526315627E+02  0.51100000000E-03 0. -1.
         22    1    1    0    0    0 -0.94329124631E+01  0.30346544531E+01 -0.27561044132E+02  0.29288224918E+02  0.00000000000E+00 0. -1.
</event>
<event>
 5    1  0.6622912E-004  0.9118800E+02  0.7818608E-02  0.1130116E+00
         25   -1    0    0    0    0  0.00000000000E+00  0.00000000000E+00  0.99999998245E-14  0.12500000000E+03  0.12500000000E+03 0.  0.
        -11    1    3    3    0    0  0.38474043460E+02  0.55521172385E+01  0.82031663230E+01  0.39728704534E+02  0.51100000000E-03 0. -1.
         23    2    1    0    0    0 -0.67942508587E+01 -0.25026637039E+02  0.15415969583E+02  0.94831365221E+02  0.89904623381E+02 0.  0.
         11    1    3    3    0    0 -0.45268294318E+02 -0.30578754278E+02  0.72128032602E+01  0.55102660687E+02  0.51100000000E-03 0.  1.
         22    1    1    0    0    0  0.67942508587E+01  0.25026637039E+02 -0.15415969583E+02  0.30168634779E+02  0.00000000000E+00 0. -1.
</event>
<event>
 5    1  0.6622912E-004  0.9118800E+02  0.7818608E-02  0.1130116E+00
         25   -1    0    0    0    0  0.00000000000E+00  0.00000000000E+00  0.99999998245E-14  0.12500000000E+03  0.12500000000E+03 0.  0.
        -11    1    3    3    0    0 -0.38707870367E+02 -0.11063109967E+02 -0.27915342389E+02  0.48989365902E+02  0.51100000000E-03 0.  1.
         23    2    1    0    0    0 -0.15022597057E+02 -0.19381548145E+02  0.13191318404E+02  0.97155185185E+02  0.93079515987E+02 0.  0.
         11    1    3    3    0    0  0.23685273310E+02 -0.83184381778E+01  0.41106660793E+02  0.48165819284E+02  0.51100000000E-03 0. -1.
         22    1    1    0    0    0  0.15022597057E+02  0.19381548145E+02 -0.13191318404E+02  0.27844814815E+02  0.00000000000E+00 0. -1.
</event>
<event>
 5    1  0.6622912E-004  0.9118800E+02  0.7818608E-02  0.1130116E+00
         25   -1    0    0    0    0  0.00000000000E+00  0.00000000000E+00  0.99999998245E-14  0.12500000000E+03  0.12500000000E+03 0.  0.
        -11    1    3    3    0    0  0.32150048492E+02 -0.34579741053E+02  0.16648998318E+02  0.50065689395E+02  0.51100000000E-03 0.  1.
         23    2    1    0    0    0  0.20238410246E+02 -0.97330622051E+01 -0.19320003600E+02  0.95375883333E+02  0.90658539771E+02 0.  0.
         11    1    3    3    0    0 -0.11911638246E+02  0.24846678848E+02 -0.35969001918E+02  0.45310193938E+02  0.51100000000E-03 0. -1.
         22    1    1    0    0    0 -0.20238410246E+02  0.97330622051E+01  0.19320003600E+02  0.29624116667E+02  0.00000000000E+00 0.  1.
</event>
<event>
 5    1  0.6622912E-004  0.9118800E+02  0.7818608E-02  0.1130116E+00
         25   -1    0    0    0    0  0.00000000000E+00  0.00000000000E+00  0.99999998245E-14  0.12500000000E+03  0.12500000000E+03 0.  0.
        -11    1    3    3    0    0  0.15281471114E+02  0.37942907964E+02  0.46766581594E+02  0.62131318821E+02  0.51100000000E-03 0.  1.
         23    2    1    0    0    0  0.10260651384E+02  0.13819176880E+02  0.21992271853E+02  0.97073119800E+02  0.92969241957E+02 0.  0.
         11    1    3    3    0    0 -0.50208197307E+01 -0.24123731084E+02 -0.24774309741E+02  0.34941800979E+02  0.51100000000E-03 0. -1.
         22    1    1    0    0    0 -0.10260651384E+02 -0.13819176880E+02 -0.21992271853E+02  0.27926880200E+02  0.00000000000E+00 0.  1.
</event>
<event>
 5    1  0.6622912E-004  0.9118800E+02  0.7818608E-02  0.1130116E+00
         25   -1    0    0    0    0  0.00000000000E+00  0.00000000000E+00  0.99999998245E-14  0.12500000000E+03  0.12500000000E+03 0.  0.
        -11    1    3    3    0    0 -0.42008092559E+01 -0.24320473500E+02 -0.36312907709E+02  0.43906258053E+02  0.51100000000E-03 0.  1.
         23    2    1    0    0    0 -0.80295375073E+01 -0.22015646042E+02  0.16137600530E+02  0.96546805204E+02  0.92258881963E+02 0.  0.
         11    1    3    3    0    0 -0.38287282514E+01  0.23048274587E+01  0.52450508239E+02  0.52640547151E+02  0.51100000000E-03 0. -1.
         22    1    1    0    0    0  0.80295375073E+01  0.22015646042E+02 -0.16137600530E+02  0.28453194796E+02  0.00000000000E+00 0.  1.
</event>
<event>
 5    1  0.6622912E-004  0.9118800E+02  0.7818608E-02  0.1130116E+00
         25   -1    0    0    0    0  0.00000000000E+00  0.00000000000E+00  0.99999998245E-14  0.12500000000E+03  0.12500000000E+03 0.  0.
        -11    1    3    3    0    0 -0.60979430458E+00 -0.69864489469E+01  0.38158848985E+02  0.38797939045E+02  0.51100000000E-03 0.  1.
         23    2    1    0    0    0  0.26037434523E+02  0.15646959793E+02 -0.48644710145E+01  0.94235760605E+02  0.89072667813E+02 0.  0.
         11    1    3    3    0    0  0.26647228827E+02  0.22633408740E+02 -0.43023319999E+02  0.55437821561E+02  0.51100000000E-03 0. -1.
         22    1    1    0    0    0 -0.26037434523E+02 -0.15646959793E+02  0.48644710145E+01  0.30764239395E+02  0.00000000000E+00 0.  1.
</event>
<event>
 5    1  0.6622912E-004  0.9118800E+02  0.7818608E-02  0.1130116E+00
         25   -1    0    0    0    0  0.00000000000E+00  0.00000000000E+00  0.99999998245E-14  0.12500000000E+03  0.12500000000E+03 0.  0.
        -11    1    3    3    0    0 -0.47350080106E+02 -0.39757278659E+02  0.89195242326E+01  0.62467825359E+02  0.51100000000E-03 0.  1.
         23    2    1    0    0    0 -0.36146993438E+02 -0.31077891306E+02  0.79366621995E+01  0.76673702092E+02  0.59526679086E+02 0.  0.
         11    1    3    3    0    0  0.11203086667E+02  0.86793873529E+01 -0.98286203306E+00  0.14205876732E+02  0.51100000000E-03 0. -1.
         22    1    1    0    0    0  0.36146993438E+02  0.31077891306E+02 -0.79366621995E+01  0.48326297908E+02  0.00000000000E+00 0.  1.
</event>
<event>
 5    1  0.6622912E-004  0.9118800E+02  0.7818608E-02  0.1130116E+00
         25   -1    0    0    0    0  0.00000000000E+00  0.00000000000E+00  0.99999998245E-14  0.12500000000E+03  0.12500000000E+03 0.  0.
        -11    1    3    3    0    0  0.58471626835E+01 -0.28840661963E+01  0.24239344289E+02  0.25100855784E+02  0.51100000000E-03 0. -1.
         23    2    1    0    0    0  0.26127517431E+02  0.40004575342E+01 -0.30949468025E+02  0.84299626554E+02  0.73823482975E+02 0.  0.
         11    1    3    3    0    0  0.20280354747E+02  0.68845237305E+01 -0.55188812315E+02  0.59198770770E+02  0.51100000000E-03 0.  1.
         22    1    1    0    0    0 -0.26127517431E+02 -0.40004575342E+01  0.30949468025E+02  0.40700373446E+02  0.00000000000E+00 0.  1.
</event>
<event>
 5    1  0.6622912E-004  0.9118800E+02  0.7818608E-02  0.1130116E+00
         25   -1    0    0    0    0  0.00000000000E+00  0.00000000000E+00  0.99999998245E-14  0.12500000000E+03  0.12500000000E+03 0.  0.
        -11    1    3    3    0    0 -0.13990400471E+02  0.24396929048E+02  0.25937343527E+02  0.38258165688E+02  0.51100000000E-03 0. -1.
         23    2    1    0    0    0  0.21690083536E+02 -0.17391182650E+02  0.77439840496E+01  0.96140300648E+02  0.91706461942E+02 0.  0.
         11    1    3    3    0    0  0.35680484006E+02 -0.41788111698E+02 -0.18193359477E+02  0.57882134960E+02  0.51100000000E-03 0.  1.
         22    1    1    0    0    0 -0.21690083536E+02  0.17391182650E+02 -0.77439840496E+01  0.28859699352E+02  0.00000000000E+00 0.  1.
</event>
<event>
 5    1  0.6622912E-004  0.9118800E+02  0.7818608E-02  0.1130116E+00
         25   -1    0    0    0    0  0.00000000000E+00  0.00000000000E+00  0.99999998245E-14  0.12500000000E+03  0.12500000000E+03 0.  0.
        -11    1    3    3    0    0 -0.43914257747E+02  0.13332871409E+02 -0.22730084259E+02  0.51214101810E+02  0.51100000000E-03 0.  1.
         23    2    1    0    0    0 -0.48851576077E+01 -0.25867922711E+01 -0.30438065485E+02  0.94064064754E+02  0.88831391908E+02 0.  0.
         11    1    3    3    0    0  0.39029100140E+02 -0.15919663680E+02 -0.77079812258E+01  0.42849962943E+02  0.51100000000E-03 0. -1.
         22    1    1    0    0    0  0.48851576077E+01  0.25867922711E+01  0.30438065485E+02  0.30935935246E+02  0.00000000000E+00 0. -1.
</event>
<event>
 5    1  0.6622912E-004  0.9118800E+02  0.7818608E-02  0.1130116E+00
         25   -1    0    0    0    0  0.00000000000E+00  0.00000000000E+00  0.99999998245E-14  0.12500000000E+03  0.12500000000E+03 0.  0.
        -11    1    3    3    0    0 -0.67395227499E+01 -0.68773687603E+01  0.34281615439E+02  0.35608264846E+02  0.51100000000E-03 0.  1.
         23    2    1    0    0    0  0.32005280320E+02  0.30216434501E+01 -0.59197747507E+01  0.92311897721E+02  0.86330611200E+02 0.  0.
         11    1    3    3    0    0  0.38744803070E+02  0.98990122104E+01 -0.40201390190E+02  0.56703632875E+02  0.51100000000E-03 0. -1.
         22    1    1    0    0    0 -0.32005280320E+02 -0.30216434501E+01  0.59197747507E+01  0.32688102279E+02  0.00000000000E+00 0. -1.
</event>
<event>
 5    1  0.6622912E-004  0.9118800E+02  0.7818608E-02  0.1130116E+00
         25   -1    0    0    0    0  0.00000000000E+00  0.00000000000E+00  0.99999998245E-14  0.12500000000E+03  0.12500000000E+03 0.  0.
        -11    1    3    3    0    0  0.38409926654E+02  0.21173809361E+01  0.31493274083E+01  0.38596943286E+02  0.51100000000E-03 0.  1.
         23    2    1    0    0    0 -0.12778018314E+02 -0.18279551162E+02 -0.16670675387E+02  0.97155231001E+02  0.93079577515E+02 0.  0.
         11    1    3    3    0    0 -0.51187944968E+02 -0.20396932098E+02 -0.19820002796E+02  0.58558287716E+02  0.51100000000E-03 0. -1.
         22    1    1    0    0    0  0.12778018314E+02  0.18279551162E+02  0.16670675387E+02  0.27844768999E+02  0.00000000000E+00 0. -1.
</event>
<event>
 5    1  0.6622912E-004  0.9118800E+02  0.7818608E-02  0.1130116E+00
         25   -1    0    0    0    0  0.00000000000E+00  0.00000000000E+00  0.99999998245E-14  0.12500000000E+03  0.12500000000E+03 0.  0.
        -11    1    3    3    0    0  0.32291301542E+02  0.26202233257E+02  0.84080742626E+01  0.42426181727E+02  0.51100000000E-03 0. -1.
         23    2    1    0    0    0 -0.20315487685E+02  0.64053528617E+01  0.14894714389E+02  0.99007691486E+02  0.95534930112E+02 0.  0.
         11    1    3    3    0    0 -0.52606789227E+02 -0.19796880395E+02  0.64866401264E+01  0.56581509758E+02  0.51100000000E-03 0.  1.
         22    1    1    0    0    0  0.20315487685E+02 -0.64053528617E+01 -0.14894714389E+02  0.25992308514E+02  0.00000000000E+00 0. -1.
</event>
<event>
 5    1  0.6622912E-004  0.9118800E+02  0.7818608E-02  0.1130116E+00
         25   -1    0    0    0    0  0.00000000000E+00  0.00000000000E+00  0.99999998245E-14  0.12500000000E+03  0.12500000000E+03 0.  0.
        -11    1    3    3    0    0  0.26917030649E+02  0.23181636985E+02 -0.11654413190E+02  0.37386363547E+02  0.51100000000E-03 0.  1.
         23    2    1    0    0    0  0.18031603223E+02 -0.90317319799E+00  0.32131902656E+02  0.88143337035E+02  0.80067685485E+02 0.  0.
         11    1    3    3    0    0 -0.88854274257E+01 -0.24084810183E+02  0.43786315845E+02  0.50756973488E+02  0.51100000000E-03 0. -1.
         22    1    1    0    0    0 -0.18031603223E+02  0.90317319799E+00 -0.32131902656E+02  0.36856662965E+02  0.00000000000E+00 0. -1.
</event>
<event>
 5    1  0.6622912E-004  0.9118800E+02  0.7818608E-02  0.1130116E+00
         25   -1    0    0    0    0  0.00000000000E+00  0.00000000000E+00  0.99999998245E-14  0.12500000000E+03  0.12500000000E+03 0.  0.
        -11    1    3    3    0    0  0.12857556283E+02  0.49792657298E+00 -0.48898273181E+02  0.50562889601E+02  0.51100000000E-03 0.  1.
         23    2    1    0    0    0 -0.89594085962E+01 -0.22570454035E+02 -0.19127880947E+02  0.94087668686E+02  0.88864600216E+02 0.  0.
         11    1    3    3    0    0 -0.21816964879E+02 -0.23068380608E+02  0.29770392234E+02  0.43524779085E+02  0.51100000000E-03 0. -1.
         22    1    1    0    0    0  0.89594085962E+01  0.22570454035E+02  0.19127880947E+02  0.30912331314E+02  0.00000000000E+00 0.  1.
</event>
<event>
 5    1  0.6622912E-004  0.9118800E+02  0.7818608E-02  0.1130116E+00
         25   -1    0    0    0    0  0.00000000000E+00  0.00000000000E+00  0.99999998245E-14  0.12500000000E+03  0.12500000000E+03 0.  0.
        -11    1    3    3    0    0 -0.22155439955E+02  0.50308452575E+02  0.20633692429E+01  0.55009648362E+02  0.51100000000E-03 0.  1.
         23    2    1    0    0    0  0.92927038167E+01  0.26508615732E+02 -0.81536005138E+01  0.95750346095E+02  0.91173387146E+02 0.  0.
         11    1    3    3    0    0  0.31448143772E+02 -0.23799836843E+02 -0.10216969757E+02  0.40740697732E+02  0.51100000000E-03 0. -1.
         22    1    1    0    0    0 -0.92927038167E+01 -0.26508615732E+02  0.81536005138E+01  0.29249653905E+02  0.00000000000E+00 0.  1.
</event>
<event>
 5    1  0.6622912E-004  0.9118800E+02  0.7818608E-02  0.1130116E+00
         25   -1    0    0    0    0  0.00000000000E+00  0.00000000000E+00  0.99999998245E-14  0.12500000000E+03  0.12500000000E+03 0.  0.
        -11    1    3    3    0    0  0.25376054786E+02 -0.46457092852E+02 -0.22933322372E+01  0.52985516944E+02  0.51100000000E-03 0.  1.
         23    2    1    0    0    0  0.25669848620E+02 -0.16430380366E+00 -0.14117269741E+00  0.99329237377E+02  0.95954725492E+02 0.  0.
         11    1    3    3    0    0  0.29379383371E+00  0.46292789048E+02  0.21521595398E+01  0.46343720433E+02  0.51100000000E-03 0. -1.
         22    1    1    0    0    0 -0.25669848620E+02  0.16430380366E+00  0.14117269741E+00  0.25670762623E+02  0.00000000000E+00 0. -1.
</event>
<event>
 5    1  0.6622912E-004  0.9118800E+02  0.7818608E-02  0.1130116E+00
         25   -1    0    0    0    0  0.00000000000E+00  0.00000000000E+00  0.99999998245E-14  0.12500000000E+03  0.12500000000E+03 0.  0.
        -11    1    3    3    0    0 -0.38205382800E+02  0.10433483907E+02  0.15030985589E+02  0.42360823757E+02  0.51100000000E-03 0. -1.
         23    2    1    0    0    0 -0.86072875218E+01 -0.13118027753E+02 -0.23751217184E+02  0.96534435394E+02  0.92242120794E+02 0.  0.
         11    1    3    3    0    0  0.29598095278E+02 -0.23551511660E+02 -0.38782202773E+02  0.54173611637E+02  0.51100000000E-03 0.  1.
         22    1    1    0    0    0  0.86072875218E+01  0.13118027753E+02  0.23751217184E+02  0.28465564606E+02  0.00000000000E+00 0. -1.
</event>
<event>
 5    1  0.6622912E-004  0.9118800E+02  0.7818608E-02  0.1130116E+00
         25   -1    0    0    0    0  0.00000000000E+00  0.00000000000E+00  0.99999998245E-14  0.12500000000E+03  0.12500000000E+03 0.  0.
        -11    1    3    3    0    0 -0.28672932079E+02 -0.23701478721E+02 -0.39106402264E+01  0.37405751360E+02  0.51100000000E-03 0.  1.
         23    2    1    0    0    0  0.27527774252E+02 -0.91065119554E+01 -0.54794707676E+01  0.95491839855E+02  0.90818279898E+02 0.  0.
         11    1    3    3    0    0  0.56200706331E+02  0.14594966766E+02 -0.15688305412E+01  0.58086088494E+02  0.51100000000E-03 0. -1.
         22    1    1    0    0    0 -0.27527774252E+02  0.91065119554E+01  0.54794707676E+01  0.29508160145E+02  0.00000000000E+00 0. -1.
</event>
<event>
 5    1  0.6622912E-004  0.9118800E+02  0.7818608E-02  0.1130116E+00
         25   -1    0    0    0    0  0.00000000000E+00  0.00000000000E+00  0.99999998245E-14  0.12500000000E+03  0.12500000000E+03 0.  0.
        -11    1    3    3    0    0  0.12965424592E+02  0.33168954305E+02 -0.26751255767E+02  0.44541120887E+02  0.51100000000E-03 0.  1.
         23    2    1    0    0    0  0.26824201467E+02  0.53663857952E+01  0.12770226426E+02  0.94810356680E+02  0.89875409151E+02 0.  0.
         11    1    3    3    0    0  0.13858776874E+02 -0.27802568509E+02  0.39521482193E+02  0.50269235793E+02  0.51100000000E-03 0. -1.
         22    1    1    0    0    0 -0.26824201467E+02 -0.53663857952E+01 -0.12770226426E+02  0.30189643320E+02  0.00000000000E+00 0. -1.
</event>
<event>
 5    1  0.6622912E-004  0.9118800E+02  0.7818608E-02  0.1130116E+00
         25   -1    0    0    0    0  0.00000000000E+00  0.00000000000E+00  0.99999998245E-14  0.12500000000E+03  0.12500000000E+03 0.  0.
        -11    1    3    3    0    0  0.17783467670E+02 -0.42941429217E+02 -0.69543951389E+01  0.46995549550E+02  0.51100000000E-03 0.  1.
         23    2    1    0    0    0 -0.21257376523E+02 -0.21463902082E+02  0.75618053496E+01  0.93859093633E+02  0.88542494929E+02 0.  0.
         11    1    3    3    0    0 -0.39040844192E+02  0.21477527135E+02  0.14516200489E+02  0.46863544082E+02  0.51100000000E-03 0. -1.
         22    1    1    0    0    0  0.21257376523E+02  0.21463902082E+02 -0.75618053496E+01  0.31140906367E+02  0.00000000000E+00 0.  1.
</event>
<event>
 5    1  0.6622912E-004  0.9118800E+02  0.7818608E-02  0.1130116E+00
         25   -1    0    0    0    0  0.00000000000E+00  0.00000000000E+00  0.99999998245E-14  0.12500000000E+03  0.12500000000E+03 0.  0.
        -11    1    3    3    0    0 -0.20924402817E+02 -0.32814294805E+02 -0.44622677221E+01  0.39172955088E+02  0.51100000000E-03 0. -1.
         23    2    1    0    0    0  0.14484436712E+02  0.60849080907E+01 -0.24860588172E+02  0.95591262224E+02  0.90955019411E+02 0.  0.
         11    1    3    3    0    0  0.35408839529E+02  0.38899202896E+02 -0.20398320450E+02  0.56418307136E+02  0.51100000000E-03 0.  1.
         22    1    1    0    0    0 -0.14484436712E+02 -0.60849080907E+01  0.24860588172E+02  0.29408737776E+02  0.00000000000E+00 0.  1.
</event>
<event>
 5    1  0.6622912E-004  0.9118800E+02  0.7818608E-02  0.1130116E+00
         25   -1    0    0    0    0  0.00000000000E+00  0.00000000000E+00  0.99999998245E-14  0.12500000000E+03  0.12500000000E+03 0.  0.
        -11    1    3    3    0    0 -0.23281818479E+02 -0.53836952197E+02 -0.11213899920E+02  0.59717769928E+02  0.51100000000E-03 0. -1.
         23    2    1    0    0    0 -0.26283178790E+02 -0.40421942169E+02 -0.11215243055E+01  0.76771411873E+02  0.59731507332E+02 0.  0.
         11    1    3    3    0    0 -0.30013603112E+01  0.13415010028E+02  0.10092375614E+02  0.17053641944E+02  0.51100000000E-03 0.  1.
         22    1    1    0    0    0  0.26283178790E+02  0.40421942169E+02  0.11215243055E+01  0.48228588127E+02  0.00000000000E+00 0. -1.
</event>
<event>
 5    1  0.6622912E-004  0.9118800E+02  0.7818608E-02  0.1130116E+00
         25   -1    0    0    0    0  0.00000000000E+00  0.00000000000E+00  0.99999998245E-14  0.12500000000E+03  0.12500000000E+03 0.  0.
        -11    1    3    3    0    0  0.52037275752E+02 -0.13799108551E+02 -0.28602406530E+02  0.60962210624E+02  0.51100000000E-03 0.  1.
         23    2    1    0    0    0  0.23913321530E+02 -0.14989832596E+02 -0.85953236999E+01  0.95497091375E+02  0.90825507671E+02 0.  0.
         11    1    3    3    0    0 -0.28123954223E+02 -0.11907240450E+01  0.20007082830E+02  0.34534880751E+02  0.51100000000E-03 0. -1.
         22    1    1    0    0    0 -0.23913321530E+02  0.14989832596E+02  0.85953236999E+01  0.29502908625E+02  0.00000000000E+00 0.  1.
</event>
<event>
 5    1  0.6622912E-004  0.9118800E+02  0.7818608E-02  0.1130116E+00
         25   -1    0    0    0    0  0.00000000000E+00  0.00000000000E+00  0.99999998245E-14  0.12500000000E+03  0.12500000000E+03 0.  0.
        -11    1    3    3    0    0 -0.20835988782E+02 -0.23916268374E+02 -0.14498586028E+02  0.34875999176E+02  0.51100000000E-03 0.  1.
         23    2    1    0    0    0  0.21221200620E+02  0.17420442468E+02  0.52131493896E+01  0.97053835717E+02  0.92943310299E+02 0.  0.
         11    1    3    3    0    0  0.42057189402E+02  0.41336710841E+02  0.19711735417E+02  0.62177836542E+02  0.51100000000E-03 0. -1.
         22    1    1    0    0    0 -0.21221200620E+02 -0.17420442468E+02 -0.52131493896E+01  0.27946164283E+02  0.00000000000E+00 0. -1.
</event>
<event>
 5    1  0.6622912E-004  0.9118800E+02  0.7818608E-02  0.1130116E+00
         25   -1    0    0    0    0  0.00000000000E+00  0.00000000000E+00  0.99999998245E-14  0.12500000000E+03  0.12500000000E+03 0.  0.
        -11    1    3    3    0    0  0.19405995175E+02  0.13215386072E+02  0.27576684630E+02  0.36217573265E+02  0.51100000000E-03 0.  1.
         23    2    1    0    0    0 -0.19612842420E+02  0.15107691034E+02 -0.16602946097E+02  0.95191213790E+02  0.90403558821E+02 0.  0.
         11    1    3    3    0    0 -0.39018837596E+02  0.18923049622E+01 -0.44179630727E+02  0.58973640525E+02  0.51100000000E-03 0. -1.
         22    1    1    0    0    0  0.19612842420E+02 -0.15107691034E+02  0.16602946097E+02  0.29808786210E+02  0.00000000000E+00 0. -1.
</event>
<event>
 5    1  0.6622912E-004  0.9118800E+02  0.7818608E-02  0.1130116E+00
         25   -1    0    0    0    0  0.00000000000E+00  0.00000000000E+00  0.99999998245E-14  0.12500000000E+03  0.12500000000E+03 0.  0.
        -11    1    3    3    0    0  0.14038107568E+02 -0.15836251356E+02  0.40252338765E+02  0.45476434529E+02  0.51100000000E-03 0. -1.
         23    2    1    0    0    0 -0.24725182096E+02 -0.14017559300E+02  0.93633853400E+01  0.95075100945E+02  0.90242868064E+02 0.  0.
         11    1    3    3    0    0 -0.38763289664E+02  0.18186920558E+01 -0.30888953425E+02  0.49598666417E+02  0.51100000000E-03 0.  1.
         22    1    1    0    0    0  0.24725182096E+02  0.14017559300E+02 -0.93633853400E+01  0.29924899055E+02  0.00000000000E+00 0. -1.
</event>
<event>
 5    1  0.6622912E-004  0.9118800E+02  0.7818608E-02  0.1130116E+00
         25   -1    0    0    0    0  0.00000000000E+00  0.00000000000E+00  0.99999998245E-14  0.12500000000E+03  0.12500000000E+03 0.  0.
        -11    1    3    3    0    0 -0.25678765845E+02  0.48012687985E+02  0.17772303942E+02  0.57275404936E+02  0.51100000000E-03 0. -1.
         23    2    1    0    0    0  0.51785628605E+01  0.28205198326E+02  0.73127389131E+01  0.95405627625E+02  0.90699541929E+02 0.  0.
         11    1    3    3    0    0  0.30857328705E+02 -0.19807489660E+02 -0.10459565029E+02  0.38130222689E+02  0.51100000000E-03 0.  1.
         22    1    1    0    0    0 -0.51785628605E+01 -0.28205198326E+02 -0.73127389131E+01  0.29594372375E+02  0.00000000000E+00 0. -1.
</event>
<event>
 5    1  0.6622912E-004  0.9118800E+02  0.7818608E-02  0.1130116E+00
         25   -1    0    0    0    0  0.00000000000E+00  0.00000000000E+00  0.99999998245E-14  0.12500000000E+03  0.12500000000E+03 0.  0.
        -11    1    3    3    0    0 -0.16320573866E+02 -0.50716892342E+02  0.26053825896E+02  0.59307386928E+02  0.51100000000E-03 0.  1.
         23    2    1    0    0    0  0.67529592296E+01 -0.23907082596E+02  0.89795707254E+01  0.98584403338E+02  0.94979475859E+02 0.  0.
         11    1    3    3    0    0  0.23073533095E+02  0.26809809747E+02 -0.17074255171E+02  0.39277016410E+02  0.51100000000E-03 0. -1.
         22    1    1    0    0    0 -0.67529592296E+01  0.23907082596E+02 -0.89795707254E+01  0.26415596662E+02  0.00000000000E+00 0.  1.
</event>
<event>
 5    1  0.6622912E-004  0.9118800E+02  0.7818608E-02  0.1130116E+00
         25   -1    0    0    0    0  0.00000000000E+00  0.00000000000E+00  0.99999998245E-14  0.12500000000E+03  0.12500000000E+03 0.  0.
        -11    1    3    3    0    0 -0.16852209170E+02 -0.61247340846E+01 -0.34594449754E+02  0.38965180297E+02  0.51100000000E-03 0.  1.
         23    2    1    0    0    0 -0.19710953639E+02 -0.11400845542E+01  0.21763385790E+02  0.95615200406E+02  0.90987911842E+02 0.  0.
         11    1    3    3    0    0 -0.28587444684E+01  0.49846495304E+01  0.56357835544E+02  0.56650020109E+02  0.51100000000E-03 0. -1.
         22    1    1    0    0    0  0.19710953639E+02  0.11400845542E+01 -0.21763385790E+02  0.29384799594E+02  0.00000000000E+00 0. -1.
</event>
<event>
 5    1  0.6622912E-004  0.9118800E+02  0.7818608E-02  0.1130116E+00
         25   -1    0    0    0    0  0.00000000000E+00  0.00000000000E+00  0.99999998245E-14  0.12500000000E+03  0.12500000000E+03 0.  0.
        -11    1    3    3    0    0 -0.19388374774E+01 -0.24081225281E+02 -0.50476676391E+02  0.55960337397E+02  0.51100000000E-03 0.  1.
         23    2    1    0    0    0  0.17946161667E+02 -0.31711107731E+01 -0.20572611312E+02  0.97516313961E+02  0.93563232576E+02 0.  0.
         11    1    3    3    0    0  0.19884999144E+02  0.20910114508E+02  0.29904065079E+02  0.41555976564E+02  0.51100000000E-03 0. -1.
         22    1    1    0    0    0 -0.17946161667E+02  0.31711107731E+01  0.20572611312E+02  0.27483686039E+02  0.00000000000E+00 0.  1.
</event>
<event>
 5    1  0.6622912E-004  0.9118800E+02  0.7818608E-02  0.1130116E+00
         25   -1    0    0    0    0  0.00000000000E+00  0.00000000000E+00  0.99999998245E-14  0.12500000000E+03  0.12500000000E+03 0.  0.
        -11    1    3    3    0    0 -0.14647739916E+02  0.20508183547E+01  0.25254880665E+02  0.29267236601E+02  0.51100000000E-03 0. -1.
         23    2    1    0    0    0 -0.89866142504E+00 -0.28996144648E+02 -0.22796256268E+02  0.88104833695E+02  0.80007552292E+02 0.  0.
         11    1    3    3    0    0  0.13749078491E+02 -0.31046963003E+02 -0.48051136933E+02  0.58837597095E+02  0.51100000000E-03 0.  1.
         22    1    1    0    0    0  0.89866142504E+00  0.28996144648E+02  0.22796256268E+02  0.36895166305E+02  0.00000000000E+00 0.  1.
</event>
<event>
 5    1  0.6622912E-004  0.9118800E+02  0.7818608E-02  0.1130116E+00
         25   -1    0    0    0    0  0.00000000000E+00  0.00000000000E+00  0.99999998245E-14  0.12500000000E+03  0.12500000000E+03 0.  0.
        -11    1    3    3    0    0 -0.35948897242E+02 -0.12430961674E+02  0.40638531499E+01  0.38253979188E+02  0.51100000000E-03 0. -1.
         23    2    1    0    0    0  0.15623820874E+01  0.23100831588E+02  0.22112226880E+02  0.92983753570E+02  0.87297986189E+02 0.  0.
         11    1    3    3    0    0  0.37511279330E+02  0.35531793262E+02  0.18048373730E+02  0.54729774382E+02  0.51100000000E-03 0.  1.
         22    1    1    0    0    0 -0.15623820874E+01 -0.23100831588E+02 -0.22112226880E+02  0.32016246430E+02  0.00000000000E+00 0.  1.
</event>
<event>
 5    1  0.6622912E-004  0.9118800E+02  0.7818608E-02  0.1130116E+00
         25   -1    0    0    0    0  0.00000000000E+00  0.00000000000E+00  0.99999998245E-14  0.12500000000E+03  0.12500000000E+03 0.  0.
        -11    1    3    3    0    0  0.27097332994E+02 -0.17549205728E+02 -0.27442899407E+02  0.42371603760E+02  0.51100000000E-03 0. -1.
         23    2    1    0    0    0 -0.16188419215E+02 -0.22509821766E+02  0.51712974077E+01  0.96795402689E+02  0.92595089893E+02 0.  0.
         11    1    3    3    0    0 -0.43285752209E+02 -0.49606160375E+01  0.32614196814E+02  0.54423798929E+02  0.51100000000E-03 0.  1.
         22    1    1    0    0    0  0.16188419215E+02  0.22509821766E+02 -0.51712974077E+01  0.28204597311E+02  0.00000000000E+00 0.  1.
</event>
<event>
 5    1  0.6622912E-004  0.9118800E+02  0.7818608E-02  0.1130116E+00
         25   -1    0    0    0    0  0.00000000000E+00  0.00000000000E+00  0.99999998245E-14  0.12500000000E+03  0.12500000000E+03 0.  0.
        -11    1    3    3    0    0  0.57559785190E+02  0.23028836301E+01  0.97193007851E+01  0.58420004726E+02  0.51100000000E-03 0.  1.
         23    2    1    0    0    0  0.24299500850E+02 -0.85434908233E+01  0.16979273907E+02  0.94149510224E+02  0.88951546114E+02 0.  0.
         11    1    3    3    0    0 -0.33260284340E+02 -0.10846374453E+02  0.72599731220E+01  0.35729505498E+02  0.51100000000E-03 0. -1.
         22    1    1    0    0    0 -0.24299500850E+02  0.85434908233E+01 -0.16979273907E+02  0.30850489776E+02  0.00000000000E+00 0.  1.
</event>
<event>
 5    1  0.6622912E-004  0.9118800E+02  0.7818608E-02  0.1130116E+00
         25   -1    0    0    0    0  0.00000000000E+00  0.00000000000E+00  0.99999998245E-14  0.12500000000E+03  0.12500000000E+03 0.  0.
        -11    1    3    3    0    0  0.37976216452E+02 -0.30077312903E+02 -0.22821377244E+01  0.48497896040E+02  0.51100000000E-03 0.  1.
         23    2    1    0    0    0 -0.50398409049E+01 -0.30462499667E+02  0.87495313248E+01  0.92907661651E+02  0.87188963825E+02 0.  0.
         11    1    3    3    0    0 -0.43016057357E+02 -0.38518676411E+00  0.11031669049E+02  0.44409765611E+02  0.51100000000E-03 0. -1.
         22    1    1    0    0    0  0.50398409049E+01  0.30462499667E+02 -0.87495313248E+01  0.32092338349E+02  0.00000000000E+00 0.  1.
</event>
<event>
 5    1  0.6622912E-004  0.9118800E+02  0.7818608E-02  0.1130116E+00
         25   -1    0    0    0    0  0.00000000000E+00  0.00000000000E+00  0.99999998245E-14  0.12500000000E+03  0.12500000000E+03 0.  0.
        -11    1    3    3    0    0 -0.40867697667E+02  0.22138690527E+02 -0.40364555102E+02  0.61559626702E+02  0.51100000000E-03 0.  1.
         23    2    1    0    0    0 -0.25305174457E+02  0.95794929788E+01 -0.14349769048E+02  0.94372652551E+02  0.89264568210E+02 0.  0.
         11    1    3    3    0    0  0.15562523210E+02 -0.12559197548E+02  0.26014786053E+02  0.32813025849E+02  0.51100000000E-03 0. -1.
         22    1    1    0    0    0  0.25305174457E+02 -0.95794929788E+01  0.14349769048E+02  0.30627347449E+02  0.00000000000E+00 0.  1.
</event>
<event>
 5    1  0.6622912E-004  0.9118800E+02  0.7818608E-02  0.1130116E+00
         25   -1    0    0    0    0  0.00000000000E+00  0.00000000000E+00  0.99999998245E-14  0.12500000000E+03  0.12500000000E+03 0.  0.
        -11    1    3    3    0    0  0.92352364440E+01 -0.26656876861E+02 -0.48854870476E+02  0.56415219982E+02  0.51100000000E-03 0. -1.
         23    2    1    0    0    0 -0.14945604926E+02 -0.68421203405E+01 -0.21354921079E+02  0.98051560868E+02  0.94275607752E+02 0.  0.
         11    1    3    3    0    0 -0.24180841370E+02  0.19814756521E+02  0.27499949396E+02  0.41636340886E+02  0.51100000000E-03 0.  1.
         22    1    1    0    0    0  0.14945604926E+02  0.68421203405E+01  0.21354921079E+02  0.26948439132E+02  0.00000000000E+00 0. -1.
</event>
<event>
 5    1  0.6622912E-004  0.9118800E+02  0.7818608E-02  0.1130116E+00
         25   -1    0    0    0    0  0.00000000000E+00  0.00000000000E+00  0.99999998245E-14  0.12500000000E+03  0.12500000000E+03 0.  0.
        -11    1    3    3    0    0 -0.30370719838E+01  0.28841327341E+02 -0.47208859329E+02  0.55405075295E+02  0.51100000000E-03 0. -1.
         23    2    1    0    0    0  0.57539486642E+01 -0.58634683661E+01 -0.27556011463E+02  0.96245488106E+02  0.91849725239E+02 0.  0.
         11    1    3    3    0    0  0.87910206480E+01 -0.34704795707E+02  0.19652847866E+02  0.40840412811E+02  0.51100000000E-03 0.  1.
         22    1    1    0    0    0 -0.57539486642E+01  0.58634683661E+01  0.27556011463E+02  0.28754511894E+02  0.00000000000E+00 0. -1.
</event>
<event>
 5    1  0.6622912E-004  0.9118800E+02  0.7818608E-02  0.1130116E+00
         25   -1    0    0    0    0  0.00000000000E+00  0.00000000000E+00  0.99999998245E-14  0.12500000000E+03  0.12500000000E+03 0.  0.
        -11    1    3    3    0    0 -0.75341010866E+01  0.46170356800E+02  0.92807222064E+01  0.47692728284E+02  0.51100000000E-03 0. -1.
         23    2    1    0    0    0  0.23180345865E+02  0.73133320086E+01 -0.67862820662E+01  0.99763778338E+02  0.96519141026E+02 0.  0.
         11    1    3    3    0    0  0.30714446952E+02 -0.38857024791E+02 -0.16067004273E+02  0.52071050054E+02  0.51100000000E-03 0.  1.
         22    1    1    0    0    0 -0.23180345865E+02 -0.73133320086E+01  0.67862820662E+01  0.25236221662E+02  0.00000000000E+00 0.  1.
</event>
<event>
 5    1  0.6622912E-004  0.9118800E+02  0.7818608E-02  0.1130116E+00
         25   -1    0    0    0    0  0.00000000000E+00  0.00000000000E+00  0.99999998245E-14  0.12500000000E+03  0.12500000000E+03 0.  0.
        -11    1    3    3    0    0  0.22182247791E+02 -0.66882564868E+01  0.32556811187E+02  0.39959114690E+02  0.51100000000E-03 0.  1.
         23    2    1    0    0    0 -0.20522246631E+02 -0.20085143423E+02 -0.15691723298E+01  0.96241733451E+02  0.91844615317E+02 0.  0.
         11    1    3    3    0    0 -0.42704494422E+02 -0.13396886936E+02 -0.34125983517E+02  0.56282618761E+02  0.51100000000E-03 0. -1.
         22    1    1    0    0    0  0.20522246631E+02  0.20085143423E+02  0.15691723298E+01  0.28758266549E+02  0.00000000000E+00 0. -1.
</event>
<event>
 5    1  0.6622912E-004  0.9118800E+02  0.7818608E-02  0.1130116E+00
         25   -1    0    0    0    0  0.00000000000E+00  0.00000000000E+00  0.99999998245E-14  0.12500000000E+03  0.12500000000E+03 0.  0.
        -11    1    3    3    0    0  0.96530190990E+01 -0.33655705624E+02  0.32254265599E+01  0.35160925408E+02  0.51100000000E-03 0.  1.
         23    2    1    0    0    0  0.36365192581E+01  0.27002266473E+02 -0.67571701183E+01  0.96928555167E+02  0.92774666756E+02 0.  0.
         11    1    3    3    0    0 -0.60164998409E+01  0.60657972098E+02 -0.99825966783E+01  0.61767629759E+02  0.51100000000E-03 0. -1.
         22    1    1    0    0    0 -0.36365192581E+01 -0.27002266473E+02  0.67571701183E+01  0.28071444833E+02  0.00000000000E+00 0. -1.
</event>
<event>
 5    1  0.6622912E-004  0.9118800E+02  0.7818608E-02  0.1130116E+00
         25   -1    0    0    0    0  0.00000000000E+00  0.00000000000E+00  0.99999998245E-14  0.12500000000E+03  0.12500000000E+03 0.  0.
        -11    1    3    3    0    0 -0.18255748871E+02 -0.43257182162E+02  0.82054940808E+01  0.47663259528E+02  0.51100000000E-03 0.  1.
         23    2    1    0    0    0 -0.25857801577E+02  0.38530242070E+01  0.13325025966E+02  0.95656721129E+02  0.91044935511E+02 0.  0.
         11    1    3    3    0    0 -0.76020527060E+01  0.47110206369E+02  0.51195318851E+01  0.47993461601E+02  0.51100000000E-03 0. -1.
         22    1    1    0    0    0  0.25857801577E+02 -0.38530242070E+01 -0.13325025966E+02  0.29343278871E+02  0.00000000000E+00 0. -1.
</event>
<event>
 5    1  0.6622912E-004  0.9118800E+02  0.7818608E-02  0.1130116E+00
         25   -1    0    0    0    0  0.00000000000E+00  0.00000000000E+00  0.99999998245E-14  0.12500000000E+03  0.12500000000E+03 0.  0.
        -11    1    3    3    0    0 -0.33963964656E+02 -0.35321577294E+02 -0.24572109096E+02  0.54817454003E+02  0.51100000000E-03 0.  1.
         23    2    1    0    0    0 -0.20853964816E+02 -0.17561271991E+02  0.10104685447E+02  0.95924395269E+02  0.91411699565E+02 0.  0.
         11    1    3    3    0    0  0.13109999840E+02  0.17760305303E+02  0.34676794543E+02  0.41106941267E+02  0.51100000000E-03 0. -1.
         22    1    1    0    0    0  0.20853964816E+02  0.17561271991E+02 -0.10104685447E+02  0.29075604731E+02  0.00000000000E+00 0.  1.
</event>
<event>
 5    1  0.6622912E-004  0.9118800E+02  0.7818608E-02  0.1130116E+00
         25   -1    0    0    0    0  0.00000000000E+00  0.00000000000E+00  0.99999998245E-14  0.12500000000E+03  0.12500000000E+03 0.  0.
        -11    1    3    3    0    0  0.17004132858E+02  0.17851346455E+02 -0.22335119335E+02  0.33266629834E+02  0.51100000000E-03 0. -1.
         23    2    1    0    0    0 -0.22703572227E+02 -0.18813544317E+02  0.69062207191E+01  0.94716381883E+02  0.89744612488E+02 0.  0.
         11    1    3    3    0    0 -0.39707705085E+02 -0.36664890772E+02  0.29241340055E+02  0.61449752049E+02  0.51100000000E-03 0.  1.
         22    1    1    0    0    0  0.22703572227E+02  0.18813544317E+02 -0.69062207191E+01  0.30283618117E+02  0.00000000000E+00 0.  1.
</event>
<event>
 5    1  0.6622912E-004  0.9118800E+02  0.7818608E-02  0.1130116E+00
         25   -1    0    0    0    0  0.00000000000E+00  0.00000000000E+00  0.99999998245E-14  0.12500000000E+03  0.12500000000E+03 0.  0.
        -11    1    3    3    0    0 -0.28173628793E+01  0.19588936287E+02  0.30319093691E+02  0.36206510478E+02  0.51100000000E-03 0.  1.
         23    2    1    0    0    0 -0.19342532592E+02  0.13583719388E+02 -0.22799824581E+02  0.92159735074E+02  0.86110009688E+02 0.  0.
         11    1    3    3    0    0 -0.16525169713E+02 -0.60052168995E+01 -0.53118918272E+02  0.55953224596E+02  0.51100000000E-03 0. -1.
         22    1    1    0    0    0  0.19342532592E+02 -0.13583719388E+02  0.22799824581E+02  0.32840264926E+02  0.00000000000E+00 0. -1.
</event>
<event>
 5    1  0.6622912E-004  0.9118800E+02  0.7818608E-02  0.1130116E+00
         25   -1    0    0    0    0  0.00000000000E+00  0.00000000000E+00  0.99999998245E-14  0.12500000000E+03  0.12500000000E+03 0.  0.
        -11    1    3    3    0    0  0.22357325127E+02  0.55332706558E+02  0.93409889121E+01  0.60405401050E+02  0.51100000000E-03 0. -1.
         23    2    1    0    0    0  0.10372174430E+02  0.41409158325E+02  0.15196437771E+02  0.79687395611E+02  0.65550353949E+02 0.  0.
         11    1    3    3    0    0 -0.11985150697E+02 -0.13923548234E+02  0.58554488589E+01  0.19281994561E+02  0.51100000000E-03 0.  1.
         22    1    1    0    0    0 -0.10372174430E+02 -0.41409158325E+02 -0.15196437771E+02  0.45312604389E+02  0.00000000000E+00 0. -1.
</event>
<event>
 5    1  0.6622912E-004  0.9118800E+02  0.7818608E-02  0.1130116E+00
         25   -1    0    0    0    0  0.00000000000E+00  0.00000000000E+00  0.99999998245E-14  0.12500000000E+03  0.12500000000E+03 0.  0.
        -11    1    3    3    0    0  0.21275043392E+02  0.31641935014E+02 -0.22218425124E+02  0.44130464965E+02  0.51100000000E-03 0. -1.
         23    2    1    0    0    0  0.22175844527E+02  0.47992703101E+00  0.18988411934E+02  0.95801400749E+02  0.91243356949E+02 0.  0.
         11    1    3    3    0    0  0.90080113519E+00 -0.31162007983E+02  0.41206837058E+02  0.51670935784E+02  0.51100000000E-03 0.  1.
         22    1    1    0    0    0 -0.22175844527E+02 -0.47992703101E+00 -0.18988411934E+02  0.29198599251E+02  0.00000000000E+00 0. -1.
</event>
<event>
 5    1  0.6622912E-004  0.9118800E+02  0.7818608E-02  0.1130116E+00
         25   -1    0    0    0    0  0.00000000000E+00  0.00000000000E+00  0.99999998245E-14  0.12500000000E+03  0.12500000000E+03 0.  0.
        -11    1    3    3    0    0 -0.50015265288E+02  0.20094525935E+02  0.13581899336E+02  0.55585832046E+02  0.51100000000E-03 0.  1.
         23    2    1    0    0    0 -0.26451430854E+02  0.84553261687E+01 -0.14183776846E+02  0.93817468665E+02  0.88483711305E+02 0.  0.
         11    1    3    3    0    0  0.23563834434E+02 -0.11639199767E+02 -0.27765676182E+02  0.38231636619E+02  0.51100000000E-03 0. -1.
         22    1    1    0    0    0  0.26451430854E+02 -0.84553261687E+01  0.14183776846E+02  0.31182531335E+02  0.00000000000E+00 0.  1.
</event>
<event>
 5    1  0.6622912E-004  0.9118800E+02  0.7818608E-02  0.1130116E+00
         25   -1    0    0    0    0  0.00000000000E+00  0.00000000000E+00  0.99999998245E-14  0.12500000000E+03  0.12500000000E+03 0.  0.
        -11    1    3    3    0    0 -0.48626989209E+02  0.29308448675E+02 -0.19686916241E+02  0.60092794199E+02  0.51100000000E-03 0. -1.
         23    2    1    0    0    0 -0.28360673600E+02  0.82936718442E+01  0.25838529956E+00  0.95450388113E+02  0.90761208829E+02 0.  0.
         11    1    3    3    0    0  0.20266315608E+02 -0.21014776831E+02  0.19945301541E+02  0.35357593914E+02  0.51100000000E-03 0.  1.
         22    1    1    0    0    0  0.28360673600E+02 -0.82936718442E+01 -0.25838529956E+00  0.29549611887E+02  0.00000000000E+00 0. -1.
</event>
<event>
 5    1  0.6622912E-004  0.9118800E+02  0.7818608E-02  0.1130116E+00
         25   -1    0    0    0    0  0.00000000000E+00  0.00000000000E+00  0.99999998245E-14  0.12500000000E+03  0.12500000000E+03 0.  0.
        -11    1    3    3    0    0 -0.46965696753E+02 -0.16827450442E+02 -0.30539729629E-02  0.49889275095E+02  0.51100000000E-03 0. -1.
         23    2    1    0    0    0 -0.15323341788E+02  0.10927573035E+02  0.20892137172E+02  0.96880646316E+02  0.92710094267E+02 0.  0.
         11    1    3    3    0    0  0.31642354965E+02  0.27755023477E+02  0.20895191145E+02  0.46991371221E+02  0.51100000000E-03 0.  1.
         22    1    1    0    0    0  0.15323341788E+02 -0.10927573035E+02 -0.20892137172E+02  0.28119353684E+02  0.00000000000E+00 0.  1.
</event>
<event>
 5    1  0.6622912E-004  0.9118800E+02  0.7818608E-02  0.1130116E+00
         25   -1    0    0    0    0  0.00000000000E+00  0.00000000000E+00  0.99999998245E-14  0.12500000000E+03  0.12500000000E+03 0.  0.
        -11    1    3    3    0    0 -0.36085774779E+02  0.14674944253E+02  0.75505777609E+00  0.38962895718E+02  0.51100000000E-03 0.  1.
         23    2    1    0    0    0  0.10783442873E+02  0.10984230543E+02  0.27816023385E+02  0.93209008859E+02  0.87619930465E+02 0.  0.
         11    1    3    3    0    0  0.46869217652E+02 -0.36907137098E+01  0.27060965609E+02  0.54246113141E+02  0.51100000000E-03 0. -1.
         22    1    1    0    0    0 -0.10783442873E+02 -0.10984230543E+02 -0.27816023385E+02  0.31790991141E+02  0.00000000000E+00 0. -1.
</event>
<event>
 5    1  0.6622912E-004  0.9118800E+02  0.7818608E-02  0.1130116E+00
         25   -1    0    0    0    0  0.00000000000E+00  0.00000000000E+00  0.99999998245E-14  0.12500000000E+03  0.12500000000E+03 0.  0.
        -11    1    3    3    0    0  0.41981370530E+01  0.19167069545E+02  0.57618261835E+02  0.60867602276E+02  0.51100000000E-03 0. -1.
         23    2    1    0    0    0  0.37306100115E+01  0.17419441467E+02  0.21293869276E+02  0.97237016356E+02  0.93189345362E+02 0.  0.
         11    1    3    3    0    0 -0.46752704153E+00 -0.17476280776E+01 -0.36324392560E+02  0.36369414080E+02  0.51100000000E-03 0.  1.
         22    1    1    0    0    0 -0.37306100115E+01 -0.17419441467E+02 -0.21293869276E+02  0.27762983644E+02  0.00000000000E+00 0. -1.
</event>
<event>
 5    1  0.6622912E-004  0.9118800E+02  0.7818608E-02  0.1130116E+00
         25   -1    0    0    0    0  0.00000000000E+00  0.00000000000E+00  0.99999998245E-14  0.12500000000E+03  0.12500000000E+03 0.  0.
        -11    1    3    3    0    0 -0.46141120870E+02 -0.21874419306E+02 -0.20435170872E+02  0.55000813303E+02  0.51100000000E-03 0. -1.
         23    2    1    0    0    0 -0.13451438071E+02  0.10945863392E+01 -0.26356050366E+02  0.95389517121E+02  0.90677336089E+02 0.  0.
         11    1    3    3    0    0  0.32689682799E+02  0.22969005645E+02 -0.59208794938E+01  0.40388703818E+02  0.51100000000E-03 0.  1.
         22    1    1    0    0    0  0.13451438071E+02 -0.10945863392E+01  0.26356050366E+02  0.29610482879E+02  0.00000000000E+00 0. -1.
</event>
<event>
 5    1  0.6622912E-004  0.9118800E+02  0.7818608E-02  0.1130116E+00
         25   -1    0    0    0    0  0.00000000000E+00  0.00000000000E+00  0.99999998245E-14  0.12500000000E+03  0.12500000000E+03 0.  0.
        -11    1    3    3    0    0  0.53941920982E+02 -0.29379825353E+02  0.47405735670E+01  0.61606639374E+02  0.51100000000E-03 0. -1.
         23    2    1    0    0    0  0.16317098927E+02 -0.13015592064E+02  0.77238790603E+01  0.10274440156E+03  0.10030503671E+03 0.  0.
         11    1    3    3    0    0 -0.37624822055E+02  0.16364233289E+02  0.29833054933E+01  0.41137762187E+02  0.51100000000E-03 0.  1.
         22    1    1    0    0    0 -0.16317098927E+02  0.13015592064E+02 -0.77238790603E+01  0.22255598439E+02  0.00000000000E+00 0. -1.
</event>
<event>
 5    1  0.6622912E-004  0.9118800E+02  0.7818608E-02  0.1130116E+00
         25   -1    0    0    0    0  0.00000000000E+00  0.00000000000E+00  0.99999998245E-14  0.12500000000E+03  0.12500000000E+03 0.  0.
        -11    1    3    3    0    0 -0.37802886401E+02  0.41500883016E+02 -0.37130359686E+01  0.56259827121E+02  0.51100000000E-03 0.  1.
         23    2    1    0    0    0 -0.23109399279E+01  0.27346005830E+02  0.83248574927E+01  0.96321650492E+02  0.91953317630E+02 0.  0.
         11    1    3    3    0    0  0.35491946473E+02 -0.14154877186E+02  0.12037893461E+02  0.40061823371E+02  0.51100000000E-03 0. -1.
         22    1    1    0    0    0  0.23109399279E+01 -0.27346005830E+02 -0.83248574927E+01  0.28678349508E+02  0.00000000000E+00 0.  1.
</event>
<event>
 5    1  0.6622912E-004  0.9118800E+02  0.7818608E-02  0.1130116E+00
         25   -1    0    0    0    0  0.00000000000E+00  0.00000000000E+00  0.99999998245E-14  0.12500000000E+03  0.12500000000E+03 0.  0.
        -11    1    3    3    0    0  0.35521656936E+02 -0.57934022451E+01 -0.66865639636E+01  0.36606853988E+02  0.51100000000E-03 0. -1.
         23    2    1    0    0    0 -0.48645165485E+01 -0.85779549991E+01  0.31338281706E+02  0.92146800254E+02  0.86091231049E+02 0.  0.
         11    1    3    3    0    0 -0.40386173484E+02 -0.27845527540E+01  0.38024845670E+02  0.55539946266E+02  0.51100000000E-03 0.  1.
         22    1    1    0    0    0  0.48645165485E+01  0.85779549991E+01 -0.31338281706E+02  0.32853199746E+02  0.00000000000E+00 0.  1.
</event>
<event>
 5    1  0.6622912E-004  0.9118800E+02  0.7818608E-02  0.1130116E+00
         25   -1    0    0    0    0  0.00000000000E+00  0.00000000000E+00  0.99999998245E-14  0.12500000000E+03  0.12500000000E+03 0.  0.
        -11    1    3    3    0    0 -0.38792973598E+02 -0.78615473249E+01  0.55294192407E+01  0.39965900520E+02  0.51100000000E-03 0.  1.
         23    2    1    0    0    0  0.72314474194E+01  0.10173470924E+01 -0.27005992512E+02  0.97024073591E+02  0.92903274419E+02 0.  0.
         11    1    3    3    0    0  0.46024421018E+02  0.88788944173E+01 -0.32535411753E+02  0.57058173072E+02  0.51100000000E-03 0. -1.
         22    1    1    0    0    0 -0.72314474194E+01 -0.10173470924E+01  0.27005992512E+02  0.27975926409E+02  0.00000000000E+00 0. -1.
</event>
<event>
 5    1  0.6622912E-004  0.9118800E+02  0.7818608E-02  0.1130116E+00
         25   -1    0    0    0    0  0.00000000000E+00  0.00000000000E+00  0.99999998245E-14  0.12500000000E+03  0.12500000000E+03 0.  0.
        -11    1    3    3    0    0 -0.37119332761E+02 -0.13949207965E+02 -0.21914607733E+02  0.45306459802E+02  0.51100000000E-03 0. -1.
         23    2    1    0    0    0  0.17549154746E+01  0.17759857140E+02 -0.23492402262E+02  0.95497708258E+02  0.90826356662E+02 0.  0.
         11    1    3    3    0    0  0.38874248235E+02  0.31709065105E+02 -0.15777945295E+01  0.50191248456E+02  0.51100000000E-03 0.  1.
         22    1    1    0    0    0 -0.17549154746E+01 -0.17759857140E+02  0.23492402262E+02  0.29502291742E+02  0.00000000000E+00 0. -1.
</event>
<event>
 5    1  0.6622912E-004  0.9118800E+02  0.7818608E-02  0.1130116E+00
         25   -1    0    0    0    0  0.00000000000E+00  0.00000000000E+00  0.99999998245E-14  0.12500000000E+03  0.12500000000E+03 0.  0.
        -11    1    3    3    0    0  0.16272588413E+02  0.39432367335E+01 -0.57252309651E+02  0.59650425063E+02  0.51100000000E-03 0.  1.
         23    2    1    0    0    0  0.19797891484E+02  0.36545036789E+01 -0.21619900521E+02  0.95457962107E+02  0.90771639441E+02 0.  0.
         11    1    3    3    0    0  0.35253030710E+01 -0.28873305461E+00  0.35632409130E+02  0.35807537044E+02  0.51100000000E-03 0. -1.
         22    1    1    0    0    0 -0.19797891484E+02 -0.36545036789E+01  0.21619900521E+02  0.29542037893E+02  0.00000000000E+00 0.  1.
</event>
<event>
 5    1  0.6622912E-004  0.9118800E+02  0.7818608E-02  0.1130116E+00
         25   -1    0    0    0    0  0.00000000000E+00  0.00000000000E+00  0.99999998245E-14  0.12500000000E+03  0.12500000000E+03 0.  0.
        -11    1    3    3    0    0 -0.30621930524E+01 -0.34504195158E+02 -0.31660161051E+02  0.46928480775E+02  0.51100000000E-03 0.  1.
         23    2    1    0    0    0 -0.56257274570E+01 -0.22288131067E+02  0.16515572246E+02  0.96694987679E+02  0.92459433914E+02 0.  0.
         11    1    3    3    0    0 -0.25635344046E+01  0.12216064090E+02  0.48175733297E+02  0.49766506904E+02  0.51100000000E-03 0. -1.
         22    1    1    0    0    0  0.56257274570E+01  0.22288131067E+02 -0.16515572246E+02  0.28305012321E+02  0.00000000000E+00 0. -1.
</event>
<event>
 5    1  0.6622912E-004  0.9118800E+02  0.7818608E-02  0.1130116E+00
         25   -1    0    0    0    0  0.00000000000E+00  0.00000000000E+00  0.99999998245E-14  0.12500000000E+03  0.12500000000E+03 0.  0.
        -11    1    3    3    0    0 -0.54083167842E+02 -0.12706831765E+02  0.24645838239E+02  0.60777215797E+02  0.51100000000E-03 0. -1.
         23    2    1    0    0    0 -0.28498092627E+02  0.29127170818E+01  0.71920124025E+01  0.95464424052E+02  0.90780537634E+02 0.  0.
         11    1    3    3    0    0  0.25585075215E+02  0.15619548847E+02 -0.17453825837E+02  0.34687208255E+02  0.51100000000E-03 0.  1.
         22    1    1    0    0    0  0.28498092627E+02 -0.29127170818E+01 -0.71920124025E+01  0.29535575948E+02  0.00000000000E+00 0. -1.
</event>
<event>
 5    1  0.6622912E-004  0.9118800E+02  0.7818608E-02  0.1130116E+00
         25   -1    0    0    0    0  0.00000000000E+00  0.00000000000E+00  0.99999998245E-14  0.12500000000E+03  0.12500000000E+03 0.  0.
        -11    1    3    3    0    0  0.43648901181E+01 -0.47925139684E+02  0.18956473155E+02  0.51722520764E+02  0.51100000000E-03 0.  1.
         23    2    1    0    0    0  0.25383849387E+02 -0.17297019078E+02 -0.17181807809E+01  0.94235104033E+02  0.89071746408E+02 0.  0.
         11    1    3    3    0    0  0.21018959269E+02  0.30628120606E+02 -0.20674653936E+02  0.42512583269E+02  0.51100000000E-03 0. -1.
         22    1    1    0    0    0 -0.25383849387E+02  0.17297019078E+02  0.17181807809E+01  0.30764895967E+02  0.00000000000E+00 0. -1.
</event>
<event>
 5    1  0.6622912E-004  0.9118800E+02  0.7818608E-02  0.1130116E+00
         25   -1    0    0    0    0  0.00000000000E+00  0.00000000000E+00  0.99999998245E-14  0.12500000000E+03  0.12500000000E+03 0.  0.
        -11    1    3    3    0    0 -0.16634771018E+02  0.18013664281E+02  0.21561192454E+02  0.32651075449E+02  0.51100000000E-03 0.  1.
         23    2    1    0    0    0  0.35784895069E+01 -0.12388029866E+02 -0.27980398181E+02  0.94191372093E+02  0.89010353461E+02 0.  0.
         11    1    3    3    0    0  0.20213260525E+02 -0.30401694147E+02 -0.49541590636E+02  0.61540296644E+02  0.51100000000E-03 0. -1.
         22    1    1    0    0    0 -0.35784895069E+01  0.12388029866E+02  0.27980398181E+02  0.30808627907E+02  0.00000000000E+00 0. -1.
</event>
<event>
 5    1  0.6622912E-004  0.9118800E+02  0.7818608E-02  0.1130116E+00
         25   -1    0    0    0    0  0.00000000000E+00  0.00000000000E+00  0.99999998245E-14  0.12500000000E+03  0.12500000000E+03 0.  0.
        -11    1    3    3    0    0  0.29406589644E+02 -0.64083078370E+01 -0.36782515558E+02  0.47526491295E+02  0.51100000000E-03 0. -1.
         23    2    1    0    0    0 -0.70194831619E+01 -0.24133138646E+02 -0.24607174416E+02  0.89826223440E+02  0.82653226555E+02 0.  0.
         11    1    3    3    0    0 -0.36426072806E+02 -0.17724830809E+02  0.12175341142E+02  0.42299732144E+02  0.51100000000E-03 0.  1.
         22    1    1    0    0    0  0.70194831619E+01  0.24133138646E+02  0.24607174416E+02  0.35173776560E+02  0.00000000000E+00 0.  1.
</event>
<event>
 5    1  0.6622912E-004  0.9118800E+02  0.7818608E-02  0.1130116E+00
         25   -1    0    0    0    0  0.00000000000E+00  0.00000000000E+00  0.99999998245E-14  0.12500000000E+03  0.12500000000E+03 0.  0.
        -11    1    3    3    0    0  0.30866531916E+02  0.31154103803E+02  0.24813734593E+02  0.50388911489E+02  0.51100000000E-03 0. -1.
         23    2    1    0    0    0 -0.13498340987E+00  0.29910432736E+02 -0.64137720168E+01  0.94409336743E+02  0.89315923473E+02 0.  0.
         11    1    3    3    0    0 -0.31001515326E+02 -0.12436710665E+01 -0.31227506610E+02  0.44020425254E+02  0.51100000000E-03 0.  1.
         22    1    1    0    0    0  0.13498340987E+00 -0.29910432736E+02  0.64137720168E+01  0.30590663257E+02  0.00000000000E+00 0.  1.
</event>
<event>
 5    1  0.6622912E-004  0.9118800E+02  0.7818608E-02  0.1130116E+00
         25   -1    0    0    0    0  0.00000000000E+00  0.00000000000E+00  0.99999998245E-14  0.12500000000E+03  0.12500000000E+03 0.  0.
        -11    1    3    3    0    0  0.22486568482E+02 -0.32121878230E+02 -0.13424221890E+02  0.41444789259E+02  0.51100000000E-03 0.  1.
         23    2    1    0    0    0  0.16692842326E+02  0.13058842546E+02  0.18336311573E+02  0.96974927731E+02  0.92837125833E+02 0.  0.
         11    1    3    3    0    0 -0.57937261559E+01  0.45180720776E+02  0.31760533463E+02  0.55530138472E+02  0.51100000000E-03 0. -1.
         22    1    1    0    0    0 -0.16692842326E+02 -0.13058842546E+02 -0.18336311573E+02  0.28025072269E+02  0.00000000000E+00 0. -1.
</event>
<event>
 5    1  0.6622912E-004  0.9118800E+02  0.7818608E-02  0.1130116E+00
         25   -1    0    0    0    0  0.00000000000E+00  0.00000000000E+00  0.99999998245E-14  0.12500000000E+03  0.12500000000E+03 0.  0.
        -11    1    3    3    0    0 -0.17658470677E+02 -0.53250424998E+02  0.11235572861E+02  0.57215971956E+02  0.51100000000E-03 0.  1.
         23    2    1    0    0    0  0.10448268077E+02 -0.24479651248E+02  0.50189002551E+01  0.97914782800E+02  0.94094078984E+02 0.  0.
         11    1    3    3    0    0  0.28106738754E+02  0.28770773750E+02 -0.62166726057E+01  0.40698810844E+02  0.51100000000E-03 0. -1.
         22    1    1    0    0    0 -0.10448268077E+02  0.24479651248E+02 -0.50189002551E+01  0.27085217200E+02  0.00000000000E+00 0.  1.
</event>
<event>
 5    1  0.6622912E-004  0.9118800E+02  0.7818608E-02  0.1130116E+00
         25   -1    0    0    0    0  0.00000000000E+00  0.00000000000E+00  0.99999998245E-14  0.12500000000E+03  0.12500000000E+03 0.  0.
        -11    1    3    3    0    0 -0.16228083972E+01 -0.35244414299E+02 -0.26858512781E+02  0.44341650347E+02  0.51100000000E-03 0. -1.
         23    2    1    0    0    0 -0.31869370715E+02 -0.32118073114E+02 -0.11978244382E+02  0.78195024316E+02  0.62639892074E+02 0.  0.
         11    1    3    3    0    0 -0.30246562317E+02  0.31263411852E+01  0.14880268399E+02  0.33853373969E+02  0.51100000000E-03 0.  1.
         22    1    1    0    0    0  0.31869370715E+02  0.32118073114E+02  0.11978244382E+02  0.46804975684E+02  0.00000000000E+00 0. -1.
</event>
<event>
 5    1  0.6622912E-004  0.9118800E+02  0.7818608E-02  0.1130116E+00
         25   -1    0    0    0    0  0.00000000000E+00  0.00000000000E+00  0.99999998245E-14  0.12500000000E+03  0.12500000000E+03 0.  0.
        -11    1    3    3    0    0  0.24778730532E+02 -0.40720182499E+02 -0.14942809139E+02  0.49954041826E+02  0.51100000000E-03 0.  1.
         23    2    1    0    0    0  0.23648569526E+02  0.43922228161E+01 -0.17656513392E+02  0.95162122611E+02  0.90363325817E+02 0.  0.
         11    1    3    3    0    0 -0.11301610055E+01  0.45112405315E+02 -0.27137042528E+01  0.45208080785E+02  0.51100000000E-03 0. -1.
         22    1    1    0    0    0 -0.23648569526E+02 -0.43922228161E+01  0.17656513392E+02  0.29837877389E+02  0.00000000000E+00 0. -1.
</event>
<event>
 5    1  0.6622912E-004  0.9118800E+02  0.7818608E-02  0.1130116E+00
         25   -1    0    0    0    0  0.00000000000E+00  0.00000000000E+00  0.99999998245E-14  0.12500000000E+03  0.12500000000E+03 0.  0.
        -11    1    3    3    0    0 -0.33787208576E+02  0.27329422813E+02  0.40657768581E+02  0.59510729796E+02  0.51100000000E-03 0.  1.
         23    2    1    0    0    0 -0.18877475997E+02  0.22999157077E+02  0.10469532784E+02  0.93457466129E+02  0.87973669540E+02 0.  0.
         11    1    3    3    0    0  0.14909732579E+02 -0.43302657362E+01 -0.30188235796E+02  0.33946736333E+02  0.51100000000E-03 0. -1.
         22    1    1    0    0    0  0.18877475997E+02 -0.22999157077E+02 -0.10469532784E+02  0.31542533871E+02  0.00000000000E+00 0.  1.
</event>
<event>
 5    1  0.6622912E-004  0.9118800E+02  0.7818608E-02  0.1130116E+00
         25   -1    0    0    0    0  0.00000000000E+00  0.00000000000E+00  0.99999998245E-14  0.12500000000E+03  0.12500000000E+03 0.  0.
        -11    1    3    3    0    0  0.10027629715E+02 -0.10481709979E+02  0.52158076003E+02  0.54137643968E+02  0.51100000000E-03 0. -1.
         23    2    1    0    0    0 -0.14263064219E+02  0.81873085936E+01  0.24984993076E+02  0.95088181233E+02  0.90260984419E+02 0.  0.
         11    1    3    3    0    0 -0.24290693935E+02  0.18669018572E+02 -0.27173082928E+02  0.40950537266E+02  0.51100000000E-03 0.  1.
         22    1    1    0    0    0  0.14263064219E+02 -0.81873085936E+01 -0.24984993076E+02  0.29911818767E+02  0.00000000000E+00 0.  1.
</event>
<event>
 5    1  0.6622912E-004  0.9118800E+02  0.7818608E-02  0.1130116E+00
         25   -1    0    0    0    0  0.00000000000E+00  0.00000000000E+00  0.99999998245E-14  0.12500000000E+03  0.12500000000E+03 0.  0.
        -11    1    3    3    0    0  0.26505888882E+02 -0.30401784634E+02 -0.43646652461E+02  0.59429461765E+02  0.51100000000E-03 0.  1.
         23    2    1    0    0    0  0.13797221965E+02 -0.17121848903E+01 -0.26219411476E+02  0.95322526233E+02  0.90584941123E+02 0.  0.
         11    1    3    3    0    0 -0.12708666917E+02  0.28689599744E+02  0.17427240985E+02  0.35893064468E+02  0.51100000000E-03 0. -1.
         22    1    1    0    0    0 -0.13797221965E+02  0.17121848903E+01  0.26219411476E+02  0.29677473767E+02  0.00000000000E+00 0.  1.
</event>
<event>
 5    1  0.6622912E-004  0.9118800E+02  0.7818608E-02  0.1130116E+00
         25   -1    0    0    0    0  0.00000000000E+00  0.00000000000E+00  0.99999998245E-14  0.12500000000E+03  0.12500000000E+03 0.  0.
        -11    1    3    3    0    0 -0.29260922021E+02 -0.32141891531E+02  0.10027693755E+02  0.44607817600E+02  0.51100000000E-03 0. -1.
         23    2    1    0    0    0 -0.23476003592E+02  0.15660477091E+02 -0.74168628827E+01  0.95821529472E+02  0.91270928383E+02 0.  0.
         11    1    3    3    0    0  0.57849184293E+01  0.47802368622E+02 -0.17444556638E+02  0.51213711872E+02  0.51100000000E-03 0.  1.
         22    1    1    0    0    0  0.23476003592E+02 -0.15660477091E+02  0.74168628827E+01  0.29178470528E+02  0.00000000000E+00 0.  1.
</event>
<event>
 5    1  0.6622912E-004  0.9118800E+02  0.7818608E-02  0.1130116E+00
         25   -1    0    0    0    0  0.00000000000E+00  0.00000000000E+00  0.99999998245E-14  0.12500000000E+03  0.12500000000E+03 0.  0.
        -11    1    3    3    0    0  0.38169803572E+02 -0.11438596143E+02 -0.46012656514E+02  0.60868217866E+02  0.51100000000E-03 0.  1.
         23    2    1    0    0    0  0.21204032130E+02  0.23453506245E+01 -0.14557648986E+02  0.99172944571E+02  0.95750906747E+02 0.  0.
         11    1    3    3    0    0 -0.16965771442E+02  0.13783946768E+02  0.31455007528E+02  0.38304726705E+02  0.51100000000E-03 0. -1.
         22    1    1    0    0    0 -0.21204032130E+02 -0.23453506245E+01  0.14557648986E+02  0.25827055429E+02  0.00000000000E+00 0.  1.
</event>
<event>
 5    1  0.6622912E-004  0.9118800E+02  0.7818608E-02  0.1130116E+00
         25   -1    0    0    0    0  0.00000000000E+00  0.00000000000E+00  0.99999998245E-14  0.12500000000E+03  0.12500000000E+03 0.  0.
        -11    1    3    3    0    0 -0.18205973007E+02  0.17216604923E+02 -0.38804001637E+02  0.46191119076E+02  0.51100000000E-03 0. -1.
         23    2    1    0    0    0 -0.34133735730E+02  0.15153827746E+02 -0.58340041512E+00  0.87649086139E+02  0.79292316997E+02 0.  0.
         11    1    3    3    0    0 -0.15927762723E+02 -0.20627771773E+01  0.38220601222E+02  0.41457967063E+02  0.51100000000E-03 0.  1.
         22    1    1    0    0    0  0.34133735730E+02 -0.15153827746E+02  0.58340041512E+00  0.37350913861E+02  0.00000000000E+00 0.  1.
</event>
<event>
 5    1  0.6622912E-004  0.9118800E+02  0.7818608E-02  0.1130116E+00
         25   -1    0    0    0    0  0.00000000000E+00  0.00000000000E+00  0.99999998245E-14  0.12500000000E+03  0.12500000000E+03 0.  0.
        -11    1    3    3    0    0  0.27335348204E+02 -0.36345652172E+02 -0.10394206251E+02  0.46650479281E+02  0.51100000000E-03 0. -1.
         23    2    1    0    0    0  0.70033575305E+01 -0.12770352516E+02  0.26400565881E+02  0.94848403045E+02  0.89928309009E+02 0.  0.
         11    1    3    3    0    0 -0.20331990673E+02  0.23575299657E+02  0.36794772133E+02  0.48197923764E+02  0.51100000000E-03 0.  1.
         22    1    1    0    0    0 -0.70033575305E+01  0.12770352516E+02 -0.26400565881E+02  0.30151596955E+02  0.00000000000E+00 0.  1.
</event>
<event>
 5    1  0.6622912E-004  0.9118800E+02  0.7818608E-02  0.1130116E+00
         25   -1    0    0    0    0  0.00000000000E+00  0.00000000000E+00  0.99999998245E-14  0.12500000000E+03  0.12500000000E+03 0.  0.
        -11    1    3    3    0    0 -0.31121824298E+02 -0.12788300720E+02  0.11892743056E+02  0.35686775150E+02  0.51100000000E-03 0.  1.
         23    2    1    0    0    0  0.12554165159E+02  0.20630270505E+00 -0.26760298166E+02  0.95440514524E+02  0.90747609506E+02 0.  0.
         11    1    3    3    0    0  0.43675989457E+02  0.12994603425E+02 -0.38653041222E+02  0.59753739374E+02  0.51100000000E-03 0. -1.
         22    1    1    0    0    0 -0.12554165159E+02 -0.20630270505E+00  0.26760298166E+02  0.29559485476E+02  0.00000000000E+00 0. -1.
</event>
<event>
 5    1  0.6622912E-004  0.9118800E+02  0.7818608E-02  0.1130116E+00
         25   -1    0    0    0    0  0.00000000000E+00  0.00000000000E+00  0.99999998245E-14  0.12500000000E+03  0.12500000000E+03 0.  0.
        -11    1    3    3    0    0  0.28043556789E+02  0.24633028686E+02 -0.27374844694E+02  0.46288327923E+02  0.51100000000E-03 0. -1.
         23    2    1    0    0    0 -0.17688248991E+02  0.21661763038E+02 -0.10752598161E+02  0.95037949044E+02  0.90191392389E+02 0.  0.
         11    1    3    3    0    0 -0.45731805780E+02 -0.29712656488E+01  0.16622246533E+02  0.48749621121E+02  0.51100000000E-03 0.  1.
         22    1    1    0    0    0  0.17688248991E+02 -0.21661763038E+02  0.10752598161E+02  0.29962050956E+02  0.00000000000E+00 0.  1.
</event>
<event>
 5    1  0.6622912E-004  0.9118800E+02  0.7818608E-02  0.1130116E+00
         25   -1    0    0    0    0  0.00000000000E+00  0.00000000000E+00  0.99999998245E-14  0.12500000000E+03  0.12500000000E+03 0.  0.
        -11    1    3    3    0    0  0.14867142821E+02 -0.40847833737E+01  0.46419602924E+02  0.48913156991E+02  0.51100000000E-03 0.  1.
         23    2    1    0    0    0 -0.39562097657E+01 -0.28540759148E+02  0.17028385791E+02  0.91530723774E+02  0.85192023943E+02 0.  0.
         11    1    3    3    0    0 -0.18823352587E+02 -0.24455975774E+02 -0.29391217133E+02  0.42617566783E+02  0.51100000000E-03 0. -1.
         22    1    1    0    0    0  0.39562097657E+01  0.28540759148E+02 -0.17028385791E+02  0.33469276226E+02  0.00000000000E+00 0. -1.
</event>
<event>
 5    1  0.6622912E-004  0.9118800E+02  0.7818608E-02  0.1130116E+00
         25   -1    0    0    0    0  0.00000000000E+00  0.00000000000E+00  0.99999998245E-14  0.12500000000E+03  0.12500000000E+03 0.  0.
        -11    1    3    3    0    0  0.30778778774E+02  0.32435154995E+02 -0.36086923906E+02  0.57459886701E+02  0.51100000000E-03 0.  1.
         23    2    1    0    0    0  0.20672803834E+01  0.89760336461E+01 -0.28156421492E+02  0.95375231656E+02  0.90657641234E+02 0.  0.
         11    1    3    3    0    0 -0.28711498391E+02 -0.23459121349E+02  0.79305024146E+01  0.37915344956E+02  0.51100000000E-03 0. -1.
         22    1    1    0    0    0 -0.20672803834E+01 -0.89760336461E+01  0.28156421492E+02  0.29624768344E+02  0.00000000000E+00 0.  1.
</event>
<event>
 5    1  0.6622912E-004  0.9118800E+02  0.7818608E-02  0.1130116E+00
         25   -1    0    0    0    0  0.00000000000E+00  0.00000000000E+00  0.99999998245E-14  0.12500000000E+03  0.12500000000E+03 0.  0.
        -11    1    3    3    0    0  0.32083342486E+02  0.37392564764E+02  0.27370638949E+02  0.56362191596E+02  0.51100000000E-03 0. -1.
         23    2    1    0    0    0  0.21204089545E+02  0.17263284726E+02 -0.61751913799E+01  0.96968457025E+02  0.92828412980E+02 0.  0.
         11    1    3    3    0    0 -0.10879252941E+02 -0.20129280038E+02 -0.33545830329E+02  0.40606265430E+02  0.51100000000E-03 0.  1.
         22    1    1    0    0    0 -0.21204089545E+02 -0.17263284726E+02  0.61751913799E+01  0.28031542975E+02  0.00000000000E+00 0. -1.
</event>
<event>
 5    1  0.6622912E-004  0.9118800E+02  0.7818608E-02  0.1130116E+00
         25   -1    0    0    0    0  0.00000000000E+00  0.00000000000E+00  0.99999998245E-14  0.12500000000E+03  0.12500000000E+03 0.  0.
        -11    1    3    3    0    0  0.21905779767E+02 -0.44160118552E+02 -0.28765324474E+02  0.57073839454E+02  0.51100000000E-03 0. -1.
         23    2    1    0    0    0 -0.54424413328E+01 -0.19042992309E+02 -0.22994906649E+02  0.94651664699E+02  0.89654426410E+02 0.  0.
         11    1    3    3    0    0 -0.27348221099E+02  0.25117126243E+02  0.57704178254E+01  0.37577825245E+02  0.51100000000E-03 0.  1.
         22    1    1    0    0    0  0.54424413328E+01  0.19042992309E+02  0.22994906649E+02  0.30348335301E+02  0.00000000000E+00 0. -1.
</event>
<event>
 5    1  0.6622912E-004  0.9118800E+02  0.7818608E-02  0.1130116E+00
         25   -1    0    0    0    0  0.00000000000E+00  0.00000000000E+00  0.99999998245E-14  0.12500000000E+03  0.12500000000E+03 0.  0.
        -11    1    3    3    0    0 -0.25461777111E+02  0.35744576067E+02 -0.15782012109E+02  0.46637417577E+02  0.51100000000E-03 0.  1.
         23    2    1    0    0    0 -0.46512264058E+01  0.16898416583E+02  0.23970776615E+02  0.95305075827E+02  0.90560857752E+02 0.  0.
         11    1    3    3    0    0  0.20810550705E+02 -0.18846159483E+02  0.39752788724E+02  0.48667658250E+02  0.51100000000E-03 0. -1.
         22    1    1    0    0    0  0.46512264058E+01 -0.16898416583E+02 -0.23970776615E+02  0.29694924173E+02  0.00000000000E+00 0. -1.
</event>
<event>
 5    1  0.6622912E-004  0.9118800E+02  0.7818608E-02  0.1130116E+00
         25   -1    0    0    0    0  0.00000000000E+00  0.00000000000E+00  0.99999998245E-14  0.12500000000E+03  0.12500000000E+03 0.  0.
        -11    1    3    3    0    0 -0.18903168898E+02  0.10036051666E+02  0.26914822032E+02  0.34386912811E+02  0.51100000000E-03 0.  1.
         23    2    1    0    0    0  0.44518510276E+01 -0.45400061641E+00 -0.28879919787E+02  0.95775440790E+02  0.91207785838E+02 0.  0.
         11    1    3    3    0    0  0.23355019925E+02 -0.10490052282E+02 -0.55794741818E+02  0.61388527979E+02  0.51100000000E-03 0. -1.
         22    1    1    0    0    0 -0.44518510276E+01  0.45400061641E+00  0.28879919787E+02  0.29224559210E+02  0.00000000000E+00 0. -1.
</event>
<event>
 5    1  0.6622912E-004  0.9118800E+02  0.7818608E-02  0.1130116E+00
         25   -1    0    0    0    0  0.00000000000E+00  0.00000000000E+00  0.99999998245E-14  0.12500000000E+03  0.12500000000E+03 0.  0.
        -11    1    3    3    0    0 -0.29539425585E+02 -0.31141486221E+02 -0.77553187777E+00  0.42929841345E+02  0.51100000000E-03 0.  1.
         23    2    1    0    0    0  0.11405143925E+02 -0.89789287415E+01 -0.25509430943E+02  0.95649880131E+02  0.91035542689E+02 0.  0.
         11    1    3    3    0    0  0.40944569510E+02  0.22162557480E+02 -0.24733899065E+02  0.52720038786E+02  0.51100000000E-03 0. -1.
         22    1    1    0    0    0 -0.11405143925E+02  0.89789287415E+01  0.25509430943E+02  0.29350119869E+02  0.00000000000E+00 0. -1.
</event>
<event>
 5    1  0.6622912E-004  0.9118800E+02  0.7818608E-02  0.1130116E+00
         25   -1    0    0    0    0  0.00000000000E+00  0.00000000000E+00  0.99999998245E-14  0.12500000000E+03  0.12500000000E+03 0.  0.
        -11    1    3    3    0    0 -0.64117550726E+01 -0.43067317399E+02 -0.90387252144E+01  0.44470248311E+02  0.51100000000E-03 0. -1.
         23    2    1    0    0    0 -0.17878959613E+02  0.39678012399E+01 -0.23694607599E+02  0.95052795243E+02  0.90211966006E+02 0.  0.
         11    1    3    3    0    0 -0.11467204540E+02  0.47035118639E+02 -0.14655882384E+02  0.50582546932E+02  0.51100000000E-03 0.  1.
         22    1    1    0    0    0  0.17878959613E+02 -0.39678012399E+01  0.23694607599E+02  0.29947204757E+02  0.00000000000E+00 0.  1.
</event>
<event>
 5    1  0.6622912E-004  0.9118800E+02  0.7818608E-02  0.1130116E+00
         25   -1    0    0    0    0  0.00000000000E+00  0.00000000000E+00  0.99999998245E-14  0.12500000000E+03  0.12500000000E+03 0.  0.
        -11    1    3    3    0    0 -0.18583379922E+02  0.30824990422E+02  0.18333734883E+02  0.40393661370E+02  0.51100000000E-03 0. -1.
         23    2    1    0    0    0 -0.10594744960E+02 -0.23965605215E+02  0.12179967025E+02  0.96104490820E+02  0.91657638552E+02 0.  0.
         11    1    3    3    0    0  0.79886349625E+01 -0.54790595637E+02 -0.61537678580E+01  0.55710829449E+02  0.51100000000E-03 0.  1.
         22    1    1    0    0    0  0.10594744960E+02  0.23965605215E+02 -0.12179967025E+02  0.28895509180E+02  0.00000000000E+00 0.  1.
</event>
<event>
 5    1  0.6622912E-004  0.9118800E+02  0.7818608E-02  0.1130116E+00
         25   -1    0    0    0    0  0.00000000000E+00  0.00000000000E+00  0.99999998245E-14  0.12500000000E+03  0.12500000000E+03 0.  0.
        -11    1    3    3    0    0  0.15606168661E+02 -0.23316394781E+02  0.24068375652E+02  0.36966112490E+02  0.51100000000E-03 0.  1.
         23    2    1    0    0    0  0.14457118006E+02  0.42731495872E-02 -0.27698782973E+02  0.93755306731E+02  0.88395852180E+02 0.  0.
         11    1    3    3    0    0 -0.11490506549E+01  0.23320667930E+02 -0.51767158625E+02  0.56789194241E+02  0.51100000000E-03 0. -1.
         22    1    1    0    0    0 -0.14457118006E+02 -0.42731495872E-02  0.27698782973E+02  0.31244693269E+02  0.00000000000E+00 0. -1.
</event>
<event>
 5    1  0.6622912E-004  0.9118800E+02  0.7818608E-02  0.1130116E+00
         25   -1    0    0    0    0  0.00000000000E+00  0.00000000000E+00  0.99999998245E-14  0.12500000000E+03  0.12500000000E+03 0.  0.
        -11    1    3    3    0    0  0.31775100631E+02  0.11143351811E+02  0.30516925253E+01  0.33810414627E+02  0.51100000000E-03 0.  1.
         23    2    1    0    0    0 -0.22930933454E+02 -0.74268603748E+01 -0.17591355844E+02  0.95159729148E+02  0.90360014868E+02 0.  0.
         11    1    3    3    0    0 -0.54706034085E+02 -0.18570212186E+02 -0.20643048369E+02  0.61349314521E+02  0.51100000000E-03 0. -1.
         22    1    1    0    0    0  0.22930933454E+02  0.74268603748E+01  0.17591355844E+02  0.29840270852E+02  0.00000000000E+00 0. -1.
</event>
<event>
 5    1  0.6622912E-004  0.9118800E+02  0.7818608E-02  0.1130116E+00
         25   -1    0    0    0    0  0.00000000000E+00  0.00000000000E+00  0.99999998245E-14  0.12500000000E+03  0.12500000000E+03 0.  0.
        -11    1    3    3    0    0 -0.14635342476E+02  0.28365772774E+02 -0.13434457690E+02  0.34630838398E+02  0.51100000000E-03 0.  1.
         23    2    1    0    0    0  0.11814956396E+02 -0.25149790031E+02 -0.12987512399E+02  0.94327852838E+02  0.89201811694E+02 0.  0.
         11    1    3    3    0    0  0.26450298872E+02 -0.53515562805E+02  0.44694529036E+00  0.59697014440E+02  0.51100000000E-03 0. -1.
         22    1    1    0    0    0 -0.11814956396E+02  0.25149790031E+02  0.12987512399E+02  0.30672147162E+02  0.00000000000E+00 0. -1.
</event>
<event>
 5    1  0.6622912E-004  0.9118800E+02  0.7818608E-02  0.1130116E+00
         25   -1    0    0    0    0  0.00000000000E+00  0.00000000000E+00  0.99999998245E-14  0.12500000000E+03  0.12500000000E+03 0.  0.
        -11    1    3    3    0    0  0.22687356324E+02  0.28210934326E+02 -0.47693441802E+02  0.59876851485E+02  0.51100000000E-03 0. -1.
         23    2    1    0    0    0 -0.13430072777E+01  0.11990963932E+02 -0.26787574186E+02  0.95620397972E+02  0.90995052025E+02 0.  0.
         11    1    3    3    0    0 -0.24030363602E+02 -0.16219970394E+02  0.20905867617E+02  0.35743546487E+02  0.51100000000E-03 0.  1.
         22    1    1    0    0    0  0.13430072777E+01 -0.11990963932E+02  0.26787574186E+02  0.29379602028E+02  0.00000000000E+00 0. -1.
</event>
<event>
 5    1  0.6622912E-004  0.9118800E+02  0.7818608E-02  0.1130116E+00
         25   -1    0    0    0    0  0.00000000000E+00  0.00000000000E+00  0.99999998245E-14  0.12500000000E+03  0.12500000000E+03 0.  0.
        -11    1    3    3    0    0 -0.44316323696E+02 -0.31707774199E+02  0.23993587589E+02  0.59540001144E+02  0.51100000000E-03 0. -1.
         23    2    1    0    0    0 -0.24490483310E+02 -0.28602721000E+01  0.16485533072E+02  0.95339626942E+02  0.90608535666E+02 0.  0.
         11    1    3    3    0    0  0.19825840386E+02  0.28847502099E+02 -0.75080545172E+01  0.35799625798E+02  0.51100000000E-03 0.  1.
         22    1    1    0    0    0  0.24490483310E+02  0.28602721000E+01 -0.16485533072E+02  0.29660373058E+02  0.00000000000E+00 0. -1.
</event>
<event>
 5    1  0.6622912E-004  0.9118800E+02  0.7818608E-02  0.1130116E+00
         25   -1    0    0    0    0  0.00000000000E+00  0.00000000000E+00  0.99999998245E-14  0.12500000000E+03  0.12500000000E+03 0.  0.
        -11    1    3    3    0    0  0.52419652321E+02 -0.18909214448E+02  0.16145103530E+02  0.58017606886E+02  0.51100000000E-03 0. -1.
         23    2    1    0    0    0  0.24554081131E+02  0.81197050814E+01  0.97486750383E+01  0.97361816705E+02  0.93356596855E+02 0.  0.
         11    1    3    3    0    0 -0.27865571190E+02  0.27028919529E+02 -0.63964284913E+01  0.39344209820E+02  0.51100000000E-03 0.  1.
         22    1    1    0    0    0 -0.24554081131E+02 -0.81197050814E+01 -0.97486750383E+01  0.27638183295E+02  0.00000000000E+00 0. -1.
</event>
<event>
 5    1  0.6622912E-004  0.9118800E+02  0.7818608E-02  0.1130116E+00
         25   -1    0    0    0    0  0.00000000000E+00  0.00000000000E+00  0.99999998245E-14  0.12500000000E+03  0.12500000000E+03 0.  0.
        -11    1    3    3    0    0  0.14691744774E+01  0.55866576278E+01  0.51630240228E+02  0.51952390930E+02  0.51100000000E-03 0. -1.
         23    2    1    0    0    0  0.16195066703E+02  0.19912183172E+02  0.11838428551E+02  0.96734763140E+02  0.92513192492E+02 0.  0.
         11    1    3    3    0    0  0.14725892225E+02  0.14325525545E+02 -0.39791811677E+02  0.44782372210E+02  0.51100000000E-03 0.  1.
         22    1    1    0    0    0 -0.16195066703E+02 -0.19912183172E+02 -0.11838428551E+02  0.28265236860E+02  0.00000000000E+00 0. -1.
</event>
<event>
 5    1  0.6622912E-004  0.9118800E+02  0.7818608E-02  0.1130116E+00
         25   -1    0    0    0    0  0.00000000000E+00  0.00000000000E+00  0.99999998245E-14  0.12500000000E+03  0.12500000000E+03 0.  0.
        -11    1    3    3    0    0 -0.18123628250E+02  0.36682262511E+02 -0.29176081685E+02  0.50252343494E+02  0.51100000000E-03 0.  1.
         23    2    1    0    0    0  0.19466531351E+02  0.15763962069E+02 -0.16135394674E+02  0.95204038793E+02  0.90421290072E+02 0.  0.
         11    1    3    3    0    0  0.37590159602E+02 -0.20918300443E+02  0.13040687011E+02  0.44951695299E+02  0.51100000000E-03 0. -1.
         22    1    1    0    0    0 -0.19466531351E+02 -0.15763962069E+02  0.16135394674E+02  0.29795961207E+02  0.00000000000E+00 0. -1.
</event>
<event>
 5    1  0.6622912E-004  0.9118800E+02  0.7818608E-02  0.1130116E+00
         25   -1    0    0    0    0  0.00000000000E+00  0.00000000000E+00  0.99999998245E-14  0.12500000000E+03  0.12500000000E+03 0.  0.
        -11    1    3    3    0    0  0.17245973016E+02  0.27861427982E+02 -0.22605084506E+02  0.39807946446E+02  0.51100000000E-03 0. -1.
         23    2    1    0    0    0  0.20057491795E+02 -0.20633643189E+02  0.51684106751E+01  0.95763675381E+02  0.91191659954E+02 0.  0.
         11    1    3    3    0    0  0.28115187785E+01 -0.48495071171E+02  0.27773495181E+02  0.55955728934E+02  0.51100000000E-03 0.  1.
         22    1    1    0    0    0 -0.20057491795E+02  0.20633643189E+02 -0.51684106751E+01  0.29236324619E+02  0.00000000000E+00 0.  1.
</event>
<event>
 5    1  0.6622912E-004  0.9118800E+02  0.7818608E-02  0.1130116E+00
         25   -1    0    0    0    0  0.00000000000E+00  0.00000000000E+00  0.99999998245E-14  0.12500000000E+03  0.12500000000E+03 0.  0.
        -11    1    3    3    0    0  0.36978853945E+02  0.19341815999E+01  0.92498022496E+01  0.38167205025E+02  0.51100000000E-03 0.  1.
         23    2    1    0    0    0 -0.87351080924E+01 -0.20210294616E+02 -0.18672499763E+02  0.96130979074E+02  0.91693755340E+02 0.  0.
         11    1    3    3    0    0 -0.45713962037E+02 -0.22144476216E+02 -0.27922302012E+02  0.57963774048E+02  0.51100000000E-03 0. -1.
         22    1    1    0    0    0  0.87351080924E+01  0.20210294616E+02  0.18672499763E+02  0.28869020926E+02  0.00000000000E+00 0. -1.
</event>
<event>
 5    1  0.6622912E-004  0.9118800E+02  0.7818608E-02  0.1130116E+00
         25   -1    0    0    0    0  0.00000000000E+00  0.00000000000E+00  0.99999998245E-14  0.12500000000E+03  0.12500000000E+03 0.  0.
        -11    1    3    3    0    0 -0.17578861970E+02  0.40420815066E+02 -0.46297775220E+01  0.44320351069E+02  0.51100000000E-03 0. -1.
         23    2    1    0    0    0  0.17746675806E+02  0.14904721539E+02  0.20010268460E+02  0.94381279090E+02  0.89276647409E+02 0.  0.
         11    1    3    3    0    0  0.35325537776E+02 -0.25516093527E+02  0.24640045982E+02  0.50060928021E+02  0.51100000000E-03 0.  1.
         22    1    1    0    0    0 -0.17746675806E+02 -0.14904721539E+02 -0.20010268460E+02  0.30618720910E+02  0.00000000000E+00 0.  1.
</event>
<event>
 5    1  0.6622912E-004  0.9118800E+02  0.7818608E-02  0.1130116E+00
         25   -1    0    0    0    0  0.00000000000E+00  0.00000000000E+00  0.99999998245E-14  0.12500000000E+03  0.12500000000E+03 0.  0.
        -11    1    3    3    0    0 -0.37562468193E+02 -0.18519239591E+02 -0.40510143623E+02  0.58266396735E+02  0.51100000000E-03 0. -1.
         23    2    1    0    0    0 -0.61391685155E+01 -0.20403847090E+02 -0.19525107770E+02  0.96099546724E+02  0.91650895691E+02 0.  0.
         11    1    3    3    0    0  0.31423299678E+02 -0.18846074991E+01  0.20985035853E+02  0.37833149989E+02  0.51100000000E-03 0.  1.
         22    1    1    0    0    0  0.61391685155E+01  0.20403847090E+02  0.19525107770E+02  0.28900453276E+02  0.00000000000E+00 0. -1.
</event>
<event>
 5    1  0.6622912E-004  0.9118800E+02  0.7818608E-02  0.1130116E+00
         25   -1    0    0    0    0  0.00000000000E+00  0.00000000000E+00  0.99999998245E-14  0.12500000000E+03  0.12500000000E+03 0.  0.
        -11    1    3    3    0    0 -0.47251906169E+02 -0.13661104076E+02  0.23546708063E+02  0.54532704518E+02  0.51100000000E-03 0.  1.
         23    2    1    0    0    0 -0.22533544920E+02  0.16106795547E+02  0.88545239939E+01  0.95920933567E+02  0.91406965773E+02 0.  0.
         11    1    3    3    0    0  0.24718361249E+02  0.29767899623E+02 -0.14692184069E+02  0.41388229049E+02  0.51100000000E-03 0. -1.
         22    1    1    0    0    0  0.22533544920E+02 -0.16106795547E+02 -0.88545239939E+01  0.29079066433E+02  0.00000000000E+00 0.  1.
</event>
<event>
 5    1  0.6622912E-004  0.9118800E+02  0.7818608E-02  0.1130116E+00
         25   -1    0    0    0    0  0.00000000000E+00  0.00000000000E+00  0.99999998245E-14  0.12500000000E+03  0.12500000000E+03 0.  0.
        -11    1    3    3    0    0 -0.17818705372E+02  0.30571679033E+02 -0.20873424425E+02  0.41083252884E+02  0.51100000000E-03 0. -1.
         23    2    1    0    0    0 -0.25615041821E+02 -0.10470258291E+02  0.12579512588E+02  0.94602618318E+02  0.89586017768E+02 0.  0.
         11    1    3    3    0    0 -0.77963364489E+01 -0.41041937324E+02  0.33452937014E+02  0.53519365434E+02  0.51100000000E-03 0.  1.
         22    1    1    0    0    0  0.25615041821E+02  0.10470258291E+02 -0.12579512588E+02  0.30397381682E+02  0.00000000000E+00 0. -1.
</event>
<event>
 5    1  0.6622912E-004  0.9118800E+02  0.7818608E-02  0.1130116E+00
         25   -1    0    0    0    0  0.00000000000E+00  0.00000000000E+00  0.99999998245E-14  0.12500000000E+03  0.12500000000E+03 0.  0.
        -11    1    3    3    0    0 -0.12237991859E+02  0.37431363921E+02 -0.40015415148E+02  0.56143645228E+02  0.51100000000E-03 0.  1.
         23    2    1    0    0    0  0.53667316942E+01  0.28794134461E+01 -0.27413219707E+02  0.96918378865E+02  0.92760954697E+02 0.  0.
         11    1    3    3    0    0  0.17604723553E+02 -0.34551950475E+02  0.12602195442E+02  0.40774733638E+02  0.51100000000E-03 0. -1.
         22    1    1    0    0    0 -0.53667316942E+01 -0.28794134461E+01  0.27413219707E+02  0.28081621135E+02  0.00000000000E+00 0.  1.
</event>
<event>
 5    1  0.6622912E-004  0.9118800E+02  0.7818608E-02  0.1130116E+00
         25   -1    0    0    0    0  0.00000000000E+00  0.00000000000E+00  0.99999998245E-14  0.12500000000E+03  0.12500000000E+03 0.  0.
        -11    1    3    3    0    0  0.23703636161E+02 -0.70717762455E+01  0.35431762442E+02  0.43212060544E+02  0.51100000000E-03 0.  1.
         23    2    1    0    0    0 -0.34348576903E+01  0.27783172073E+02  0.57814928731E+01  0.96414539401E+02  0.92079502879E+02 0.  0.
         11    1    3    3    0    0 -0.27138493851E+02  0.34854948318E+02 -0.29650269569E+02  0.53202478857E+02  0.51100000000E-03 0. -1.
         22    1    1    0    0    0  0.34348576903E+01 -0.27783172073E+02 -0.57814928731E+01  0.28585460599E+02  0.00000000000E+00 0. -1.
</event>
<event>
 5    1  0.6622912E-004  0.9118800E+02  0.7818608E-02  0.1130116E+00
         25   -1    0    0    0    0  0.00000000000E+00  0.00000000000E+00  0.99999998245E-14  0.12500000000E+03  0.12500000000E+03 0.  0.
        -11    1    3    3    0    0  0.28300791049E+01  0.23602650051E+02  0.32624060689E+02  0.40366121604E+02  0.51100000000E-03 0.  1.
         23    2    1    0    0    0  0.28489746801E+02 -0.20284164669E+01 -0.85018837180E+01  0.95199627973E+02  0.90415192271E+02 0.  0.
         11    1    3    3    0    0  0.25659667696E+02 -0.25631066518E+02 -0.41125944407E+02  0.54833506370E+02  0.51100000000E-03 0. -1.
         22    1    1    0    0    0 -0.28489746801E+02  0.20284164669E+01  0.85018837180E+01  0.29800372027E+02  0.00000000000E+00 0. -1.
</event>
<event>
 5    1  0.6622912E-004  0.9118800E+02  0.7818608E-02  0.1130116E+00
         25   -1    0    0    0    0  0.00000000000E+00  0.00000000000E+00  0.99999998245E-14  0.12500000000E+03  0.12500000000E+03 0.  0.
        -11    1    3    3    0    0 -0.11360154197E+02 -0.10490651752E+02 -0.37159793773E+02  0.40248691296E+02  0.51100000000E-03 0.  1.
         23    2    1    0    0    0 -0.21352762570E+02 -0.10190351644E+01  0.17970980517E+02  0.97072682858E+02  0.92968654472E+02 0.  0.
         11    1    3    3    0    0 -0.99926083725E+01  0.94716165876E+01  0.55130774290E+02  0.56823991561E+02  0.51100000000E-03 0. -1.
         22    1    1    0    0    0  0.21352762570E+02  0.10190351644E+01 -0.17970980517E+02  0.27927317142E+02  0.00000000000E+00 0. -1.
</event>
<event>
 5    1  0.6622912E-004  0.9118800E+02  0.7818608E-02  0.1130116E+00
         25   -1    0    0    0    0  0.00000000000E+00  0.00000000000E+00  0.99999998245E-14  0.12500000000E+03  0.12500000000E+03 0.  0.
        -11    1    3    3    0    0 -0.24376735630E+01  0.48451364471E+02  0.28130513441E+02  0.56078540978E+02  0.51100000000E-03 0.  1.
         23    2    1    0    0    0  0.84332648028E+01  0.26981066634E+02 -0.42408667883E+01  0.96415338675E+02  0.92080587904E+02 0.  0.
         11    1    3    3    0    0  0.10870938366E+02 -0.21470297837E+02 -0.32371380230E+02  0.40336797696E+02  0.51100000000E-03 0. -1.
         22    1    1    0    0    0 -0.84332648028E+01 -0.26981066634E+02  0.42408667883E+01  0.28584661325E+02  0.00000000000E+00 0.  1.
</event>
<event>
 5    1  0.6622912E-004  0.9118800E+02  0.7818608E-02  0.1130116E+00
         25   -1    0    0    0    0  0.00000000000E+00  0.00000000000E+00  0.99999998245E-14  0.12500000000E+03  0.12500000000E+03 0.  0.
        -11    1    3    3    0    0 -0.43933420439E+02  0.21168356351E+02  0.28074898569E+02  0.56271170878E+02  0.51100000000E-03 0.  1.
         23    2    1    0    0    0 -0.13119233472E+02 -0.10183269465E+02  0.71953439348E-01  0.10839221745E+03  0.10711234459E+03 0.  0.
         11    1    3    3    0    0  0.30814186967E+02 -0.31351625816E+02 -0.28002945129E+02  0.52121046574E+02  0.51100000000E-03 0. -1.
         22    1    1    0    0    0  0.13119233472E+02  0.10183269465E+02 -0.71953439348E-01  0.16607782548E+02  0.00000000000E+00 0.  1.
</event>
<event>
 5    1  0.6622912E-004  0.9118800E+02  0.7818608E-02  0.1130116E+00
         25   -1    0    0    0    0  0.00000000000E+00  0.00000000000E+00  0.99999998245E-14  0.12500000000E+03  0.12500000000E+03 0.  0.
        -11    1    3    3    0    0  0.19657352937E+02 -0.26021293739E+02 -0.33334153175E+02  0.46633518209E+02  0.51100000000E-03 0. -1.
         23    2    1    0    0    0 -0.22183571402E+02 -0.16001760481E+02 -0.82758906683E+01  0.96422779264E+02  0.92090687998E+02 0.  0.
         11    1    3    3    0    0 -0.41840924339E+02  0.10019533258E+02  0.25058262507E+02  0.49789261055E+02  0.51100000000E-03 0.  1.
         22    1    1    0    0    0  0.22183571402E+02  0.16001760481E+02  0.82758906683E+01  0.28577220736E+02  0.00000000000E+00 0.  1.
</event>
<event>
 5    1  0.6622912E-004  0.9118800E+02  0.7818608E-02  0.1130116E+00
         25   -1    0    0    0    0  0.00000000000E+00  0.00000000000E+00  0.99999998245E-14  0.12500000000E+03  0.12500000000E+03 0.  0.
        -11    1    3    3    0    0  0.32431023151E+02 -0.13608438956E+02 -0.42048458469E+02  0.54818187979E+02  0.51100000000E-03 0. -1.
         23    2    1    0    0    0  0.18040323453E+02 -0.17373914191E+02  0.55905338150E+00  0.99947680641E+02  0.96757016077E+02 0.  0.
         11    1    3    3    0    0 -0.14390699698E+02 -0.37654752347E+01  0.42607511850E+02  0.45129492661E+02  0.51100000000E-03 0.  1.
         22    1    1    0    0    0 -0.18040323453E+02  0.17373914191E+02 -0.55905338150E+00  0.25052319359E+02  0.00000000000E+00 0. -1.
</event>
<event>
 5    1  0.6622912E-004  0.9118800E+02  0.7818608E-02  0.1130116E+00
         25   -1    0    0    0    0  0.00000000000E+00  0.00000000000E+00  0.99999998245E-14  0.12500000000E+03  0.12500000000E+03 0.  0.
        -11    1    3    3    0    0  0.21087602634E+02  0.53827979831E+02  0.88283702102E+01  0.58481437383E+02  0.51100000000E-03 0.  1.
         23    2    1    0    0    0  0.13470421247E+02  0.23457555076E+02 -0.11278687791E+02  0.95692698230E+02  0.91094316824E+02 0.  0.
         11    1    3    3    0    0 -0.76171813871E+01 -0.30370424755E+02 -0.20107058001E+02  0.37211260847E+02  0.51100000000E-03 0. -1.
         22    1    1    0    0    0 -0.13470421247E+02 -0.23457555076E+02  0.11278687791E+02  0.29307301770E+02  0.00000000000E+00 0.  1.
</event>
<event>
 5    1  0.6622912E-004  0.9118800E+02  0.7818608E-02  0.1130116E+00
         25   -1    0    0    0    0  0.00000000000E+00  0.00000000000E+00  0.99999998245E-14  0.12500000000E+03  0.12500000000E+03 0.  0.
        -11    1    3    3    0    0 -0.28278952775E+02  0.11396015454E+00 -0.28320182380E+02  0.40021805148E+02  0.51100000000E-03 0.  1.
         23    2    1    0    0    0 -0.20083075347E+02  0.94738015943E+01  0.23119093944E+02  0.92944184040E+02  0.87241309081E+02 0.  0.
         11    1    3    3    0    0  0.81958774283E+01  0.93598414398E+01  0.51439276325E+02  0.52922378893E+02  0.51100000000E-03 0. -1.
         22    1    1    0    0    0  0.20083075347E+02 -0.94738015943E+01 -0.23119093944E+02  0.32055815960E+02  0.00000000000E+00 0. -1.
</event>
<event>
 5    1  0.6622912E-004  0.9118800E+02  0.7818608E-02  0.1130116E+00
         25   -1    0    0    0    0  0.00000000000E+00  0.00000000000E+00  0.99999998245E-14  0.12500000000E+03  0.12500000000E+03 0.  0.
        -11    1    3    3    0    0 -0.19293983398E+02 -0.92386295776E+01 -0.33017121939E+02  0.39341332123E+02  0.51100000000E-03 0. -1.
         23    2    1    0    0    0  0.19227063044E+02 -0.15489148198E+02  0.10829512914E+02  0.98039435927E+02  0.94259529926E+02 0.  0.
         11    1    3    3    0    0  0.38521046442E+02 -0.62505186203E+01  0.43846634853E+02  0.58698103804E+02  0.51100000000E-03 0.  1.
         22    1    1    0    0    0 -0.19227063044E+02  0.15489148198E+02 -0.10829512914E+02  0.26960564073E+02  0.00000000000E+00 0.  1.
</event>
<event>
 5    1  0.6622912E-004  0.9118800E+02  0.7818608E-02  0.1130116E+00
         25   -1    0    0    0    0  0.00000000000E+00  0.00000000000E+00  0.99999998245E-14  0.12500000000E+03  0.12500000000E+03 0.  0.
        -11    1    3    3    0    0 -0.45891994143E+01 -0.23422667782E+02  0.47198721022E+02  0.52890465905E+02  0.51100000000E-03 0.  1.
         23    2    1    0    0    0 -0.37678106249E+01 -0.27569181730E+02  0.33144684578E+01  0.96977832359E+02  0.92841036669E+02 0.  0.
         11    1    3    3    0    0  0.82138878941E+00 -0.41465139474E+01 -0.43884252564E+02  0.44087366454E+02  0.51100000000E-03 0. -1.
         22    1    1    0    0    0  0.37678106249E+01  0.27569181730E+02 -0.33144684578E+01  0.28022167641E+02  0.00000000000E+00 0. -1.
</event>
<event>
 5    1  0.6622912E-004  0.9118800E+02  0.7818608E-02  0.1130116E+00
         25   -1    0    0    0    0  0.00000000000E+00  0.00000000000E+00  0.99999998245E-14  0.12500000000E+03  0.12500000000E+03 0.  0.
        -11    1    3    3    0    0  0.86842560862E+01  0.41800558682E+02  0.14200839998E+02  0.44992964637E+02  0.51100000000E-03 0. -1.
         23    2    1    0    0    0 -0.10970657057E+02 -0.44621001838E+01  0.25828929358E+02  0.96585228382E+02  0.92310926198E+02 0.  0.
         11    1    3    3    0    0 -0.19654913143E+02 -0.46262658866E+02  0.11628089360E+02  0.51592263746E+02  0.51100000000E-03 0.  1.
         22    1    1    0    0    0  0.10970657057E+02  0.44621001838E+01 -0.25828929358E+02  0.28414771618E+02  0.00000000000E+00 0.  1.
</event>
<event>
 5    1  0.6622912E-004  0.9118800E+02  0.7818608E-02  0.1130116E+00
         25   -1    0    0    0    0  0.00000000000E+00  0.00000000000E+00  0.99999998245E-14  0.12500000000E+03  0.12500000000E+03 0.  0.
        -11    1    3    3    0    0 -0.44456197571E+02  0.12004158671E+02 -0.15443478053E+02  0.48569067754E+02  0.51100000000E-03 0.  1.
         23    2    1    0    0    0 -0.16661339699E+02 -0.23661081703E+02 -0.11143548189E+02  0.93989909801E+02  0.88726982650E+02 0.  0.
         11    1    3    3    0    0  0.27794857873E+02 -0.35665240374E+02  0.42999298642E+01  0.45420842046E+02  0.51100000000E-03 0. -1.
         22    1    1    0    0    0  0.16661339699E+02  0.23661081703E+02  0.11143548189E+02  0.31010090199E+02  0.00000000000E+00 0. -1.
</event>
<event>
 5    1  0.6622912E-004  0.9118800E+02  0.7818608E-02  0.1130116E+00
         25   -1    0    0    0    0  0.00000000000E+00  0.00000000000E+00  0.99999998245E-14  0.12500000000E+03  0.12500000000E+03 0.  0.
        -11    1    3    3    0    0  0.40019497988E+02  0.35641319729E+02  0.14173685737E+02  0.55432456728E+02  0.51100000000E-03 0.  1.
         23    2    1    0    0    0  0.62402915752E+01  0.27098731544E+02 -0.71567954196E+01  0.96285853470E+02  0.91904642797E+02 0.  0.
         11    1    3    3    0    0 -0.33779206413E+02 -0.85425881848E+01 -0.21330481157E+02  0.40853396743E+02  0.51100000000E-03 0. -1.
         22    1    1    0    0    0 -0.62402915752E+01 -0.27098731544E+02  0.71567954196E+01  0.28714146530E+02  0.00000000000E+00 0.  1.
</event>
<event>
 5    1  0.6622912E-004  0.9118800E+02  0.7818608E-02  0.1130116E+00
         25   -1    0    0    0    0  0.00000000000E+00  0.00000000000E+00  0.99999998245E-14  0.12500000000E+03  0.12500000000E+03 0.  0.
        -11    1    3    3    0    0  0.31601787565E+02 -0.37436924056E+02  0.29805151843E+02  0.57345822313E+02  0.51100000000E-03 0.  1.
         23    2    1    0    0    0  0.71186292806E+01 -0.24857707860E+01  0.23297823694E+02  0.10051240052E+03  0.97483845487E+02 0.  0.
         11    1    3    3    0    0 -0.24483158285E+02  0.34951153270E+02 -0.65073281491E+01  0.43166578210E+02  0.51100000000E-03 0. -1.
         22    1    1    0    0    0 -0.71186292806E+01  0.24857707860E+01 -0.23297823694E+02  0.24487599477E+02  0.00000000000E+00 0.  1.
</event>
<event>
 5    1  0.6622912E-004  0.9118800E+02  0.7818608E-02  0.1130116E+00
         25   -1    0    0    0    0  0.00000000000E+00  0.00000000000E+00  0.99999998245E-14  0.12500000000E+03  0.12500000000E+03 0.  0.
        -11    1    3    3    0    0  0.38926100048E+01 -0.38392495468E+02 -0.10642728443E+01  0.38603999765E+02  0.51100000000E-03 0. -1.
         23    2    1    0    0    0 -0.22279518759E+02  0.14930483217E+02  0.21774136574E+01  0.98092056647E+02  0.94329285812E+02 0.  0.
         11    1    3    3    0    0 -0.26172128764E+02  0.53322978685E+02  0.32416865017E+01  0.59488056882E+02  0.51100000000E-03 0.  1.
         22    1    1    0    0    0  0.22279518759E+02 -0.14930483217E+02 -0.21774136574E+01  0.26907943353E+02  0.00000000000E+00 0.  1.
</event>
<event>
 5    1  0.6622912E-004  0.9118800E+02  0.7818608E-02  0.1130116E+00
         25   -1    0    0    0    0  0.00000000000E+00  0.00000000000E+00  0.99999998245E-14  0.12500000000E+03  0.12500000000E+03 0.  0.
        -11    1    3    3    0    0 -0.38643895608E+02  0.55135823073E+01  0.23518870268E+01  0.39106030615E+02  0.51100000000E-03 0. -1.
         23    2    1    0    0    0  0.28297130795E+01 -0.30236495824E+02 -0.45424760794E+01  0.94293534154E+02  0.89153707374E+02 0.  0.
         11    1    3    3    0    0  0.41473608687E+02 -0.35750078131E+02 -0.68943631062E+01  0.55187503539E+02  0.51100000000E-03 0.  1.
         22    1    1    0    0    0 -0.28297130795E+01  0.30236495824E+02  0.45424760794E+01  0.30706465846E+02  0.00000000000E+00 0.  1.
</event>
<event>
 5    1  0.6622912E-004  0.9118800E+02  0.7818608E-02  0.1130116E+00
         25   -1    0    0    0    0  0.00000000000E+00  0.00000000000E+00  0.99999998245E-14  0.12500000000E+03  0.12500000000E+03 0.  0.
        -11    1    3    3    0    0  0.12010928768E+02 -0.18224181203E+02  0.45881821955E+02  0.50808707685E+02  0.51100000000E-03 0.  1.
         23    2    1    0    0    0  0.12958383924E+01  0.18750309254E+02  0.21800094543E+02  0.96216368951E+02  0.91810087887E+02 0.  0.
         11    1    3    3    0    0 -0.10715090375E+02  0.36974490457E+02 -0.24081727412E+02  0.45407661267E+02  0.51100000000E-03 0. -1.
         22    1    1    0    0    0 -0.12958383924E+01 -0.18750309254E+02 -0.21800094543E+02  0.28783631049E+02  0.00000000000E+00 0.  1.
</event>
<event>
 5    1  0.6622912E-004  0.9118800E+02  0.7818608E-02  0.1130116E+00
         25   -1    0    0    0    0  0.00000000000E+00  0.00000000000E+00  0.99999998245E-14  0.12500000000E+03  0.12500000000E+03 0.  0.
        -11    1    3    3    0    0 -0.43671270040E+02 -0.22475096614E+02  0.36217067531E+02  0.61024468663E+02  0.51100000000E-03 0.  1.
         23    2    1    0    0    0 -0.24284616652E+02 -0.18457599865E+01  0.18431833572E+02  0.94456884168E+02  0.89382442583E+02 0.  0.
         11    1    3    3    0    0  0.19386653388E+02  0.20629336628E+02 -0.17785233959E+02  0.33432415505E+02  0.51100000000E-03 0. -1.
         22    1    1    0    0    0  0.24284616652E+02  0.18457599865E+01 -0.18431833572E+02  0.30543115832E+02  0.00000000000E+00 0.  1.
</event>
<event>
 5    1  0.6622912E-004  0.9118800E+02  0.7818608E-02  0.1130116E+00
         25   -1    0    0    0    0  0.00000000000E+00  0.00000000000E+00  0.99999998245E-14  0.12500000000E+03  0.12500000000E+03 0.  0.
        -11    1    3    3    0    0 -0.25274088980E+02 -0.11714566679E+02  0.23911169362E+02  0.36711778311E+02  0.51100000000E-03 0. -1.
         23    2    1    0    0    0  0.24057334897E+02  0.15528590429E+02  0.82381066089E+01  0.95204717092E+02  0.90422227760E+02 0.  0.
         11    1    3    3    0    0  0.49331423877E+02  0.27243157108E+02 -0.15673062753E+02  0.58492938781E+02  0.51100000000E-03 0.  1.
         22    1    1    0    0    0 -0.24057334897E+02 -0.15528590429E+02 -0.82381066089E+01  0.29795282908E+02  0.00000000000E+00 0.  1.
</event>
<event>
 5    1  0.6622912E-004  0.9118800E+02  0.7818608E-02  0.1130116E+00
         25   -1    0    0    0    0  0.00000000000E+00  0.00000000000E+00  0.99999998245E-14  0.12500000000E+03  0.12500000000E+03 0.  0.
        -11    1    3    3    0    0  0.48497380848E+02  0.11418106469E+02 -0.15102820180E+02  0.52062119455E+02  0.51100000000E-03 0.  1.
         23    2    1    0    0    0  0.11322321564E+02  0.26986705370E+02  0.16026013988E+01  0.95690520927E+02  0.91091329069E+02 0.  0.
         11    1    3    3    0    0 -0.37175059285E+02  0.15568598901E+02  0.16705421579E+02  0.43628401471E+02  0.51100000000E-03 0. -1.
         22    1    1    0    0    0 -0.11322321564E+02 -0.26986705370E+02 -0.16026013988E+01  0.29309479073E+02  0.00000000000E+00 0.  1.
</event>
<event>
 5    1  0.6622912E-004  0.9118800E+02  0.7818608E-02  0.1130116E+00
         25   -1    0    0    0    0  0.00000000000E+00  0.00000000000E+00  0.99999998245E-14  0.12500000000E+03  0.12500000000E+03 0.  0.
        -11    1    3    3    0    0 -0.87459251708E+01  0.67532628473E+01  0.38100799544E+02  0.39670753614E+02  0.51100000000E-03 0. -1.
         23    2    1    0    0    0 -0.14073029533E+02 -0.24402687631E+02 -0.81358584427E+01  0.95678787262E+02  0.91075226135E+02 0.  0.
         11    1    3    3    0    0 -0.53271043619E+01 -0.31155950478E+02 -0.46236657987E+02  0.56008033648E+02  0.51100000000E-03 0.  1.
         22    1    1    0    0    0  0.14073029533E+02  0.24402687631E+02  0.81358584427E+01  0.29321212738E+02  0.00000000000E+00 0.  1.
</event>
<event>
 5    1  0.6622912E-004  0.9118800E+02  0.7818608E-02  0.1130116E+00
         25   -1    0    0    0    0  0.00000000000E+00  0.00000000000E+00  0.99999998245E-14  0.12500000000E+03  0.12500000000E+03 0.  0.
        -11    1    3    3    0    0  0.33721950032E+02  0.36424475417E+02  0.23344039262E+02  0.54853044516E+02  0.51100000000E-03 0. -1.
         23    2    1    0    0    0  0.92003655174E+01  0.12802993604E+02  0.31420344536E+02  0.89846032633E+02  0.82683179416E+02 0.  0.
         11    1    3    3    0    0 -0.24521584515E+02 -0.23621481814E+02  0.80763052740E+01  0.34992988117E+02  0.51100000000E-03 0.  1.
         22    1    1    0    0    0 -0.92003655174E+01 -0.12802993604E+02 -0.31420344536E+02  0.35153967367E+02  0.00000000000E+00 0. -1.
</event>
<event>
 5    1  0.6622912E-004  0.9118800E+02  0.7818608E-02  0.1130116E+00
         25   -1    0    0    0    0  0.00000000000E+00  0.00000000000E+00  0.99999998245E-14  0.12500000000E+03  0.12500000000E+03 0.  0.
        -11    1    3    3    0    0  0.23083280163E+02 -0.92389177879E+01  0.35307226561E+02  0.43183280013E+02  0.51100000000E-03 0. -1.
         23    2    1    0    0    0 -0.23658069442E+02  0.49195573739E+01  0.61424685163E+01  0.10006736649E+03  0.96911514391E+02 0.  0.
         11    1    3    3    0    0 -0.46741349605E+02  0.14158475162E+02 -0.29164758045E+02  0.56884086473E+02  0.51100000000E-03 0.  1.
         22    1    1    0    0    0  0.23658069442E+02 -0.49195573739E+01 -0.61424685163E+01  0.24932633514E+02  0.00000000000E+00 0.  1.
</event>
<event>
 5    1  0.6622912E-004  0.9118800E+02  0.7818608E-02  0.1130116E+00
         25   -1    0    0    0    0  0.00000000000E+00  0.00000000000E+00  0.99999998245E-14  0.12500000000E+03  0.12500000000E+03 0.  0.
        -11    1    3    3    0    0  0.23925000384E+01 -0.30633338943E+02  0.17712696378E+02  0.35466394297E+02  0.51100000000E-03 0. -1.
         23    2    1    0    0    0 -0.14892910386E+02  0.14247310254E+02 -0.19769039967E+02  0.96441296065E+02  0.92115818491E+02 0.  0.
         11    1    3    3    0    0 -0.17285410425E+02  0.44880649197E+02 -0.37481736344E+02  0.60974901767E+02  0.51100000000E-03 0.  1.
         22    1    1    0    0    0  0.14892910386E+02 -0.14247310254E+02  0.19769039967E+02  0.28558703935E+02  0.00000000000E+00 0.  1.
</event>
<event>
 5    1  0.6622912E-004  0.9118800E+02  0.7818608E-02  0.1130116E+00
         25   -1    0    0    0    0  0.00000000000E+00  0.00000000000E+00  0.99999998245E-14  0.12500000000E+03  0.12500000000E+03 0.  0.
        -11    1    3    3    0    0 -0.45932949431E+02 -0.74131533005E+01  0.27756090671E+02  0.54177405391E+02  0.51100000000E-03 0.  1.
         23    2    1    0    0    0 -0.28657969933E+02  0.63884280780E+01 -0.64790996543E+01  0.94932243411E+02  0.90044771379E+02 0.  0.
         11    1    3    3    0    0  0.17274979498E+02  0.13801581378E+02 -0.34235190325E+02  0.40754838020E+02  0.51100000000E-03 0. -1.
         22    1    1    0    0    0  0.28657969933E+02 -0.63884280780E+01  0.64790996543E+01  0.30067756589E+02  0.00000000000E+00 0.  1.
</event>
<event>
 5    1  0.6622912E-004  0.9118800E+02  0.7818608E-02  0.1130116E+00
         25   -1    0    0    0    0  0.00000000000E+00  0.00000000000E+00  0.99999998245E-14  0.12500000000E+03  0.12500000000E+03 0.  0.
        -11    1    3    3    0    0 -0.12885811083E+02  0.23262191227E+02 -0.22617280171E+02  0.34910099263E+02  0.51100000000E-03 0. -1.
         23    2    1    0    0    0  0.75028691325E+01 -0.47571180129E+01  0.27646540397E+02  0.95961156825E+02  0.91461954967E+02 0.  0.
         11    1    3    3    0    0  0.20388680216E+02 -0.28019309239E+02  0.50263820568E+02  0.61051057563E+02  0.51100000000E-03 0.  1.
         22    1    1    0    0    0 -0.75028691325E+01  0.47571180129E+01 -0.27646540397E+02  0.29038843175E+02  0.00000000000E+00 0.  1.
</event>
<event>
 5    1  0.6622912E-004  0.9118800E+02  0.7818608E-02  0.1130116E+00
         25   -1    0    0    0    0  0.00000000000E+00  0.00000000000E+00  0.99999998245E-14  0.12500000000E+03  0.12500000000E+03 0.  0.
        -11    1    3    3    0    0  0.29904882358E+02 -0.57848473803E+01  0.29513789636E+02  0.42412618723E+02  0.51100000000E-03 0. -1.
         23    2    1    0    0    0  0.13187512584E+02  0.28243750520E+02 -0.46946779086E+01  0.93477628067E+02  0.88002312565E+02 0.  0.
         11    1    3    3    0    0 -0.16717369774E+02  0.34028597901E+02 -0.34208467545E+02  0.51065009344E+02  0.51100000000E-03 0.  1.
         22    1    1    0    0    0 -0.13187512584E+02 -0.28243750520E+02  0.46946779086E+01  0.31522371933E+02  0.00000000000E+00 0.  1.
</event>
<event>
 5    1  0.6622912E-004  0.9118800E+02  0.7818608E-02  0.1130116E+00
         25   -1    0    0    0    0  0.00000000000E+00  0.00000000000E+00  0.99999998245E-14  0.12500000000E+03  0.12500000000E+03 0.  0.
        -11    1    3    3    0    0 -0.33608038360E+02  0.95403985275E+01 -0.16552063165E+02  0.38658637350E+02  0.51100000000E-03 0.  1.
         23    2    1    0    0    0  0.19945615088E+02  0.19457691729E+02 -0.15460548353E+02  0.93133750079E+02  0.87512499220E+02 0.  0.
         11    1    3    3    0    0  0.53553653448E+02  0.99172932013E+01  0.10915148120E+01  0.54475112729E+02  0.51100000000E-03 0. -1.
         22    1    1    0    0    0 -0.19945615088E+02 -0.19457691729E+02  0.15460548353E+02  0.31866249921E+02  0.00000000000E+00 0. -1.
</event>
<event>
 5    1  0.6622912E-004  0.9118800E+02  0.7818608E-02  0.1130116E+00
         25   -1    0    0    0    0  0.00000000000E+00  0.00000000000E+00  0.99999998245E-14  0.12500000000E+03  0.12500000000E+03 0.  0.
        -11    1    3    3    0    0  0.54408325394E+02 -0.14927491603E+02  0.98678793944E+01  0.57275395431E+02  0.51100000000E-03 0. -1.
         23    2    1    0    0    0  0.18243671748E+02 -0.28674275537E+01  0.21043365668E+02  0.97002197617E+02  0.92873835951E+02 0.  0.
         11    1    3    3    0    0 -0.36164653646E+02  0.12060064049E+02  0.11175486274E+02  0.39726802186E+02  0.51100000000E-03 0.  1.
         22    1    1    0    0    0 -0.18243671748E+02  0.28674275537E+01 -0.21043365668E+02  0.27997802383E+02  0.00000000000E+00 0.  1.
</event>
<event>
 5    1  0.6622912E-004  0.9118800E+02  0.7818608E-02  0.1130116E+00
         25   -1    0    0    0    0  0.00000000000E+00  0.00000000000E+00  0.99999998245E-14  0.12500000000E+03  0.12500000000E+03 0.  0.
        -11    1    3    3    0    0  0.42274992070E+02  0.18379589067E+02  0.13860849949E+02  0.48136341888E+02  0.51100000000E-03 0. -1.
         23    2    1    0    0    0  0.21916395854E+02 -0.17651725545E+02 -0.90495693283E+01  0.95439781344E+02  0.90746599583E+02 0.  0.
         11    1    3    3    0    0 -0.20358596216E+02 -0.36031314612E+02 -0.22910419277E+02  0.47303439455E+02  0.51100000000E-03 0.  1.
         22    1    1    0    0    0 -0.21916395854E+02  0.17651725545E+02  0.90495693283E+01  0.29560218656E+02  0.00000000000E+00 0. -1.
</event>
<event>
 5    1  0.6622912E-004  0.9118800E+02  0.7818608E-02  0.1130116E+00
         25   -1    0    0    0    0  0.00000000000E+00  0.00000000000E+00  0.99999998245E-14  0.12500000000E+03  0.12500000000E+03 0.  0.
        -11    1    3    3    0    0 -0.45066615813E+01  0.39093232055E+02  0.32049630118E+02  0.50752040177E+02  0.51100000000E-03 0.  1.
         23    2    1    0    0    0  0.11672886243E+02  0.21632663981E+02 -0.95077363500E+01  0.98644251583E+02  0.95058207934E+02 0.  0.
         11    1    3    3    0    0  0.16179547824E+02 -0.17460568075E+02 -0.41557366468E+02  0.47892211406E+02  0.51100000000E-03 0. -1.
         22    1    1    0    0    0 -0.11672886243E+02 -0.21632663981E+02  0.95077363500E+01  0.26355748417E+02  0.00000000000E+00 0. -1.
</event>
<event>
 5    1  0.6622912E-004  0.9118800E+02  0.7818608E-02  0.1130116E+00
         25   -1    0    0    0    0  0.00000000000E+00  0.00000000000E+00  0.99999998245E-14  0.12500000000E+03  0.12500000000E+03 0.  0.
        -11    1    3    3    0    0 -0.49626385533E+02 -0.36880267220E+02 -0.48393760181E+01  0.62018963325E+02  0.51100000000E-03 0.  1.
         23    2    1    0    0    0 -0.23411496706E+02 -0.15140525734E+02 -0.73469441308E+01  0.96167530706E+02  0.91743570219E+02 0.  0.
         11    1    3    3    0    0  0.26214888828E+02  0.21739741486E+02 -0.25075681126E+01  0.34148567382E+02  0.51100000000E-03 0. -1.
         22    1    1    0    0    0  0.23411496706E+02  0.15140525734E+02  0.73469441308E+01  0.28832469294E+02  0.00000000000E+00 0.  1.
</event>
<event>
 5    1  0.6622912E-004  0.9118800E+02  0.7818608E-02  0.1130116E+00
         25   -1    0    0    0    0  0.00000000000E+00  0.00000000000E+00  0.99999998245E-14  0.12500000000E+03  0.12500000000E+03 0.  0.
        -11    1    3    3    0    0 -0.16599259613E+02  0.47874495783E+01  0.23211140687E+02  0.28934618460E+02  0.51100000000E-03 0.  1.
         23    2    1    0    0    0 -0.15546754867E+02 -0.40876515862E+02 -0.22150187272E+01  0.81210761095E+02  0.68393642056E+02 0.  0.
         11    1    3    3    0    0  0.10525047457E+01 -0.45663965441E+02 -0.25426159414E+02  0.52276142635E+02  0.51100000000E-03 0. -1.
         22    1    1    0    0    0  0.15546754867E+02  0.40876515862E+02  0.22150187272E+01  0.43789238905E+02  0.00000000000E+00 0. -1.
</event>
<event>
 5    1  0.6622912E-004  0.9118800E+02  0.7818608E-02  0.1130116E+00
         25   -1    0    0    0    0  0.00000000000E+00  0.00000000000E+00  0.99999998245E-14  0.12500000000E+03  0.12500000000E+03 0.  0.
        -11    1    3    3    0    0 -0.12904688374E+02 -0.88408866943E+01 -0.55133752976E+02  0.57309885509E+02  0.51100000000E-03 0. -1.
         23    2    1    0    0    0 -0.14235920282E+02 -0.16684519873E+02 -0.14517342140E+02  0.98698139752E+02  0.95129043610E+02 0.  0.
         11    1    3    3    0    0 -0.13312319075E+01 -0.78436331789E+01  0.40616410836E+02  0.41388254243E+02  0.51100000000E-03 0.  1.
         22    1    1    0    0    0  0.14235920282E+02  0.16684519873E+02  0.14517342140E+02  0.26301860248E+02  0.00000000000E+00 0. -1.
</event>
<event>
 5    1  0.6622912E-004  0.9118800E+02  0.7818608E-02  0.1130116E+00
         25   -1    0    0    0    0  0.00000000000E+00  0.00000000000E+00  0.99999998245E-14  0.12500000000E+03  0.12500000000E+03 0.  0.
        -11    1    3    3    0    0  0.27974082103E+02  0.47333793671E+02 -0.56345561812E+01  0.55270114134E+02  0.51100000000E-03 0. -1.
         23    2    1    0    0    0  0.21426550417E+02  0.10501128404E+02 -0.18474721040E+02  0.94822424252E+02  0.89892191335E+02 0.  0.
         11    1    3    3    0    0 -0.65475316860E+01 -0.36832665267E+02 -0.12840164859E+02  0.39552310118E+02  0.51100000000E-03 0.  1.
         22    1    1    0    0    0 -0.21426550417E+02 -0.10501128404E+02  0.18474721040E+02  0.30177575748E+02  0.00000000000E+00 0. -1.
</event>
<event>
 5    1  0.6622912E-004  0.9118800E+02  0.7818608E-02  0.1130116E+00
         25   -1    0    0    0    0  0.00000000000E+00  0.00000000000E+00  0.99999998245E-14  0.12500000000E+03  0.12500000000E+03 0.  0.
        -11    1    3    3    0    0 -0.39653023212E+02  0.35960406564E+01 -0.31511547666E+01  0.39940249559E+02  0.51100000000E-03 0.  1.
         23    2    1    0    0    0  0.10039269357E+02 -0.16868184068E+02 -0.20698601802E+02  0.96473614328E+02  0.92159663530E+02 0.  0.
         11    1    3    3    0    0  0.49692292569E+02 -0.20464224724E+02 -0.17547447035E+02  0.56533364769E+02  0.51100000000E-03 0. -1.
         22    1    1    0    0    0 -0.10039269357E+02  0.16868184068E+02  0.20698601802E+02  0.28526385672E+02  0.00000000000E+00 0. -1.
</event>
<event>
 5    1  0.6622912E-004  0.9118800E+02  0.7818608E-02  0.1130116E+00
         25   -1    0    0    0    0  0.00000000000E+00  0.00000000000E+00  0.99999998245E-14  0.12500000000E+03  0.12500000000E+03 0.  0.
        -11    1    3    3    0    0  0.90003087533E+01  0.46568623783E+02  0.33579393519E+02  0.58113836115E+02  0.51100000000E-03 0. -1.
         23    2    1    0    0    0 -0.86762233232E+01  0.28509831279E+02  0.78386134225E+01  0.94185536008E+02  0.89002157289E+02 0.  0.
         11    1    3    3    0    0 -0.17676532077E+02 -0.18058792504E+02 -0.25740780096E+02  0.36071699893E+02  0.51100000000E-03 0.  1.
         22    1    1    0    0    0  0.86762233232E+01 -0.28509831279E+02 -0.78386134225E+01  0.30814463992E+02  0.00000000000E+00 0. -1.
</event>
<event>
 5    1  0.6622912E-004  0.9118800E+02  0.7818608E-02  0.1130116E+00
         25   -1    0    0    0    0  0.00000000000E+00  0.00000000000E+00  0.99999998245E-14  0.12500000000E+03  0.12500000000E+03 0.  0.
        -11    1    3    3    0    0 -0.16741268381E+02  0.18295674445E+02 -0.22985679188E+02  0.33813358579E+02  0.51100000000E-03 0.  1.
         23    2    1    0    0    0  0.14612763565E+02 -0.24441073746E+02  0.82698383952E+01  0.95347189476E+02  0.90618968042E+02 0.  0.
         11    1    3    3    0    0  0.31354031946E+02 -0.42736748191E+02  0.31255517583E+02  0.61533830897E+02  0.51100000000E-03 0. -1.
         22    1    1    0    0    0 -0.14612763565E+02  0.24441073746E+02 -0.82698383952E+01  0.29652810524E+02  0.00000000000E+00 0. -1.
</event>
<event>
 5    1  0.6622912E-004  0.9118800E+02  0.7818608E-02  0.1130116E+00
         25   -1    0    0    0    0  0.00000000000E+00  0.00000000000E+00  0.99999998245E-14  0.12500000000E+03  0.12500000000E+03 0.  0.
        -11    1    3    3    0    0 -0.70147252223E+01 -0.50812824397E+02  0.99633263561E+01  0.52253395732E+02  0.51100000000E-03 0. -1.
         23    2    1    0    0    0  0.20114719946E+02 -0.14287239579E+02  0.11502494035E+02  0.97778050358E+02  0.93912260060E+02 0.  0.
         11    1    3    3    0    0  0.27129445168E+02  0.36525584819E+02  0.15391676787E+01  0.45524654627E+02  0.51100000000E-03 0.  1.
         22    1    1    0    0    0 -0.20114719946E+02  0.14287239579E+02 -0.11502494035E+02  0.27221949642E+02  0.00000000000E+00 0.  1.
</event>
<event>
 5    1  0.6622912E-004  0.9118800E+02  0.7818608E-02  0.1130116E+00
         25   -1    0    0    0    0  0.00000000000E+00  0.00000000000E+00  0.99999998245E-14  0.12500000000E+03  0.12500000000E+03 0.  0.
        -11    1    3    3    0    0  0.96426632203E+01  0.41422643853E+01  0.27155221639E+02  0.29112632494E+02  0.51100000000E-03 0. -1.
         23    2    1    0    0    0 -0.19248019927E+02  0.34285565572E+01 -0.27688482458E+02  0.91104670942E+02  0.84564577309E+02 0.  0.
         11    1    3    3    0    0 -0.28890683147E+02 -0.71370782812E+00 -0.54843704096E+02  0.61992038447E+02  0.51100000000E-03 0.  1.
         22    1    1    0    0    0  0.19248019927E+02 -0.34285565572E+01  0.27688482458E+02  0.33895329058E+02  0.00000000000E+00 0.  1.
</event>
<event>
 5    1  0.6622912E-004  0.9118800E+02  0.7818608E-02  0.1130116E+00
         25   -1    0    0    0    0  0.00000000000E+00  0.00000000000E+00  0.99999998245E-14  0.12500000000E+03  0.12500000000E+03 0.  0.
        -11    1    3    3    0    0 -0.35695044390E+02  0.10942408191E+02  0.39418990613E+02  0.54292995057E+02  0.51100000000E-03 0.  1.
         23    2    1    0    0    0  0.89621529538E+01 -0.60117687269E+01  0.92223074138E+01  0.11080449005E+03  0.10989141237E+03 0.  0.
         11    1    3    3    0    0  0.44657197344E+02 -0.16954176917E+02 -0.30196683199E+02  0.56511494990E+02  0.51100000000E-03 0. -1.
         22    1    1    0    0    0 -0.89621529538E+01  0.60117687269E+01 -0.92223074138E+01  0.14195509953E+02  0.00000000000E+00 0. -1.
</event>
<event>
 5    1  0.6622912E-004  0.9118800E+02  0.7818608E-02  0.1130116E+00
         25   -1    0    0    0    0  0.00000000000E+00  0.00000000000E+00  0.99999998245E-14  0.12500000000E+03  0.12500000000E+03 0.  0.
        -11    1    3    3    0    0 -0.39407545130E+02  0.11072140926E+02  0.39213267190E+02  0.56685335334E+02  0.51100000000E-03 0. -1.
         23    2    1    0    0    0 -0.36603037470E+01  0.13793213094E+02  0.26823627330E+02  0.94616492400E+02  0.89605374280E+02 0.  0.
         11    1    3    3    0    0  0.35747241383E+02  0.27210721674E+01 -0.12389639860E+02  0.37931157066E+02  0.51100000000E-03 0.  1.
         22    1    1    0    0    0  0.36603037470E+01 -0.13793213094E+02 -0.26823627330E+02  0.30383507600E+02  0.00000000000E+00 0. -1.
</event>
<event>
 5    1  0.6622912E-004  0.9118800E+02  0.7818608E-02  0.1130116E+00
         25   -1    0    0    0    0  0.00000000000E+00  0.00000000000E+00  0.99999998245E-14  0.12500000000E+03  0.12500000000E+03 0.  0.
        -11    1    3    3    0    0 -0.51731927457E+01  0.56477664747E+02  0.19839748634E+02  0.60084142372E+02  0.51100000000E-03 0.  1.
         23    2    1    0    0    0  0.10225572385E+01  0.20834562021E+02  0.19767631113E+02  0.96261805245E+02  0.91871928854E+02 0.  0.
         11    1    3    3    0    0  0.61957499842E+01 -0.35643102726E+02 -0.72117521394E-01  0.36177662873E+02  0.51100000000E-03 0. -1.
         22    1    1    0    0    0 -0.10225572385E+01 -0.20834562021E+02 -0.19767631113E+02  0.28738194755E+02  0.00000000000E+00 0.  1.
</event>
<event>
 5    1  0.6622912E-004  0.9118800E+02  0.7818608E-02  0.1130116E+00
         25   -1    0    0    0    0  0.00000000000E+00  0.00000000000E+00  0.99999998245E-14  0.12500000000E+03  0.12500000000E+03 0.  0.
        -11    1    3    3    0    0  0.17611203415E+02  0.55075140600E+02 -0.14404430668E+02  0.59589539527E+02  0.51100000000E-03 0.  1.
         23    2    1    0    0    0  0.14512965532E+02  0.19751204861E+02  0.49618008956E+01  0.99992886410E+02  0.96815399614E+02 0.  0.
         11    1    3    3    0    0 -0.30982378827E+01 -0.35323935740E+02  0.19366231564E+02  0.40403346883E+02  0.51100000000E-03 0. -1.
         22    1    1    0    0    0 -0.14512965532E+02 -0.19751204861E+02 -0.49618008956E+01  0.25007113590E+02  0.00000000000E+00 0.  1.
</event>
<event>
 5    1  0.6622912E-004  0.9118800E+02  0.7818608E-02  0.1130116E+00
         25   -1    0    0    0    0  0.00000000000E+00  0.00000000000E+00  0.99999998245E-14  0.12500000000E+03  0.12500000000E+03 0.  0.
        -11    1    3    3    0    0  0.22883823997E+02 -0.30958618598E+02  0.41226849050E+01  0.38718238562E+02  0.51100000000E-03 0.  1.
         23    2    1    0    0    0 -0.21404815821E+02 -0.98063365818E+01  0.23731326149E+02  0.91570877692E+02  0.85250920365E+02 0.  0.
         11    1    3    3    0    0 -0.44288639818E+02  0.21152282016E+02  0.19608641244E+02  0.52852639131E+02  0.51100000000E-03 0. -1.
         22    1    1    0    0    0  0.21404815821E+02  0.98063365818E+01 -0.23731326149E+02  0.33429122308E+02  0.00000000000E+00 0. -1.
</event>
<event>
 5    1  0.6622912E-004  0.9118800E+02  0.7818608E-02  0.1130116E+00
         25   -1    0    0    0    0  0.00000000000E+00  0.00000000000E+00  0.99999998245E-14  0.12500000000E+03  0.12500000000E+03 0.  0.
        -11    1    3    3    0    0 -0.11802197831E+01  0.12591399070E+02 -0.52468832583E+02  0.53971424311E+02  0.51100000000E-03 0.  1.
         23    2    1    0    0    0 -0.15830873142E+02  0.20355505020E+02 -0.14468968472E+02  0.95431195869E+02  0.90734772647E+02 0.  0.
         11    1    3    3    0    0 -0.14650653359E+02  0.77641059497E+01  0.37999864110E+02  0.41459771559E+02  0.51100000000E-03 0. -1.
         22    1    1    0    0    0  0.15830873142E+02 -0.20355505020E+02  0.14468968472E+02  0.29568804131E+02  0.00000000000E+00 0.  1.
</event>
<event>
 5    1  0.6622912E-004  0.9118800E+02  0.7818608E-02  0.1130116E+00
         25   -1    0    0    0    0  0.00000000000E+00  0.00000000000E+00  0.99999998245E-14  0.12500000000E+03  0.12500000000E+03 0.  0.
        -11    1    3    3    0    0 -0.16131200812E+02 -0.24551672956E+02 -0.17515372135E+02  0.34202171654E+02  0.51100000000E-03 0.  1.
         23    2    1    0    0    0  0.21863726413E+02  0.18429348307E+02  0.52608769179E+01  0.95925264616E+02  0.91412888337E+02 0.  0.
         11    1    3    3    0    0  0.37994927225E+02  0.42981021263E+02  0.22776249053E+02  0.61723092962E+02  0.51100000000E-03 0. -1.
         22    1    1    0    0    0 -0.21863726413E+02 -0.18429348307E+02 -0.52608769179E+01  0.29074735384E+02  0.00000000000E+00 0. -1.
</event>
<event>
 5    1  0.6622912E-004  0.9118800E+02  0.7818608E-02  0.1130116E+00
         25   -1    0    0    0    0  0.00000000000E+00  0.00000000000E+00  0.99999998245E-14  0.12500000000E+03  0.12500000000E+03 0.  0.
        -11    1    3    3    0    0  0.94127490393E+01  0.14453983593E+02 -0.48751663827E+02  0.51713075836E+02  0.51100000000E-03 0.  1.
         23    2    1    0    0    0  0.16538813381E+02 -0.16173873686E+02 -0.18083831004E+02  0.95637583856E+02  0.91018657230E+02 0.  0.
         11    1    3    3    0    0  0.71260643412E+01 -0.30627857279E+02  0.30667832823E+02  0.43924508020E+02  0.51100000000E-03 0. -1.
         22    1    1    0    0    0 -0.16538813381E+02  0.16173873686E+02  0.18083831004E+02  0.29362416144E+02  0.00000000000E+00 0.  1.
</event>
<event>
 5    1  0.6622912E-004  0.9118800E+02  0.7818608E-02  0.1130116E+00
         25   -1    0    0    0    0  0.00000000000E+00  0.00000000000E+00  0.99999998245E-14  0.12500000000E+03  0.12500000000E+03 0.  0.
        -11    1    3    3    0    0  0.40097085693E+02 -0.15585747402E+02 -0.54998508652E+01  0.43369807043E+02  0.51100000000E-03 0. -1.
         23    2    1    0    0    0 -0.78216571470E+01 -0.11391122278E+02 -0.25920108653E+02  0.95626746522E+02  0.91003772617E+02 0.  0.
         11    1    3    3    0    0 -0.47918742840E+02  0.41946251241E+01 -0.20420257788E+02  0.52256939479E+02  0.51100000000E-03 0.  1.
         22    1    1    0    0    0  0.78216571470E+01  0.11391122278E+02  0.25920108653E+02  0.29373253478E+02  0.00000000000E+00 0.  1.
</event>
<event>
 5    1  0.6622912E-004  0.9118800E+02  0.7818608E-02  0.1130116E+00
         25   -1    0    0    0    0  0.00000000000E+00  0.00000000000E+00  0.99999998245E-14  0.12500000000E+03  0.12500000000E+03 0.  0.
        -11    1    3    3    0    0  0.14414400801E+02  0.34252979979E+02  0.39788668615E+02  0.54444281043E+02  0.51100000000E-03 0. -1.
         23    2    1    0    0    0 -0.15274679869E+02  0.11451136019E+02  0.21942391509E+02  0.95915418065E+02  0.91399422953E+02 0.  0.
         11    1    3    3    0    0 -0.29689080670E+02 -0.22801843961E+02 -0.17846277106E+02  0.41471137022E+02  0.51100000000E-03 0.  1.
         22    1    1    0    0    0  0.15274679869E+02 -0.11451136019E+02 -0.21942391509E+02  0.29084581935E+02  0.00000000000E+00 0. -1.
</event>
<event>
 5    1  0.6622912E-004  0.9118800E+02  0.7818608E-02  0.1130116E+00
         25   -1    0    0    0    0  0.00000000000E+00  0.00000000000E+00  0.99999998245E-14  0.12500000000E+03  0.12500000000E+03 0.  0.
        -11    1    3    3    0    0 -0.61461354755E+02  0.63583633125E+00 -0.78522114745E+01  0.61964180309E+02  0.51100000000E-03 0.  1.
         23    2    1    0    0    0 -0.25815176858E+02  0.51121006387E+01 -0.63837854072E+01  0.97920309358E+02  0.94101420497E+02 0.  0.
         11    1    3    3    0    0  0.35646177897E+02  0.44762643074E+01  0.14684260673E+01  0.35956129049E+02  0.51100000000E-03 0. -1.
         22    1    1    0    0    0  0.25815176858E+02 -0.51121006387E+01  0.63837854072E+01  0.27079690642E+02  0.00000000000E+00 0.  1.
</event>
<event>
 5    1  0.6622912E-004  0.9118800E+02  0.7818608E-02  0.1130116E+00
         25   -1    0    0    0    0  0.00000000000E+00  0.00000000000E+00  0.99999998245E-14  0.12500000000E+03  0.12500000000E+03 0.  0.
        -11    1    3    3    0    0 -0.18119112365E+02  0.82530986348E+01  0.52630685061E+02  0.56270817306E+02  0.51100000000E-03 0.  1.
         23    2    1    0    0    0  0.11089165132E+02  0.24783915728E+01  0.27544152342E+02  0.95204155720E+02  0.90421451714E+02 0.  0.
         11    1    3    3    0    0  0.29208277496E+02 -0.57747070620E+01 -0.25086532719E+02  0.38933338414E+02  0.51100000000E-03 0. -1.
         22    1    1    0    0    0 -0.11089165132E+02 -0.24783915728E+01 -0.27544152342E+02  0.29795844280E+02  0.00000000000E+00 0.  1.
</event>
<event>
 5    1  0.6622912E-004  0.9118800E+02  0.7818608E-02  0.1130116E+00
         25   -1    0    0    0    0  0.00000000000E+00  0.00000000000E+00  0.99999998245E-14  0.12500000000E+03  0.12500000000E+03 0.  0.
        -11    1    3    3    0    0 -0.60127439041E+01 -0.16436414869E+02  0.33195950215E+02  0.37527056026E+02  0.51100000000E-03 0. -1.
         23    2    1    0    0    0  0.43218317778E+01  0.29088812894E+02 -0.12847382927E+01  0.95563834862E+02  0.90917318018E+02 0.  0.
         11    1    3    3    0    0  0.10334575682E+02  0.45525227764E+02 -0.34480688508E+02  0.58036778837E+02  0.51100000000E-03 0.  1.
         22    1    1    0    0    0 -0.43218317778E+01 -0.29088812894E+02  0.12847382927E+01  0.29436165138E+02  0.00000000000E+00 0.  1.
</event>
<event>
 5    1  0.6622912E-004  0.9118800E+02  0.7818608E-02  0.1130116E+00
         25   -1    0    0    0    0  0.00000000000E+00  0.00000000000E+00  0.99999998245E-14  0.12500000000E+03  0.12500000000E+03 0.  0.
        -11    1    3    3    0    0  0.28286172998E+02  0.72907563697E+01 -0.21596938414E+02  0.36327544101E+02  0.51100000000E-03 0.  1.
         23    2    1    0    0    0 -0.10353902164E+02 -0.24593208449E+02  0.11045609976E+02  0.96120341215E+02  0.91679252308E+02 0.  0.
         11    1    3    3    0    0 -0.38640075161E+02 -0.31883964818E+02  0.32642548390E+02  0.59792797114E+02  0.51100000000E-03 0. -1.
         22    1    1    0    0    0  0.10353902164E+02  0.24593208449E+02 -0.11045609976E+02  0.28879658785E+02  0.00000000000E+00 0. -1.
</event>
<event>
 5    1  0.6622912E-004  0.9118800E+02  0.7818608E-02  0.1130116E+00
         25   -1    0    0    0    0  0.00000000000E+00  0.00000000000E+00  0.99999998245E-14  0.12500000000E+03  0.12500000000E+03 0.  0.
        -11    1    3    3    0    0  0.41051627298E+01 -0.34767947570E+02  0.48757507867E+02  0.60024637550E+02  0.51100000000E-03 0. -1.
         23    2    1    0    0    0 -0.99090062656E+01 -0.11931946389E+02  0.23479801223E+02  0.96859978407E+02  0.92682223763E+02 0.  0.
         11    1    3    3    0    0 -0.14014168995E+02  0.22836001181E+02 -0.25277706645E+02  0.36835340857E+02  0.51100000000E-03 0.  1.
         22    1    1    0    0    0  0.99090062656E+01  0.11931946389E+02 -0.23479801223E+02  0.28140021593E+02  0.00000000000E+00 0. -1.
</event>
<event>
 5    1  0.6622912E-004  0.9118800E+02  0.7818608E-02  0.1130116E+00
         25   -1    0    0    0    0  0.00000000000E+00  0.00000000000E+00  0.99999998245E-14  0.12500000000E+03  0.12500000000E+03 0.  0.
        -11    1    3    3    0    0 -0.51651189666E+02  0.24216950915E+02  0.13772998675E+02  0.58685616622E+02  0.51100000000E-03 0.  1.
         23    2    1    0    0    0 -0.42860515572E+02  0.89064719144E+01 -0.23620156385E+00  0.81223238720E+02  0.68416443052E+02 0.  0.
         11    1    3    3    0    0  0.87906740941E+01 -0.15310479001E+02 -0.14009200239E+02  0.22537622098E+02  0.51100000000E-03 0. -1.
         22    1    1    0    0    0  0.42860515572E+02 -0.89064719144E+01  0.23620156385E+00  0.43776761280E+02  0.00000000000E+00 0.  1.
</event>
<event>
 5    1  0.6622912E-004  0.9118800E+02  0.7818608E-02  0.1130116E+00
         25   -1    0    0    0    0  0.00000000000E+00  0.00000000000E+00  0.99999998245E-14  0.12500000000E+03  0.12500000000E+03 0.  0.
        -11    1    3    3    0    0  0.20046521775E+02  0.95197801026E+01  0.25348924469E+02  0.33690610272E+02  0.51100000000E-03 0. -1.
         23    2    1    0    0    0  0.78935855400E+01  0.13131520872E+02 -0.30450478490E+02  0.90912213722E+02  0.84279614560E+02 0.  0.
         11    1    3    3    0    0 -0.12152936235E+02  0.36117407693E+01 -0.55799402959E+02  0.57221603450E+02  0.51100000000E-03 0.  1.
         22    1    1    0    0    0 -0.78935855400E+01 -0.13131520872E+02  0.30450478490E+02  0.34087786278E+02  0.00000000000E+00 0.  1.
</event>
<event>
 5    1  0.6622912E-004  0.9118800E+02  0.7818608E-02  0.1130116E+00
         25   -1    0    0    0    0  0.00000000000E+00  0.00000000000E+00  0.99999998245E-14  0.12500000000E+03  0.12500000000E+03 0.  0.
        -11    1    3    3    0    0  0.48794123240E+02  0.77418904405E-01 -0.37284816265E+02  0.61408712579E+02  0.51100000000E-03 0.  1.
         23    2    1    0    0    0  0.20935648477E+02 -0.76111390462E+01 -0.19866193451E+02  0.95152111348E+02  0.90349476131E+02 0.  0.
         11    1    3    3    0    0 -0.27858474763E+02 -0.76885579506E+01  0.17418622814E+02  0.33743398769E+02  0.51100000000E-03 0. -1.
         22    1    1    0    0    0 -0.20935648477E+02  0.76111390462E+01  0.19866193451E+02  0.29847888652E+02  0.00000000000E+00 0.  1.
</event>
<event>
 5    1  0.6622912E-004  0.9118800E+02  0.7818608E-02  0.1130116E+00
         25   -1    0    0    0    0  0.00000000000E+00  0.00000000000E+00  0.99999998245E-14  0.12500000000E+03  0.12500000000E+03 0.  0.
        -11    1    3    3    0    0  0.50185398079E+02  0.14087651225E+02 -0.26400803702E+02  0.58429774377E+02  0.51100000000E-03 0.  1.
         23    2    1    0    0    0  0.18807610470E+02  0.20395912636E+02 -0.53295713500E+01  0.96748915160E+02  0.92532312141E+02 0.  0.
         11    1    3    3    0    0 -0.31377787609E+02  0.63082614107E+01  0.21071232352E+02  0.38319140783E+02  0.51100000000E-03 0. -1.
         22    1    1    0    0    0 -0.18807610470E+02 -0.20395912636E+02  0.53295713500E+01  0.28251084840E+02  0.00000000000E+00 0.  1.
</event>
<event>
 5    1  0.6622912E-004  0.9118800E+02  0.7818608E-02  0.1130116E+00
         25   -1    0    0    0    0  0.00000000000E+00  0.00000000000E+00  0.99999998245E-14  0.12500000000E+03  0.12500000000E+03 0.  0.
        -11    1    3    3    0    0 -0.48937077037E+02  0.20455160004E+02 -0.31872084201E+02  0.61879567155E+02  0.51100000000E-03 0. -1.
         23    2    1    0    0    0 -0.22567560134E+02  0.13796448145E+02 -0.10218044088E+02  0.96644309622E+02  0.92390894602E+02 0.  0.
         11    1    3    3    0    0  0.26369516903E+02 -0.66587118586E+01  0.21654040113E+02  0.34764742467E+02  0.51100000000E-03 0.  1.
         22    1    1    0    0    0  0.22567560134E+02 -0.13796448145E+02  0.10218044088E+02  0.28355690378E+02  0.00000000000E+00 0. -1.
</event>
<event>
 5    1  0.6622912E-004  0.9118800E+02  0.7818608E-02  0.1130116E+00
         25   -1    0    0    0    0  0.00000000000E+00  0.00000000000E+00  0.99999998245E-14  0.12500000000E+03  0.12500000000E+03 0.  0.
        -11    1    3    3    0    0  0.36608411305E+02 -0.16101763839E+02 -0.23875582647E+02  0.46577741722E+02  0.51100000000E-03 0. -1.
         23    2    1    0    0    0 -0.43240055477E+01  0.11292920446E+02 -0.26468846547E+02  0.95899709388E+02  0.91377936872E+02 0.  0.
         11    1    3    3    0    0 -0.40932416852E+02  0.27394684285E+02 -0.25932639005E+01  0.49321967665E+02  0.51100000000E-03 0.  1.
         22    1    1    0    0    0  0.43240055477E+01 -0.11292920446E+02  0.26468846547E+02  0.29100290612E+02  0.00000000000E+00 0.  1.
</event>
<event>
 5    1  0.6622912E-004  0.9118800E+02  0.7818608E-02  0.1130116E+00
         25   -1    0    0    0    0  0.00000000000E+00  0.00000000000E+00  0.99999998245E-14  0.12500000000E+03  0.12500000000E+03 0.  0.
        -11    1    3    3    0    0 -0.12032896347E+02  0.20611849845E+02  0.27898155696E+02  0.36714384647E+02  0.51100000000E-03 0.  1.
         23    2    1    0    0    0  0.20330990885E+02  0.15803944300E+02 -0.18359738863E+02  0.93374158400E+02  0.87855219538E+02 0.  0.
         11    1    3    3    0    0  0.32363887231E+02 -0.48079055455E+01 -0.46257894559E+02  0.56659773753E+02  0.51100000000E-03 0. -1.
         22    1    1    0    0    0 -0.20330990885E+02 -0.15803944300E+02  0.18359738863E+02  0.31625841600E+02  0.00000000000E+00 0. -1.
</event>
<event>
 5    1  0.6622912E-004  0.9118800E+02  0.7818608E-02  0.1130116E+00
         25   -1    0    0    0    0  0.00000000000E+00  0.00000000000E+00  0.99999998245E-14  0.12500000000E+03  0.12500000000E+03 0.  0.
        -11    1    3    3    0    0  0.59727684175E+02 -0.61339442729E+00  0.55030135868E+01  0.59983795048E+02  0.51100000000E-03 0.  1.
         23    2    1    0    0    0  0.24947416224E+02 -0.69396692222E+01 -0.81097533471E+01  0.97865138944E+02  0.94028106097E+02 0.  0.
         11    1    3    3    0    0 -0.34780267951E+02 -0.63262747949E+01 -0.13612766934E+02  0.37881343896E+02  0.51100000000E-03 0. -1.
         22    1    1    0    0    0 -0.24947416224E+02  0.69396692222E+01  0.81097533471E+01  0.27134861056E+02  0.00000000000E+00 0.  1.
</event>
<event>
 5    1  0.6622912E-004  0.9118800E+02  0.7818608E-02  0.1130116E+00
         25   -1    0    0    0    0  0.00000000000E+00  0.00000000000E+00  0.99999998245E-14  0.12500000000E+03  0.12500000000E+03 0.  0.
        -11    1    3    3    0    0 -0.70689529484E+01  0.38747286801E+02  0.13609476495E+01  0.39410335053E+02  0.51100000000E-03 0.  1.
         23    2    1    0    0    0 -0.10057935057E+02 -0.15605406317E+02 -0.19839974600E+02  0.97828040997E+02  0.93978775525E+02 0.  0.
         11    1    3    3    0    0 -0.29889821091E+01 -0.54352693118E+02 -0.21200922250E+02  0.58417705944E+02  0.51100000000E-03 0. -1.
         22    1    1    0    0    0  0.10057935057E+02  0.15605406317E+02  0.19839974600E+02  0.27171959003E+02  0.00000000000E+00 0. -1.
</event>
<event>
 5    1  0.6622912E-004  0.9118800E+02  0.7818608E-02  0.1130116E+00
         25   -1    0    0    0    0  0.00000000000E+00  0.00000000000E+00  0.99999998245E-14  0.12500000000E+03  0.12500000000E+03 0.  0.
        -11    1    3    3    0    0 -0.25115104044E+02  0.39494412854E+02 -0.12245662397E+02  0.48379058958E+02  0.51100000000E-03 0.  1.
         23    2    1    0    0    0  0.14236854464E+01  0.14704917262E+02  0.22134987153E+02  0.98387613256E+02  0.94720131514E+02 0.  0.
         11    1    3    3    0    0  0.26538789490E+02 -0.24789495592E+02  0.34380649550E+02  0.50008554299E+02  0.51100000000E-03 0. -1.
         22    1    1    0    0    0 -0.14236854464E+01 -0.14704917262E+02 -0.22134987153E+02  0.26612386744E+02  0.00000000000E+00 0.  1.
</event>
<event>
 5    1  0.6622912E-004  0.9118800E+02  0.7818608E-02  0.1130116E+00
         25   -1    0    0    0    0  0.00000000000E+00  0.00000000000E+00  0.99999998245E-14  0.12500000000E+03  0.12500000000E+03 0.  0.
        -11    1    3    3    0    0 -0.42575650360E+02  0.10256361937E+02 -0.12384417829E+01  0.43811102497E+02  0.51100000000E-03 0.  1.
         23    2    1    0    0    0  0.18551389877E+01  0.42974987400E+01 -0.28393714076E+02  0.96223046806E+02  0.91819179377E+02 0.  0.
         11    1    3    3    0    0  0.44430789347E+02 -0.59588631965E+01 -0.27155272293E+02  0.52411944309E+02  0.51100000000E-03 0. -1.
         22    1    1    0    0    0 -0.18551389877E+01 -0.42974987400E+01  0.28393714076E+02  0.28776953194E+02  0.00000000000E+00 0.  1.
</event>
<event>
 5    1  0.6622912E-004  0.9118800E+02  0.7818608E-02  0.1130116E+00
         25   -1    0    0    0    0  0.00000000000E+00  0.00000000000E+00  0.99999998245E-14  0.12500000000E+03  0.12500000000E+03 0.  0.
        -11    1    3    3    0    0 -0.88277507439E+01 -0.33395323654E+02  0.28808418829E+02  0.44978904175E+02  0.51100000000E-03 0.  1.
         23    2    1    0    0    0 -0.19131285239E+02  0.14633862030E+02  0.17053253566E+02  0.95487808451E+02  0.90812731006E+02 0.  0.
         11    1    3    3    0    0 -0.10303534495E+02  0.48029185684E+02 -0.11755165262E+02  0.50508904276E+02  0.51100000000E-03 0. -1.
         22    1    1    0    0    0  0.19131285239E+02 -0.14633862030E+02 -0.17053253566E+02  0.29512191549E+02  0.00000000000E+00 0. -1.
</event>
<event>
 5    1  0.6622912E-004  0.9118800E+02  0.7818608E-02  0.1130116E+00
         25   -1    0    0    0    0  0.00000000000E+00  0.00000000000E+00  0.99999998245E-14  0.12500000000E+03  0.12500000000E+03 0.  0.
        -11    1    3    3    0    0  0.33795802671E+02  0.14808233195E+02 -0.28766502504E+02  0.46786234248E+02  0.51100000000E-03 0.  1.
         23    2    1    0    0    0 -0.74860524538E+01 -0.17032105535E+02 -0.16001381250E+02  0.10046068864E+03  0.97417514642E+02 0.  0.
         11    1    3    3    0    0 -0.41281855125E+02 -0.31840338730E+02  0.12765121254E+02  0.53674454388E+02  0.51100000000E-03 0. -1.
         22    1    1    0    0    0  0.74860524538E+01  0.17032105535E+02  0.16001381250E+02  0.24539311364E+02  0.00000000000E+00 0.  1.
</event>
<event>
 5    1  0.6622912E-004  0.9118800E+02  0.7818608E-02  0.1130116E+00
         25   -1    0    0    0    0  0.00000000000E+00  0.00000000000E+00  0.99999998245E-14  0.12500000000E+03  0.12500000000E+03 0.  0.
        -11    1    3    3    0    0 -0.15820255356E+02  0.25817219040E+02 -0.17432116943E+02  0.34938345408E+02  0.51100000000E-03 0.  1.
         23    2    1    0    0    0  0.39423004189E+01  0.10729566334E+02  0.32407509071E+02  0.90635600246E+02  0.83868349581E+02 0.  0.
         11    1    3    3    0    0  0.19762555774E+02 -0.15087652707E+02  0.49839626014E+02  0.55697254837E+02  0.51100000000E-03 0. -1.
         22    1    1    0    0    0 -0.39423004189E+01 -0.10729566334E+02 -0.32407509071E+02  0.34364399754E+02  0.00000000000E+00 0. -1.
</event>
<event>
 5    1  0.6622912E-004  0.9118800E+02  0.7818608E-02  0.1130116E+00
         25   -1    0    0    0    0  0.00000000000E+00  0.00000000000E+00  0.99999998245E-14  0.12500000000E+03  0.12500000000E+03 0.  0.
        -11    1    3    3    0    0  0.17953799094E+01  0.14299828980E+02 -0.35717188768E+02  0.38515270629E+02  0.51100000000E-03 0. -1.
         23    2    1    0    0    0 -0.53877412807E+01  0.22244006572E+02  0.19604594811E+02  0.94864245120E+02  0.89950326737E+02 0.  0.
         11    1    3    3    0    0 -0.71831211901E+01  0.79441775915E+01  0.55321783579E+02  0.56348974491E+02  0.51100000000E-03 0.  1.
         22    1    1    0    0    0  0.53877412807E+01 -0.22244006572E+02 -0.19604594811E+02  0.30135754880E+02  0.00000000000E+00 0.  1.
</event>
<event>
 5    1  0.6622912E-004  0.9118800E+02  0.7818608E-02  0.1130116E+00
         25   -1    0    0    0    0  0.00000000000E+00  0.00000000000E+00  0.99999998245E-14  0.12500000000E+03  0.12500000000E+03 0.  0.
        -11    1    3    3    0    0 -0.87016199889E+01 -0.23996956166E+02  0.25741969868E+02  0.36252187639E+02  0.51100000000E-03 0.  1.
         23    2    1    0    0    0  0.19925223865E+02  0.95327213986E+01 -0.16592042038E+02  0.97374229743E+02  0.93373215837E+02 0.  0.
         11    1    3    3    0    0  0.28626843854E+02  0.33529677565E+02 -0.42334011906E+02  0.61122042104E+02  0.51100000000E-03 0. -1.
         22    1    1    0    0    0 -0.19925223865E+02 -0.95327213986E+01  0.16592042038E+02  0.27625770257E+02  0.00000000000E+00 0. -1.
</event>
<event>
 5    1  0.6622912E-004  0.9118800E+02  0.7818608E-02  0.1130116E+00
         25   -1    0    0    0    0  0.00000000000E+00  0.00000000000E+00  0.99999998245E-14  0.12500000000E+03  0.12500000000E+03 0.  0.
        -11    1    3    3    0    0  0.10423681509E+02  0.19710976884E+02 -0.47669398979E+02  0.52626489007E+02  0.51100000000E-03 0.  1.
         23    2    1    0    0    0 -0.14217937764E+02  0.23809307120E+02 -0.15923855380E+02  0.93021850742E+02  0.87352519629E+02 0.  0.
         11    1    3    3    0    0 -0.24641619273E+02  0.40983302363E+01  0.31745543598E+02  0.40395361735E+02  0.51100000000E-03 0. -1.
         22    1    1    0    0    0  0.14217937764E+02 -0.23809307120E+02  0.15923855380E+02  0.31978149258E+02  0.00000000000E+00 0.  1.
</event>
<event>
 5    1  0.6622912E-004  0.9118800E+02  0.7818608E-02  0.1130116E+00
         25   -1    0    0    0    0  0.00000000000E+00  0.00000000000E+00  0.99999998245E-14  0.12500000000E+03  0.12500000000E+03 0.  0.
        -11    1    3    3    0    0 -0.47055325716E+02  0.88413461940E+01 -0.27657935541E+02  0.55293168470E+02  0.51100000000E-03 0.  1.
         23    2    1    0    0    0 -0.20901313740E+02  0.21820023019E+02 -0.10964191814E+01  0.94764582761E+02  0.89811723568E+02 0.  0.
         11    1    3    3    0    0  0.26154011976E+02  0.12978676825E+02  0.26561516359E+02  0.39471414291E+02  0.51100000000E-03 0. -1.
         22    1    1    0    0    0  0.20901313740E+02 -0.21820023019E+02  0.10964191814E+01  0.30235417239E+02  0.00000000000E+00 0. -1.
</event>
<event>
 5    1  0.6622912E-004  0.9118800E+02  0.7818608E-02  0.1130116E+00
         25   -1    0    0    0    0  0.00000000000E+00  0.00000000000E+00  0.99999998245E-14  0.12500000000E+03  0.12500000000E+03 0.  0.
        -11    1    3    3    0    0 -0.33329138617E+02  0.44762446881E+02 -0.27904858613E+02  0.62395426645E+02  0.51100000000E-03 0.  1.
         23    2    1    0    0    0 -0.15322071773E+02  0.16502253684E+02 -0.11884273502E+02  0.99537749182E+02  0.96225969964E+02 0.  0.
         11    1    3    3    0    0  0.18007066844E+02 -0.28260193198E+02  0.16020585111E+02  0.37142322537E+02  0.51100000000E-03 0. -1.
         22    1    1    0    0    0  0.15322071773E+02 -0.16502253684E+02  0.11884273502E+02  0.25462250818E+02  0.00000000000E+00 0.  1.
</event>
<event>
 5    1  0.6622912E-004  0.9118800E+02  0.7818608E-02  0.1130116E+00
         25   -1    0    0    0    0  0.00000000000E+00  0.00000000000E+00  0.99999998245E-14  0.12500000000E+03  0.12500000000E+03 0.  0.
        -11    1    3    3    0    0  0.26368593681E+02 -0.23157191031E+02  0.13241009777E+02  0.37508433309E+02  0.51100000000E-03 0.  1.
         23    2    1    0    0    0 -0.19611412307E+02  0.88429680891E+01  0.22024545798E+02  0.94212239528E+02  0.89039653425E+02 0.  0.
         11    1    3    3    0    0 -0.45980005988E+02  0.32000159120E+02  0.87835360209E+01  0.56703806218E+02  0.51100000000E-03 0. -1.
         22    1    1    0    0    0  0.19611412307E+02 -0.88429680891E+01 -0.22024545798E+02  0.30787760472E+02  0.00000000000E+00 0. -1.
</event>
<event>
 5    1  0.6622912E-004  0.9118800E+02  0.7818608E-02  0.1130116E+00
         25   -1    0    0    0    0  0.00000000000E+00  0.00000000000E+00  0.99999998245E-14  0.12500000000E+03  0.12500000000E+03 0.  0.
        -11    1    3    3    0    0  0.40784514005E+02 -0.58059816894E+01 -0.22176619090E+02  0.46785558033E+02  0.51100000000E-03 0.  1.
         23    2    1    0    0    0  0.49380603486E+01  0.26353177878E+02 -0.90783829616E+01  0.96692907930E+02  0.92456622167E+02 0.  0.
         11    1    3    3    0    0 -0.35846453656E+02  0.32159159567E+02  0.13098236128E+02  0.49907349897E+02  0.51100000000E-03 0. -1.
         22    1    1    0    0    0 -0.49380603486E+01 -0.26353177878E+02  0.90783829616E+01  0.28307092070E+02  0.00000000000E+00 0. -1.
</event>
<event>
 5    1  0.6622912E-004  0.9118800E+02  0.7818608E-02  0.1130116E+00
         25   -1    0    0    0    0  0.00000000000E+00  0.00000000000E+00  0.99999998245E-14  0.12500000000E+03  0.12500000000E+03 0.  0.
        -11    1    3    3    0    0  0.14986097503E+02  0.51669216799E+02  0.62684971862E+01  0.54162580628E+02  0.51100000000E-03 0.  1.
         23    2    1    0    0    0  0.18682700175E+02  0.11582711326E+02  0.18535233696E+02  0.96246611058E+02  0.91851253472E+02 0.  0.
         11    1    3    3    0    0  0.36966026717E+01 -0.40086505473E+02  0.12266736510E+02  0.42084030430E+02  0.51100000000E-03 0. -1.
         22    1    1    0    0    0 -0.18682700175E+02 -0.11582711326E+02 -0.18535233696E+02  0.28753388942E+02  0.00000000000E+00 0.  1.
</event>
<event>
 5    1  0.6622912E-004  0.9118800E+02  0.7818608E-02  0.1130116E+00
         25   -1    0    0    0    0  0.00000000000E+00  0.00000000000E+00  0.99999998245E-14  0.12500000000E+03  0.12500000000E+03 0.  0.
        -11    1    3    3    0    0  0.10823248971E+02 -0.38309395892E+02 -0.23063285722E+02  0.46007256823E+02  0.51100000000E-03 0. -1.
         23    2    1    0    0    0  0.13293891896E+02  0.13888342901E+02 -0.18262263516E+02  0.98483516466E+02  0.94846608355E+02 0.  0.
         11    1    3    3    0    0  0.24706429254E+01  0.52197738793E+02  0.48010222057E+01  0.52476259642E+02  0.51100000000E-03 0.  1.
         22    1    1    0    0    0 -0.13293891896E+02 -0.13888342901E+02  0.18262263516E+02  0.26516483534E+02  0.00000000000E+00 0. -1.
</event>
<event>
 5    1  0.6622912E-004  0.9118800E+02  0.7818608E-02  0.1130116E+00
         25   -1    0    0    0    0  0.00000000000E+00  0.00000000000E+00  0.99999998245E-14  0.12500000000E+03  0.12500000000E+03 0.  0.
        -11    1    3    3    0    0  0.99914899377E+01  0.31470761106E+02 -0.20037335159E+02  0.38622965659E+02  0.51100000000E-03 0.  1.
         23    2    1    0    0    0 -0.19652319083E+02  0.36794891120E+01  0.20741790183E+02  0.96190728134E+02  0.91775171116E+02 0.  0.
         11    1    3    3    0    0 -0.29643809021E+02 -0.27791271994E+02  0.40779125342E+02  0.57567762474E+02  0.51100000000E-03 0. -1.
         22    1    1    0    0    0  0.19652319083E+02 -0.36794891120E+01 -0.20741790183E+02  0.28809271866E+02  0.00000000000E+00 0. -1.
</event>
<event>
 5    1  0.6622912E-004  0.9118800E+02  0.7818608E-02  0.1130116E+00
         25   -1    0    0    0    0  0.00000000000E+00  0.00000000000E+00  0.99999998245E-14  0.12500000000E+03  0.12500000000E+03 0.  0.
        -11    1    3    3    0    0  0.18916461440E+02 -0.28534840447E+02 -0.28598235073E+02  0.44608616682E+02  0.51100000000E-03 0.  1.
         23    2    1    0    0    0  0.15367080230E+02 -0.15237223149E+02  0.20252273397E+02  0.95360926097E+02  0.90637914386E+02 0.  0.
         11    1    3    3    0    0 -0.35493812107E+01  0.13297617298E+02  0.48850508471E+02  0.50752309414E+02  0.51100000000E-03 0. -1.
         22    1    1    0    0    0 -0.15367080230E+02  0.15237223149E+02 -0.20252273397E+02  0.29639073903E+02  0.00000000000E+00 0. -1.
</event>
<event>
 5    1  0.6622912E-004  0.9118800E+02  0.7818608E-02  0.1130116E+00
         25   -1    0    0    0    0  0.00000000000E+00  0.00000000000E+00  0.99999998245E-14  0.12500000000E+03  0.12500000000E+03 0.  0.
        -11    1    3    3    0    0 -0.10904243672E+02 -0.54699827562E+01 -0.36231525792E+02  0.38230180524E+02  0.51100000000E-03 0.  1.
         23    2    1    0    0    0  0.21258612342E+02  0.20192093049E+02  0.35541606065E+01  0.95465591626E+02  0.90782145306E+02 0.  0.
         11    1    3    3    0    0  0.32162856014E+02  0.25662075805E+02  0.39785686398E+02  0.57235411102E+02  0.51100000000E-03 0. -1.
         22    1    1    0    0    0 -0.21258612342E+02 -0.20192093049E+02 -0.35541606065E+01  0.29534408374E+02  0.00000000000E+00 0. -1.
</event>
<event>
 5    1  0.6622912E-004  0.9118800E+02  0.7818608E-02  0.1130116E+00
         25   -1    0    0    0    0  0.00000000000E+00  0.00000000000E+00  0.99999998245E-14  0.12500000000E+03  0.12500000000E+03 0.  0.
        -11    1    3    3    0    0  0.16895464993E+02  0.15324722586E+02 -0.29324922238E+02  0.37151782248E+02  0.51100000000E-03 0. -1.
         23    2    1    0    0    0 -0.57635174662E+01 -0.29611641743E+02 -0.11880812074E+01  0.94809289553E+02  0.89873924964E+02 0.  0.
         11    1    3    3    0    0 -0.22658982459E+02 -0.44936364330E+02  0.28136841031E+02  0.57657507305E+02  0.51100000000E-03 0.  1.
         22    1    1    0    0    0  0.57635174662E+01  0.29611641743E+02  0.11880812074E+01  0.30190710447E+02  0.00000000000E+00 0.  1.
</event>
<event>
 5    1  0.6622912E-004  0.9118800E+02  0.7818608E-02  0.1130116E+00
         25   -1    0    0    0    0  0.00000000000E+00  0.00000000000E+00  0.99999998245E-14  0.12500000000E+03  0.12500000000E+03 0.  0.
        -11    1    3    3    0    0  0.25837823872E+02 -0.24421068998E+02 -0.40909809839E+02  0.54199578363E+02  0.51100000000E-03 0. -1.
         23    2    1    0    0    0 -0.10710389167E+02 -0.16240455564E+02 -0.20022698492E+02  0.97082742113E+02  0.92982178552E+02 0.  0.
         11    1    3    3    0    0 -0.36548213039E+02  0.81806134340E+01  0.20887111347E+02  0.42883163750E+02  0.51100000000E-03 0.  1.
         22    1    1    0    0    0  0.10710389167E+02  0.16240455564E+02  0.20022698492E+02  0.27917257887E+02  0.00000000000E+00 0. -1.
</event>
<event>
 5    1  0.6622912E-004  0.9118800E+02  0.7818608E-02  0.1130116E+00
         25   -1    0    0    0    0  0.00000000000E+00  0.00000000000E+00  0.99999998245E-14  0.12500000000E+03  0.12500000000E+03 0.  0.
        -11    1    3    3    0    0  0.31476675733E+02  0.12616496166E+02 -0.24283794543E+02  0.41709228815E+02  0.51100000000E-03 0.  1.
         23    2    1    0    0    0 -0.20896497084E+02 -0.95780115040E+00 -0.20124920426E+02  0.95972540663E+02  0.91477511803E+02 0.  0.
         11    1    3    3    0    0 -0.52373172817E+02 -0.13574297316E+02  0.41588741167E+01  0.54263311848E+02  0.51100000000E-03 0. -1.
         22    1    1    0    0    0  0.20896497084E+02  0.95780115040E+00  0.20124920426E+02  0.29027459337E+02  0.00000000000E+00 0.  1.
</event>
<event>
 5    1  0.6622912E-004  0.9118800E+02  0.7818608E-02  0.1130116E+00
         25   -1    0    0    0    0  0.00000000000E+00  0.00000000000E+00  0.99999998245E-14  0.12500000000E+03  0.12500000000E+03 0.  0.
        -11    1    3    3    0    0  0.12633310473E+02 -0.16184924996E+02 -0.29965661484E+02  0.36324828961E+02  0.51100000000E-03 0.  1.
         23    2    1    0    0    0 -0.17535792821E+02 -0.10858971371E+02  0.20856934524E+02  0.95666861626E+02  0.91058856826E+02 0.  0.
         11    1    3    3    0    0 -0.30169103294E+02  0.53259536244E+01  0.50822596008E+02  0.59342032665E+02  0.51100000000E-03 0. -1.
         22    1    1    0    0    0  0.17535792821E+02  0.10858971371E+02 -0.20856934524E+02  0.29333138374E+02  0.00000000000E+00 0. -1.
</event>
<event>
 5    1  0.6622912E-004  0.9118800E+02  0.7818608E-02  0.1130116E+00
         25   -1    0    0    0    0  0.00000000000E+00  0.00000000000E+00  0.99999998245E-14  0.12500000000E+03  0.12500000000E+03 0.  0.
        -11    1    3    3    0    0 -0.16294775881E+02 -0.62083435246E+01 -0.29523455500E+02  0.34288448131E+02  0.51100000000E-03 0.  1.
         23    2    1    0    0    0  0.19110092096E+02 -0.83971596696E+01  0.20586149042E+02  0.95682813184E+02  0.91080751512E+02 0.  0.
         11    1    3    3    0    0  0.35404867977E+02 -0.21888161450E+01  0.50109604542E+02  0.61394365052E+02  0.51100000000E-03 0. -1.
         22    1    1    0    0    0 -0.19110092096E+02  0.83971596696E+01 -0.20586149042E+02  0.29317186816E+02  0.00000000000E+00 0. -1.
</event>
<event>
 5    1  0.6622912E-004  0.9118800E+02  0.7818608E-02  0.1130116E+00
         25   -1    0    0    0    0  0.00000000000E+00  0.00000000000E+00  0.99999998245E-14  0.12500000000E+03  0.12500000000E+03 0.  0.
        -11    1    3    3    0    0  0.21587390447E+02 -0.40043203782E+02 -0.41417166551E+01  0.45679617036E+02  0.51100000000E-03 0. -1.
         23    2    1    0    0    0  0.27888693523E+02  0.56533237317E+01  0.11384276708E+02  0.94351328711E+02  0.89234702766E+02 0.  0.
         11    1    3    3    0    0  0.63013030757E+01  0.45696527513E+02  0.15525993363E+02  0.48671711675E+02  0.51100000000E-03 0.  1.
         22    1    1    0    0    0 -0.27888693523E+02 -0.56533237317E+01 -0.11384276708E+02  0.30648671289E+02  0.00000000000E+00 0.  1.
</event>
<event>
 5    1  0.6622912E-004  0.9118800E+02  0.7818608E-02  0.1130116E+00
         25   -1    0    0    0    0  0.00000000000E+00  0.00000000000E+00  0.99999998245E-14  0.12500000000E+03  0.12500000000E+03 0.  0.
        -11    1    3    3    0    0  0.28271823071E+02  0.22545078078E+02 -0.40398211739E+02  0.54218004733E+02  0.51100000000E-03 0. -1.
         23    2    1    0    0    0 -0.15463001510E+01 -0.15246133907E+01 -0.31327216154E+02  0.93597612160E+02  0.88172575328E+02 0.  0.
         11    1    3    3    0    0 -0.29818123222E+02 -0.24069691469E+02  0.90709955855E+01  0.39379607426E+02  0.51100000000E-03 0.  1.
         22    1    1    0    0    0  0.15463001510E+01  0.15246133907E+01  0.31327216154E+02  0.31402387840E+02  0.00000000000E+00 0. -1.
</event>
<event>
 5    1  0.6622912E-004  0.9118800E+02  0.7818608E-02  0.1130116E+00
         25   -1    0    0    0    0  0.00000000000E+00  0.00000000000E+00  0.99999998245E-14  0.12500000000E+03  0.12500000000E+03 0.  0.
        -11    1    3    3    0    0  0.23210280260E+00  0.25837753797E+02  0.22797318683E+02  0.34458106918E+02  0.51100000000E-03 0. -1.
         23    2    1    0    0    0  0.55182554309E+01 -0.29777361278E+02  0.21651421670E+00  0.94714867243E+02  0.89742502811E+02 0.  0.
         11    1    3    3    0    0  0.52861526283E+01 -0.55615115075E+02 -0.22580804466E+02  0.60256760326E+02  0.51100000000E-03 0.  1.
         22    1    1    0    0    0 -0.55182554309E+01  0.29777361278E+02 -0.21651421670E+00  0.30285132757E+02  0.00000000000E+00 0.  1.
</event>
<event>
 5    1  0.6622912E-004  0.9118800E+02  0.7818608E-02  0.1130116E+00
         25   -1    0    0    0    0  0.00000000000E+00  0.00000000000E+00  0.99999998245E-14  0.12500000000E+03  0.12500000000E+03 0.  0.
        -11    1    3    3    0    0 -0.18586586748E+02  0.47957162663E+02  0.10051869204E+02  0.52406018093E+02  0.51100000000E-03 0.  1.
         23    2    1    0    0    0  0.12213640059E+02  0.25151705498E+02  0.18267825719E+02  0.91600976819E+02  0.85295042088E+02 0.  0.
         11    1    3    3    0    0  0.30800226807E+02 -0.22805457165E+02  0.82159565143E+01  0.39194958726E+02  0.51100000000E-03 0. -1.
         22    1    1    0    0    0 -0.12213640059E+02 -0.25151705498E+02 -0.18267825719E+02  0.33399023181E+02  0.00000000000E+00 0.  1.
</event>
<event>
 5    1  0.6622912E-004  0.9118800E+02  0.7818608E-02  0.1130116E+00
         25   -1    0    0    0    0  0.00000000000E+00  0.00000000000E+00  0.99999998245E-14  0.12500000000E+03  0.12500000000E+03 0.  0.
        -11    1    3    3    0    0 -0.39341519551E+02 -0.15586820827E+01 -0.10820072668E+02  0.40832078360E+02  0.51100000000E-03 0. -1.
         23    2    1    0    0    0  0.74980184514E+00  0.30096944363E+02  0.53699729437E+01  0.94418553465E+02  0.89328821587E+02 0.  0.
         11    1    3    3    0    0  0.40091321396E+02  0.31655626445E+02  0.16190045612E+02  0.53586475104E+02  0.51100000000E-03 0.  1.
         22    1    1    0    0    0 -0.74980184514E+00 -0.30096944363E+02 -0.53699729437E+01  0.30581446535E+02  0.00000000000E+00 0.  1.
</event>
<event>
 5    1  0.6622912E-004  0.9118800E+02  0.7818608E-02  0.1130116E+00
         25   -1    0    0    0    0  0.00000000000E+00  0.00000000000E+00  0.99999998245E-14  0.12500000000E+03  0.12500000000E+03 0.  0.
        -11    1    3    3    0    0 -0.21320424173E+02  0.21163139148E+02 -0.16233804899E+02  0.34146381467E+02  0.51100000000E-03 0. -1.
         23    2    1    0    0    0  0.31233998273E+02 -0.21154835454E+01 -0.70426059089E+00  0.93686522044E+02  0.88298530627E+02 0.  0.
         11    1    3    3    0    0  0.52554422446E+02 -0.23278622694E+02  0.15529544308E+02  0.59540140576E+02  0.51100000000E-03 0.  1.
         22    1    1    0    0    0 -0.31233998273E+02  0.21154835454E+01  0.70426059089E+00  0.31313477956E+02  0.00000000000E+00 0.  1.
</event>
<event>
 5    1  0.6622912E-004  0.9118800E+02  0.7818608E-02  0.1130116E+00
         25   -1    0    0    0    0  0.00000000000E+00  0.00000000000E+00  0.99999998245E-14  0.12500000000E+03  0.12500000000E+03 0.  0.
        -11    1    3    3    0    0 -0.83811004772E+01 -0.19712442587E+02  0.40917607805E+02  0.46185212641E+02  0.51100000000E-03 0. -1.
         23    2    1    0    0    0 -0.27857114951E+02 -0.84412643853E+01 -0.32065272435E+01  0.95715949481E+02  0.91126216701E+02 0.  0.
         11    1    3    3    0    0 -0.19476014474E+02  0.11271178202E+02 -0.44124135049E+02  0.49530736840E+02  0.51100000000E-03 0.  1.
         22    1    1    0    0    0  0.27857114951E+02  0.84412643853E+01  0.32065272435E+01  0.29284050519E+02  0.00000000000E+00 0.  1.
</event>
<event>
 5    1  0.6622912E-004  0.9118800E+02  0.7818608E-02  0.1130116E+00
         25   -1    0    0    0    0  0.00000000000E+00  0.00000000000E+00  0.99999998245E-14  0.12500000000E+03  0.12500000000E+03 0.  0.
        -11    1    3    3    0    0 -0.14462171252E+02 -0.51244688519E+02  0.14900856877E+02  0.55292025055E+02  0.51100000000E-03 0.  1.
         23    2    1    0    0    0 -0.21948765529E+02 -0.14599686411E+02  0.18392858665E+02  0.92856627411E+02  0.87115766959E+02 0.  0.
         11    1    3    3    0    0 -0.74865942766E+01  0.36645002109E+02  0.34920017877E+01  0.37564602356E+02  0.51100000000E-03 0. -1.
         22    1    1    0    0    0  0.21948765529E+02  0.14599686411E+02 -0.18392858665E+02  0.32143372589E+02  0.00000000000E+00 0.  1.
</event>
<event>
 5    1  0.6622912E-004  0.9118800E+02  0.7818608E-02  0.1130116E+00
         25   -1    0    0    0    0  0.00000000000E+00  0.00000000000E+00  0.99999998245E-14  0.12500000000E+03  0.12500000000E+03 0.  0.
        -11    1    3    3    0    0 -0.22611184220E+02  0.13074263969E+02 -0.28954691790E+02  0.38994566379E+02  0.51100000000E-03 0.  1.
         23    2    1    0    0    0 -0.14830409965E+02 -0.13077489400E+02  0.21150160540E+02  0.96046743196E+02  0.91578850172E+02 0.  0.
         11    1    3    3    0    0  0.77807742554E+01 -0.26151753369E+02  0.50104852329E+02  0.57052176817E+02  0.51100000000E-03 0. -1.
         22    1    1    0    0    0  0.14830409965E+02  0.13077489400E+02 -0.21150160540E+02  0.28953256804E+02  0.00000000000E+00 0. -1.
</event>
<event>
 5    1  0.6622912E-004  0.9118800E+02  0.7818608E-02  0.1130116E+00
         25   -1    0    0    0    0  0.00000000000E+00  0.00000000000E+00  0.99999998245E-14  0.12500000000E+03  0.12500000000E+03 0.  0.
        -11    1    3    3    0    0  0.24578655817E+02 -0.26640781732E+02  0.30535995309E+02  0.47395026984E+02  0.51100000000E-03 0. -1.
         23    2    1    0    0    0  0.14962830694E+02 -0.19221677017E+02 -0.16241140833E+02  0.95723152061E+02  0.91136096115E+02 0.  0.
         11    1    3    3    0    0 -0.96158251228E+01  0.74191047155E+01 -0.46777136141E+02  0.48328125077E+02  0.51100000000E-03 0.  1.
         22    1    1    0    0    0 -0.14962830694E+02  0.19221677017E+02  0.16241140833E+02  0.29276847939E+02  0.00000000000E+00 0. -1.
</event>
<event>
 5    1  0.6622912E-004  0.9118800E+02  0.7818608E-02  0.1130116E+00
         25   -1    0    0    0    0  0.00000000000E+00  0.00000000000E+00  0.99999998245E-14  0.12500000000E+03  0.12500000000E+03 0.  0.
        -11    1    3    3    0    0 -0.17023256016E+02 -0.76030445617E+01 -0.59076752111E+02  0.61948851258E+02  0.51100000000E-03 0.  1.
         23    2    1    0    0    0 -0.22941443477E+01 -0.36937739288E+01 -0.29101960140E+02  0.95574991111E+02  0.90932655178E+02 0.  0.
         11    1    3    3    0    0  0.14729111668E+02  0.39092706329E+01  0.29974791971E+02  0.33626139852E+02  0.51100000000E-03 0. -1.
         22    1    1    0    0    0  0.22941443477E+01  0.36937739288E+01  0.29101960140E+02  0.29425008889E+02  0.00000000000E+00 0.  1.
</event>
<event>
 5    1  0.6622912E-004  0.9118800E+02  0.7818608E-02  0.1130116E+00
         25   -1    0    0    0    0  0.00000000000E+00  0.00000000000E+00  0.99999998245E-14  0.12500000000E+03  0.12500000000E+03 0.  0.
        -11    1    3    3    0    0  0.22181141543E+02  0.44344200905E+02  0.35088574867E+02  0.60742236381E+02  0.51100000000E-03 0. -1.
         23    2    1    0    0    0  0.86824791735E+01  0.19633478404E+02  0.31797481690E+01  0.10329816327E+03  0.10099277607E+03 0.  0.
         11    1    3    3    0    0 -0.13498662370E+02 -0.24710722501E+02 -0.31908826698E+02  0.42555926894E+02  0.51100000000E-03 0.  1.
         22    1    1    0    0    0 -0.86824791735E+01 -0.19633478404E+02 -0.31797481690E+01  0.21701836726E+02  0.00000000000E+00 0. -1.
</event>
<event>
 5    1  0.6622912E-004  0.9118800E+02  0.7818608E-02  0.1130116E+00
         25   -1    0    0    0    0  0.00000000000E+00  0.00000000000E+00  0.99999998245E-14  0.12500000000E+03  0.12500000000E+03 0.  0.
        -11    1    3    3    0    0 -0.25373401727E+01  0.37294280596E+02 -0.56421340874E+00  0.37384753542E+02  0.51100000000E-03 0.  1.
         23    2    1    0    0    0 -0.22008677278E+02 -0.18210565491E+02 -0.31393243344E+01  0.96262186438E+02  0.91872447499E+02 0.  0.
         11    1    3    3    0    0 -0.19471337105E+02 -0.55504846088E+02 -0.25751109257E+01  0.58877432896E+02  0.51100000000E-03 0. -1.
         22    1    1    0    0    0  0.22008677278E+02  0.18210565491E+02  0.31393243344E+01  0.28737813562E+02  0.00000000000E+00 0. -1.
</event>
<event>
 5    1  0.6622912E-004  0.9118800E+02  0.7818608E-02  0.1130116E+00
         25   -1    0    0    0    0  0.00000000000E+00  0.00000000000E+00  0.99999998245E-14  0.12500000000E+03  0.12500000000E+03 0.  0.
        -11    1    3    3    0    0  0.13815463723E+02 -0.39908152587E+02  0.44476950013E+02  0.61332917455E+02  0.51100000000E-03 0.  1.
         23    2    1    0    0    0  0.13496237761E+01 -0.24134298778E+02  0.16709455140E+02  0.95614769817E+02  0.90987320294E+02 0.  0.
         11    1    3    3    0    0 -0.12465839947E+02  0.15773853809E+02 -0.27767494874E+02  0.34281852362E+02  0.51100000000E-03 0. -1.
         22    1    1    0    0    0 -0.13496237761E+01  0.24134298778E+02 -0.16709455140E+02  0.29385230183E+02  0.00000000000E+00 0.  1.
</event>
<event>
 5    1  0.6622912E-004  0.9118800E+02  0.7818608E-02  0.1130116E+00
         25   -1    0    0    0    0  0.00000000000E+00  0.00000000000E+00  0.99999998245E-14  0.12500000000E+03  0.12500000000E+03 0.  0.
        -11    1    3    3    0    0 -0.17138246821E+02 -0.38203548331E+01 -0.56118977962E+02  0.58801822276E+02  0.51100000000E-03 0.  1.
         23    2    1    0    0    0 -0.15609647404E+02  0.11155819663E+02 -0.24000698836E+02  0.94273025709E+02  0.89124948400E+02 0.  0.
         11    1    3    3    0    0  0.15285994167E+01  0.14976174496E+02  0.32118279126E+02  0.35471203434E+02  0.51100000000E-03 0. -1.
         22    1    1    0    0    0  0.15609647404E+02 -0.11155819663E+02  0.24000698836E+02  0.30726974291E+02  0.00000000000E+00 0.  1.
</event>
<event>
 5    1  0.6622912E-004  0.9118800E+02  0.7818608E-02  0.1130116E+00
         25   -1    0    0    0    0  0.00000000000E+00  0.00000000000E+00  0.99999998245E-14  0.12500000000E+03  0.12500000000E+03 0.  0.
        -11    1    3    3    0    0 -0.78007706943E+01 -0.34175056051E+02  0.45343270602E+02  0.57313163136E+02  0.51100000000E-03 0. -1.
         23    2    1    0    0    0  0.11608201827E+02 -0.72238960933E+01  0.25672143902E+02  0.95914024050E+02  0.91397516447E+02 0.  0.
         11    1    3    3    0    0  0.19408972521E+02  0.26951159958E+02 -0.19671126700E+02  0.38600860914E+02  0.51100000000E-03 0.  1.
         22    1    1    0    0    0 -0.11608201827E+02  0.72238960933E+01 -0.25672143902E+02  0.29085975950E+02  0.00000000000E+00 0. -1.
</event>
<event>
 5    1  0.6622912E-004  0.9118800E+02  0.7818608E-02  0.1130116E+00
         25   -1    0    0    0    0  0.00000000000E+00  0.00000000000E+00  0.99999998245E-14  0.12500000000E+03  0.12500000000E+03 0.  0.
        -11    1    3    3    0    0 -0.40706371816E+02 -0.71032991531E+00 -0.42890279391E+02  0.59136193160E+02  0.51100000000E-03 0.  1.
         23    2    1    0    0    0 -0.13258704127E+02 -0.42560580502E+01 -0.34087136073E+02  0.88178265781E+02  0.80122196957E+02 0.  0.
         11    1    3    3    0    0  0.27447667689E+02 -0.35457281349E+01  0.88031433180E+01  0.29042072621E+02  0.51100000000E-03 0. -1.
         22    1    1    0    0    0  0.13258704127E+02  0.42560580502E+01  0.34087136073E+02  0.36821734219E+02  0.00000000000E+00 0.  1.
</event>
<event>
 5    1  0.6622912E-004  0.9118800E+02  0.7818608E-02  0.1130116E+00
         25   -1    0    0    0    0  0.00000000000E+00  0.00000000000E+00  0.99999998245E-14  0.12500000000E+03  0.12500000000E+03 0.  0.
        -11    1    3    3    0    0 -0.38910179293E+02  0.21271077773E+02 -0.22804178197E+02  0.49864730479E+02  0.51100000000E-03 0.  1.
         23    2    1    0    0    0 -0.25559534832E+02 -0.99432087022E+01  0.87486732283E+01  0.96212910822E+02  0.91805379501E+02 0.  0.
         11    1    3    3    0    0  0.13350644461E+02 -0.31214286475E+02  0.31552851426E+02  0.46348180342E+02  0.51100000000E-03 0. -1.
         22    1    1    0    0    0  0.25559534832E+02  0.99432087022E+01 -0.87486732283E+01  0.28787089178E+02  0.00000000000E+00 0.  1.
</event>
<event>
 5    1  0.6622912E-004  0.9118800E+02  0.7818608E-02  0.1130116E+00
         25   -1    0    0    0    0  0.00000000000E+00  0.00000000000E+00  0.99999998245E-14  0.12500000000E+03  0.12500000000E+03 0.  0.
        -11    1    3    3    0    0  0.36926389065E+02  0.48058647170E+02 -0.10663846242E+00  0.60606956277E+02  0.51100000000E-03 0. -1.
         23    2    1    0    0    0  0.10649370757E+02  0.29342918841E+02 -0.54645412208E+01  0.93309667178E+02  0.87763413758E+02 0.  0.
         11    1    3    3    0    0 -0.26277018308E+02 -0.18715728328E+02 -0.53579027584E+01  0.32702710901E+02  0.51100000000E-03 0.  1.
         22    1    1    0    0    0 -0.10649370757E+02 -0.29342918841E+02  0.54645412208E+01  0.31690332822E+02  0.00000000000E+00 0. -1.
</event>
<event>
 5    1  0.6622912E-004  0.9118800E+02  0.7818608E-02  0.1130116E+00
         25   -1    0    0    0    0  0.00000000000E+00  0.00000000000E+00  0.99999998245E-14  0.12500000000E+03  0.12500000000E+03 0.  0.
        -11    1    3    3    0    0 -0.13697734851E+02  0.24308737355E+02 -0.17719976025E+02  0.33053595908E+02  0.51100000000E-03 0. -1.
         23    2    1    0    0    0  0.11372404694E+02 -0.19548293195E+02  0.18964574400E+02  0.95485216627E+02  0.90809163397E+02 0.  0.
         11    1    3    3    0    0  0.25070139545E+02 -0.43857030551E+02  0.36684550424E+02  0.62431620719E+02  0.51100000000E-03 0.  1.
         22    1    1    0    0    0 -0.11372404694E+02  0.19548293195E+02 -0.18964574400E+02  0.29514783373E+02  0.00000000000E+00 0.  1.
</event>
<event>
 5    1  0.6622912E-004  0.9118800E+02  0.7818608E-02  0.1130116E+00
         25   -1    0    0    0    0  0.00000000000E+00  0.00000000000E+00  0.99999998245E-14  0.12500000000E+03  0.12500000000E+03 0.  0.
        -11    1    3    3    0    0  0.18157341992E+02  0.10832634085E+02 -0.36820762220E+02  0.42459434289E+02  0.51100000000E-03 0.  1.
         23    2    1    0    0    0 -0.25895191352E+02  0.69269361327E+01 -0.25253005782E+02  0.88172596068E+02  0.80113351053E+02 0.  0.
         11    1    3    3    0    0 -0.44052533345E+02 -0.39056979523E+01  0.11567756438E+02  0.45713161779E+02  0.51100000000E-03 0. -1.
         22    1    1    0    0    0  0.25895191352E+02 -0.69269361327E+01  0.25253005782E+02  0.36827403932E+02  0.00000000000E+00 0.  1.
</event>
<event>
 5    1  0.6622912E-004  0.9118800E+02  0.7818608E-02  0.1130116E+00
         25   -1    0    0    0    0  0.00000000000E+00  0.00000000000E+00  0.99999998245E-14  0.12500000000E+03  0.12500000000E+03 0.  0.
        -11    1    3    3    0    0  0.39820209370E+02 -0.99666487910E+01  0.10721616136E+02  0.42425655154E+02  0.51100000000E-03 0. -1.
         23    2    1    0    0    0 -0.60119851614E+01 -0.26773450393E+02 -0.10452374615E+02  0.95636523595E+02  0.91017201114E+02 0.  0.
         11    1    3    3    0    0 -0.45832194532E+02 -0.16806801602E+02 -0.21173990750E+02  0.53210868441E+02  0.51100000000E-03 0.  1.
         22    1    1    0    0    0  0.60119851614E+01  0.26773450393E+02  0.10452374615E+02  0.29363476405E+02  0.00000000000E+00 0.  1.
</event>
<event>
 5    1  0.6622912E-004  0.9118800E+02  0.7818608E-02  0.1130116E+00
         25   -1    0    0    0    0  0.00000000000E+00  0.00000000000E+00  0.99999998245E-14  0.12500000000E+03  0.12500000000E+03 0.  0.
        -11    1    3    3    0    0  0.28007766810E+02  0.18745010169E+02  0.73614753476E+01  0.34496401660E+02  0.51100000000E-03 0.  1.
         23    2    1    0    0    0 -0.29861851772E+02  0.34041595312E+01 -0.89438200179E+00  0.94931438136E+02  0.90043653491E+02 0.  0.
         11    1    3    3    0    0 -0.57869618582E+02 -0.15340850638E+02 -0.82558573493E+01  0.60435036477E+02  0.51100000000E-03 0. -1.
         22    1    1    0    0    0  0.29861851772E+02 -0.34041595312E+01  0.89438200179E+00  0.30068561864E+02  0.00000000000E+00 0. -1.
</event>
<event>
 5    1  0.6622912E-004  0.9118800E+02  0.7818608E-02  0.1130116E+00
         25   -1    0    0    0    0  0.00000000000E+00  0.00000000000E+00  0.99999998245E-14  0.12500000000E+03  0.12500000000E+03 0.  0.
        -11    1    3    3    0    0  0.20926174812E+02  0.56533071787E+02  0.13670494230E+02  0.61812421168E+02  0.51100000000E-03 0.  1.
         23    2    1    0    0    0  0.15325074373E+02  0.25189575310E+02  0.31423864220E+01  0.95347897186E+02  0.90619944254E+02 0.  0.
         11    1    3    3    0    0 -0.56011004386E+01 -0.31343496476E+02 -0.10528107808E+02  0.33535476018E+02  0.51100000000E-03 0. -1.
         22    1    1    0    0    0 -0.15325074373E+02 -0.25189575310E+02 -0.31423864220E+01  0.29652102814E+02  0.00000000000E+00 0.  1.
</event>
<event>
 5    1  0.6622912E-004  0.9118800E+02  0.7818608E-02  0.1130116E+00
         25   -1    0    0    0    0  0.00000000000E+00  0.00000000000E+00  0.99999998245E-14  0.12500000000E+03  0.12500000000E+03 0.  0.
        -11    1    3    3    0    0 -0.32538739004E+02  0.33610670128E+02 -0.17695578308E+02  0.50015799247E+02  0.51100000000E-03 0. -1.
         23    2    1    0    0    0 -0.27432383596E+02  0.92066763736E+00  0.12527800792E+02  0.94828339599E+02  0.89900416572E+02 0.  0.
         11    1    3    3    0    0  0.51063554080E+01 -0.32690002490E+02  0.30223379100E+02  0.44812540352E+02  0.51100000000E-03 0.  1.
         22    1    1    0    0    0  0.27432383596E+02 -0.92066763736E+00 -0.12527800792E+02  0.30171660401E+02  0.00000000000E+00 0.  1.
</event>
<event>
 5    1  0.6622912E-004  0.9118800E+02  0.7818608E-02  0.1130116E+00
         25   -1    0    0    0    0  0.00000000000E+00  0.00000000000E+00  0.99999998245E-14  0.12500000000E+03  0.12500000000E+03 0.  0.
        -11    1    3    3    0    0  0.71497814471E+00 -0.12519771367E+02 -0.20153140938E+02  0.23736152990E+02  0.51100000000E-03 0. -1.
         23    2    1    0    0    0 -0.39197639460E+02  0.12763396881E+02  0.13364507408E+02  0.81664456880E+02  0.69217875004E+02 0.  0.
         11    1    3    3    0    0 -0.39912617605E+02  0.25283168248E+02  0.33517648346E+02  0.57928303891E+02  0.51100000000E-03 0.  1.
         22    1    1    0    0    0  0.39197639460E+02 -0.12763396881E+02 -0.13364507408E+02  0.43335543120E+02  0.00000000000E+00 0.  1.
</event>
<event>
 5    1  0.6622912E-004  0.9118800E+02  0.7818608E-02  0.1130116E+00
         25   -1    0    0    0    0  0.00000000000E+00  0.00000000000E+00  0.99999998245E-14  0.12500000000E+03  0.12500000000E+03 0.  0.
        -11    1    3    3    0    0 -0.14063821359E+02  0.32353143486E+02  0.13263212560E+02  0.37688589418E+02  0.51100000000E-03 0. -1.
         23    2    1    0    0    0  0.58202277108E+01  0.68921858660E+00 -0.29748472622E+02  0.94679681792E+02  0.89693480521E+02 0.  0.
         11    1    3    3    0    0  0.19884049070E+02 -0.31663924899E+02 -0.43011685183E+02  0.56991092374E+02  0.51100000000E-03 0.  1.
         22    1    1    0    0    0 -0.58202277108E+01 -0.68921858660E+00  0.29748472622E+02  0.30320318208E+02  0.00000000000E+00 0.  1.
</event>
<event>
 5    1  0.6622912E-004  0.9118800E+02  0.7818608E-02  0.1130116E+00
         25   -1    0    0    0    0  0.00000000000E+00  0.00000000000E+00  0.99999998245E-14  0.12500000000E+03  0.12500000000E+03 0.  0.
        -11    1    3    3    0    0  0.71209543530E+01 -0.31194916264E+02 -0.10897619799E+02  0.33802202726E+02  0.51100000000E-03 0.  1.
         23    2    1    0    0    0 -0.22474920185E+01  0.15585695211E+02  0.26332078709E+02  0.94318678570E+02  0.89188954711E+02 0.  0.
         11    1    3    3    0    0 -0.93684463714E+01  0.46780611474E+02  0.37229698508E+02  0.60516475844E+02  0.51100000000E-03 0. -1.
         22    1    1    0    0    0  0.22474920185E+01 -0.15585695211E+02 -0.26332078709E+02  0.30681321430E+02  0.00000000000E+00 0. -1.
</event>
<event>
 5    1  0.6622912E-004  0.9118800E+02  0.7818608E-02  0.1130116E+00
         25   -1    0    0    0    0  0.00000000000E+00  0.00000000000E+00  0.99999998245E-14  0.12500000000E+03  0.12500000000E+03 0.  0.
        -11    1    3    3    0    0  0.55435468517E+02 -0.14348775429E+02  0.70502197449E+01  0.57694749542E+02  0.51100000000E-03 0. -1.
         23    2    1    0    0    0  0.21972437561E+02 -0.12893305931E+02 -0.12653020696E+02  0.96554890000E+02  0.92269835265E+02 0.  0.
         11    1    3    3    0    0 -0.33463030956E+02  0.14554694986E+01 -0.19703240441E+02  0.38860140457E+02  0.51100000000E-03 0.  1.
         22    1    1    0    0    0 -0.21972437561E+02  0.12893305931E+02  0.12653020696E+02  0.28445110000E+02  0.00000000000E+00 0. -1.
</event>
<event>
 5    1  0.6622912E-004  0.9118800E+02  0.7818608E-02  0.1130116E+00
         25   -1    0    0    0    0  0.00000000000E+00  0.00000000000E+00  0.99999998245E-14  0.12500000000E+03  0.12500000000E+03 0.  0.
        -11    1    3    3    0    0  0.28452024821E+02 -0.49906343272E+01 -0.10026602320E+02  0.30577064963E+02  0.51100000000E-03 0. -1.
         23    2    1    0    0    0 -0.27583616329E+02 -0.58346531367E+01  0.16233583284E+02  0.92466505057E+02  0.86554181090E+02 0.  0.
         11    1    3    3    0    0 -0.56035641150E+02 -0.84401880948E+00  0.26260185604E+02  0.61889440093E+02  0.51100000000E-03 0.  1.
         22    1    1    0    0    0  0.27583616329E+02  0.58346531367E+01 -0.16233583284E+02  0.32533494943E+02  0.00000000000E+00 0.  1.
</event>
<event>
 5    1  0.6622912E-004  0.9118800E+02  0.7818608E-02  0.1130116E+00
         25   -1    0    0    0    0  0.00000000000E+00  0.00000000000E+00  0.99999998245E-14  0.12500000000E+03  0.12500000000E+03 0.  0.
        -11    1    3    3    0    0 -0.25902074252E+02  0.26990012098E+02 -0.13187753725E+02  0.39664783526E+02  0.51100000000E-03 0.  1.
         23    2    1    0    0    0  0.11998260953E+02 -0.14666396482E+02 -0.21218259687E+02  0.96552223359E+02  0.92266222637E+02 0.  0.
         11    1    3    3    0    0  0.37900335205E+02 -0.41656408580E+02 -0.80305059617E+01  0.56887439833E+02  0.51100000000E-03 0. -1.
         22    1    1    0    0    0 -0.11998260953E+02  0.14666396482E+02  0.21218259687E+02  0.28447776641E+02  0.00000000000E+00 0. -1.
</event>
<event>
 5    1  0.6622912E-004  0.9118800E+02  0.7818608E-02  0.1130116E+00
         25   -1    0    0    0    0  0.00000000000E+00  0.00000000000E+00  0.99999998245E-14  0.12500000000E+03  0.12500000000E+03 0.  0.
        -11    1    3    3    0    0 -0.56673071757E+02  0.19532464930E+02 -0.32693161308E+01  0.60033679521E+02  0.51100000000E-03 0.  1.
         23    2    1    0    0    0 -0.20677949657E+02  0.19757908736E+02  0.15897041694E+01  0.96355982842E+02  0.91999976687E+02 0.  0.
         11    1    3    3    0    0  0.35995122101E+02  0.22544380579E+00  0.48590203002E+01  0.36322303320E+02  0.51100000000E-03 0. -1.
         22    1    1    0    0    0  0.20677949657E+02 -0.19757908736E+02 -0.15897041694E+01  0.28644017158E+02  0.00000000000E+00 0.  1.
</event>
<event>
 5    1  0.6622912E-004  0.9118800E+02  0.7818608E-02  0.1130116E+00
         25   -1    0    0    0    0  0.00000000000E+00  0.00000000000E+00  0.99999998245E-14  0.12500000000E+03  0.12500000000E+03 0.  0.
        -11    1    3    3    0    0  0.36459731954E+02  0.58304563596E+01  0.37503654888E+01  0.37112956189E+02  0.51100000000E-03 0.  1.
         23    2    1    0    0    0 -0.17777688785E+02 -0.20568771890E+02  0.45269566973E+01  0.97438905454E+02  0.93459757990E+02 0.  0.
         11    1    3    3    0    0 -0.54237420739E+02 -0.26399228250E+02  0.77659120857E+00  0.60325949266E+02  0.51100000000E-03 0. -1.
         22    1    1    0    0    0  0.17777688785E+02  0.20568771890E+02 -0.45269566973E+01  0.27561094546E+02  0.00000000000E+00 0. -1.
</event>
<event>
 5    1  0.6622912E-004  0.9118800E+02  0.7818608E-02  0.1130116E+00
         25   -1    0    0    0    0  0.00000000000E+00  0.00000000000E+00  0.99999998245E-14  0.12500000000E+03  0.12500000000E+03 0.  0.
        -11    1    3    3    0    0 -0.17394874961E+02 -0.20588746367E+02 -0.30023003272E+02  0.40346733171E+02  0.51100000000E-03 0.  1.
         23    2    1    0    0    0  0.16550599778E+02  0.20081872775E+02 -0.12373995584E+02  0.96184730890E+02  0.91767002362E+02 0.  0.
         11    1    3    3    0    0  0.33945474739E+02  0.40670619142E+02  0.17649007688E+02  0.55837997719E+02  0.51100000000E-03 0. -1.
         22    1    1    0    0    0 -0.16550599778E+02 -0.20081872775E+02  0.12373995584E+02  0.28815269110E+02  0.00000000000E+00 0. -1.
</event>
<event>
 5    1  0.6622912E-004  0.9118800E+02  0.7818608E-02  0.1130116E+00
         25   -1    0    0    0    0  0.00000000000E+00  0.00000000000E+00  0.99999998245E-14  0.12500000000E+03  0.12500000000E+03 0.  0.
        -11    1    3    3    0    0  0.25355191534E+02 -0.30616132189E+02 -0.45366083085E+02  0.60318444796E+02  0.51100000000E-03 0. -1.
         23    2    1    0    0    0  0.80528641150E+00 -0.16386689378E+02 -0.24389774882E+02  0.95605558454E+02  0.90974664680E+02 0.  0.
         11    1    3    3    0    0 -0.24549905123E+02  0.14229442810E+02  0.20976308203E+02  0.35287113658E+02  0.51100000000E-03 0.  1.
         22    1    1    0    0    0 -0.80528641150E+00  0.16386689378E+02  0.24389774882E+02  0.29394441546E+02  0.00000000000E+00 0. -1.
</event>
<event>
 5    1  0.6622912E-004  0.9118800E+02  0.7818608E-02  0.1130116E+00
         25   -1    0    0    0    0  0.00000000000E+00  0.00000000000E+00  0.99999998245E-14  0.12500000000E+03  0.12500000000E+03 0.  0.
        -11    1    3    3    0    0 -0.47010418109E+02 -0.12040503487E+02  0.15326059944E+02  0.50890482889E+02  0.51100000000E-03 0. -1.
         23    2    1    0    0    0 -0.19371041992E+02 -0.80156790957E+01 -0.20068818799E+02  0.95978527480E+02  0.91485692161E+02 0.  0.
         11    1    3    3    0    0  0.27639376117E+02  0.40248243915E+01 -0.35394878743E+02  0.45088044591E+02  0.51100000000E-03 0.  1.
         22    1    1    0    0    0  0.19371041992E+02  0.80156790957E+01  0.20068818799E+02  0.29021472520E+02  0.00000000000E+00 0. -1.
</event>
<event>
 5    1  0.6622912E-004  0.9118800E+02  0.7818608E-02  0.1130116E+00
         25   -1    0    0    0    0  0.00000000000E+00  0.00000000000E+00  0.99999998245E-14  0.12500000000E+03  0.12500000000E+03 0.  0.
        -11    1    3    3    0    0  0.20092447769E+02  0.26933415478E+02  0.84690892326E+01  0.34653149919E+02  0.51100000000E-03 0. -1.
         23    2    1    0    0    0 -0.34875695612E+01 -0.28989155628E+02  0.12048439902E+01  0.95776962264E+02  0.91209870990E+02 0.  0.
         11    1    3    3    0    0 -0.23580017330E+02 -0.55922571106E+02 -0.72642452424E+01  0.61123812345E+02  0.51100000000E-03 0.  1.
         22    1    1    0    0    0  0.34875695612E+01  0.28989155628E+02 -0.12048439902E+01  0.29223037736E+02  0.00000000000E+00 0.  1.
</event>
<event>
 5    1  0.6622912E-004  0.9118800E+02  0.7818608E-02  0.1130116E+00
         25   -1    0    0    0    0  0.00000000000E+00  0.00000000000E+00  0.99999998245E-14  0.12500000000E+03  0.12500000000E+03 0.  0.
        -11    1    3    3    0    0  0.22590084123E+02  0.90463197034E+00 -0.24610082362E+02  0.33418354445E+02  0.51100000000E-03 0. -1.
         23    2    1    0    0    0 -0.18754957652E+02  0.15155213424E+02  0.18332859293E+02  0.94709363488E+02  0.89734836446E+02 0.  0.
         11    1    3    3    0    0 -0.41345041776E+02  0.14250581454E+02  0.42942941655E+02  0.61291009042E+02  0.51100000000E-03 0.  1.
         22    1    1    0    0    0  0.18754957652E+02 -0.15155213424E+02 -0.18332859293E+02  0.30290636512E+02  0.00000000000E+00 0.  1.
</event>
<event>
 5    1  0.6622912E-004  0.9118800E+02  0.7818608E-02  0.1130116E+00
         25   -1    0    0    0    0  0.00000000000E+00  0.00000000000E+00  0.99999998245E-14  0.12500000000E+03  0.12500000000E+03 0.  0.
        -11    1    3    3    0    0 -0.46596799770E+02  0.14511605630E+02 -0.37681730578E+02  0.61658424132E+02  0.51100000000E-03 0. -1.
         23    2    1    0    0    0 -0.16556834411E+02  0.10785987644E+02 -0.20767835742E+02  0.96333481262E+02  0.91969398799E+02 0.  0.
         11    1    3    3    0    0  0.30039965360E+02 -0.37256179865E+01  0.16913894836E+02  0.34675057130E+02  0.51100000000E-03 0.  1.
         22    1    1    0    0    0  0.16556834411E+02 -0.10785987644E+02  0.20767835742E+02  0.28666518738E+02  0.00000000000E+00 0. -1.
</event>
<event>
 5    1  0.6622912E-004  0.9118800E+02  0.7818608E-02  0.1130116E+00
         25   -1    0    0    0    0  0.00000000000E+00  0.00000000000E+00  0.99999998245E-14  0.12500000000E+03  0.12500000000E+03 0.  0.
        -11    1    3    3    0    0  0.33449245154E+02  0.41468758495E+02 -0.26965206667E+02  0.59712915717E+02  0.51100000000E-03 0. -1.
         23    2    1    0    0    0  0.25509871927E+02  0.10781031668E+02 -0.11045795435E+02  0.95184000833E+02  0.90393584995E+02 0.  0.
         11    1    3    3    0    0 -0.79393732278E+01 -0.30687726827E+02  0.15919411233E+02  0.35471085116E+02  0.51100000000E-03 0.  1.
         22    1    1    0    0    0 -0.25509871927E+02 -0.10781031668E+02  0.11045795435E+02  0.29815999167E+02  0.00000000000E+00 0. -1.
</event>
<event>
 5    1  0.6622912E-004  0.9118800E+02  0.7818608E-02  0.1130116E+00
         25   -1    0    0    0    0  0.00000000000E+00  0.00000000000E+00  0.99999998245E-14  0.12500000000E+03  0.12500000000E+03 0.  0.
        -11    1    3    3    0    0  0.24145943133E+02 -0.25874337223E+02  0.44247487938E+02  0.56659933689E+02  0.51100000000E-03 0. -1.
         23    2    1    0    0    0 -0.55531882109E+01 -0.81789186682E+01  0.28846656134E+02  0.94506358368E+02  0.89451604747E+02 0.  0.
         11    1    3    3    0    0 -0.29699131344E+02  0.17695418555E+02 -0.15400831804E+02  0.37846424679E+02  0.51100000000E-03 0.  1.
         22    1    1    0    0    0  0.55531882109E+01  0.81789186682E+01 -0.28846656134E+02  0.30493641632E+02  0.00000000000E+00 0. -1.
</event>
<event>
 5    1  0.6622912E-004  0.9118800E+02  0.7818608E-02  0.1130116E+00
         25   -1    0    0    0    0  0.00000000000E+00  0.00000000000E+00  0.99999998245E-14  0.12500000000E+03  0.12500000000E+03 0.  0.
        -11    1    3    3    0    0 -0.51532362007E+01  0.21918205154E+02  0.48079849608E+02  0.53090823116E+02  0.51100000000E-03 0. -1.
         23    2    1    0    0    0 -0.25359707084E+02  0.72670832824E+01  0.14604345885E+02  0.94846854865E+02  0.89926157019E+02 0.  0.
         11    1    3    3    0    0 -0.20206470883E+02 -0.14651121872E+02 -0.33475503723E+02  0.41756031749E+02  0.51100000000E-03 0.  1.
         22    1    1    0    0    0  0.25359707084E+02 -0.72670832824E+01 -0.14604345885E+02  0.30153145135E+02  0.00000000000E+00 0. -1.
</event>
<event>
 5    1  0.6622912E-004  0.9118800E+02  0.7818608E-02  0.1130116E+00
         25   -1    0    0    0    0  0.00000000000E+00  0.00000000000E+00  0.99999998245E-14  0.12500000000E+03  0.12500000000E+03 0.  0.
        -11    1    3    3    0    0  0.32415395750E+02  0.12964151783E+02  0.67128756517E+01  0.35551228007E+02  0.51100000000E-03 0.  1.
         23    2    1    0    0    0 -0.11964089874E+02 -0.26034535419E+02  0.98176391484E+01  0.94712667344E+02  0.89739438576E+02 0.  0.
         11    1    3    3    0    0 -0.44379485623E+02 -0.38998687202E+02  0.31047634967E+01  0.59161439336E+02  0.51100000000E-03 0. -1.
         22    1    1    0    0    0  0.11964089874E+02  0.26034535419E+02 -0.98176391484E+01  0.30287332656E+02  0.00000000000E+00 0. -1.
</event>
<event>
 5    1  0.6622912E-004  0.9118800E+02  0.7818608E-02  0.1130116E+00
         25   -1    0    0    0    0  0.00000000000E+00  0.00000000000E+00  0.99999998245E-14  0.12500000000E+03  0.12500000000E+03 0.  0.
        -11    1    3    3    0    0 -0.88946816240E+01  0.39117699559E+02  0.38242921909E+02  0.55424099960E+02  0.51100000000E-03 0.  1.
         23    2    1    0    0    0 -0.22175569334E+02  0.17236671610E+02  0.65547062288E+01  0.96158659926E+02  0.91731483045E+02 0.  0.
         11    1    3    3    0    0 -0.13280887710E+02 -0.21881027949E+02 -0.31688215680E+02  0.40734559967E+02  0.51100000000E-03 0. -1.
         22    1    1    0    0    0  0.22175569334E+02 -0.17236671610E+02 -0.65547062288E+01  0.28841340074E+02  0.00000000000E+00 0.  1.
</event>
<event>
 5    1  0.6622912E-004  0.9118800E+02  0.7818608E-02  0.1130116E+00
         25   -1    0    0    0    0  0.00000000000E+00  0.00000000000E+00  0.99999998245E-14  0.12500000000E+03  0.12500000000E+03 0.  0.
        -11    1    3    3    0    0 -0.32369573599E+02  0.48946061717E+02 -0.94786817663E+01  0.59442002497E+02  0.51100000000E-03 0. -1.
         23    2    1    0    0    0 -0.23511466229E+02  0.11192953431E+02 -0.50830661276E+01  0.98468720122E+02  0.94827105990E+02 0.  0.
         11    1    3    3    0    0  0.88581073708E+01 -0.37753108286E+02  0.43956156387E+01  0.39026717624E+02  0.51100000000E-03 0.  1.
         22    1    1    0    0    0  0.23511466229E+02 -0.11192953431E+02  0.50830661276E+01  0.26531279878E+02  0.00000000000E+00 0.  1.
</event>
<event>
 5    1  0.6622912E-004  0.9118800E+02  0.7818608E-02  0.1130116E+00
         25   -1    0    0    0    0  0.00000000000E+00  0.00000000000E+00  0.99999998245E-14  0.12500000000E+03  0.12500000000E+03 0.  0.
        -11    1    3    3    0    0  0.12296984145E+02  0.42287689057E+02 -0.37626997921E+02  0.57924566789E+02  0.51100000000E-03 0. -1.
         23    2    1    0    0    0 -0.11286639774E+02  0.18705135268E+02 -0.18508331411E+02  0.96367349853E+02  0.92015419704E+02 0.  0.
         11    1    3    3    0    0 -0.23583623920E+02 -0.23582553789E+02  0.19118666510E+02  0.38442783065E+02  0.51100000000E-03 0.  1.
         22    1    1    0    0    0  0.11286639774E+02 -0.18705135268E+02  0.18508331411E+02  0.28632650147E+02  0.00000000000E+00 0. -1.
</event>
<event>
 5    1  0.6622912E-004  0.9118800E+02  0.7818608E-02  0.1130116E+00
         25   -1    0    0    0    0  0.00000000000E+00  0.00000000000E+00  0.99999998245E-14  0.12500000000E+03  0.12500000000E+03 0.  0.
        -11    1    3    3    0    0 -0.16791372652E+02  0.11840135683E+02 -0.58132301947E+02  0.61656334131E+02  0.51100000000E-03 0. -1.
         23    2    1    0    0    0 -0.40038840899E+01  0.11698375187E+02 -0.27791932597E+02  0.94581673496E+02  0.89556788542E+02 0.  0.
         11    1    3    3    0    0  0.12787488562E+02 -0.14176049597E+00  0.30340369350E+02  0.32925339365E+02  0.51100000000E-03 0.  1.
         22    1    1    0    0    0  0.40038840899E+01 -0.11698375187E+02  0.27791932597E+02  0.30418326504E+02  0.00000000000E+00 0. -1.
</event>
<event>
 5    1  0.6622912E-004  0.9118800E+02  0.7818608E-02  0.1130116E+00
         25   -1    0    0    0    0  0.00000000000E+00  0.00000000000E+00  0.99999998245E-14  0.12500000000E+03  0.12500000000E+03 0.  0.
        -11    1    3    3    0    0  0.31217262755E+02  0.39148511957E+01  0.29558460040E+02  0.43168809505E+02  0.51100000000E-03 0.  1.
         23    2    1    0    0    0 -0.16873296054E+02 -0.15244027473E+02  0.17460699673E+02  0.96330076275E+02  0.91964770802E+02 0.  0.
         11    1    3    3    0    0 -0.48090558810E+02 -0.19158878668E+02 -0.12097760367E+02  0.53161266770E+02  0.51100000000E-03 0. -1.
         22    1    1    0    0    0  0.16873296054E+02  0.15244027473E+02 -0.17460699673E+02  0.28669923725E+02  0.00000000000E+00 0.  1.
</event>
<event>
 5    1  0.6622912E-004  0.9118800E+02  0.7818608E-02  0.1130116E+00
         25   -1    0    0    0    0  0.00000000000E+00  0.00000000000E+00  0.99999998245E-14  0.12500000000E+03  0.12500000000E+03 0.  0.
        -11    1    3    3    0    0  0.28661497859E+02  0.21468627871E+02 -0.14946512646E+02  0.38804402878E+02  0.51100000000E-03 0.  1.
         23    2    1    0    0    0 -0.25738239970E+01  0.70880547043E+01  0.29244972262E+02  0.94798452158E+02  0.89858850646E+02 0.  0.
         11    1    3    3    0    0 -0.31235321856E+02 -0.14380573167E+02  0.44191484908E+02  0.55994049279E+02  0.51100000000E-03 0. -1.
         22    1    1    0    0    0  0.25738239970E+01 -0.70880547043E+01 -0.29244972262E+02  0.30201547842E+02  0.00000000000E+00 0. -1.
</event>
<event>
 5    1  0.6622912E-004  0.9118800E+02  0.7818608E-02  0.1130116E+00
         25   -1    0    0    0    0  0.00000000000E+00  0.00000000000E+00  0.99999998245E-14  0.12500000000E+03  0.12500000000E+03 0.  0.
        -11    1    3    3    0    0  0.29830916466E+02 -0.14906713575E+02  0.21516879694E+02  0.39687149039E+02  0.51100000000E-03 0.  1.
         23    2    1    0    0    0 -0.21269213240E+02  0.22850380766E+00  0.23863023251E+02  0.93033212165E+02  0.87368776123E+02 0.  0.
         11    1    3    3    0    0 -0.51100129706E+02  0.15135217383E+02  0.23461435561E+01  0.53346063126E+02  0.51100000000E-03 0. -1.
         22    1    1    0    0    0  0.21269213240E+02 -0.22850380766E+00 -0.23863023251E+02  0.31966787835E+02  0.00000000000E+00 0. -1.
</event>
<event>
 5    1  0.6622912E-004  0.9118800E+02  0.7818608E-02  0.1130116E+00
         25   -1    0    0    0    0  0.00000000000E+00  0.00000000000E+00  0.99999998245E-14  0.12500000000E+03  0.12500000000E+03 0.  0.
        -11    1    3    3    0    0 -0.66683167062E+01 -0.34727820000E+02 -0.38746318171E+01  0.35573876674E+02  0.51100000000E-03 0.  1.
         23    2    1    0    0    0  0.66154811931E+01  0.21088825106E+02  0.17507268629E+02  0.96804121035E+02  0.92606858594E+02 0.  0.
         11    1    3    3    0    0  0.13283797899E+02  0.55816645106E+02  0.21381900446E+02  0.61230244361E+02  0.51100000000E-03 0. -1.
         22    1    1    0    0    0 -0.66154811931E+01 -0.21088825106E+02 -0.17507268629E+02  0.28195878965E+02  0.00000000000E+00 0. -1.
</event>
<event>
 5    1  0.6622912E-004  0.9118800E+02  0.7818608E-02  0.1130116E+00
         25   -1    0    0    0    0  0.00000000000E+00  0.00000000000E+00  0.99999998245E-14  0.12500000000E+03  0.12500000000E+03 0.  0.
        -11    1    3    3    0    0  0.14030291013E+02 -0.31747343892E+02  0.17984578164E+02  0.39092044742E+02  0.51100000000E-03 0.  1.
         23    2    1    0    0    0 -0.29084071591E+02  0.30713885534E+00  0.13291337956E+02  0.93021300539E+02  0.87351732293E+02 0.  0.
         11    1    3    3    0    0 -0.43114362604E+02  0.32054482747E+02 -0.46932402080E+01  0.53929255797E+02  0.51100000000E-03 0. -1.
         22    1    1    0    0    0  0.29084071591E+02 -0.30713885534E+00 -0.13291337956E+02  0.31978699461E+02  0.00000000000E+00 0. -1.
</event>
<event>
 5    1  0.6622912E-004  0.9118800E+02  0.7818608E-02  0.1130116E+00
         25   -1    0    0    0    0  0.00000000000E+00  0.00000000000E+00  0.99999998245E-14  0.12500000000E+03  0.12500000000E+03 0.  0.
        -11    1    3    3    0    0 -0.19080099316E+02  0.44860399566E+02 -0.13951958523E+02  0.50706634537E+02  0.51100000000E-03 0.  1.
         23    2    1    0    0    0 -0.30299672761E+02  0.44633062725E+01 -0.98278004743E+01  0.92835159965E+02  0.87084958467E+02 0.  0.
         11    1    3    3    0    0 -0.11219573446E+02 -0.40397093294E+02  0.41241580483E+01  0.42128525428E+02  0.51100000000E-03 0. -1.
         22    1    1    0    0    0  0.30299672761E+02 -0.44633062725E+01  0.98278004743E+01  0.32164840035E+02  0.00000000000E+00 0.  1.
</event>
<event>
 5    1  0.6622912E-004  0.9118800E+02  0.7818608E-02  0.1130116E+00
         25   -1    0    0    0    0  0.00000000000E+00  0.00000000000E+00  0.99999998245E-14  0.12500000000E+03  0.12500000000E+03 0.  0.
        -11    1    3    3    0    0 -0.51357468068E+02 -0.25860147162E+01  0.78483636100E+01  0.52018014285E+02  0.51100000000E-03 0. -1.
         23    2    1    0    0    0 -0.19348006944E+02  0.28343956510E+00 -0.21875742310E+02  0.95794284596E+02  0.91233607563E+02 0.  0.
         11    1    3    3    0    0  0.32009461125E+02  0.28694542813E+01 -0.29724105920E+02  0.43776270311E+02  0.51100000000E-03 0.  1.
         22    1    1    0    0    0  0.19348006944E+02 -0.28343956510E+00  0.21875742310E+02  0.29205715404E+02  0.00000000000E+00 0.  1.
</event>
<event>
 5    1  0.6622912E-004  0.9118800E+02  0.7818608E-02  0.1130116E+00
         25   -1    0    0    0    0  0.00000000000E+00  0.00000000000E+00  0.99999998245E-14  0.12500000000E+03  0.12500000000E+03 0.  0.
        -11    1    3    3    0    0  0.19256990201E+02 -0.14954681674E+02 -0.28746984109E+02  0.37694340042E+02  0.51100000000E-03 0. -1.
         23    2    1    0    0    0 -0.26781283408E+02 -0.70198906639E+01  0.69104969343E+01  0.96464566347E+02  0.92147390558E+02 0.  0.
         11    1    3    3    0    0 -0.46038273609E+02  0.79347910101E+01  0.35657481044E+02  0.58770226305E+02  0.51100000000E-03 0.  1.
         22    1    1    0    0    0  0.26781283408E+02  0.70198906639E+01 -0.69104969343E+01  0.28535433653E+02  0.00000000000E+00 0.  1.
</event>
<event>
 5    1  0.6622912E-004  0.9118800E+02  0.7818608E-02  0.1130116E+00
         25   -1    0    0    0    0  0.00000000000E+00  0.00000000000E+00  0.99999998245E-14  0.12500000000E+03  0.12500000000E+03 0.  0.
        -11    1    3    3    0    0  0.30841499458E+02 -0.13900792675E+02  0.21115804152E+02  0.39878657338E+02  0.51100000000E-03 0.  1.
         23    2    1    0    0    0 -0.68164066272E+01  0.25570566967E+02  0.14478718853E+02  0.94834612650E+02  0.89909138371E+02 0.  0.
         11    1    3    3    0    0 -0.37657906086E+02  0.39471359642E+02 -0.66370852992E+01  0.54955955312E+02  0.51100000000E-03 0. -1.
         22    1    1    0    0    0  0.68164066272E+01 -0.25570566967E+02 -0.14478718853E+02  0.30165387350E+02  0.00000000000E+00 0. -1.
</event>
<event>
 5    1  0.6622912E-004  0.9118800E+02  0.7818608E-02  0.1130116E+00
         25   -1    0    0    0    0  0.00000000000E+00  0.00000000000E+00  0.99999998245E-14  0.12500000000E+03  0.12500000000E+03 0.  0.
        -11    1    3    3    0    0  0.25248144984E+02 -0.96742457576E+01 -0.32474975136E+02  0.42257352809E+02  0.51100000000E-03 0. -1.
         23    2    1    0    0    0 -0.17480024984E+02  0.12726395318E+02 -0.26389639972E+02  0.90883647483E+02  0.84237235655E+02 0.  0.
         11    1    3    3    0    0 -0.42728169968E+02  0.22400641075E+02  0.60853351637E+01  0.48626294674E+02  0.51100000000E-03 0.  1.
         22    1    1    0    0    0  0.17480024984E+02 -0.12726395318E+02  0.26389639972E+02  0.34116352517E+02  0.00000000000E+00 0.  1.
</event>
<event>
 5    1  0.6622912E-004  0.9118800E+02  0.7818608E-02  0.1130116E+00
         25   -1    0    0    0    0  0.00000000000E+00  0.00000000000E+00  0.99999998245E-14  0.12500000000E+03  0.12500000000E+03 0.  0.
        -11    1    3    3    0    0  0.49217152164E+02 -0.22096649602E+02  0.31456313295E+02  0.62450697652E+02  0.51100000000E-03 0.  1.
         23    2    1    0    0    0  0.23748545661E+02 -0.87974910375E+01  0.14253007010E+02  0.95939072995E+02  0.91431768269E+02 0.  0.
         11    1    3    3    0    0 -0.25468606503E+02  0.13299158565E+02 -0.17203306285E+02  0.33488375343E+02  0.51100000000E-03 0. -1.
         22    1    1    0    0    0 -0.23748545661E+02  0.87974910375E+01 -0.14253007010E+02  0.29060927005E+02  0.00000000000E+00 0.  1.
</event>
<event>
 5    1  0.6622912E-004  0.9118800E+02  0.7818608E-02  0.1130116E+00
         25   -1    0    0    0    0  0.00000000000E+00  0.00000000000E+00  0.99999998245E-14  0.12500000000E+03  0.12500000000E+03 0.  0.
        -11    1    3    3    0    0 -0.15670056594E+02 -0.40623863050E+02 -0.17070655556E+02  0.46768110975E+02  0.51100000000E-03 0. -1.
         23    2    1    0    0    0 -0.24476110963E+02 -0.16393122515E+02  0.18136872833E+02  0.90405771727E+02  0.83525103601E+02 0.  0.
         11    1    3    3    0    0 -0.88060543689E+01  0.24230740535E+02  0.35207528388E+02  0.43637660752E+02  0.51100000000E-03 0.  1.
         22    1    1    0    0    0  0.24476110963E+02  0.16393122515E+02 -0.18136872833E+02  0.34594228273E+02  0.00000000000E+00 0. -1.
</event>
<event>
 5    1  0.6622912E-004  0.9118800E+02  0.7818608E-02  0.1130116E+00
         25   -1    0    0    0    0  0.00000000000E+00  0.00000000000E+00  0.99999998245E-14  0.12500000000E+03  0.12500000000E+03 0.  0.
        -11    1    3    3    0    0  0.43241392718E+02 -0.58012702075E+01  0.60850449127E+00  0.43633050067E+02  0.51100000000E-03 0.  1.
         23    2    1    0    0    0 -0.20298361638E+01 -0.16784989770E+02 -0.23471369002E+02  0.96073173709E+02  0.91614919239E+02 0.  0.
         11    1    3    3    0    0 -0.45271228881E+02 -0.10983719563E+02 -0.24079873493E+02  0.52440123642E+02  0.51100000000E-03 0. -1.
         22    1    1    0    0    0  0.20298361638E+01  0.16784989770E+02  0.23471369002E+02  0.28926826291E+02  0.00000000000E+00 0. -1.
</event>
<event>
 5    1  0.6622912E-004  0.9118800E+02  0.7818608E-02  0.1130116E+00
         25   -1    0    0    0    0  0.00000000000E+00  0.00000000000E+00  0.99999998245E-14  0.12500000000E+03  0.12500000000E+03 0.  0.
        -11    1    3    3    0    0 -0.40031236163E+02  0.69088077872E+01 -0.44791276088E+02  0.60468916871E+02  0.51100000000E-03 0.  1.
         23    2    1    0    0    0 -0.25771406831E+02  0.25783000063E+00 -0.12573230799E+02  0.96323912068E+02  0.91956391931E+02 0.  0.
         11    1    3    3    0    0  0.14259829332E+02 -0.66509777866E+01  0.32218045289E+02  0.35854995197E+02  0.51100000000E-03 0. -1.
         22    1    1    0    0    0  0.25771406831E+02 -0.25783000063E+00  0.12573230799E+02  0.28676087932E+02  0.00000000000E+00 0.  1.
</event>
<event>
 5    1  0.6622912E-004  0.9118800E+02  0.7818608E-02  0.1130116E+00
         25   -1    0    0    0    0  0.00000000000E+00  0.00000000000E+00  0.99999998245E-14  0.12500000000E+03  0.12500000000E+03 0.  0.
        -11    1    3    3    0    0  0.99505800652E+01 -0.21074741999E+02  0.54930397290E+02  0.59669986933E+02  0.51100000000E-03 0. -1.
         23    2    1    0    0    0 -0.80018208187E+01 -0.85579707524E+01  0.29717475335E+02  0.93056356813E+02  0.87401883293E+02 0.  0.
         11    1    3    3    0    0 -0.17952400884E+02  0.12516771246E+02 -0.25212921955E+02  0.33386369879E+02  0.51100000000E-03 0.  1.
         22    1    1    0    0    0  0.80018208187E+01  0.85579707524E+01 -0.29717475335E+02  0.31943643187E+02  0.00000000000E+00 0. -1.
</event>
<event>
 5    1  0.6622912E-004  0.9118800E+02  0.7818608E-02  0.1130116E+00
         25   -1    0    0    0    0  0.00000000000E+00  0.00000000000E+00  0.99999998245E-14  0.12500000000E+03  0.12500000000E+03 0.  0.
        -11    1    3    3    0    0  0.31498478872E+02 -0.56424058021E+01 -0.19815554816E+02  0.37638373070E+02  0.51100000000E-03 0. -1.
         23    2    1    0    0    0 -0.94055873042E+00 -0.34222508362E+01  0.28721620989E+02  0.96059924607E+02  0.91596840294E+02 0.  0.
         11    1    3    3    0    0 -0.32439037602E+02  0.22201549659E+01  0.48537175805E+02  0.58421551537E+02  0.51100000000E-03 0.  1.
         22    1    1    0    0    0  0.94055873042E+00  0.34222508362E+01 -0.28721620989E+02  0.28940075393E+02  0.00000000000E+00 0.  1.
</event>
<event>
 5    1  0.6622912E-004  0.9118800E+02  0.7818608E-02  0.1130116E+00
         25   -1    0    0    0    0  0.00000000000E+00  0.00000000000E+00  0.99999998245E-14  0.12500000000E+03  0.12500000000E+03 0.  0.
        -11    1    3    3    0    0 -0.41910739963E+02  0.37071475244E+02 -0.25963206721E+02  0.61683810717E+02  0.51100000000E-03 0. -1.
         23    2    1    0    0    0 -0.24372373058E+02  0.14890397318E+02 -0.74465849939E+01  0.95484103794E+02  0.90807631554E+02 0.  0.
         11    1    3    3    0    0  0.17538366904E+02 -0.22181077926E+02  0.18516621728E+02  0.33800293077E+02  0.51100000000E-03 0.  1.
         22    1    1    0    0    0  0.24372373058E+02 -0.14890397318E+02  0.74465849939E+01  0.29515896206E+02  0.00000000000E+00 0. -1.
</event>
<event>
 5    1  0.6622912E-004  0.9118800E+02  0.7818608E-02  0.1130116E+00
         25   -1    0    0    0    0  0.00000000000E+00  0.00000000000E+00  0.99999998245E-14  0.12500000000E+03  0.12500000000E+03 0.  0.
        -11    1    3    3    0    0  0.16304630424E+02 -0.54882449483E+02 -0.24167808818E+02  0.62145049826E+02  0.51100000000E-03 0.  1.
         23    2    1    0    0    0  0.10207747441E+02 -0.26192408251E+02 -0.73970617519E+01  0.95931857982E+02  0.91421903805E+02 0.  0.
         11    1    3    3    0    0 -0.60968829831E+01  0.28690041231E+02  0.16770747066E+02  0.33786808156E+02  0.51100000000E-03 0. -1.
         22    1    1    0    0    0 -0.10207747441E+02  0.26192408251E+02  0.73970617519E+01  0.29068142018E+02  0.00000000000E+00 0.  1.
</event>
<event>
 5    1  0.6622912E-004  0.9118800E+02  0.7818608E-02  0.1130116E+00
         25   -1    0    0    0    0  0.00000000000E+00  0.00000000000E+00  0.99999998245E-14  0.12500000000E+03  0.12500000000E+03 0.  0.
        -11    1    3    3    0    0 -0.86185607875E+01 -0.52363814348E+01  0.35474419257E+02  0.36879990543E+02  0.51100000000E-03 0.  1.
         23    2    1    0    0    0 -0.29085124719E+02 -0.27205250672E+02 -0.22696040850E+01  0.85109885350E+02  0.75182919188E+02 0.  0.
         11    1    3    3    0    0 -0.20466563932E+02 -0.21968869237E+02 -0.37744023342E+02  0.48229894807E+02  0.51100000000E-03 0. -1.
         22    1    1    0    0    0  0.29085124719E+02  0.27205250672E+02  0.22696040850E+01  0.39890114650E+02  0.00000000000E+00 0. -1.
</event>
<event>
 5    1  0.6622912E-004  0.9118800E+02  0.7818608E-02  0.1130116E+00
         25   -1    0    0    0    0  0.00000000000E+00  0.00000000000E+00  0.99999998245E-14  0.12500000000E+03  0.12500000000E+03 0.  0.
        -11    1    3    3    0    0 -0.42598947249E+02  0.37035118178E+02 -0.18681781908E+02  0.59458214409E+02  0.51100000000E-03 0. -1.
         23    2    1    0    0    0 -0.29139129466E+02  0.70926479738E+01 -0.93051277413E+01  0.93599682747E+02  0.88175510697E+02 0.  0.
         11    1    3    3    0    0  0.13459817783E+02 -0.29942470204E+02  0.93766541668E+01  0.34141468338E+02  0.51100000000E-03 0.  1.
         22    1    1    0    0    0  0.29139129466E+02 -0.70926479738E+01  0.93051277413E+01  0.31400317253E+02  0.00000000000E+00 0.  1.
</event>
<event>
 5    1  0.6622912E-004  0.9118800E+02  0.7818608E-02  0.1130116E+00
         25   -1    0    0    0    0  0.00000000000E+00  0.00000000000E+00  0.99999998245E-14  0.12500000000E+03  0.12500000000E+03 0.  0.
        -11    1    3    3    0    0 -0.32905113468E+02 -0.19141996456E+02 -0.27540478934E+02  0.46985535017E+02  0.51100000000E-03 0.  1.
         23    2    1    0    0    0 -0.21728329379E+02 -0.81932225553E+01  0.18307405055E+02  0.95429570966E+02  0.90732534085E+02 0.  0.
         11    1    3    3    0    0  0.11176784090E+02  0.10948773900E+02  0.45847883989E+02  0.48444035949E+02  0.51100000000E-03 0. -1.
         22    1    1    0    0    0  0.21728329379E+02  0.81932225553E+01 -0.18307405055E+02  0.29570429034E+02  0.00000000000E+00 0. -1.
</event>
<event>
 5    1  0.6622912E-004  0.9118800E+02  0.7818608E-02  0.1130116E+00
         25   -1    0    0    0    0  0.00000000000E+00  0.00000000000E+00  0.99999998245E-14  0.12500000000E+03  0.12500000000E+03 0.  0.
        -11    1    3    3    0    0 -0.32851962751E+02  0.21586055234E+02 -0.33880388422E+02  0.51894989710E+02  0.51100000000E-03 0.  1.
         23    2    1    0    0    0 -0.25562604052E+02  0.13249030560E+02  0.79208155216E+01  0.95138271061E+02  0.90330325834E+02 0.  0.
         11    1    3    3    0    0  0.72893586989E+01 -0.83370246736E+01  0.41801203943E+02  0.43243281351E+02  0.51100000000E-03 0. -1.
         22    1    1    0    0    0  0.25562604052E+02 -0.13249030560E+02 -0.79208155216E+01  0.29861728939E+02  0.00000000000E+00 0.  1.
</event>
<event>
 5    1  0.6622912E-004  0.9118800E+02  0.7818608E-02  0.1130116E+00
         25   -1    0    0    0    0  0.00000000000E+00  0.00000000000E+00  0.99999998245E-14  0.12500000000E+03  0.12500000000E+03 0.  0.
        -11    1    3    3    0    0  0.41309522388E+02 -0.22397134588E+02  0.10147767601E+02  0.48073750272E+02  0.51100000000E-03 0. -1.
         23    2    1    0    0    0  0.24081421998E+02  0.13527359234E+02 -0.13343101184E+02  0.94325210962E+02  0.89198109512E+02 0.  0.
         11    1    3    3    0    0 -0.17228100390E+02  0.35924493822E+02 -0.23490868785E+02  0.46251460690E+02  0.51100000000E-03 0.  1.
         22    1    1    0    0    0 -0.24081421998E+02 -0.13527359234E+02  0.13343101184E+02  0.30674789038E+02  0.00000000000E+00 0.  1.
</event>
<event>
 5    1  0.6622912E-004  0.9118800E+02  0.7818608E-02  0.1130116E+00
         25   -1    0    0    0    0  0.00000000000E+00  0.00000000000E+00  0.99999998245E-14  0.12500000000E+03  0.12500000000E+03 0.  0.
        -11    1    3    3    0    0  0.98530767018E+01 -0.72391742420E+01 -0.49564155998E+02  0.51049919924E+02  0.51100000000E-03 0. -1.
         23    2    1    0    0    0 -0.16271367443E+02 -0.19064949027E+02 -0.15701332031E+02  0.95423632620E+02  0.90724352602E+02 0.  0.
         11    1    3    3    0    0 -0.26124444145E+02 -0.11825774785E+02  0.33862823967E+02  0.44373712696E+02  0.51100000000E-03 0.  1.
         22    1    1    0    0    0  0.16271367443E+02  0.19064949027E+02  0.15701332031E+02  0.29576367380E+02  0.00000000000E+00 0. -1.
</event>
<event>
 5    1  0.6622912E-004  0.9118800E+02  0.7818608E-02  0.1130116E+00
         25   -1    0    0    0    0  0.00000000000E+00  0.00000000000E+00  0.99999998245E-14  0.12500000000E+03  0.12500000000E+03 0.  0.
        -11    1    3    3    0    0  0.81697744477E+01 -0.24544673127E+01  0.31321520053E+02  0.32462397370E+02  0.51100000000E-03 0.  1.
         23    2    1    0    0    0 -0.14742131518E+02  0.78367391557E+00 -0.26457335718E+02  0.94702554567E+02  0.89725351165E+02 0.  0.
         11    1    3    3    0    0 -0.22911905965E+02  0.32381412283E+01 -0.57778855770E+02  0.62240157197E+02  0.51100000000E-03 0. -1.
         22    1    1    0    0    0  0.14742131518E+02 -0.78367391557E+00  0.26457335718E+02  0.30297445433E+02  0.00000000000E+00 0. -1.
</event>
<event>
 5    1  0.6622912E-004  0.9118800E+02  0.7818608E-02  0.1130116E+00
         25   -1    0    0    0    0  0.00000000000E+00  0.00000000000E+00  0.99999998245E-14  0.12500000000E+03  0.12500000000E+03 0.  0.
        -11    1    3    3    0    0  0.14838787088E+02 -0.60319054781E+02 -0.64831725947E+01  0.62454859692E+02  0.51100000000E-03 0.  1.
         23    2    1    0    0    0  0.61650061184E+01 -0.28788470632E+02 -0.45009724799E+01  0.95216748078E+02  0.90438857907E+02 0.  0.
         11    1    3    3    0    0 -0.86737809696E+01  0.31530584149E+02  0.19822001148E+01  0.32761888386E+02  0.51100000000E-03 0. -1.
         22    1    1    0    0    0 -0.61650061184E+01  0.28788470632E+02  0.45009724799E+01  0.29783251922E+02  0.00000000000E+00 0.  1.
</event>
<event>
 5    1  0.6622912E-004  0.9118800E+02  0.7818608E-02  0.1130116E+00
         25   -1    0    0    0    0  0.00000000000E+00  0.00000000000E+00  0.99999998245E-14  0.12500000000E+03  0.12500000000E+03 0.  0.
        -11    1    3    3    0    0  0.34566215980E+02  0.10304779413E+02  0.36848861681E+02  0.51564041477E+02  0.51100000000E-03 0. -1.
         23    2    1    0    0    0 -0.74020476478E+01 -0.27987989560E+00  0.28382593270E+02  0.95666738285E+02  0.91058687511E+02 0.  0.
         11    1    3    3    0    0 -0.41968263628E+02 -0.10584659309E+02 -0.84662684115E+01  0.44102696808E+02  0.51100000000E-03 0.  1.
         22    1    1    0    0    0  0.74020476478E+01  0.27987989560E+00 -0.28382593270E+02  0.29333261715E+02  0.00000000000E+00 0. -1.
</event>
<event>
 5    1  0.6622912E-004  0.9118800E+02  0.7818608E-02  0.1130116E+00
         25   -1    0    0    0    0  0.00000000000E+00  0.00000000000E+00  0.99999998245E-14  0.12500000000E+03  0.12500000000E+03 0.  0.
        -11    1    3    3    0    0 -0.15316294834E+02 -0.16647883140E+02 -0.24786313012E+02  0.33557446468E+02  0.51100000000E-03 0. -1.
         23    2    1    0    0    0 -0.78367307616E+01  0.24911268501E+02  0.17694512905E+02  0.93455088614E+02  0.87970291313E+02 0.  0.
         11    1    3    3    0    0  0.74795640727E+01  0.41559151641E+02  0.42480825917E+02  0.59897642146E+02  0.51100000000E-03 0.  1.
         22    1    1    0    0    0  0.78367307616E+01 -0.24911268501E+02 -0.17694512905E+02  0.31544911386E+02  0.00000000000E+00 0.  1.
</event>
<event>
 5    1  0.6622912E-004  0.9118800E+02  0.7818608E-02  0.1130116E+00
         25   -1    0    0    0    0  0.00000000000E+00  0.00000000000E+00  0.99999998245E-14  0.12500000000E+03  0.12500000000E+03 0.  0.
        -11    1    3    3    0    0  0.30315852850E+01 -0.41146212013E+02 -0.12288965942E+02  0.43049041296E+02  0.51100000000E-03 0. -1.
         23    2    1    0    0    0 -0.30783050252E+02 -0.49542896751E+01 -0.12451525415E+01  0.93795968628E+02  0.88453333216E+02 0.  0.
         11    1    3    3    0    0 -0.33814635537E+02  0.36191922337E+02  0.11043813401E+02  0.50746927332E+02  0.51100000000E-03 0.  1.
         22    1    1    0    0    0  0.30783050252E+02  0.49542896751E+01  0.12451525415E+01  0.31204031372E+02  0.00000000000E+00 0.  1.
</event>
<event>
 5    1  0.6622912E-004  0.9118800E+02  0.7818608E-02  0.1130116E+00
         25   -1    0    0    0    0  0.00000000000E+00  0.00000000000E+00  0.99999998245E-14  0.12500000000E+03  0.12500000000E+03 0.  0.
        -11    1    3    3    0    0 -0.23964590272E+02 -0.33522774730E+01 -0.29517729190E+02  0.38168516973E+02  0.51100000000E-03 0. -1.
         23    2    1    0    0    0  0.42363259833E+01 -0.22579241059E+02  0.17395237344E+02  0.96183982460E+02  0.91765982886E+02 0.  0.
         11    1    3    3    0    0  0.28200916255E+02 -0.19226963586E+02  0.46912966534E+02  0.58015465487E+02  0.51100000000E-03 0.  1.
         22    1    1    0    0    0 -0.42363259833E+01  0.22579241059E+02 -0.17395237344E+02  0.28816017540E+02  0.00000000000E+00 0.  1.
</event>
<event>
 5    1  0.6622912E-004  0.9118800E+02  0.7818608E-02  0.1130116E+00
         25   -1    0    0    0    0  0.00000000000E+00  0.00000000000E+00  0.99999998245E-14  0.12500000000E+03  0.12500000000E+03 0.  0.
        -11    1    3    3    0    0 -0.33994650565E+02 -0.39440173802E+02 -0.29991579487E+02  0.60088754497E+02  0.51100000000E-03 0.  1.
         23    2    1    0    0    0 -0.22234582512E+02 -0.73958547191E+01 -0.12361510826E+02  0.98506939090E+02  0.94877472418E+02 0.  0.
         11    1    3    3    0    0  0.11760068053E+02  0.32044319083E+02  0.17630068662E+02  0.38418184593E+02  0.51100000000E-03 0. -1.
         22    1    1    0    0    0  0.22234582512E+02  0.73958547191E+01  0.12361510826E+02  0.26493060910E+02  0.00000000000E+00 0.  1.
</event>
<event>
 5    1  0.6622912E-004  0.9118800E+02  0.7818608E-02  0.1130116E+00
         25   -1    0    0    0    0  0.00000000000E+00  0.00000000000E+00  0.99999998245E-14  0.12500000000E+03  0.12500000000E+03 0.  0.
        -11    1    3    3    0    0 -0.18190978913E+02  0.27449985893E+02  0.12521215039E+02  0.35230587075E+02  0.51100000000E-03 0.  1.
         23    2    1    0    0    0  0.24242687082E+02 -0.15287332123E+02  0.45356349218E+01  0.95983067279E+02  0.91491894831E+02 0.  0.
         11    1    3    3    0    0  0.42433665995E+02 -0.42737318015E+02 -0.79855801177E+01  0.60752480204E+02  0.51100000000E-03 0. -1.
         22    1    1    0    0    0 -0.24242687082E+02  0.15287332123E+02 -0.45356349218E+01  0.29016932721E+02  0.00000000000E+00 0. -1.
</event>
<event>
 5    1  0.6622912E-004  0.9118800E+02  0.7818608E-02  0.1130116E+00
         25   -1    0    0    0    0  0.00000000000E+00  0.00000000000E+00  0.99999998245E-14  0.12500000000E+03  0.12500000000E+03 0.  0.
        -11    1    3    3    0    0  0.66085491084E+01  0.98564637848E+01  0.39389720846E+02  0.41138460207E+02  0.51100000000E-03 0. -1.
         23    2    1    0    0    0 -0.14197785731E+02 -0.24654544394E+02  0.14077792461E+01  0.96514819268E+02  0.92215534576E+02 0.  0.
         11    1    3    3    0    0 -0.20806334839E+02 -0.34511008178E+02 -0.37981941600E+02  0.55376359061E+02  0.51100000000E-03 0.  1.
         22    1    1    0    0    0  0.14197785731E+02  0.24654544394E+02 -0.14077792461E+01  0.28485180732E+02  0.00000000000E+00 0.  1.
</event>
<event>
 5    1  0.6622912E-004  0.9118800E+02  0.7818608E-02  0.1130116E+00
         25   -1    0    0    0    0  0.00000000000E+00  0.00000000000E+00  0.99999998245E-14  0.12500000000E+03  0.12500000000E+03 0.  0.
        -11    1    3    3    0    0  0.15863449620E+02  0.19395477213E+02  0.30803772963E+02  0.39707757418E+02  0.51100000000E-03 0. -1.
         23    2    1    0    0    0  0.25365069332E-01  0.61859283096E+01 -0.25023807601E+02  0.99222930747E+02  0.95816140012E+02 0.  0.
         11    1    3    3    0    0 -0.15838084551E+02 -0.13209548904E+02 -0.55827580564E+02  0.59515173329E+02  0.51100000000E-03 0.  1.
         22    1    1    0    0    0 -0.25365069332E-01 -0.61859283096E+01  0.25023807601E+02  0.25777069253E+02  0.00000000000E+00 0.  1.
</event>
<event>
 5    1  0.6622912E-004  0.9118800E+02  0.7818608E-02  0.1130116E+00
         25   -1    0    0    0    0  0.00000000000E+00  0.00000000000E+00  0.99999998245E-14  0.12500000000E+03  0.12500000000E+03 0.  0.
        -11    1    3    3    0    0 -0.15986836092E+02 -0.24177130264E+02 -0.28226309154E+02  0.40457843303E+02  0.51100000000E-03 0.  1.
         23    2    1    0    0    0  0.14188401105E+01  0.25605752873E+02 -0.16566662309E+02  0.94469327104E+02  0.89399842147E+02 0.  0.
         11    1    3    3    0    0  0.17405676202E+02  0.49782883137E+02  0.11659646845E+02  0.54011483800E+02  0.51100000000E-03 0. -1.
         22    1    1    0    0    0 -0.14188401105E+01 -0.25605752873E+02  0.16566662309E+02  0.30530672896E+02  0.00000000000E+00 0. -1.
</event>
<event>
 5    1  0.6622912E-004  0.9118800E+02  0.7818608E-02  0.1130116E+00
         25   -1    0    0    0    0  0.00000000000E+00  0.00000000000E+00  0.99999998245E-14  0.12500000000E+03  0.12500000000E+03 0.  0.
        -11    1    3    3    0    0 -0.49985942735E+02  0.72821886913E+01  0.21525794732E+02  0.54908875260E+02  0.51100000000E-03 0. -1.
         23    2    1    0    0    0 -0.24702543738E+02  0.78257693045E+01 -0.11620735588E+02  0.96601059387E+02  0.92332360777E+02 0.  0.
         11    1    3    3    0    0  0.25283398997E+02  0.54358061318E+00 -0.33146530320E+02  0.41692184127E+02  0.51100000000E-03 0.  1.
         22    1    1    0    0    0  0.24702543738E+02 -0.78257693045E+01  0.11620735588E+02  0.28398940613E+02  0.00000000000E+00 0. -1.
</event>
<event>
 5    1  0.6622912E-004  0.9118800E+02  0.7818608E-02  0.1130116E+00
         25   -1    0    0    0    0  0.00000000000E+00  0.00000000000E+00  0.99999998245E-14  0.12500000000E+03  0.12500000000E+03 0.  0.
        -11    1    3    3    0    0 -0.11956784903E+01  0.83777554449E+01 -0.51403121411E+02  0.52095079656E+02  0.51100000000E-03 0. -1.
         23    2    1    0    0    0 -0.16027687058E+02 -0.15875159587E+02 -0.16834291249E+02  0.96852161607E+02  0.92671680689E+02 0.  0.
         11    1    3    3    0    0 -0.14832008567E+02 -0.24252915032E+02  0.34568830162E+02  0.44757081951E+02  0.51100000000E-03 0.  1.
         22    1    1    0    0    0  0.16027687058E+02  0.15875159587E+02  0.16834291249E+02  0.28147838393E+02  0.00000000000E+00 0.  1.
</event>
<event>
 5    1  0.6622912E-004  0.9118800E+02  0.7818608E-02  0.1130116E+00
         25   -1    0    0    0    0  0.00000000000E+00  0.00000000000E+00  0.99999998245E-14  0.12500000000E+03  0.12500000000E+03 0.  0.
        -11    1    3    3    0    0 -0.39688450018E+02  0.25667755737E+02  0.18651701930E+02  0.50812328568E+02  0.51100000000E-03 0. -1.
         23    2    1    0    0    0  0.28342969800E+01  0.16148517784E+02  0.25259840748E+02  0.94885760501E+02  0.89980220745E+02 0.  0.
         11    1    3    3    0    0  0.42522746998E+02 -0.95192379535E+01  0.66081388180E+01  0.44073431933E+02  0.51100000000E-03 0.  1.
         22    1    1    0    0    0 -0.28342969800E+01 -0.16148517784E+02 -0.25259840748E+02  0.30114239499E+02  0.00000000000E+00 0. -1.
</event>
<event>
 5    1  0.6622912E-004  0.9118800E+02  0.7818608E-02  0.1130116E+00
         25   -1    0    0    0    0  0.00000000000E+00  0.00000000000E+00  0.99999998245E-14  0.12500000000E+03  0.12500000000E+03 0.  0.
        -11    1    3    3    0    0  0.50718151497E+02 -0.21145912027E+02 -0.24167793392E+02  0.60029682028E+02  0.51100000000E-03 0. -1.
         23    2    1    0    0    0  0.22690618760E+02 -0.16206125814E+02 -0.39247685989E+00  0.97113502700E+02  0.93023522159E+02 0.  0.
         11    1    3    3    0    0 -0.28027532737E+02  0.49397862133E+01  0.23775316532E+02  0.37083820672E+02  0.51100000000E-03 0.  1.
         22    1    1    0    0    0 -0.22690618760E+02  0.16206125814E+02  0.39247685989E+00  0.27886497300E+02  0.00000000000E+00 0. -1.
</event>
<event>
 5    1  0.6622912E-004  0.9118800E+02  0.7818608E-02  0.1130116E+00
         25   -1    0    0    0    0  0.00000000000E+00  0.00000000000E+00  0.99999998245E-14  0.12500000000E+03  0.12500000000E+03 0.  0.
        -11    1    3    3    0    0 -0.35172326564E+02 -0.33059613282E+02 -0.58778303749E+01  0.48626941878E+02  0.51100000000E-03 0. -1.
         23    2    1    0    0    0 -0.25892239560E+02  0.11243249433E+02  0.74365437269E+01  0.95808889883E+02  0.91253616207E+02 0.  0.
         11    1    3    3    0    0  0.92800870046E+01  0.44302862715E+02  0.13314374102E+02  0.47181948005E+02  0.51100000000E-03 0.  1.
         22    1    1    0    0    0  0.25892239560E+02 -0.11243249433E+02 -0.74365437269E+01  0.29191110117E+02  0.00000000000E+00 0. -1.
</event>
<event>
 5    1  0.6622912E-004  0.9118800E+02  0.7818608E-02  0.1130116E+00
         25   -1    0    0    0    0  0.00000000000E+00  0.00000000000E+00  0.99999998245E-14  0.12500000000E+03  0.12500000000E+03 0.  0.
        -11    1    3    3    0    0 -0.34864694172E+02 -0.14892428770E+02 -0.67220452476E+01  0.38503470323E+02  0.51100000000E-03 0.  1.
         23    2    1    0    0    0 -0.22153533487E+02  0.15992375164E+02  0.27438514278E+02  0.86277820631E+02  0.77100292851E+02 0.  0.
         11    1    3    3    0    0  0.12711160685E+02  0.30884803934E+02  0.34160559525E+02  0.47774350308E+02  0.51100000000E-03 0. -1.
         22    1    1    0    0    0  0.22153533487E+02 -0.15992375164E+02 -0.27438514278E+02  0.38722179369E+02  0.00000000000E+00 0. -1.
</event>
<event>
 5    1  0.6622912E-004  0.9118800E+02  0.7818608E-02  0.1130116E+00
         25   -1    0    0    0    0  0.00000000000E+00  0.00000000000E+00  0.99999998245E-14  0.12500000000E+03  0.12500000000E+03 0.  0.
        -11    1    3    3    0    0  0.48502741778E+02  0.18498255350E+02 -0.16917031828E+02  0.54597503396E+02  0.51100000000E-03 0.  1.
         23    2    1    0    0    0  0.24237573944E+02 -0.13661997279E+02 -0.97548828117E+01  0.95516650478E+02  0.90852422200E+02 0.  0.
         11    1    3    3    0    0 -0.24265167834E+02 -0.32160252628E+02  0.71621490165E+01  0.40919147082E+02  0.51100000000E-03 0. -1.
         22    1    1    0    0    0 -0.24237573944E+02  0.13661997279E+02  0.97548828117E+01  0.29483349522E+02  0.00000000000E+00 0.  1.
</event>
<event>
 5    1  0.6622912E-004  0.9118800E+02  0.7818608E-02  0.1130116E+00
         25   -1    0    0    0    0  0.00000000000E+00  0.00000000000E+00  0.99999998245E-14  0.12500000000E+03  0.12500000000E+03 0.  0.
        -11    1    3    3    0    0  0.29417062122E+02  0.22171805176E+02 -0.17609125768E+02  0.40829325236E+02  0.51100000000E-03 0.  1.
         23    2    1    0    0    0 -0.97468731711E+01  0.10837882525E+02  0.22609692394E+02  0.98099081347E+02  0.94338594100E+02 0.  0.
         11    1    3    3    0    0 -0.39163935293E+02 -0.11333922651E+02  0.40218818162E+02  0.57269756110E+02  0.51100000000E-03 0. -1.
         22    1    1    0    0    0  0.97468731711E+01 -0.10837882525E+02 -0.22609692394E+02  0.26900918653E+02  0.00000000000E+00 0. -1.
</event>
<event>
 5    1  0.6622912E-004  0.9118800E+02  0.7818608E-02  0.1130116E+00
         25   -1    0    0    0    0  0.00000000000E+00  0.00000000000E+00  0.99999998245E-14  0.12500000000E+03  0.12500000000E+03 0.  0.
        -11    1    3    3    0    0  0.39214127148E+02 -0.49857356649E+01  0.12019750686E+02  0.41316821452E+02  0.51100000000E-03 0. -1.
         23    2    1    0    0    0 -0.10582188201E+02  0.19576151248E+02  0.16902294212E+02  0.97055484359E+02  0.92945527540E+02 0.  0.
         11    1    3    3    0    0 -0.49796315349E+02  0.24561886913E+02  0.48825435251E+01  0.55738662906E+02  0.51100000000E-03 0.  1.
         22    1    1    0    0    0  0.10582188201E+02 -0.19576151248E+02 -0.16902294212E+02  0.27944515641E+02  0.00000000000E+00 0.  1.
</event>
<event>
 5    1  0.6622912E-004  0.9118800E+02  0.7818608E-02  0.1130116E+00
         25   -1    0    0    0    0  0.00000000000E+00  0.00000000000E+00  0.99999998245E-14  0.12500000000E+03  0.12500000000E+03 0.  0.
        -11    1    3    3    0    0  0.16728603621E+02 -0.43678823086E+02 -0.94813252054E+01  0.47724011705E+02  0.51100000000E-03 0. -1.
         23    2    1    0    0    0 -0.98680501175E+01 -0.10888543794E+02 -0.27649776852E+02  0.93687878400E+02  0.88300450736E+02 0.  0.
         11    1    3    3    0    0 -0.26596653739E+02  0.32790279292E+02 -0.18168451647E+02  0.45963866696E+02  0.51100000000E-03 0.  1.
         22    1    1    0    0    0  0.98680501175E+01  0.10888543794E+02  0.27649776852E+02  0.31312121600E+02  0.00000000000E+00 0.  1.
</event>
<event>
 5    1  0.6622912E-004  0.9118800E+02  0.7818608E-02  0.1130116E+00
         25   -1    0    0    0    0  0.00000000000E+00  0.00000000000E+00  0.99999998245E-14  0.12500000000E+03  0.12500000000E+03 0.  0.
        -11    1    3    3    0    0 -0.50881507713E+01 -0.33120829145E+02  0.22324190007E+02  0.40264724776E+02  0.51100000000E-03 0.  1.
         23    2    1    0    0    0  0.17334363895E+02  0.18048705348E+02  0.12638665797E+02  0.96964811228E+02  0.92823503526E+02 0.  0.
         11    1    3    3    0    0  0.22422514666E+02  0.51169534493E+02 -0.96855242094E+01  0.56700086452E+02  0.51100000000E-03 0. -1.
         22    1    1    0    0    0 -0.17334363895E+02 -0.18048705348E+02 -0.12638665797E+02  0.28035188772E+02  0.00000000000E+00 0. -1.
</event>
<event>
 5    1  0.6622912E-004  0.9118800E+02  0.7818608E-02  0.1130116E+00
         25   -1    0    0    0    0  0.00000000000E+00  0.00000000000E+00  0.99999998245E-14  0.12500000000E+03  0.12500000000E+03 0.  0.
        -11    1    3    3    0    0 -0.15554309264E+02  0.10586531290E+01 -0.57068359961E+02  0.59159572277E+02  0.51100000000E-03 0. -1.
         23    2    1    0    0    0 -0.49315142210E+01  0.14687104223E+02 -0.24948458952E+02  0.95632390852E+02  0.91011525166E+02 0.  0.
         11    1    3    3    0    0  0.10622795043E+02  0.13628451094E+02  0.32119901009E+02  0.36472818575E+02  0.51100000000E-03 0.  1.
         22    1    1    0    0    0  0.49315142210E+01 -0.14687104223E+02  0.24948458952E+02  0.29367609148E+02  0.00000000000E+00 0. -1.
</event>
<event>
 5    1  0.6622912E-004  0.9118800E+02  0.7818608E-02  0.1130116E+00
         25   -1    0    0    0    0  0.00000000000E+00  0.00000000000E+00  0.99999998245E-14  0.12500000000E+03  0.12500000000E+03 0.  0.
        -11    1    3    3    0    0  0.38796127946E+02 -0.70345360761E+01  0.46341434088E+02  0.60845318267E+02  0.51100000000E-03 0.  1.
         23    2    1    0    0    0  0.21627969629E+02 -0.11542718228E+02  0.16898861476E+02  0.95224591799E+02  0.90449698450E+02 0.  0.
         11    1    3    3    0    0 -0.17168158317E+02 -0.45081821515E+01 -0.29442572612E+02  0.34379273532E+02  0.51100000000E-03 0. -1.
         22    1    1    0    0    0 -0.21627969629E+02  0.11542718228E+02 -0.16898861476E+02  0.29775408201E+02  0.00000000000E+00 0.  1.
</event>
<event>
 5    1  0.6622912E-004  0.9118800E+02  0.7818608E-02  0.1130116E+00
         25   -1    0    0    0    0  0.00000000000E+00  0.00000000000E+00  0.99999998245E-14  0.12500000000E+03  0.12500000000E+03 0.  0.
        -11    1    3    3    0    0  0.41694263521E+02  0.17198422249E+01  0.35608330431E+02  0.54857293628E+02  0.51100000000E-03 0.  1.
         23    2    1    0    0    0  0.88084946392E+01  0.20486051885E+02  0.16434068858E+02  0.97298979823E+02  0.93272423340E+02 0.  0.
         11    1    3    3    0    0 -0.32885768882E+02  0.18766209660E+02 -0.19174261572E+02  0.42441686195E+02  0.51100000000E-03 0. -1.
         22    1    1    0    0    0 -0.88084946392E+01 -0.20486051885E+02 -0.16434068858E+02  0.27701020177E+02  0.00000000000E+00 0. -1.
</event>
<event>
 5    1  0.6622912E-004  0.9118800E+02  0.7818608E-02  0.1130116E+00
         25   -1    0    0    0    0  0.00000000000E+00  0.00000000000E+00  0.99999998245E-14  0.12500000000E+03  0.12500000000E+03 0.  0.
        -11    1    3    3    0    0 -0.10951493758E+02 -0.17600595541E+02  0.56373733974E+02  0.60064249445E+02  0.51100000000E-03 0. -1.
         23    2    1    0    0    0 -0.50664218212E+01 -0.19633701707E+02  0.21667522336E+02  0.95324548918E+02  0.90587732224E+02 0.  0.
         11    1    3    3    0    0  0.58850719367E+01 -0.20331061655E+01 -0.34706211638E+02  0.35260299473E+02  0.51100000000E-03 0.  1.
         22    1    1    0    0    0  0.50664218212E+01  0.19633701707E+02 -0.21667522336E+02  0.29675451082E+02  0.00000000000E+00 0. -1.
</event>
<event>
 5    1  0.6622912E-004  0.9118800E+02  0.7818608E-02  0.1130116E+00
         25   -1    0    0    0    0  0.00000000000E+00  0.00000000000E+00  0.99999998245E-14  0.12500000000E+03  0.12500000000E+03 0.  0.
        -11    1    3    3    0    0  0.30771550310E+02  0.17135577303E+02 -0.53934275584E+01  0.35631522267E+02  0.51100000000E-03 0.  1.
         23    2    1    0    0    0 -0.14186743835E+02 -0.21632083439E+02  0.10490756539E+02  0.97084651044E+02  0.92984744776E+02 0.  0.
         11    1    3    3    0    0 -0.44958294145E+02 -0.38767660742E+02  0.15884184097E+02  0.61453128777E+02  0.51100000000E-03 0. -1.
         22    1    1    0    0    0  0.14186743835E+02  0.21632083439E+02 -0.10490756539E+02  0.27915348956E+02  0.00000000000E+00 0. -1.
</event>
<event>
 5    1  0.6622912E-004  0.9118800E+02  0.7818608E-02  0.1130116E+00
         25   -1    0    0    0    0  0.00000000000E+00  0.00000000000E+00  0.99999998245E-14  0.12500000000E+03  0.12500000000E+03 0.  0.
        -11    1    3    3    0    0 -0.39620151207E+01 -0.23590777512E+02 -0.30023501141E+02  0.38387927379E+02  0.51100000000E-03 0. -1.
         23    2    1    0    0    0  0.13827738432E+02 -0.98717011853E+01  0.23249621976E+02  0.96204136469E+02  0.91793431777E+02 0.  0.
         11    1    3    3    0    0  0.17789753553E+02  0.13719076326E+02  0.53273123117E+02  0.57816209091E+02  0.51100000000E-03 0.  1.
         22    1    1    0    0    0 -0.13827738432E+02  0.98717011853E+01 -0.23249621976E+02  0.28795863531E+02  0.00000000000E+00 0.  1.
</event>
<event>
 5    1  0.6622912E-004  0.9118800E+02  0.7818608E-02  0.1130116E+00
         25   -1    0    0    0    0  0.00000000000E+00  0.00000000000E+00  0.99999998245E-14  0.12500000000E+03  0.12500000000E+03 0.  0.
        -11    1    3    3    0    0 -0.32982362041E+02 -0.11565627989E+02 -0.23112810229E+02  0.41902290552E+02  0.51100000000E-03 0.  1.
         23    2    1    0    0    0 -0.18621261404E+02  0.23485370536E+02  0.11192202759E+02  0.93006572423E+02  0.87330653873E+02 0.  0.
         11    1    3    3    0    0  0.14361100637E+02  0.35050998525E+02  0.34305012989E+02  0.51104281871E+02  0.51100000000E-03 0. -1.
         22    1    1    0    0    0  0.18621261404E+02 -0.23485370536E+02 -0.11192202759E+02  0.31993427577E+02  0.00000000000E+00 0. -1.
</event>
<event>
 5    1  0.6622912E-004  0.9118800E+02  0.7818608E-02  0.1130116E+00
         25   -1    0    0    0    0  0.00000000000E+00  0.00000000000E+00  0.99999998245E-14  0.12500000000E+03  0.12500000000E+03 0.  0.
        -11    1    3    3    0    0 -0.64304684151E+01  0.32509389364E+02  0.13617061581E+02  0.35827861884E+02  0.51100000000E-03 0.  1.
         23    2    1    0    0    0  0.79798117650E+01 -0.25219975193E+02  0.13440721280E+02  0.95328843415E+02  0.90593657912E+02 0.  0.
         11    1    3    3    0    0  0.14410280180E+02 -0.57729364557E+02 -0.17634030137E+00  0.59500981531E+02  0.51100000000E-03 0. -1.
         22    1    1    0    0    0 -0.79798117650E+01  0.25219975193E+02 -0.13440721280E+02  0.29671156585E+02  0.00000000000E+00 0. -1.
</event>
<event>
 5    1  0.6622912E-004  0.9118800E+02  0.7818608E-02  0.1130116E+00
         25   -1    0    0    0    0  0.00000000000E+00  0.00000000000E+00  0.99999998245E-14  0.12500000000E+03  0.12500000000E+03 0.  0.
        -11    1    3    3    0    0 -0.23927861632E+02  0.15721528764E+01  0.54145407786E+02  0.59217728862E+02  0.51100000000E-03 0.  1.
         23    2    1    0    0    0 -0.53919380032E+01  0.13875691887E+02  0.18249168973E+02  0.10144920407E+03  0.98677763540E+02 0.  0.
         11    1    3    3    0    0  0.18535923629E+02  0.12303539010E+02 -0.35896238813E+02  0.42231475207E+02  0.51100000000E-03 0. -1.
         22    1    1    0    0    0  0.53919380032E+01 -0.13875691887E+02 -0.18249168973E+02  0.23550795931E+02  0.00000000000E+00 0.  1.
</event>
<event>
 5    1  0.6622912E-004  0.9118800E+02  0.7818608E-02  0.1130116E+00
         25   -1    0    0    0    0  0.00000000000E+00  0.00000000000E+00  0.99999998245E-14  0.12500000000E+03  0.12500000000E+03 0.  0.
        -11    1    3    3    0    0 -0.10575707464E+02 -0.38688946140E+02  0.43792238036E+02  0.59383838326E+02  0.51100000000E-03 0.  1.
         23    2    1    0    0    0  0.75070373014E+01 -0.11161778130E+02  0.23067049558E+02  0.98297384485E+02  0.94600983722E+02 0.  0.
         11    1    3    3    0    0  0.18082744765E+02  0.27527168010E+02 -0.20725188479E+02  0.38913546159E+02  0.51100000000E-03 0. -1.
         22    1    1    0    0    0 -0.75070373014E+01  0.11161778130E+02 -0.23067049558E+02  0.26702615515E+02  0.00000000000E+00 0.  1.
</event>
<event>
 5    1  0.6622912E-004  0.9118800E+02  0.7818608E-02  0.1130116E+00
         25   -1    0    0    0    0  0.00000000000E+00  0.00000000000E+00  0.99999998245E-14  0.12500000000E+03  0.12500000000E+03 0.  0.
        -11    1    3    3    0    0  0.76009844809E+01 -0.15974691174E+02  0.35812075932E+02  0.39943341197E+02  0.51100000000E-03 0. -1.
         23    2    1    0    0    0  0.26949336899E+02  0.75756935865E+00 -0.13013306076E+02  0.95063620699E+02  0.90226964788E+02 0.  0.
         11    1    3    3    0    0  0.19348352418E+02  0.16732260533E+02 -0.48825382008E+02  0.55120279502E+02  0.51100000000E-03 0.  1.
         22    1    1    0    0    0 -0.26949336899E+02 -0.75756935865E+00  0.13013306076E+02  0.29936379301E+02  0.00000000000E+00 0.  1.
</event>
<event>
 5    1  0.6622912E-004  0.9118800E+02  0.7818608E-02  0.1130116E+00
         25   -1    0    0    0    0  0.00000000000E+00  0.00000000000E+00  0.99999998245E-14  0.12500000000E+03  0.12500000000E+03 0.  0.
        -11    1    3    3    0    0 -0.22047675699E+02 -0.47621059686E+02  0.32228165489E+02  0.61583439173E+02  0.51100000000E-03 0. -1.
         23    2    1    0    0    0 -0.15722627623E+02 -0.42300748221E+02  0.21821766478E+02  0.74872723876E+02  0.55616373210E+02 0.  0.
         11    1    3    3    0    0  0.63250480767E+01  0.53203114653E+01 -0.10406399011E+02  0.13289284702E+02  0.51100000000E-03 0.  1.
         22    1    1    0    0    0  0.15722627623E+02  0.42300748221E+02 -0.21821766478E+02  0.50127276124E+02  0.00000000000E+00 0. -1.
</event>
<event>
 5    1  0.6622912E-004  0.9118800E+02  0.7818608E-02  0.1130116E+00
         25   -1    0    0    0    0  0.00000000000E+00  0.00000000000E+00  0.99999998245E-14  0.12500000000E+03  0.12500000000E+03 0.  0.
        -11    1    3    3    0    0 -0.26310173363E+01  0.33861069760E+02 -0.51199035647E+02  0.61439690339E+02  0.51100000000E-03 0.  1.
         23    2    1    0    0    0 -0.90107973142E+01  0.15614753232E+02 -0.20680118272E+02  0.97564944351E+02  0.93628179987E+02 0.  0.
         11    1    3    3    0    0 -0.63797799778E+01 -0.18246316527E+02  0.30518917375E+02  0.36125254012E+02  0.51100000000E-03 0. -1.
         22    1    1    0    0    0  0.90107973142E+01 -0.15614753232E+02  0.20680118272E+02  0.27435055649E+02  0.00000000000E+00 0.  1.
</event>
<event>
 5    1  0.6622912E-004  0.9118800E+02  0.7818608E-02  0.1130116E+00
         25   -1    0    0    0    0  0.00000000000E+00  0.00000000000E+00  0.99999998245E-14  0.12500000000E+03  0.12500000000E+03 0.  0.
        -11    1    3    3    0    0  0.36536701942E+02  0.26919540351E+02  0.37632834587E+01  0.45538495190E+02  0.51100000000E-03 0.  1.
         23    2    1    0    0    0 -0.11184273714E+02  0.17094894750E+02  0.19520009072E+02  0.96744838361E+02  0.92526804713E+02 0.  0.
         11    1    3    3    0    0 -0.47720975656E+02 -0.98246456009E+01  0.15756725614E+02  0.51206343172E+02  0.51100000000E-03 0. -1.
         22    1    1    0    0    0  0.11184273714E+02 -0.17094894750E+02 -0.19520009072E+02  0.28255161639E+02  0.00000000000E+00 0.  1.
</event>
<event>
 5    1  0.6622912E-004  0.9118800E+02  0.7818608E-02  0.1130116E+00
         25   -1    0    0    0    0  0.00000000000E+00  0.00000000000E+00  0.99999998245E-14  0.12500000000E+03  0.12500000000E+03 0.  0.
        -11    1    3    3    0    0 -0.55656052262E+00  0.14662972003E+02  0.33470533956E+02  0.36545713171E+02  0.51100000000E-03 0.  1.
         23    2    1    0    0    0 -0.14806191708E+02  0.74188058137E+01 -0.23799902286E+02  0.96005218721E+02  0.91522154041E+02 0.  0.
         11    1    3    3    0    0 -0.14249631185E+02 -0.72441661892E+01 -0.57270436242E+02  0.59459505550E+02  0.51100000000E-03 0. -1.
         22    1    1    0    0    0  0.14806191708E+02 -0.74188058137E+01  0.23799902286E+02  0.28994781279E+02  0.00000000000E+00 0. -1.
</event>
<event>
 5    1  0.6622912E-004  0.9118800E+02  0.7818608E-02  0.1130116E+00
         25   -1    0    0    0    0  0.00000000000E+00  0.00000000000E+00  0.99999998245E-14  0.12500000000E+03  0.12500000000E+03 0.  0.
        -11    1    3    3    0    0  0.21538667922E+02  0.50938319131E+01 -0.57184515415E+02  0.61318269243E+02  0.51100000000E-03 0.  1.
         23    2    1    0    0    0  0.53106340086E+01  0.94641776759E+01 -0.27598680953E+02  0.95344297631E+02  0.90614978937E+02 0.  0.
         11    1    3    3    0    0 -0.16228033914E+02  0.43703457628E+01  0.29585834462E+02  0.34026028388E+02  0.51100000000E-03 0. -1.
         22    1    1    0    0    0 -0.53106340086E+01 -0.94641776759E+01  0.27598680953E+02  0.29655702369E+02  0.00000000000E+00 0.  1.
</event>
<event>
 5    1  0.6622912E-004  0.9118800E+02  0.7818608E-02  0.1130116E+00
         25   -1    0    0    0    0  0.00000000000E+00  0.00000000000E+00  0.99999998245E-14  0.12500000000E+03  0.12500000000E+03 0.  0.
        -11    1    3    3    0    0 -0.32364621519E+01 -0.52409137219E+02  0.47129077680E+01  0.52720051699E+02  0.51100000000E-03 0.  1.
         23    2    1    0    0    0  0.11266472789E+02 -0.19277169169E+02 -0.18760311067E+02  0.95836805189E+02  0.91291846827E+02 0.  0.
         11    1    3    3    0    0  0.14502934941E+02  0.33131968050E+02 -0.23473218835E+02  0.43116753489E+02  0.51100000000E-03 0. -1.
         22    1    1    0    0    0 -0.11266472789E+02  0.19277169169E+02  0.18760311067E+02  0.29163194811E+02  0.00000000000E+00 0.  1.
</event>
<event>
 5    1  0.6622912E-004  0.9118800E+02  0.7818608E-02  0.1130116E+00
         25   -1    0    0    0    0  0.00000000000E+00  0.00000000000E+00  0.99999998245E-14  0.12500000000E+03  0.12500000000E+03 0.  0.
        -11    1    3    3    0    0 -0.46368206437E+02 -0.33875940371E+02 -0.68446565403E+00  0.57428724500E+02  0.51100000000E-03 0.  1.
         23    2    1    0    0    0 -0.26149941597E+02 -0.64749476313E+01 -0.14766965410E+02  0.94278547239E+02  0.89132692149E+02 0.  0.
         11    1    3    3    0    0  0.20218264841E+02  0.27400992739E+02 -0.14082499756E+02  0.36849822739E+02  0.51100000000E-03 0. -1.
         22    1    1    0    0    0  0.26149941597E+02  0.64749476313E+01  0.14766965410E+02  0.30721452761E+02  0.00000000000E+00 0.  1.
</event>
<event>
 5    1  0.6622912E-004  0.9118800E+02  0.7818608E-02  0.1130116E+00
         25   -1    0    0    0    0  0.00000000000E+00  0.00000000000E+00  0.99999998245E-14  0.12500000000E+03  0.12500000000E+03 0.  0.
        -11    1    3    3    0    0 -0.49341720593E+02 -0.27083283292E+02  0.26662443053E+02  0.62281582307E+02  0.51100000000E-03 0. -1.
         23    2    1    0    0    0 -0.25660086108E+02 -0.11645816534E+02  0.99810764406E+01  0.95105402683E+02  0.90284830790E+02 0.  0.
         11    1    3    3    0    0  0.23681634485E+02  0.15437466758E+02 -0.16681366612E+02  0.32823820376E+02  0.51100000000E-03 0.  1.
         22    1    1    0    0    0  0.25660086108E+02  0.11645816534E+02 -0.99810764406E+01  0.29894597317E+02  0.00000000000E+00 0. -1.
</event>
<event>
 5    1  0.6622912E-004  0.9118800E+02  0.7818608E-02  0.1130116E+00
         25   -1    0    0    0    0  0.00000000000E+00  0.00000000000E+00  0.99999998245E-14  0.12500000000E+03  0.12500000000E+03 0.  0.
        -11    1    3    3    0    0  0.31161971931E+02 -0.26519284698E+01 -0.41506071584E+02  0.51969752721E+02  0.51100000000E-03 0.  1.
         23    2    1    0    0    0  0.26597293952E+02 -0.13922491639E+02 -0.25253279166E+00  0.94978081477E+02  0.90108381237E+02 0.  0.
         11    1    3    3    0    0 -0.45646779787E+01 -0.11270563169E+02  0.41253538793E+02  0.43008328756E+02  0.51100000000E-03 0. -1.
         22    1    1    0    0    0 -0.26597293952E+02  0.13922491639E+02  0.25253279166E+00  0.30021918523E+02  0.00000000000E+00 0. -1.
</event>
<event>
 5    1  0.6622912E-004  0.9118800E+02  0.7818608E-02  0.1130116E+00
         25   -1    0    0    0    0  0.00000000000E+00  0.00000000000E+00  0.99999998245E-14  0.12500000000E+03  0.12500000000E+03 0.  0.
        -11    1    3    3    0    0  0.25648692376E+02 -0.23079698399E+02  0.13937051002E+02  0.37212488357E+02  0.51100000000E-03 0. -1.
         23    2    1    0    0    0  0.14057286000E+01  0.11952698631E+02 -0.26465415938E+02  0.95926621830E+02  0.91414744201E+02 0.  0.
         11    1    3    3    0    0 -0.24242963776E+02  0.35032397031E+02 -0.40402466940E+02  0.58714133473E+02  0.51100000000E-03 0.  1.
         22    1    1    0    0    0 -0.14057286000E+01 -0.11952698631E+02  0.26465415938E+02  0.29073378170E+02  0.00000000000E+00 0.  1.
</event>
<event>
 5    1  0.6622912E-004  0.9118800E+02  0.7818608E-02  0.1130116E+00
         25   -1    0    0    0    0  0.00000000000E+00  0.00000000000E+00  0.99999998245E-14  0.12500000000E+03  0.12500000000E+03 0.  0.
        -11    1    3    3    0    0 -0.27224407397E+02  0.23990889238E+02 -0.46791908604E+01  0.36587237555E+02  0.51100000000E-03 0. -1.
         23    2    1    0    0    0  0.25323265009E+02  0.85074168545E+01 -0.17775702551E+02  0.92912315549E+02  0.87195635712E+02 0.  0.
         11    1    3    3    0    0  0.52547672406E+02 -0.15483472383E+02 -0.13096511690E+02  0.56325077994E+02  0.51100000000E-03 0.  1.
         22    1    1    0    0    0 -0.25323265009E+02 -0.85074168545E+01  0.17775702551E+02  0.32087684451E+02  0.00000000000E+00 0.  1.
</event>
<event>
 5    1  0.6622912E-004  0.9118800E+02  0.7818608E-02  0.1130116E+00
         25   -1    0    0    0    0  0.00000000000E+00  0.00000000000E+00  0.99999998245E-14  0.12500000000E+03  0.12500000000E+03 0.  0.
        -11    1    3    3    0    0  0.22523733109E+02 -0.11279070747E+02 -0.21622146342E+02  0.33197186670E+02  0.51100000000E-03 0.  1.
         23    2    1    0    0    0 -0.11541829989E+02  0.27738417298E+01  0.27757230649E+02  0.94811063439E+02  0.89876392115E+02 0.  0.
         11    1    3    3    0    0 -0.34065563097E+02  0.14052912477E+02  0.49379376991E+02  0.61613876769E+02  0.51100000000E-03 0. -1.
         22    1    1    0    0    0  0.11541829989E+02 -0.27738417298E+01 -0.27757230649E+02  0.30188936561E+02  0.00000000000E+00 0. -1.
</event>
<event>
 5    1  0.6622912E-004  0.9118800E+02  0.7818608E-02  0.1130116E+00
         25   -1    0    0    0    0  0.00000000000E+00  0.00000000000E+00  0.99999998245E-14  0.12500000000E+03  0.12500000000E+03 0.  0.
        -11    1    3    3    0    0 -0.54876678069E+01 -0.27541209318E+02  0.21862133734E+02  0.35589121938E+02  0.51100000000E-03 0. -1.
         23    2    1    0    0    0  0.19312560289E+02  0.85540861854E+01 -0.19810151098E+02  0.96041590825E+02  0.91571817205E+02 0.  0.
         11    1    3    3    0    0  0.24800228096E+02  0.36095295503E+02 -0.41672284833E+02  0.60452468887E+02  0.51100000000E-03 0.  1.
         22    1    1    0    0    0 -0.19312560289E+02 -0.85540861854E+01  0.19810151098E+02  0.28958409175E+02  0.00000000000E+00 0.  1.
</event>
<event>
 5    1  0.6622912E-004  0.9118800E+02  0.7818608E-02  0.1130116E+00
         25   -1    0    0    0    0  0.00000000000E+00  0.00000000000E+00  0.99999998245E-14  0.12500000000E+03  0.12500000000E+03 0.  0.
        -11    1    3    3    0    0 -0.11787691541E+02 -0.42621081788E+02 -0.17632691860E+01  0.44256247051E+02  0.51100000000E-03 0.  1.
         23    2    1    0    0    0  0.24515354499E+02 -0.93823755127E+01  0.13087385938E+02  0.95668937163E+02  0.91061705951E+02 0.  0.
         11    1    3    3    0    0  0.36303046040E+02  0.33238706275E+02  0.14850655124E+02  0.51412690111E+02  0.51100000000E-03 0. -1.
         22    1    1    0    0    0 -0.24515354499E+02  0.93823755127E+01 -0.13087385938E+02  0.29331062837E+02  0.00000000000E+00 0. -1.
</event>
<event>
 5    1  0.6622912E-004  0.9118800E+02  0.7818608E-02  0.1130116E+00
         25   -1    0    0    0    0  0.00000000000E+00  0.00000000000E+00  0.99999998245E-14  0.12500000000E+03  0.12500000000E+03 0.  0.
        -11    1    3    3    0    0  0.22396522279E+00  0.48070905042E+02  0.11277983461E+01  0.48084654531E+02  0.51100000000E-03 0. -1.
         23    2    1    0    0    0  0.19676309328E+02  0.83069548587E+01 -0.18721621758E+02  0.96598208349E+02  0.92328500947E+02 0.  0.
         11    1    3    3    0    0  0.19452344105E+02 -0.39763950183E+02 -0.19849420104E+02  0.48513553818E+02  0.51100000000E-03 0.  1.
         22    1    1    0    0    0 -0.19676309328E+02 -0.83069548587E+01  0.18721621758E+02  0.28401791651E+02  0.00000000000E+00 0.  1.
</event>
<event>
 5    1  0.6622912E-004  0.9118800E+02  0.7818608E-02  0.1130116E+00
         25   -1    0    0    0    0  0.00000000000E+00  0.00000000000E+00  0.99999998245E-14  0.12500000000E+03  0.12500000000E+03 0.  0.
        -11    1    3    3    0    0 -0.24185036067E+02  0.38524133659E+02 -0.11521356094E+02  0.46922984669E+02  0.51100000000E-03 0.  1.
         23    2    1    0    0    0  0.20979295596E+02  0.16897303750E+02 -0.67781647145E+01  0.97222432889E+02  0.93169781701E+02 0.  0.
         11    1    3    3    0    0  0.45164331663E+02 -0.21626829909E+02  0.47431913791E+01  0.50299448220E+02  0.51100000000E-03 0. -1.
         22    1    1    0    0    0 -0.20979295596E+02 -0.16897303750E+02  0.67781647145E+01  0.27777567111E+02  0.00000000000E+00 0.  1.
</event>
<event>
 5    1  0.6622912E-004  0.9118800E+02  0.7818608E-02  0.1130116E+00
         25   -1    0    0    0    0  0.00000000000E+00  0.00000000000E+00  0.99999998245E-14  0.12500000000E+03  0.12500000000E+03 0.  0.
        -11    1    3    3    0    0 -0.34854474642E+01 -0.36439951659E+02  0.25444128772E+02  0.44580512673E+02  0.51100000000E-03 0.  1.
         23    2    1    0    0    0  0.27248596499E+02 -0.18302086484E+02 -0.53811293349E+01  0.91737274108E+02  0.85494552616E+02 0.  0.
         11    1    3    3    0    0  0.30734043963E+02  0.18137865175E+02 -0.30825258107E+02  0.47156761435E+02  0.51100000000E-03 0. -1.
         22    1    1    0    0    0 -0.27248596499E+02  0.18302086484E+02  0.53811293349E+01  0.33262725892E+02  0.00000000000E+00 0. -1.
</event>
<event>
 5    1  0.6622912E-004  0.9118800E+02  0.7818608E-02  0.1130116E+00
         25   -1    0    0    0    0  0.00000000000E+00  0.00000000000E+00  0.99999998245E-14  0.12500000000E+03  0.12500000000E+03 0.  0.
        -11    1    3    3    0    0 -0.23801753272E+02 -0.24607934013E+02  0.24873713212E+02  0.42317555274E+02  0.51100000000E-03 0.  1.
         23    2    1    0    0    0  0.11945598497E+02 -0.22454202982E+02 -0.14646621724E+02  0.95650177463E+02  0.91035950953E+02 0.  0.
         11    1    3    3    0    0  0.35747351769E+02  0.21537310310E+01 -0.39520334936E+02  0.53332622189E+02  0.51100000000E-03 0. -1.
         22    1    1    0    0    0 -0.11945598497E+02  0.22454202982E+02  0.14646621724E+02  0.29349822537E+02  0.00000000000E+00 0. -1.
</event>
<event>
 5    1  0.6622912E-004  0.9118800E+02  0.7818608E-02  0.1130116E+00
         25   -1    0    0    0    0  0.00000000000E+00  0.00000000000E+00  0.99999998245E-14  0.12500000000E+03  0.12500000000E+03 0.  0.
        -11    1    3    3    0    0 -0.26188827176E+02 -0.51527665732E+02 -0.13466368329E+02  0.59348951809E+02  0.51100000000E-03 0. -1.
         23    2    1    0    0    0 -0.10447775697E+02 -0.95053116542E+01 -0.15192393461E+02  0.10425594577E+03  0.10217135823E+03 0.  0.
         11    1    3    3    0    0  0.15741051479E+02  0.42022354078E+02 -0.17260251323E+01  0.44906993964E+02  0.51100000000E-03 0.  1.
         22    1    1    0    0    0  0.10447775697E+02  0.95053116542E+01  0.15192393461E+02  0.20744054226E+02  0.00000000000E+00 0. -1.
</event>
<event>
 5    1  0.6622912E-004  0.9118800E+02  0.7818608E-02  0.1130116E+00
         25   -1    0    0    0    0  0.00000000000E+00  0.00000000000E+00  0.99999998245E-14  0.12500000000E+03  0.12500000000E+03 0.  0.
        -11    1    3    3    0    0 -0.29905449783E+01 -0.39785755477E+02  0.28807582563E+02  0.49211040545E+02  0.51100000000E-03 0. -1.
         23    2    1    0    0    0  0.13953839491E+02  0.63352410018E+01  0.21061961372E+02  0.98952905499E+02  0.95463220011E+02 0.  0.
         11    1    3    3    0    0  0.16944384470E+02  0.46120996478E+02 -0.77456211912E+01  0.49741864954E+02  0.51100000000E-03 0.  1.
         22    1    1    0    0    0 -0.13953839491E+02 -0.63352410018E+01 -0.21061961372E+02  0.26047094501E+02  0.00000000000E+00 0. -1.
</event>
<event>
 5    1  0.6622912E-004  0.9118800E+02  0.7818608E-02  0.1130116E+00
         25   -1    0    0    0    0  0.00000000000E+00  0.00000000000E+00  0.99999998245E-14  0.12500000000E+03  0.12500000000E+03 0.  0.
        -11    1    3    3    0    0 -0.35639207392E+01 -0.96023567740E+01  0.47906826749E+02  0.48989497202E+02  0.51100000000E-03 0.  1.
         23    2    1    0    0    0  0.47533571055E+00  0.24412987427E+02  0.24006665019E+02  0.90757630566E+02  0.84050030586E+02 0.  0.
         11    1    3    3    0    0  0.40392564498E+01  0.34015344201E+02 -0.23900161730E+02  0.41768133364E+02  0.51100000000E-03 0. -1.
         22    1    1    0    0    0 -0.47533571055E+00 -0.24412987427E+02 -0.24006665019E+02  0.34242369434E+02  0.00000000000E+00 0.  1.
</event>
<event>
 5    1  0.6622912E-004  0.9118800E+02  0.7818608E-02  0.1130116E+00
         25   -1    0    0    0    0  0.00000000000E+00  0.00000000000E+00  0.99999998245E-14  0.12500000000E+03  0.12500000000E+03 0.  0.
        -11    1    3    3    0    0 -0.40098213160E+01 -0.42375518317E+02 -0.44583033440E+02  0.61639355047E+02  0.51100000000E-03 0.  1.
         23    2    1    0    0    0 -0.56569991686E+01 -0.15014688855E+02 -0.24874507581E+02  0.95399600537E+02  0.90691235157E+02 0.  0.
         11    1    3    3    0    0 -0.16471778526E+01  0.27360829463E+02  0.19708525859E+02  0.33760245490E+02  0.51100000000E-03 0. -1.
         22    1    1    0    0    0  0.56569991686E+01  0.15014688855E+02  0.24874507581E+02  0.29600399463E+02  0.00000000000E+00 0.  1.
</event>
<event>
 5    1  0.6622912E-004  0.9118800E+02  0.7818608E-02  0.1130116E+00
         25   -1    0    0    0    0  0.00000000000E+00  0.00000000000E+00  0.99999998245E-14  0.12500000000E+03  0.12500000000E+03 0.  0.
        -11    1    3    3    0    0  0.24761597571E+01 -0.35202640403E+02  0.34798310014E+01  0.35460773857E+02  0.51100000000E-03 0. -1.
         23    2    1    0    0    0 -0.41015590004E+01  0.19810439269E+02 -0.20828589818E+02  0.95963704712E+02  0.91465437068E+02 0.  0.
         11    1    3    3    0    0 -0.65777187575E+01  0.55013079672E+02 -0.24308420819E+02  0.60502930855E+02  0.51100000000E-03 0.  1.
         22    1    1    0    0    0  0.41015590004E+01 -0.19810439269E+02  0.20828589818E+02  0.29036295288E+02  0.00000000000E+00 0.  1.
</event>
<event>
 5    1  0.6622912E-004  0.9118800E+02  0.7818608E-02  0.1130116E+00
         25   -1    0    0    0    0  0.00000000000E+00  0.00000000000E+00  0.99999998245E-14  0.12500000000E+03  0.12500000000E+03 0.  0.
        -11    1    3    3    0    0  0.33167943935E+02 -0.24328472350E+02  0.81563138903E+01  0.41934622071E+02  0.51100000000E-03 0. -1.
         23    2    1    0    0    0  0.92331177627E+01  0.20345631367E+02  0.21127387111E+02  0.94250013569E+02  0.89092667444E+02 0.  0.
         11    1    3    3    0    0 -0.23934826172E+02  0.44674103717E+02  0.12971073221E+02  0.52315391498E+02  0.51100000000E-03 0.  1.
         22    1    1    0    0    0 -0.92331177627E+01 -0.20345631367E+02 -0.21127387111E+02  0.30749986431E+02  0.00000000000E+00 0. -1.
</event>
<event>
 5    1  0.6622912E-004  0.9118800E+02  0.7818608E-02  0.1130116E+00
         25   -1    0    0    0    0  0.00000000000E+00  0.00000000000E+00  0.99999998245E-14  0.12500000000E+03  0.12500000000E+03 0.  0.
        -11    1    3    3    0    0  0.13445660578E+02 -0.68247057949E+01  0.31708252157E+02  0.35110905040E+02  0.51100000000E-03 0.  1.
         23    2    1    0    0    0 -0.43422957686E+01 -0.17610683216E+02 -0.24196091001E+02  0.94760249412E+02  0.89805692209E+02 0.  0.
         11    1    3    3    0    0 -0.17787956347E+02 -0.10785977421E+02 -0.55904343158E+02  0.59649344373E+02  0.51100000000E-03 0. -1.
         22    1    1    0    0    0  0.43422957686E+01  0.17610683216E+02  0.24196091001E+02  0.30239750588E+02  0.00000000000E+00 0. -1.
</event>
<event>
 5    1  0.6622912E-004  0.9118800E+02  0.7818608E-02  0.1130116E+00
         25   -1    0    0    0    0  0.00000000000E+00  0.00000000000E+00  0.99999998245E-14  0.12500000000E+03  0.12500000000E+03 0.  0.
        -11    1    3    3    0    0 -0.40792237305E+02  0.16316584869E+02  0.30393785620E+02  0.53423026597E+02  0.51100000000E-03 0.  1.
         23    2    1    0    0    0 -0.74342769603E+01  0.28239858277E+02  0.16369401813E+02  0.91522912536E+02  0.85180561949E+02 0.  0.
         11    1    3    3    0    0  0.33357960345E+02  0.11923273407E+02 -0.14024383807E+02  0.38099885939E+02  0.51100000000E-03 0. -1.
         22    1    1    0    0    0  0.74342769603E+01 -0.28239858277E+02 -0.16369401813E+02  0.33477087464E+02  0.00000000000E+00 0.  1.
</event>
<event>
 5    1  0.6622912E-004  0.9118800E+02  0.7818608E-02  0.1130116E+00
         25   -1    0    0    0    0  0.00000000000E+00  0.00000000000E+00  0.99999998245E-14  0.12500000000E+03  0.12500000000E+03 0.  0.
        -11    1    3    3    0    0  0.41636344752E+02  0.20851375089E+02 -0.40447586189E+02  0.61679593677E+02  0.51100000000E-03 0. -1.
         23    2    1    0    0    0  0.22073139210E+02  0.14973456041E+02 -0.14704245470E+02  0.94542772693E+02  0.89502475794E+02 0.  0.
         11    1    3    3    0    0 -0.19563205541E+02 -0.58779190485E+01  0.25743340719E+02  0.32863179016E+02  0.51100000000E-03 0.  1.
         22    1    1    0    0    0 -0.22073139210E+02 -0.14973456041E+02  0.14704245470E+02  0.30457227307E+02  0.00000000000E+00 0. -1.
</event>
<event>
 5    1  0.6622912E-004  0.9118800E+02  0.7818608E-02  0.1130116E+00
         25   -1    0    0    0    0  0.00000000000E+00  0.00000000000E+00  0.99999998245E-14  0.12500000000E+03  0.12500000000E+03 0.  0.
        -11    1    3    3    0    0 -0.19001681230E+02  0.50008932677E+02 -0.16546291888E+02  0.55997651848E+02  0.51100000000E-03 0.  1.
         23    2    1    0    0    0  0.48291340708E+01  0.13886565718E+02  0.10413340442E+02  0.10698348251E+03  0.10545553863E+03 0.  0.
         11    1    3    3    0    0  0.23830815301E+02 -0.36122366958E+02  0.26959632330E+02  0.50985830661E+02  0.51100000000E-03 0. -1.
         22    1    1    0    0    0 -0.48291340708E+01 -0.13886565718E+02 -0.10413340442E+02  0.18016517490E+02  0.00000000000E+00 0.  1.
</event>
<event>
 5    1  0.6622912E-004  0.9118800E+02  0.7818608E-02  0.1130116E+00
         25   -1    0    0    0    0  0.00000000000E+00  0.00000000000E+00  0.99999998245E-14  0.12500000000E+03  0.12500000000E+03 0.  0.
        -11    1    3    3    0    0  0.21847881183E+02 -0.38011265476E+02 -0.26705459964E+02  0.51335833562E+02  0.51100000000E-03 0. -1.
         23    2    1    0    0    0  0.28065438602E+02 -0.52390787422E+01  0.33730211082E+01  0.96251190261E+02  0.91857485081E+02 0.  0.
         11    1    3    3    0    0  0.62175574189E+01  0.32772186734E+02  0.30078481073E+02  0.44915356700E+02  0.51100000000E-03 0.  1.
         22    1    1    0    0    0 -0.28065438602E+02  0.52390787422E+01 -0.33730211082E+01  0.28748809739E+02  0.00000000000E+00 0. -1.
</event>
<event>
 5    1  0.6622912E-004  0.9118800E+02  0.7818608E-02  0.1130116E+00
         25   -1    0    0    0    0  0.00000000000E+00  0.00000000000E+00  0.99999998245E-14  0.12500000000E+03  0.12500000000E+03 0.  0.
        -11    1    3    3    0    0 -0.71409164024E+01  0.59122823274E+01  0.58115773262E+02  0.58850580894E+02  0.51100000000E-03 0.  1.
         23    2    1    0    0    0 -0.15100597486E+02  0.12368016663E+02  0.26490810361E+02  0.92094697780E+02  0.86015547694E+02 0.  0.
         11    1    3    3    0    0 -0.79596810836E+01  0.64557343360E+01 -0.31624962902E+02  0.33244116887E+02  0.51100000000E-03 0. -1.
         22    1    1    0    0    0  0.15100597486E+02 -0.12368016663E+02 -0.26490810361E+02  0.32905302220E+02  0.00000000000E+00 0.  1.
</event>
<event>
 5    1  0.6622912E-004  0.9118800E+02  0.7818608E-02  0.1130116E+00
         25   -1    0    0    0    0  0.00000000000E+00  0.00000000000E+00  0.99999998245E-14  0.12500000000E+03  0.12500000000E+03 0.  0.
        -11    1    3    3    0    0  0.40020199950E+02 -0.12258908445E+02  0.36160874387E+02  0.55312802108E+02  0.51100000000E-03 0.  1.
         23    2    1    0    0    0  0.25788405993E+02 -0.12882098202E+02 -0.20574974494E+01  0.96099764127E+02  0.91651192201E+02 0.  0.
         11    1    3    3    0    0 -0.14231793957E+02 -0.62318975675E+00 -0.38218371836E+02  0.40786962020E+02  0.51100000000E-03 0. -1.
         22    1    1    0    0    0 -0.25788405993E+02  0.12882098202E+02  0.20574974494E+01  0.28900235873E+02  0.00000000000E+00 0.  1.
</event>
<event>
 5    1  0.6622912E-004  0.9118800E+02  0.7818608E-02  0.1130116E+00
         25   -1    0    0    0    0  0.00000000000E+00  0.00000000000E+00  0.99999998245E-14  0.12500000000E+03  0.12500000000E+03 0.  0.
        -11    1    3    3    0    0  0.28908819338E+02  0.27678363669E+02  0.11598065581E+02  0.41669254569E+02  0.51100000000E-03 0.  1.
         23    2    1    0    0    0  0.90667778591E+01 -0.23883833177E+02  0.11661122902E+02  0.96917519068E+02  0.92759796070E+02 0.  0.
         11    1    3    3    0    0 -0.19842041479E+02 -0.51562196846E+02  0.63057321475E-01  0.55248264498E+02  0.51100000000E-03 0. -1.
         22    1    1    0    0    0 -0.90667778591E+01  0.23883833177E+02 -0.11661122902E+02  0.28082480932E+02  0.00000000000E+00 0. -1.
</event>
<event>
 5    1  0.6622912E-004  0.9118800E+02  0.7818608E-02  0.1130116E+00
         25   -1    0    0    0    0  0.00000000000E+00  0.00000000000E+00  0.99999998245E-14  0.12500000000E+03  0.12500000000E+03 0.  0.
        -11    1    3    3    0    0  0.62948516136E+01  0.48265710325E+02  0.37156410617E+02  0.61235633419E+02  0.51100000000E-03 0. -1.
         23    2    1    0    0    0 -0.42081898560E+01  0.24885730959E+02  0.12363597658E+02  0.96895427164E+02  0.92730020981E+02 0.  0.
         11    1    3    3    0    0 -0.10503041470E+02 -0.23379979366E+02 -0.24792812959E+02  0.35659793745E+02  0.51100000000E-03 0.  1.
         22    1    1    0    0    0  0.42081898560E+01 -0.24885730959E+02 -0.12363597658E+02  0.28104572836E+02  0.00000000000E+00 0. -1.
</event>
<event>
 5    1  0.6622912E-004  0.9118800E+02  0.7818608E-02  0.1130116E+00
         25   -1    0    0    0    0  0.00000000000E+00  0.00000000000E+00  0.99999998245E-14  0.12500000000E+03  0.12500000000E+03 0.  0.
        -11    1    3    3    0    0 -0.43554433748E+02 -0.17553972890E+02  0.32423940237E+02  0.57065248305E+02  0.51100000000E-03 0.  1.
         23    2    1    0    0    0 -0.17482800654E+02 -0.15347186623E+02 -0.34656321499E+01  0.10147990089E+03  0.98716641061E+02 0.  0.
         11    1    3    3    0    0  0.26071633094E+02  0.22067862662E+01 -0.35889572387E+02  0.44414652585E+02  0.51100000000E-03 0. -1.
         22    1    1    0    0    0  0.17482800654E+02  0.15347186623E+02  0.34656321499E+01  0.23520099110E+02  0.00000000000E+00 0.  1.
</event>
<event>
 5    1  0.6622912E-004  0.9118800E+02  0.7818608E-02  0.1130116E+00
         25   -1    0    0    0    0  0.00000000000E+00  0.00000000000E+00  0.99999998245E-14  0.12500000000E+03  0.12500000000E+03 0.  0.
        -11    1    3    3    0    0 -0.28340785547E+02 -0.96533946634E+01  0.26074550483E+02  0.39702271183E+02  0.51100000000E-03 0.  1.
         23    2    1    0    0    0 -0.12999635044E+02  0.82772499464E+01 -0.24810464130E+02  0.95792766165E+02  0.91231527123E+02 0.  0.
         11    1    3    3    0    0  0.15341150503E+02  0.17930644610E+02 -0.50885014613E+02  0.56090494982E+02  0.51100000000E-03 0. -1.
         22    1    1    0    0    0  0.12999635044E+02 -0.82772499464E+01  0.24810464130E+02  0.29207233835E+02  0.00000000000E+00 0. -1.
</event>
<event>
 5    1  0.6622912E-004  0.9118800E+02  0.7818608E-02  0.1130116E+00
         25   -1    0    0    0    0  0.00000000000E+00  0.00000000000E+00  0.99999998245E-14  0.12500000000E+03  0.12500000000E+03 0.  0.
        -11    1    3    3    0    0 -0.37252691141E+01  0.10345965631E+02  0.53018456210E+02  0.54146775841E+02  0.51100000000E-03 0.  1.
         23    2    1    0    0    0 -0.22620216253E+02  0.96587254488E+01  0.16164738915E+02  0.95567637798E+02  0.90922546431E+02 0.  0.
         11    1    3    3    0    0 -0.18894947139E+02 -0.68724018232E+00 -0.36853717296E+02  0.41420861956E+02  0.51100000000E-03 0. -1.
         22    1    1    0    0    0  0.22620216253E+02 -0.96587254488E+01 -0.16164738915E+02  0.29432362202E+02  0.00000000000E+00 0.  1.
</event>
<event>
 5    1  0.6622912E-004  0.9118800E+02  0.7818608E-02  0.1130116E+00
         25   -1    0    0    0    0  0.00000000000E+00  0.00000000000E+00  0.99999998245E-14  0.12500000000E+03  0.12500000000E+03 0.  0.
        -11    1    3    3    0    0 -0.69734553875E+00  0.51938308823E+02  0.99514198016E+01  0.52887663689E+02  0.51100000000E-03 0.  1.
         23    2    1    0    0    0 -0.23741014921E+02  0.16413387489E+02  0.12885834672E+01  0.96108902310E+02  0.91663654616E+02 0.  0.
         11    1    3    3    0    0 -0.23043669383E+02 -0.35524921333E+02 -0.86628363345E+01  0.43221238621E+02  0.51100000000E-03 0. -1.
         22    1    1    0    0    0  0.23741014921E+02 -0.16413387489E+02 -0.12885834672E+01  0.28891097690E+02  0.00000000000E+00 0. -1.
</event>
<event>
 5    1  0.6622912E-004  0.9118800E+02  0.7818608E-02  0.1130116E+00
         25   -1    0    0    0    0  0.00000000000E+00  0.00000000000E+00  0.99999998245E-14  0.12500000000E+03  0.12500000000E+03 0.  0.
        -11    1    3    3    0    0 -0.27597637497E+02 -0.16261338125E+02  0.10898531587E+02  0.33835465181E+02  0.51100000000E-03 0.  1.
         23    2    1    0    0    0  0.28062707976E+02 -0.21200216456E+01 -0.10270946800E+02  0.95041655271E+02  0.90196528856E+02 0.  0.
         11    1    3    3    0    0  0.55660345473E+02  0.14141316479E+02 -0.21169478387E+02  0.61206190090E+02  0.51100000000E-03 0. -1.
         22    1    1    0    0    0 -0.28062707976E+02  0.21200216456E+01  0.10270946800E+02  0.29958344729E+02  0.00000000000E+00 0. -1.
</event>
<event>
 5    1  0.6622912E-004  0.9118800E+02  0.7818608E-02  0.1130116E+00
         25   -1    0    0    0    0  0.00000000000E+00  0.00000000000E+00  0.99999998245E-14  0.12500000000E+03  0.12500000000E+03 0.  0.
        -11    1    3    3    0    0  0.34632476838E+02 -0.28780597627E+02 -0.29386781762E+01  0.45126124157E+02  0.51100000000E-03 0. -1.
         23    2    1    0    0    0  0.12559948353E+02  0.68409916843E+01  0.25494778700E+02  0.95767565774E+02  0.91196992513E+02 0.  0.
         11    1    3    3    0    0 -0.22072528486E+02  0.35621589312E+02  0.28433456876E+02  0.50641441617E+02  0.51100000000E-03 0.  1.
         22    1    1    0    0    0 -0.12559948353E+02 -0.68409916843E+01 -0.25494778700E+02  0.29232434226E+02  0.00000000000E+00 0. -1.
</event>
<event>
 5    1  0.6622912E-004  0.9118800E+02  0.7818608E-02  0.1130116E+00
         25   -1    0    0    0    0  0.00000000000E+00  0.00000000000E+00  0.99999998245E-14  0.12500000000E+03  0.12500000000E+03 0.  0.
        -11    1    3    3    0    0  0.20317536145E+02  0.44519163147E+02  0.12983169059E+02  0.50629248872E+02  0.51100000000E-03 0. -1.
         23    2    1    0    0    0 -0.18164797616E+02  0.22204247370E+02  0.65213328883E+01  0.95580342349E+02  0.90940010926E+02 0.  0.
         11    1    3    3    0    0 -0.38482333760E+02 -0.22314915777E+02 -0.64618361711E+01  0.44951093477E+02  0.51100000000E-03 0.  1.
         22    1    1    0    0    0  0.18164797616E+02 -0.22204247370E+02 -0.65213328883E+01  0.29419657651E+02  0.00000000000E+00 0. -1.
</event>
<event>
 5    1  0.6622912E-004  0.9118800E+02  0.7818608E-02  0.1130116E+00
         25   -1    0    0    0    0  0.00000000000E+00  0.00000000000E+00  0.99999998245E-14  0.12500000000E+03  0.12500000000E+03 0.  0.
        -11    1    3    3    0    0 -0.72783398065E+01 -0.47974692511E+02 -0.18025937710E+02  0.51763691739E+02  0.51100000000E-03 0.  1.
         23    2    1    0    0    0 -0.16204331067E+02 -0.20188562322E+02  0.14390137262E+02  0.95381856162E+02  0.90666774734E+02 0.  0.
         11    1    3    3    0    0 -0.89259912606E+01  0.27786130189E+02  0.32416074972E+02  0.43618164424E+02  0.51100000000E-03 0. -1.
         22    1    1    0    0    0  0.16204331067E+02  0.20188562322E+02 -0.14390137262E+02  0.29618143838E+02  0.00000000000E+00 0. -1.
</event>
<event>
 5    1  0.6622912E-004  0.9118800E+02  0.7818608E-02  0.1130116E+00
         25   -1    0    0    0    0  0.00000000000E+00  0.00000000000E+00  0.99999998245E-14  0.12500000000E+03  0.12500000000E+03 0.  0.
        -11    1    3    3    0    0 -0.10315094820E+02  0.28387835483E+02 -0.23894381679E+02  0.38512489671E+02  0.51100000000E-03 0. -1.
         23    2    1    0    0    0 -0.22733616252E+02 -0.17190196022E+02  0.78625008874E+01  0.95434157084E+02  0.90738852047E+02 0.  0.
         11    1    3    3    0    0 -0.12418521432E+02 -0.45578031505E+02  0.31756882567E+02  0.56921667413E+02  0.51100000000E-03 0.  1.
         22    1    1    0    0    0  0.22733616252E+02  0.17190196022E+02 -0.78625008874E+01  0.29565842916E+02  0.00000000000E+00 0.  1.
</event>
<event>
 4    1  0.6622912E-004  0.9118800E+02  0.7818608E-02  0.1130116E+00
         25   -1    0    0    0    0  0.00000000000E+00  0.00000000000E+00  0.99999998245E-14  0.12500000000E+03  0.12500000000E+03 0.  0.
        -11    1    1    0    0    0 -0.15351813304E+02 -0.83183287851E+01  0.82304548558E+01  0.19303190226E+02  0.51100000000E-03 0.  1.
         11    1    1    0    0    0 -0.40750863173E+02  0.15245420677E+01 -0.23620377918E+02  0.47126206416E+02  0.51100000000E-03 0. -1.
         22    1    1    0    0    0  0.56102676478E+02  0.67937867174E+01  0.15389923062E+02  0.58570603358E+02  0.00000000000E+00 0. -1.
</event>
<event>
 5    1  0.6622912E-004  0.9118800E+02  0.7818608E-02  0.1130116E+00
         25   -1    0    0    0    0  0.00000000000E+00  0.00000000000E+00  0.99999998245E-14  0.12500000000E+03  0.12500000000E+03 0.  0.
        -11    1    3    3    0    0 -0.41346054051E+02 -0.40644610916E+02  0.12383035662E+00  0.57978409054E+02  0.51100000000E-03 0.  1.
         23    2    1    0    0    0 -0.28648456990E+02 -0.59815924391E+01 -0.51985828048E+01  0.95275619448E+02  0.90520190356E+02 0.  0.
         11    1    3    3    0    0  0.12697597061E+02  0.34663018477E+02 -0.53224131614E+01  0.37297210395E+02  0.51100000000E-03 0. -1.
         22    1    1    0    0    0  0.28648456990E+02  0.59815924391E+01  0.51985828048E+01  0.29724380552E+02  0.00000000000E+00 0.  1.
</event>
<event>
 5    1  0.6622912E-004  0.9118800E+02  0.7818608E-02  0.1130116E+00
         25   -1    0    0    0    0  0.00000000000E+00  0.00000000000E+00  0.99999998245E-14  0.12500000000E+03  0.12500000000E+03 0.  0.
        -11    1    3    3    0    0 -0.26875011035E+02  0.51402716849E+02  0.21786385183E+02  0.61960891675E+02  0.51100000000E-03 0. -1.
         23    2    1    0    0    0 -0.17859667761E+02  0.21932716502E+02  0.91053934275E+01  0.95286030640E+02  0.90534566105E+02 0.  0.
         11    1    3    3    0    0  0.90153432737E+01 -0.29470000347E+02 -0.12680991755E+02  0.33325138964E+02  0.51100000000E-03 0.  1.
         22    1    1    0    0    0  0.17859667761E+02 -0.21932716502E+02 -0.91053934275E+01  0.29713969360E+02  0.00000000000E+00 0. -1.
</event>
<event>
 5    1  0.6622912E-004  0.9118800E+02  0.7818608E-02  0.1130116E+00
         25   -1    0    0    0    0  0.00000000000E+00  0.00000000000E+00  0.99999998245E-14  0.12500000000E+03  0.12500000000E+03 0.  0.
        -11    1    3    3    0    0  0.33568952457E+02  0.54967416173E+01  0.99718884753E+01  0.35447528792E+02  0.51100000000E-03 0. -1.
         23    2    1    0    0    0 -0.19820624678E+02  0.37843220449E+01 -0.19908146120E+02  0.96653703277E+02  0.92403602848E+02 0.  0.
         11    1    3    3    0    0 -0.53389577134E+02 -0.17124195724E+01 -0.29880034595E+02  0.61206174485E+02  0.51100000000E-03 0.  1.
         22    1    1    0    0    0  0.19820624678E+02 -0.37843220449E+01  0.19908146120E+02  0.28346296723E+02  0.00000000000E+00 0.  1.
</event>
<event>
 5    1  0.6622912E-004  0.9118800E+02  0.7818608E-02  0.1130116E+00
         25   -1    0    0    0    0  0.00000000000E+00  0.00000000000E+00  0.99999998245E-14  0.12500000000E+03  0.12500000000E+03 0.  0.
        -11    1    3    3    0    0  0.21044254358E+02  0.14933086821E+02  0.21535023851E+02  0.33609745254E+02  0.51100000000E-03 0.  1.
         23    2    1    0    0    0 -0.30447215921E+02  0.18268459111E+00 -0.62005320394E+01  0.93927296085E+02  0.88638727548E+02 0.  0.
         11    1    3    3    0    0 -0.51491470279E+02 -0.14750402230E+02 -0.27735555891E+02  0.60317550831E+02  0.51100000000E-03 0. -1.
         22    1    1    0    0    0  0.30447215921E+02 -0.18268459111E+00  0.62005320394E+01  0.31072703915E+02  0.00000000000E+00 0. -1.
</event>
<event>
 5    1  0.6622912E-004  0.9118800E+02  0.7818608E-02  0.1130116E+00
         25   -1    0    0    0    0  0.00000000000E+00  0.00000000000E+00  0.99999998245E-14  0.12500000000E+03  0.12500000000E+03 0.  0.
        -11    1    3    3    0    0  0.48578771427E+01  0.36709220054E+02 -0.40182655017E+02  0.54642580208E+02  0.51100000000E-03 0.  1.
         23    2    1    0    0    0  0.50094887509E+01 -0.27733788468E+01 -0.28661578527E+02  0.95772056326E+02  0.91203147322E+02 0.  0.
         11    1    3    3    0    0  0.15161160820E+00 -0.39482598900E+02  0.11521076490E+02  0.41129476118E+02  0.51100000000E-03 0. -1.
         22    1    1    0    0    0 -0.50094887509E+01  0.27733788468E+01  0.28661578527E+02  0.29227943674E+02  0.00000000000E+00 0.  1.
</event>
<event>
 5    1  0.6622912E-004  0.9118800E+02  0.7818608E-02  0.1130116E+00
         25   -1    0    0    0    0  0.00000000000E+00  0.00000000000E+00  0.99999998245E-14  0.12500000000E+03  0.12500000000E+03 0.  0.
        -11    1    3    3    0    0 -0.53908165261E+02 -0.70145898400E+01  0.70756754832E+01  0.54821163215E+02  0.51100000000E-03 0. -1.
         23    2    1    0    0    0 -0.19365525171E+02  0.11122405191E+02  0.19065212646E+02  0.95636522760E+02  0.91017199968E+02 0.  0.
         11    1    3    3    0    0  0.34542640090E+02  0.18136995031E+02  0.11989537163E+02  0.40815359545E+02  0.51100000000E-03 0.  1.
         22    1    1    0    0    0  0.19365525171E+02 -0.11122405191E+02 -0.19065212646E+02  0.29363477240E+02  0.00000000000E+00 0. -1.
</event>
<event>
 5    1  0.6622912E-004  0.9118800E+02  0.7818608E-02  0.1130116E+00
         25   -1    0    0    0    0  0.00000000000E+00  0.00000000000E+00  0.99999998245E-14  0.12500000000E+03  0.12500000000E+03 0.  0.
        -11    1    3    3    0    0 -0.32170574057E+02  0.47565862198E+02  0.40871546988E+01  0.57568758156E+02  0.51100000000E-03 0.  1.
         23    2    1    0    0    0 -0.14766064740E+02  0.17845627783E+02  0.18943258083E+02  0.95077598264E+02  0.90246327160E+02 0.  0.
         11    1    3    3    0    0  0.17404509318E+02 -0.29720234414E+02  0.14856103384E+02  0.37508840108E+02  0.51100000000E-03 0. -1.
         22    1    1    0    0    0  0.14766064740E+02 -0.17845627783E+02 -0.18943258083E+02  0.29922401736E+02  0.00000000000E+00 0.  1.
</event>
<event>
 5    1  0.6622912E-004  0.9118800E+02  0.7818608E-02  0.1130116E+00
         25   -1    0    0    0    0  0.00000000000E+00  0.00000000000E+00  0.99999998245E-14  0.12500000000E+03  0.12500000000E+03 0.  0.
        -11    1    3    3    0    0 -0.28958252044E+02  0.17074034929E+02  0.31035691621E+02  0.45752783357E+02  0.51100000000E-03 0.  1.
         23    2    1    0    0    0  0.36348213465E+01  0.23777373502E+02 -0.10313824405E+02  0.98828443097E+02  0.95300108994E+02 0.  0.
         11    1    3    3    0    0  0.32593073390E+02  0.67033385728E+01 -0.41349516026E+02  0.53075659741E+02  0.51100000000E-03 0. -1.
         22    1    1    0    0    0 -0.36348213465E+01 -0.23777373502E+02  0.10313824405E+02  0.26171556903E+02  0.00000000000E+00 0. -1.
</event>
<event>
 5    1  0.6622912E-004  0.9118800E+02  0.7818608E-02  0.1130116E+00
         25   -1    0    0    0    0  0.00000000000E+00  0.00000000000E+00  0.99999998245E-14  0.12500000000E+03  0.12500000000E+03 0.  0.
        -11    1    3    3    0    0  0.97704590799E+01 -0.68943390816E+01  0.42998325549E+02  0.44630144323E+02  0.51100000000E-03 0.  1.
         23    2    1    0    0    0 -0.11287731922E+02  0.25431291609E+02  0.98833520360E+01  0.95472993170E+02  0.90792336089E+02 0.  0.
         11    1    3    3    0    0 -0.21058191002E+02  0.32325630691E+02 -0.33114973513E+02  0.50842848847E+02  0.51100000000E-03 0. -1.
         22    1    1    0    0    0  0.11287731922E+02 -0.25431291609E+02 -0.98833520360E+01  0.29527006830E+02  0.00000000000E+00 0. -1.
</event>
<event>
 5    1  0.6622912E-004  0.9118800E+02  0.7818608E-02  0.1130116E+00
         25   -1    0    0    0    0  0.00000000000E+00  0.00000000000E+00  0.99999998245E-14  0.12500000000E+03  0.12500000000E+03 0.  0.
        -11    1    3    3    0    0 -0.23938625744E+02  0.18827161542E+02 -0.45913928205E+02  0.55096357572E+02  0.51100000000E-03 0. -1.
         23    2    1    0    0    0 -0.14154783812E+02  0.28390169268E+02 -0.13044094382E+02  0.90699737405E+02  0.83963887186E+02 0.  0.
         11    1    3    3    0    0  0.97838419324E+01  0.95630077255E+01  0.32869833823E+02  0.35603379833E+02  0.51100000000E-03 0.  1.
         22    1    1    0    0    0  0.14154783812E+02 -0.28390169268E+02  0.13044094382E+02  0.34300262595E+02  0.00000000000E+00 0. -1.
</event>
<event>
 5    1  0.6622912E-004  0.9118800E+02  0.7818608E-02  0.1130116E+00
         25   -1    0    0    0    0  0.00000000000E+00  0.00000000000E+00  0.99999998245E-14  0.12500000000E+03  0.12500000000E+03 0.  0.
        -11    1    3    3    0    0 -0.40882684197E+02  0.42920007458E+02 -0.11056054724E+02  0.60297240846E+02  0.51100000000E-03 0.  1.
         23    2    1    0    0    0 -0.22662170549E+02  0.18804495338E+02 -0.16849389893E+02  0.91072357013E+02  0.84516798645E+02 0.  0.
         11    1    3    3    0    0  0.18220513648E+02 -0.24115512120E+02 -0.57933351688E+01  0.30775116167E+02  0.51100000000E-03 0. -1.
         22    1    1    0    0    0  0.22662170549E+02 -0.18804495338E+02  0.16849389893E+02  0.33927642987E+02  0.00000000000E+00 0.  1.
</event>
<event>
 5    1  0.6622912E-004  0.9118800E+02  0.7818608E-02  0.1130116E+00
         25   -1    0    0    0    0  0.00000000000E+00  0.00000000000E+00  0.99999998245E-14  0.12500000000E+03  0.12500000000E+03 0.  0.
        -11    1    3    3    0    0  0.46034369797E+02  0.11219103067E+02  0.16504435910E+02  0.50173976135E+02  0.51100000000E-03 0.  1.
         23    2    1    0    0    0  0.19742472084E+02  0.19282365182E+02 -0.16275190707E+02  0.92961637939E+02  0.87266313574E+02 0.  0.
         11    1    3    3    0    0 -0.26291897713E+02  0.80632621143E+01 -0.32779626617E+02  0.42787661804E+02  0.51100000000E-03 0. -1.
         22    1    1    0    0    0 -0.19742472084E+02 -0.19282365182E+02  0.16275190707E+02  0.32038362061E+02  0.00000000000E+00 0.  1.
</event>
<event>
 5    1  0.6622912E-004  0.9118800E+02  0.7818608E-02  0.1130116E+00
         25   -1    0    0    0    0  0.00000000000E+00  0.00000000000E+00  0.99999998245E-14  0.12500000000E+03  0.12500000000E+03 0.  0.
        -11    1    3    3    0    0  0.27309798009E+02  0.16170946392E+02 -0.31964286420E+02  0.45044868533E+02  0.51100000000E-03 0.  1.
         23    2    1    0    0    0  0.21757773218E+02 -0.24131515840E+02 -0.16401381250E+02  0.88603076242E+02  0.80782232331E+02 0.  0.
         11    1    3    3    0    0 -0.55520247908E+01 -0.40302462232E+02  0.15562905170E+02  0.43558207709E+02  0.51100000000E-03 0. -1.
         22    1    1    0    0    0 -0.21757773218E+02  0.24131515840E+02  0.16401381250E+02  0.36396923758E+02  0.00000000000E+00 0.  1.
</event>
<event>
 5    1  0.6622912E-004  0.9118800E+02  0.7818608E-02  0.1130116E+00
         25   -1    0    0    0    0  0.00000000000E+00  0.00000000000E+00  0.99999998245E-14  0.12500000000E+03  0.12500000000E+03 0.  0.
        -11    1    3    3    0    0  0.24509141753E+02 -0.44474750922E+02  0.18731221992E+02  0.54125411561E+02  0.51100000000E-03 0.  1.
         23    2    1    0    0    0 -0.88373887858E+01 -0.29984557037E+02  0.13846666984E+02  0.90810772342E+02  0.84129026415E+02 0.  0.
         11    1    3    3    0    0 -0.33346530538E+02  0.14490193885E+02 -0.48845550083E+01  0.36685360781E+02  0.51100000000E-03 0. -1.
         22    1    1    0    0    0  0.88373887858E+01  0.29984557037E+02 -0.13846666984E+02  0.34189227658E+02  0.00000000000E+00 0.  1.
</event>
<event>
 5    1  0.6622912E-004  0.9118800E+02  0.7818608E-02  0.1130116E+00
         25   -1    0    0    0    0  0.00000000000E+00  0.00000000000E+00  0.99999998245E-14  0.12500000000E+03  0.12500000000E+03 0.  0.
        -11    1    3    3    0    0 -0.30688801873E+02  0.10702234309E+02  0.21582714343E+02  0.39014791276E+02  0.51100000000E-03 0.  1.
         23    2    1    0    0    0 -0.49328513743E+01 -0.22949260733E+00 -0.28334225174E+02  0.96238671697E+02  0.91840448193E+02 0.  0.
         11    1    3    3    0    0  0.25755950499E+02 -0.10931726917E+02 -0.49916939517E+02  0.57223880421E+02  0.51100000000E-03 0. -1.
         22    1    1    0    0    0  0.49328513743E+01  0.22949260733E+00  0.28334225174E+02  0.28761328303E+02  0.00000000000E+00 0. -1.
</event>
<event>
 5    1  0.6622912E-004  0.9118800E+02  0.7818608E-02  0.1130116E+00
         25   -1    0    0    0    0  0.00000000000E+00  0.00000000000E+00  0.99999998245E-14  0.12500000000E+03  0.12500000000E+03 0.  0.
        -11    1    3    3    0    0  0.22503187702E+02  0.50737380176E+02 -0.23780169667E+02  0.60383538100E+02  0.51100000000E-03 0.  1.
         23    2    1    0    0    0  0.90344556793E+01  0.17525285898E+02 -0.20789917524E+02  0.96347291474E+02  0.91988167003E+02 0.  0.
         11    1    3    3    0    0 -0.13468732023E+02 -0.33212094277E+02  0.29902521433E+01  0.35963753374E+02  0.51100000000E-03 0. -1.
         22    1    1    0    0    0 -0.90344556793E+01 -0.17525285898E+02  0.20789917524E+02  0.28652708526E+02  0.00000000000E+00 0.  1.
</event>
<event>
 5    1  0.6622912E-004  0.9118800E+02  0.7818608E-02  0.1130116E+00
         25   -1    0    0    0    0  0.00000000000E+00  0.00000000000E+00  0.99999998245E-14  0.12500000000E+03  0.12500000000E+03 0.  0.
        -11    1    3    3    0    0 -0.41923450852E+02  0.41445458669E+02 -0.64168272196E+00  0.58955182406E+02  0.51100000000E-03 0.  1.
         23    2    1    0    0    0 -0.28136999724E+02  0.70848138456E+01  0.40830870533E-01  0.95984710792E+02  0.91494140238E+02 0.  0.
         11    1    3    3    0    0  0.13786451128E+02 -0.34360644823E+02  0.68251359249E+00  0.37029528385E+02  0.51100000000E-03 0. -1.
         22    1    1    0    0    0  0.28136999724E+02 -0.70848138456E+01 -0.40830870533E-01  0.29015289208E+02  0.00000000000E+00 0.  1.
</event>
<event>
 5    1  0.6622912E-004  0.9118800E+02  0.7818608E-02  0.1130116E+00
         25   -1    0    0    0    0  0.00000000000E+00  0.00000000000E+00  0.99999998245E-14  0.12500000000E+03  0.12500000000E+03 0.  0.
        -11    1    3    3    0    0  0.17722640482E+02 -0.48807420864E+02  0.17652304865E+02  0.54843962151E+02  0.51100000000E-03 0.  1.
         23    2    1    0    0    0 -0.74469278199E+01 -0.28303344326E+02 -0.61438479072E+01  0.95095436785E+02  0.90271031877E+02 0.  0.
         11    1    3    3    0    0 -0.25169568302E+02  0.20504076539E+02 -0.23796152772E+02  0.40251474634E+02  0.51100000000E-03 0. -1.
         22    1    1    0    0    0  0.74469278199E+01  0.28303344326E+02  0.61438479072E+01  0.29904563215E+02  0.00000000000E+00 0.  1.
</event>
<event>
 5    1  0.6622912E-004  0.9118800E+02  0.7818608E-02  0.1130116E+00
         25   -1    0    0    0    0  0.00000000000E+00  0.00000000000E+00  0.99999998245E-14  0.12500000000E+03  0.12500000000E+03 0.  0.
        -11    1    3    3    0    0 -0.15737473749E+02  0.52470521630E+02 -0.15817808455E+02  0.57017776042E+02  0.51100000000E-03 0.  1.
         23    2    1    0    0    0 -0.21575561343E+02  0.14835842059E+02 -0.14374061105E+02  0.95129936567E+02  0.90318791742E+02 0.  0.
         11    1    3    3    0    0 -0.58380875936E+01 -0.37634679572E+02  0.14437473493E+01  0.38112160525E+02  0.51100000000E-03 0. -1.
         22    1    1    0    0    0  0.21575561343E+02 -0.14835842059E+02  0.14374061105E+02  0.29870063433E+02  0.00000000000E+00 0.  1.
</event>
<event>
 5    1  0.6622912E-004  0.9118800E+02  0.7818608E-02  0.1130116E+00
         25   -1    0    0    0    0  0.00000000000E+00  0.00000000000E+00  0.99999998245E-14  0.12500000000E+03  0.12500000000E+03 0.  0.
        -11    1    3    3    0    0 -0.20195408077E+02 -0.27121288523E+02 -0.22953805432E+02  0.40869254735E+02  0.51100000000E-03 0.  1.
         23    2    1    0    0    0 -0.15558879749E+02 -0.38136287954E+01  0.25527908012E+02  0.94862040694E+02  0.89947263291E+02 0.  0.
         11    1    3    3    0    0  0.46365283278E+01  0.23307659727E+02  0.48481713444E+02  0.53992785959E+02  0.51100000000E-03 0. -1.
         22    1    1    0    0    0  0.15558879749E+02  0.38136287954E+01 -0.25527908012E+02  0.30137959306E+02  0.00000000000E+00 0. -1.
</event>
<event>
 5    1  0.6622912E-004  0.9118800E+02  0.7818608E-02  0.1130116E+00
         25   -1    0    0    0    0  0.00000000000E+00  0.00000000000E+00  0.99999998245E-14  0.12500000000E+03  0.12500000000E+03 0.  0.
        -11    1    3    3    0    0  0.20769610829E+02  0.25362525052E+02  0.12355345190E+02  0.35032684254E+02  0.51100000000E-03 0.  1.
         23    2    1    0    0    0 -0.11626512560E+02 -0.12217722657E+02 -0.23375171839E+02  0.96175579802E+02  0.91754536403E+02 0.  0.
         11    1    3    3    0    0 -0.32396123389E+02 -0.37580247709E+02 -0.35730517030E+02  0.61142895548E+02  0.51100000000E-03 0. -1.
         22    1    1    0    0    0  0.11626512560E+02  0.12217722657E+02  0.23375171839E+02  0.28824420198E+02  0.00000000000E+00 0. -1.
</event>
<event>
 5    1  0.6622912E-004  0.9118800E+02  0.7818608E-02  0.1130116E+00
         25   -1    0    0    0    0  0.00000000000E+00  0.00000000000E+00  0.99999998245E-14  0.12500000000E+03  0.12500000000E+03 0.  0.
        -11    1    3    3    0    0  0.50210718531E+02  0.11654744425E+02 -0.28459317182E+02  0.58880234865E+02  0.51100000000E-03 0.  1.
         23    2    1    0    0    0  0.23880496274E+02 -0.94537418271E+01 -0.93138252707E+01  0.97679702088E+02  0.93781264238E+02 0.  0.
         11    1    3    3    0    0 -0.26330222258E+02 -0.21108486252E+02  0.19145491911E+02  0.38799467223E+02  0.51100000000E-03 0. -1.
         22    1    1    0    0    0 -0.23880496274E+02  0.94537418271E+01  0.93138252707E+01  0.27320297912E+02  0.00000000000E+00 0.  1.
</event>
<event>
 5    1  0.6622912E-004  0.9118800E+02  0.7818608E-02  0.1130116E+00
         25   -1    0    0    0    0  0.00000000000E+00  0.00000000000E+00  0.99999998245E-14  0.12500000000E+03  0.12500000000E+03 0.  0.
        -11    1    3    3    0    0 -0.13941095225E+02 -0.21559791671E+02 -0.54179767655E+02  0.59955199744E+02  0.51100000000E-03 0.  1.
         23    2    1    0    0    0 -0.18101668129E+02 -0.62928383401E+01 -0.21941423924E+02  0.95867607595E+02  0.91334012825E+02 0.  0.
         11    1    3    3    0    0 -0.41605729042E+01  0.15266953331E+02  0.32238343730E+02  0.35912407851E+02  0.51100000000E-03 0. -1.
         22    1    1    0    0    0  0.18101668129E+02  0.62928383401E+01  0.21941423924E+02  0.29132392405E+02  0.00000000000E+00 0.  1.
</event>
<event>
 5    1  0.6622912E-004  0.9118800E+02  0.7818608E-02  0.1130116E+00
         25   -1    0    0    0    0  0.00000000000E+00  0.00000000000E+00  0.99999998245E-14  0.12500000000E+03  0.12500000000E+03 0.  0.
        -11    1    3    3    0    0  0.16904869493E+02 -0.27796994203E+02 -0.21761536063E+02  0.39140924253E+02  0.51100000000E-03 0.  1.
         23    2    1    0    0    0  0.13707148604E+02  0.25860205055E+02 -0.88611786197E+01  0.94419669477E+02  0.89330383237E+02 0.  0.
         11    1    3    3    0    0 -0.31977208895E+01  0.53657199258E+02  0.12900357444E+02  0.55278745224E+02  0.51100000000E-03 0. -1.
         22    1    1    0    0    0 -0.13707148604E+02 -0.25860205055E+02  0.88611786197E+01  0.30580330523E+02  0.00000000000E+00 0. -1.
</event>
<event>
 5    1  0.6622912E-004  0.9118800E+02  0.7818608E-02  0.1130116E+00
         25   -1    0    0    0    0  0.00000000000E+00  0.00000000000E+00  0.99999998245E-14  0.12500000000E+03  0.12500000000E+03 0.  0.
        -11    1    3    3    0    0 -0.41892610452E+02  0.37736208053E+02  0.21937015213E+02  0.60499957400E+02  0.51100000000E-03 0. -1.
         23    2    1    0    0    0 -0.23445856834E+02  0.10324588153E+02  0.17813876901E+02  0.93796802512E+02  0.88454511632E+02 0.  0.
         11    1    3    3    0    0  0.18446753618E+02 -0.27411619900E+02 -0.41231383120E+01  0.33296845112E+02  0.51100000000E-03 0.  1.
         22    1    1    0    0    0  0.23445856834E+02 -0.10324588153E+02 -0.17813876901E+02  0.31203197488E+02  0.00000000000E+00 0. -1.
</event>
<event>
 5    1  0.6622912E-004  0.9118800E+02  0.7818608E-02  0.1130116E+00
         25   -1    0    0    0    0  0.00000000000E+00  0.00000000000E+00  0.99999998245E-14  0.12500000000E+03  0.12500000000E+03 0.  0.
        -11    1    3    3    0    0  0.82664083845E+01  0.36589906681E+02  0.41777680294E+02  0.56147389516E+02  0.51100000000E-03 0.  1.
         23    2    1    0    0    0 -0.11224764422E+02  0.50381762142E+01  0.25575943272E+02  0.96618537209E+02  0.92356019307E+02 0.  0.
         11    1    3    3    0    0 -0.19491172807E+02 -0.31551730466E+02 -0.16201737022E+02  0.40471147693E+02  0.51100000000E-03 0. -1.
         22    1    1    0    0    0  0.11224764422E+02 -0.50381762142E+01 -0.25575943272E+02  0.28381462791E+02  0.00000000000E+00 0.  1.
</event>
<event>
 5    1  0.6622912E-004  0.9118800E+02  0.7818608E-02  0.1130116E+00
         25   -1    0    0    0    0  0.00000000000E+00  0.00000000000E+00  0.99999998245E-14  0.12500000000E+03  0.12500000000E+03 0.  0.
        -11    1    3    3    0    0 -0.52416534501E+02 -0.31596013522E+02 -0.12153307972E+02  0.62397949121E+02  0.51100000000E-03 0. -1.
         23    2    1    0    0    0 -0.26765550074E+02 -0.13296907853E+02 -0.66150568028E+01  0.94390174686E+02  0.89289101639E+02 0.  0.
         11    1    3    3    0    0  0.25650984427E+02  0.18299105668E+02  0.55382511690E+01  0.31992225565E+02  0.51100000000E-03 0.  1.
         22    1    1    0    0    0  0.26765550074E+02  0.13296907853E+02  0.66150568028E+01  0.30609825314E+02  0.00000000000E+00 0. -1.
</event>
<event>
 5    1  0.6622912E-004  0.9118800E+02  0.7818608E-02  0.1130116E+00
         25   -1    0    0    0    0  0.00000000000E+00  0.00000000000E+00  0.99999998245E-14  0.12500000000E+03  0.12500000000E+03 0.  0.
        -11    1    3    3    0    0 -0.36638701898E+02 -0.66204584497E+01 -0.28357967296E+02  0.46801701425E+02  0.51100000000E-03 0.  1.
         23    2    1    0    0    0 -0.27799371655E+02  0.22686699779E+02  0.84503224377E+00  0.89108420336E+02  0.81560438228E+02 0.  0.
         11    1    3    3    0    0  0.88393302426E+01  0.29307158229E+02  0.29202999540E+02  0.42306718911E+02  0.51100000000E-03 0. -1.
         22    1    1    0    0    0  0.27799371655E+02 -0.22686699779E+02 -0.84503224377E+00  0.35891579664E+02  0.00000000000E+00 0. -1.
</event>
<event>
 5    1  0.6622912E-004  0.9118800E+02  0.7818608E-02  0.1130116E+00
         25   -1    0    0    0    0  0.00000000000E+00  0.00000000000E+00  0.99999998245E-14  0.12500000000E+03  0.12500000000E+03 0.  0.
        -11    1    3    3    0    0  0.36301840719E+02 -0.12734964398E+02  0.42230880596E+02  0.57126615810E+02  0.51100000000E-03 0.  1.
         23    2    1    0    0    0  0.27077336776E+01 -0.14798577453E+02  0.27047070397E+02  0.94050464731E+02  0.88812252436E+02 0.  0.
         11    1    3    3    0    0 -0.33594107041E+02 -0.20636130558E+01 -0.15183810199E+02  0.36923848921E+02  0.51100000000E-03 0. -1.
         22    1    1    0    0    0 -0.27077336776E+01  0.14798577453E+02 -0.27047070397E+02  0.30949535269E+02  0.00000000000E+00 0.  1.
</event>
<event>
 5    1  0.6622912E-004  0.9118800E+02  0.7818608E-02  0.1130116E+00
         25   -1    0    0    0    0  0.00000000000E+00  0.00000000000E+00  0.99999998245E-14  0.12500000000E+03  0.12500000000E+03 0.  0.
        -11    1    3    3    0    0  0.11610883576E+02 -0.24467355437E+02  0.56264795488E+02  0.62443504955E+02  0.51100000000E-03 0.  1.
         23    2    1    0    0    0  0.41686599282E+01 -0.12302480685E+02  0.24272377539E+02  0.97470432840E+02  0.93501915543E+02 0.  0.
         11    1    3    3    0    0 -0.74422236474E+01  0.12164874751E+02 -0.31992417950E+02  0.35026927885E+02  0.51100000000E-03 0. -1.
         22    1    1    0    0    0 -0.41686599282E+01  0.12302480685E+02 -0.24272377539E+02  0.27529567160E+02  0.00000000000E+00 0.  1.
</event>
<event>
 5    1  0.6622912E-004  0.9118800E+02  0.7818608E-02  0.1130116E+00
         25   -1    0    0    0    0  0.00000000000E+00  0.00000000000E+00  0.99999998245E-14  0.12500000000E+03  0.12500000000E+03 0.  0.
        -11    1    3    3    0    0  0.11129484044E+02 -0.58218580303E+02  0.43712274300E+01  0.59433796254E+02  0.51100000000E-03 0.  1.
         23    2    1    0    0    0  0.13298350120E+02 -0.20935427396E+02  0.11835780043E+02  0.97518662234E+02  0.93566369805E+02 0.  0.
         11    1    3    3    0    0  0.21688660762E+01  0.37283152907E+02  0.74645526134E+01  0.38084865980E+02  0.51100000000E-03 0. -1.
         22    1    1    0    0    0 -0.13298350120E+02  0.20935427396E+02 -0.11835780043E+02  0.27481337766E+02  0.00000000000E+00 0.  1.
</event>
<event>
 5    1  0.6622912E-004  0.9118800E+02  0.7818608E-02  0.1130116E+00
         25   -1    0    0    0    0  0.00000000000E+00  0.00000000000E+00  0.99999998245E-14  0.12500000000E+03  0.12500000000E+03 0.  0.
        -11    1    3    3    0    0  0.19610087347E+02  0.19494667857E+02 -0.21137684365E+02  0.34805161990E+02  0.51100000000E-03 0. -1.
         23    2    1    0    0    0 -0.44176010345E+01 -0.66488956589E+01  0.28256405675E+02  0.95637652103E+02  0.91018750957E+02 0.  0.
         11    1    3    3    0    0 -0.24027688381E+02 -0.26143563516E+02  0.49394090039E+02  0.60832490113E+02  0.51100000000E-03 0.  1.
         22    1    1    0    0    0  0.44176010345E+01  0.66488956589E+01 -0.28256405675E+02  0.29362347897E+02  0.00000000000E+00 0.  1.
</event>
<event>
 5    1  0.6622912E-004  0.9118800E+02  0.7818608E-02  0.1130116E+00
         25   -1    0    0    0    0  0.00000000000E+00  0.00000000000E+00  0.99999998245E-14  0.12500000000E+03  0.12500000000E+03 0.  0.
        -11    1    3    3    0    0  0.17645305016E+02 -0.24007843559E+02 -0.14641430775E+02  0.33197964348E+02  0.51100000000E-03 0. -1.
         23    2    1    0    0    0 -0.11061630060E+02  0.15756711687E+02  0.22988599338E+02  0.95014848303E+02  0.90159370427E+02 0.  0.
         11    1    3    3    0    0 -0.28706935076E+02  0.39764555245E+02  0.37630030113E+02  0.61816883955E+02  0.51100000000E-03 0.  1.
         22    1    1    0    0    0  0.11061630060E+02 -0.15756711687E+02 -0.22988599338E+02  0.29985151697E+02  0.00000000000E+00 0.  1.
</event>
<event>
 5    1  0.6622912E-004  0.9118800E+02  0.7818608E-02  0.1130116E+00
         25   -1    0    0    0    0  0.00000000000E+00  0.00000000000E+00  0.99999998245E-14  0.12500000000E+03  0.12500000000E+03 0.  0.
        -11    1    3    3    0    0 -0.11164794473E+02 -0.11902721310E+02 -0.36669880136E+02  0.40137358155E+02  0.51100000000E-03 0.  1.
         23    2    1    0    0    0 -0.28964375734E+02  0.88431321997E+01  0.90383484761E+01  0.93395763069E+02  0.87885953186E+02 0.  0.
         11    1    3    3    0    0 -0.17799581261E+02  0.20745853510E+02  0.45708228612E+02  0.53258404914E+02  0.51100000000E-03 0. -1.
         22    1    1    0    0    0  0.28964375734E+02 -0.88431321997E+01 -0.90383484761E+01  0.31604236931E+02  0.00000000000E+00 0.  1.
</event>
<event>
 5    1  0.6622912E-004  0.9118800E+02  0.7818608E-02  0.1130116E+00
         25   -1    0    0    0    0  0.00000000000E+00  0.00000000000E+00  0.99999998245E-14  0.12500000000E+03  0.12500000000E+03 0.  0.
        -11    1    3    3    0    0 -0.45884944254E+01 -0.26637732225E+00 -0.47989181212E+02  0.48208782931E+02  0.51100000000E-03 0.  1.
         23    2    1    0    0    0  0.16378352438E+02 -0.20568714882E+02 -0.83906473263E+01  0.97400626401E+02  0.93408546720E+02 0.  0.
         11    1    3    3    0    0  0.20966846864E+02 -0.20302337560E+02  0.39598533886E+02  0.49191843470E+02  0.51100000000E-03 0. -1.
         22    1    1    0    0    0 -0.16378352438E+02  0.20568714882E+02  0.83906473263E+01  0.27599373599E+02  0.00000000000E+00 0. -1.
</event>
<event>
 5    1  0.6622912E-004  0.9118800E+02  0.7818608E-02  0.1130116E+00
         25   -1    0    0    0    0  0.00000000000E+00  0.00000000000E+00  0.99999998245E-14  0.12500000000E+03  0.12500000000E+03 0.  0.
        -11    1    3    3    0    0 -0.33332613822E+02 -0.18965817986E+02  0.52586150379E+00  0.38354164398E+02  0.51100000000E-03 0.  1.
         23    2    1    0    0    0  0.14199485281E+02  0.18785504007E+01  0.25347237306E+02  0.95885797746E+02  0.91358904527E+02 0.  0.
         11    1    3    3    0    0  0.47532099103E+02  0.20844368387E+02  0.24821375802E+02  0.57531633347E+02  0.51100000000E-03 0. -1.
         22    1    1    0    0    0 -0.14199485281E+02 -0.18785504007E+01 -0.25347237306E+02  0.29114202254E+02  0.00000000000E+00 0. -1.
</event>
<event>
 5    1  0.6622912E-004  0.9118800E+02  0.7818608E-02  0.1130116E+00
         25   -1    0    0    0    0  0.00000000000E+00  0.00000000000E+00  0.99999998245E-14  0.12500000000E+03  0.12500000000E+03 0.  0.
        -11    1    3    3    0    0 -0.29578951541E+02  0.87515245592E+01  0.23125121706E+02  0.38552234832E+02  0.51100000000E-03 0.  1.
         23    2    1    0    0    0  0.11005636643E+01  0.22158023787E+02 -0.21342811587E+02  0.94215184506E+02  0.89043787692E+02 0.  0.
         11    1    3    3    0    0  0.30679515206E+02  0.13406499228E+02 -0.44467933293E+02  0.55662949674E+02  0.51100000000E-03 0. -1.
         22    1    1    0    0    0 -0.11005636643E+01 -0.22158023787E+02  0.21342811587E+02  0.30784815494E+02  0.00000000000E+00 0. -1.
</event>
<event>
 5    1  0.6622912E-004  0.9118800E+02  0.7818608E-02  0.1130116E+00
         25   -1    0    0    0    0  0.00000000000E+00  0.00000000000E+00  0.99999998245E-14  0.12500000000E+03  0.12500000000E+03 0.  0.
        -11    1    3    3    0    0  0.59096593084E+01 -0.45142436765E+02 -0.30368900657E+02  0.54726901955E+02  0.51100000000E-03 0.  1.
         23    2    1    0    0    0 -0.16739683513E+02 -0.24043297057E+02 -0.39194126664E+01  0.95442277944E+02  0.90750038490E+02 0.  0.
         11    1    3    3    0    0 -0.22649342821E+02  0.21099139708E+02  0.26449487991E+02  0.40715375989E+02  0.51100000000E-03 0. -1.
         22    1    1    0    0    0  0.16739683513E+02  0.24043297057E+02  0.39194126664E+01  0.29557722056E+02  0.00000000000E+00 0.  1.
</event>
<event>
 5    1  0.6622912E-004  0.9118800E+02  0.7818608E-02  0.1130116E+00
         25   -1    0    0    0    0  0.00000000000E+00  0.00000000000E+00  0.99999998245E-14  0.12500000000E+03  0.12500000000E+03 0.  0.
        -11    1    3    3    0    0 -0.48004730345E+01  0.15020846784E+02 -0.45066518302E+02  0.47745800356E+02  0.51100000000E-03 0. -1.
         23    2    1    0    0    0  0.97131628521E+01 -0.21418832132E+02 -0.17378813732E+02  0.95757307422E+02  0.91182930725E+02 0.  0.
         11    1    3    3    0    0  0.14513635887E+02 -0.36439678916E+02  0.27687704570E+02  0.48011507066E+02  0.51100000000E-03 0.  1.
         22    1    1    0    0    0 -0.97131628521E+01  0.21418832132E+02  0.17378813732E+02  0.29242692578E+02  0.00000000000E+00 0. -1.
</event>
<event>
 5    1  0.6622912E-004  0.9118800E+02  0.7818608E-02  0.1130116E+00
         25   -1    0    0    0    0  0.00000000000E+00  0.00000000000E+00  0.99999998245E-14  0.12500000000E+03  0.12500000000E+03 0.  0.
        -11    1    3    3    0    0  0.54075627897E+02  0.25524606007E+02  0.42538498346E+01  0.59948096575E+02  0.51100000000E-03 0.  1.
         23    2    1    0    0    0  0.35597131900E+02  0.29208057526E+01  0.24306321238E+01  0.89200630198E+02  0.81701637373E+02 0.  0.
         11    1    3    3    0    0 -0.18478495997E+02 -0.22603800255E+02 -0.18232177108E+01  0.29252533623E+02  0.51100000000E-03 0. -1.
         22    1    1    0    0    0 -0.35597131900E+02 -0.29208057526E+01 -0.24306321238E+01  0.35799369802E+02  0.00000000000E+00 0.  1.
</event>
<event>
 5    1  0.6622912E-004  0.9118800E+02  0.7818608E-02  0.1130116E+00
         25   -1    0    0    0    0  0.00000000000E+00  0.00000000000E+00  0.99999998245E-14  0.12500000000E+03  0.12500000000E+03 0.  0.
        -11    1    3    3    0    0 -0.40528566731E+02  0.38209171653E+02 -0.19963145872E+02  0.59169525205E+02  0.51100000000E-03 0. -1.
         23    2    1    0    0    0 -0.15646913096E+02  0.24125181881E+02  0.33363787894E+01  0.96052086195E+02  0.91586142777E+02 0.  0.
         11    1    3    3    0    0  0.24881653635E+02 -0.14083989772E+02  0.23299524661E+02  0.36882560990E+02  0.51100000000E-03 0.  1.
         22    1    1    0    0    0  0.15646913096E+02 -0.24125181881E+02 -0.33363787894E+01  0.28947913805E+02  0.00000000000E+00 0. -1.
</event>
<event>
 5    1  0.6622912E-004  0.9118800E+02  0.7818608E-02  0.1130116E+00
         25   -1    0    0    0    0  0.00000000000E+00  0.00000000000E+00  0.99999998245E-14  0.12500000000E+03  0.12500000000E+03 0.  0.
        -11    1    3    3    0    0  0.35777647460E+02 -0.13825485195E+02 -0.34882075560E+02  0.51845378717E+02  0.51100000000E-03 0. -1.
         23    2    1    0    0    0  0.24730593388E+02  0.14639775928E+02 -0.28158938168E+01  0.96123460274E+02  0.91683504888E+02 0.  0.
         11    1    3    3    0    0 -0.11047054072E+02  0.28465261123E+02  0.32066181744E+02  0.44278081557E+02  0.51100000000E-03 0.  1.
         22    1    1    0    0    0 -0.24730593388E+02 -0.14639775928E+02  0.28158938168E+01  0.28876539726E+02  0.00000000000E+00 0. -1.
</event>
<event>
 5    1  0.6622912E-004  0.9118800E+02  0.7818608E-02  0.1130116E+00
         25   -1    0    0    0    0  0.00000000000E+00  0.00000000000E+00  0.99999998245E-14  0.12500000000E+03  0.12500000000E+03 0.  0.
        -11    1    3    3    0    0 -0.45471581368E+02 -0.97790117041E+01  0.26981609913E+02  0.53770819742E+02  0.51100000000E-03 0.  1.
         23    2    1    0    0    0 -0.43479185683E+01 -0.88848215703E+01  0.28397988740E+02  0.94928581432E+02  0.90039687683E+02 0.  0.
         11    1    3    3    0    0  0.41123662800E+02  0.89419013375E+00  0.14163788273E+01  0.41157761690E+02  0.51100000000E-03 0. -1.
         22    1    1    0    0    0  0.43479185683E+01  0.88848215703E+01 -0.28397988740E+02  0.30071418568E+02  0.00000000000E+00 0.  1.
</event>
<event>
 5    1  0.6622912E-004  0.9118800E+02  0.7818608E-02  0.1130116E+00
         25   -1    0    0    0    0  0.00000000000E+00  0.00000000000E+00  0.99999998245E-14  0.12500000000E+03  0.12500000000E+03 0.  0.
        -11    1    3    3    0    0  0.41724012154E+02  0.27267731190E+02 -0.25684633443E+02  0.56072477650E+02  0.51100000000E-03 0.  1.
         23    2    1    0    0    0  0.29634071359E+02 -0.25006653312E+01 -0.36378507446E+01  0.95038934090E+02  0.90192757595E+02 0.  0.
         11    1    3    3    0    0 -0.12089940796E+02 -0.29768396521E+02  0.22046782699E+02  0.38966456440E+02  0.51100000000E-03 0. -1.
         22    1    1    0    0    0 -0.29634071359E+02  0.25006653312E+01  0.36378507446E+01  0.29961065910E+02  0.00000000000E+00 0.  1.
</event>
<event>
 5    1  0.6622912E-004  0.9118800E+02  0.7818608E-02  0.1130116E+00
         25   -1    0    0    0    0  0.00000000000E+00  0.00000000000E+00  0.99999998245E-14  0.12500000000E+03  0.12500000000E+03 0.  0.
        -11    1    3    3    0    0 -0.44322432335E+02  0.23754063346E+02 -0.24166299472E+02  0.55791966840E+02  0.51100000000E-03 0.  1.
         23    2    1    0    0    0 -0.21587811937E+02  0.18368488972E+02  0.79998152204E+01  0.95547800508E+02  0.90895270103E+02 0.  0.
         11    1    3    3    0    0  0.22734620398E+02 -0.53855743740E+01  0.32166114692E+02  0.39755833668E+02  0.51100000000E-03 0. -1.
         22    1    1    0    0    0  0.21587811937E+02 -0.18368488972E+02 -0.79998152204E+01  0.29452199492E+02  0.00000000000E+00 0.  1.
</event>
<event>
 5    1  0.6622912E-004  0.9118800E+02  0.7818608E-02  0.1130116E+00
         25   -1    0    0    0    0  0.00000000000E+00  0.00000000000E+00  0.99999998245E-14  0.12500000000E+03  0.12500000000E+03 0.  0.
        -11    1    3    3    0    0  0.47797658932E+02 -0.22278305157E+02  0.22828807826E+02  0.57463845565E+02  0.51100000000E-03 0.  1.
         23    2    1    0    0    0  0.89365013860E+01 -0.18127488334E+02  0.19869752202E+02  0.96657912164E+02  0.92409296291E+02 0.  0.
         11    1    3    3    0    0 -0.38861157546E+02  0.41508168226E+01 -0.29590556233E+01  0.39194066599E+02  0.51100000000E-03 0. -1.
         22    1    1    0    0    0 -0.89365013860E+01  0.18127488334E+02 -0.19869752202E+02  0.28342087836E+02  0.00000000000E+00 0.  1.
</event>
<event>
 5    1  0.6622912E-004  0.9118800E+02  0.7818608E-02  0.1130116E+00
         25   -1    0    0    0    0  0.00000000000E+00  0.00000000000E+00  0.99999998245E-14  0.12500000000E+03  0.12500000000E+03 0.  0.
        -11    1    3    3    0    0 -0.43580033515E+02  0.68394731690E+01  0.20160298870E+02  0.48501910944E+02  0.51100000000E-03 0.  1.
         23    2    1    0    0    0 -0.52719065934E+01  0.28304714295E+02  0.16337338572E+01  0.96162196048E+02  0.91736301496E+02 0.  0.
         11    1    3    3    0    0  0.38308126922E+02  0.21465241126E+02 -0.18526565012E+02  0.47660285105E+02  0.51100000000E-03 0. -1.
         22    1    1    0    0    0  0.52719065934E+01 -0.28304714295E+02 -0.16337338572E+01  0.28837803952E+02  0.00000000000E+00 0. -1.
</event>
<event>
 5    1  0.6622912E-004  0.9118800E+02  0.7818608E-02  0.1130116E+00
         25   -1    0    0    0    0  0.00000000000E+00  0.00000000000E+00  0.99999998245E-14  0.12500000000E+03  0.12500000000E+03 0.  0.
        -11    1    3    3    0    0  0.26222446166E+02  0.27281535913E+02  0.47795811961E+01  0.38141097013E+02  0.51100000000E-03 0.  1.
         23    2    1    0    0    0 -0.26525549852E+02  0.75641898646E+01 -0.87613302953E+01  0.96058979427E+02  0.91595550421E+02 0.  0.
         11    1    3    3    0    0 -0.52747996017E+02 -0.19717346049E+02 -0.13540911491E+02  0.57917882414E+02  0.51100000000E-03 0. -1.
         22    1    1    0    0    0  0.26525549852E+02 -0.75641898646E+01  0.87613302953E+01  0.28941020573E+02  0.00000000000E+00 0. -1.
</event>
<event>
 5    1  0.6622912E-004  0.9118800E+02  0.7818608E-02  0.1130116E+00
         25   -1    0    0    0    0  0.00000000000E+00  0.00000000000E+00  0.99999998245E-14  0.12500000000E+03  0.12500000000E+03 0.  0.
        -11    1    3    3    0    0 -0.37334841495E+02 -0.20392681725E+02  0.35851094040E+02  0.55633198736E+02  0.51100000000E-03 0. -1.
         23    2    1    0    0    0 -0.24148825324E-01 -0.16194150879E+02  0.25863209812E+02  0.94485139233E+02  0.89421948135E+02 0.  0.
         11    1    3    3    0    0  0.37310692670E+02  0.41985308458E+01 -0.99878842284E+01  0.38851940497E+02  0.51100000000E-03 0.  1.
         22    1    1    0    0    0  0.24148825324E-01  0.16194150879E+02 -0.25863209812E+02  0.30514860767E+02  0.00000000000E+00 0. -1.
</event>
<event>
 5    1  0.6622912E-004  0.9118800E+02  0.7818608E-02  0.1130116E+00
         25   -1    0    0    0    0  0.00000000000E+00  0.00000000000E+00  0.99999998245E-14  0.12500000000E+03  0.12500000000E+03 0.  0.
        -11    1    3    3    0    0  0.13194513416E+01 -0.41484123543E+02 -0.45539277340E+02  0.61615738565E+02  0.51100000000E-03 0.  1.
         23    2    1    0    0    0  0.23546092545E+00 -0.25563505066E+02 -0.17044791985E+02  0.94274226342E+02  0.89126632301E+02 0.  0.
         11    1    3    3    0    0 -0.10839904161E+01  0.15920618477E+02  0.28494485356E+02  0.32658487777E+02  0.51100000000E-03 0. -1.
         22    1    1    0    0    0 -0.23546092545E+00  0.25563505066E+02  0.17044791985E+02  0.30725773658E+02  0.00000000000E+00 0.  1.
</event>
<event>
 5    1  0.6622912E-004  0.9118800E+02  0.7818608E-02  0.1130116E+00
         25   -1    0    0    0    0  0.00000000000E+00  0.00000000000E+00  0.99999998245E-14  0.12500000000E+03  0.12500000000E+03 0.  0.
        -11    1    3    3    0    0 -0.62793064204E+01 -0.21020494287E+02 -0.26833697307E+02  0.34660325743E+02  0.51100000000E-03 0. -1.
         23    2    1    0    0    0 -0.14195076506E+02  0.18040837753E+02  0.18857753684E+02  0.95291635894E+02  0.90542304883E+02 0.  0.
         11    1    3    3    0    0 -0.79157700852E+01  0.39061332040E+02  0.45691450991E+02  0.60631310151E+02  0.51100000000E-03 0.  1.
         22    1    1    0    0    0  0.14195076506E+02 -0.18040837753E+02 -0.18857753684E+02  0.29708364106E+02  0.00000000000E+00 0.  1.
</event>
<event>
 5    1  0.6622912E-004  0.9118800E+02  0.7818608E-02  0.1130116E+00
         25   -1    0    0    0    0  0.00000000000E+00  0.00000000000E+00  0.99999998245E-14  0.12500000000E+03  0.12500000000E+03 0.  0.
        -11    1    3    3    0    0 -0.40845157290E+02 -0.10739362219E+02 -0.32779443176E+02  0.53461693484E+02  0.51100000000E-03 0. -1.
         23    2    1    0    0    0 -0.23891827375E+02 -0.29287593669E+02 -0.24662532960E+02  0.79868823522E+02  0.65895416234E+02 0.  0.
         11    1    3    3    0    0  0.16953329915E+02 -0.18548231450E+02  0.81169102164E+01  0.26407130039E+02  0.51100000000E-03 0.  1.
         22    1    1    0    0    0  0.23891827375E+02  0.29287593669E+02  0.24662532960E+02  0.45131176478E+02  0.00000000000E+00 0. -1.
</event>
<event>
 5    1  0.6622912E-004  0.9118800E+02  0.7818608E-02  0.1130116E+00
         25   -1    0    0    0    0  0.00000000000E+00  0.00000000000E+00  0.99999998245E-14  0.12500000000E+03  0.12500000000E+03 0.  0.
        -11    1    3    3    0    0 -0.29443362468E+02  0.29102369855E+02 -0.22283599887E+01  0.41458715768E+02  0.51100000000E-03 0.  1.
         23    2    1    0    0    0 -0.11899133881E+02 -0.16299846670E+02  0.21417522264E+02  0.95572382894E+02  0.90929069739E+02 0.  0.
         11    1    3    3    0    0  0.17544228587E+02 -0.45402216525E+02  0.23645882252E+02  0.54113667127E+02  0.51100000000E-03 0. -1.
         22    1    1    0    0    0  0.11899133881E+02  0.16299846670E+02 -0.21417522264E+02  0.29427617106E+02  0.00000000000E+00 0. -1.
</event>
<event>
 5    1  0.6622912E-004  0.9118800E+02  0.7818608E-02  0.1130116E+00
         25   -1    0    0    0    0  0.00000000000E+00  0.00000000000E+00  0.99999998245E-14  0.12500000000E+03  0.12500000000E+03 0.  0.
        -11    1    3    3    0    0  0.33430771591E+02 -0.40860271257E+02  0.32215254072E+02  0.61846591269E+02  0.51100000000E-03 0. -1.
         23    2    1    0    0    0  0.12700981218E+02 -0.24816677225E+02  0.13711787780E+02  0.93932404076E+02  0.88645930640E+02 0.  0.
         11    1    3    3    0    0 -0.20729790373E+02  0.16043594032E+02 -0.18503466292E+02  0.32085812807E+02  0.51100000000E-03 0.  1.
         22    1    1    0    0    0 -0.12700981218E+02  0.24816677225E+02 -0.13711787780E+02  0.31067595924E+02  0.00000000000E+00 0. -1.
</event>
<event>
 5    1  0.6622912E-004  0.9118800E+02  0.7818608E-02  0.1130116E+00
         25   -1    0    0    0    0  0.00000000000E+00  0.00000000000E+00  0.99999998245E-14  0.12500000000E+03  0.12500000000E+03 0.  0.
        -11    1    3    3    0    0 -0.43841478197E+02 -0.10723664924E+02 -0.33246255064E+02  0.56056985969E+02  0.51100000000E-03 0. -1.
         23    2    1    0    0    0 -0.23509330370E+02  0.14519917182E+02 -0.11610502442E+02  0.95028006801E+02  0.90177611967E+02 0.  0.
         11    1    3    3    0    0  0.20332147827E+02  0.25243582106E+02  0.21635752623E+02  0.38971020831E+02  0.51100000000E-03 0.  1.
         22    1    1    0    0    0  0.23509330370E+02 -0.14519917182E+02  0.11610502442E+02  0.29971993199E+02  0.00000000000E+00 0. -1.
</event>
<event>
 5    1  0.6622912E-004  0.9118800E+02  0.7818608E-02  0.1130116E+00
         25   -1    0    0    0    0  0.00000000000E+00  0.00000000000E+00  0.99999998245E-14  0.12500000000E+03  0.12500000000E+03 0.  0.
        -11    1    3    3    0    0  0.64989863034E+01 -0.43394558553E+02 -0.24790581196E+02  0.50397395282E+02  0.51100000000E-03 0.  1.
         23    2    1    0    0    0 -0.14730591123E+02 -0.60189708003E+00 -0.22345492590E+02  0.98229239196E+02  0.94510897779E+02 0.  0.
         11    1    3    3    0    0 -0.21229577427E+02  0.42792661473E+02  0.24450886055E+01  0.47831843913E+02  0.51100000000E-03 0. -1.
         22    1    1    0    0    0  0.14730591123E+02  0.60189708003E+00  0.22345492590E+02  0.26770760804E+02  0.00000000000E+00 0.  1.
</event>
<event>
 5    1  0.6622912E-004  0.9118800E+02  0.7818608E-02  0.1130116E+00
         25   -1    0    0    0    0  0.00000000000E+00  0.00000000000E+00  0.99999998245E-14  0.12500000000E+03  0.12500000000E+03 0.  0.
        -11    1    3    3    0    0 -0.25520489253E+02 -0.20419942580E+01  0.25258746837E+02  0.35964835663E+02  0.51100000000E-03 0.  1.
         23    2    1    0    0    0  0.26762355530E+01  0.80240428502E+01 -0.27281777424E+02  0.96437036572E+02  0.92110038231E+02 0.  0.
         11    1    3    3    0    0  0.28196724806E+02  0.10066037108E+02 -0.52540524261E+02  0.60472200908E+02  0.51100000000E-03 0. -1.
         22    1    1    0    0    0 -0.26762355530E+01 -0.80240428502E+01  0.27281777424E+02  0.28562963428E+02  0.00000000000E+00 0. -1.
</event>
<event>
 5    1  0.6622912E-004  0.9118800E+02  0.7818608E-02  0.1130116E+00
         25   -1    0    0    0    0  0.00000000000E+00  0.00000000000E+00  0.99999998245E-14  0.12500000000E+03  0.12500000000E+03 0.  0.
        -11    1    3    3    0    0  0.40764620350E+02  0.40498682766E+02 -0.88931711650E+01  0.58146247271E+02  0.51100000000E-03 0. -1.
         23    2    1    0    0    0  0.25300888568E+02  0.10360260914E+02  0.86904395780E+01  0.96312133077E+02  0.91940378883E+02 0.  0.
         11    1    3    3    0    0 -0.15463731782E+02 -0.30138421852E+02  0.17583610743E+02  0.38165885806E+02  0.51100000000E-03 0.  1.
         22    1    1    0    0    0 -0.25300888568E+02 -0.10360260914E+02 -0.86904395780E+01  0.28687866923E+02  0.00000000000E+00 0. -1.
</event>
<event>
 5    1  0.6622912E-004  0.9118800E+02  0.7818608E-02  0.1130116E+00
         25   -1    0    0    0    0  0.00000000000E+00  0.00000000000E+00  0.99999998245E-14  0.12500000000E+03  0.12500000000E+03 0.  0.
        -11    1    3    3    0    0 -0.23131265006E+02 -0.20584719710E+02 -0.13598900597E+02  0.33818873488E+02  0.51100000000E-03 0. -1.
         23    2    1    0    0    0  0.17401764186E+02  0.21347747659E+02 -0.17663724291E+02  0.92280665002E+02  0.86285376806E+02 0.  0.
         11    1    3    3    0    0  0.40533029191E+02  0.41932467369E+02 -0.40648236940E+01  0.58461791514E+02  0.51100000000E-03 0.  1.
         22    1    1    0    0    0 -0.17401764186E+02 -0.21347747659E+02  0.17663724291E+02  0.32719334998E+02  0.00000000000E+00 0.  1.
</event>
<event>
 5    1  0.6622912E-004  0.9118800E+02  0.7818608E-02  0.1130116E+00
         25   -1    0    0    0    0  0.00000000000E+00  0.00000000000E+00  0.99999998245E-14  0.12500000000E+03  0.12500000000E+03 0.  0.
        -11    1    3    3    0    0  0.84854874881E+01  0.15701294642E+02  0.27779251395E+02  0.33018494206E+02  0.51100000000E-03 0.  1.
         23    2    1    0    0    0 -0.65595151087E+01 -0.17331853792E+02 -0.23016458756E+02  0.95450418480E+02  0.90761250653E+02 0.  0.
         11    1    3    3    0    0 -0.15045002597E+02 -0.33033148434E+02 -0.50795710151E+02  0.62431924274E+02  0.51100000000E-03 0. -1.
         22    1    1    0    0    0  0.65595151087E+01  0.17331853792E+02  0.23016458756E+02  0.29549581520E+02  0.00000000000E+00 0. -1.
</event>
<event>
 5    1  0.6622912E-004  0.9118800E+02  0.7818608E-02  0.1130116E+00
         25   -1    0    0    0    0  0.00000000000E+00  0.00000000000E+00  0.99999998245E-14  0.12500000000E+03  0.12500000000E+03 0.  0.
        -11    1    3    3    0    0  0.26892010881E+02  0.16271243653E+02 -0.25991146893E+02  0.40785700145E+02  0.51100000000E-03 0.  1.
         23    2    1    0    0    0 -0.10522980140E+02 -0.23316392464E+02 -0.97179023486E+01  0.97635334926E+02  0.93722109086E+02 0.  0.
         11    1    3    3    0    0 -0.37414991021E+02 -0.39587636117E+02  0.16273244545E+02  0.56849634781E+02  0.51100000000E-03 0. -1.
         22    1    1    0    0    0  0.10522980140E+02  0.23316392464E+02  0.97179023486E+01  0.27364665074E+02  0.00000000000E+00 0. -1.
</event>
<event>
 5    1  0.6622912E-004  0.9118800E+02  0.7818608E-02  0.1130116E+00
         25   -1    0    0    0    0  0.00000000000E+00  0.00000000000E+00  0.99999998245E-14  0.12500000000E+03  0.12500000000E+03 0.  0.
        -11    1    3    3    0    0  0.43220296787E+01  0.15652551961E+02 -0.10416950166E+01  0.16271676380E+02  0.51100000000E-03 0. -1.
         23    2    1    0    0    0  0.33257483825E+02 -0.36223615129E+02  0.23484232651E+01  0.75768652109E+02  0.57594817711E+02 0.  0.
         11    1    3    3    0    0  0.28935454146E+02 -0.51876167090E+02  0.33901182817E+01  0.59496975729E+02  0.51100000000E-03 0.  1.
         22    1    1    0    0    0 -0.33257483825E+02  0.36223615129E+02 -0.23484232651E+01  0.49231347891E+02  0.00000000000E+00 0.  1.
</event>
<event>
 5    1  0.6622912E-004  0.9118800E+02  0.7818608E-02  0.1130116E+00
         25   -1    0    0    0    0  0.00000000000E+00  0.00000000000E+00  0.99999998245E-14  0.12500000000E+03  0.12500000000E+03 0.  0.
        -11    1    3    3    0    0 -0.31915665556E+01 -0.60617420051E+02  0.14421450767E+02  0.62390992565E+02  0.51100000000E-03 0.  1.
         23    2    1    0    0    0 -0.33290000003E+01 -0.25116595615E+02  0.76687279471E+01  0.98528600252E+02  0.94906006464E+02 0.  0.
         11    1    3    3    0    0 -0.13743344470E+00  0.35500824436E+02 -0.67527228195E+01  0.36137607687E+02  0.51100000000E-03 0. -1.
         22    1    1    0    0    0  0.33290000003E+01  0.25116595615E+02 -0.76687279471E+01  0.26471399748E+02  0.00000000000E+00 0.  1.
</event>
<event>
 5    1  0.6622912E-004  0.9118800E+02  0.7818608E-02  0.1130116E+00
         25   -1    0    0    0    0  0.00000000000E+00  0.00000000000E+00  0.99999998245E-14  0.12500000000E+03  0.12500000000E+03 0.  0.
        -11    1    3    3    0    0  0.28062519885E+02 -0.20066578287E+02  0.17850028728E+02  0.38843224793E+02  0.51100000000E-03 0.  1.
         23    2    1    0    0    0 -0.26504942755E+02 -0.34478281823E+01  0.10180682156E+02  0.96398500061E+02  0.92057726537E+02 0.  0.
         11    1    3    3    0    0 -0.54567462640E+02  0.16618750105E+02 -0.76693465718E+01  0.57555275268E+02  0.51100000000E-03 0. -1.
         22    1    1    0    0    0  0.26504942755E+02  0.34478281823E+01 -0.10180682156E+02  0.28601499939E+02  0.00000000000E+00 0. -1.
</event>
<event>
 5    1  0.6622912E-004  0.9118800E+02  0.7818608E-02  0.1130116E+00
         25   -1    0    0    0    0  0.00000000000E+00  0.00000000000E+00  0.99999998245E-14  0.12500000000E+03  0.12500000000E+03 0.  0.
        -11    1    3    3    0    0 -0.21844350979E+02  0.24771110831E+02 -0.46859687109E+02  0.57328996832E+02  0.51100000000E-03 0. -1.
         23    2    1    0    0    0  0.62828787235E+01  0.11241753883E+02 -0.28951138706E+02  0.93313724931E+02  0.87769192959E+02 0.  0.
         11    1    3    3    0    0  0.28127229703E+02 -0.13529356948E+02  0.17908548404E+02  0.35984728099E+02  0.51100000000E-03 0.  1.
         22    1    1    0    0    0 -0.62828787235E+01 -0.11241753883E+02  0.28951138706E+02  0.31686275069E+02  0.00000000000E+00 0. -1.
</event>
<event>
 5    1  0.6622912E-004  0.9118800E+02  0.7818608E-02  0.1130116E+00
         25   -1    0    0    0    0  0.00000000000E+00  0.00000000000E+00  0.99999998245E-14  0.12500000000E+03  0.12500000000E+03 0.  0.
        -11    1    3    3    0    0 -0.31028593617E+02  0.20124084025E+02  0.40330230275E+01  0.37202387756E+02  0.51100000000E-03 0.  1.
         23    2    1    0    0    0 -0.43583787160E+01 -0.28560430479E+02 -0.99430137462E+01  0.94445832092E+02  0.89366985084E+02 0.  0.
         11    1    3    3    0    0  0.26670214901E+02 -0.48684514504E+02 -0.13976036774E+02  0.57243444337E+02  0.51100000000E-03 0. -1.
         22    1    1    0    0    0  0.43583787160E+01  0.28560430479E+02  0.99430137462E+01  0.30554167908E+02  0.00000000000E+00 0. -1.
</event>
<event>
 5    1  0.6622912E-004  0.9118800E+02  0.7818608E-02  0.1130116E+00
         25   -1    0    0    0    0  0.00000000000E+00  0.00000000000E+00  0.99999998245E-14  0.12500000000E+03  0.12500000000E+03 0.  0.
        -11    1    3    3    0    0  0.32775865497E-01 -0.12863207387E+02  0.31032567203E+02  0.33592907079E+02  0.51100000000E-03 0. -1.
         23    2    1    0    0    0 -0.96859693007E+01  0.88630973750E+01 -0.26264529465E+02  0.95636791653E+02  0.91017569256E+02 0.  0.
         11    1    3    3    0    0 -0.97187451662E+01  0.21726304762E+02 -0.57297096668E+02  0.62043884575E+02  0.51100000000E-03 0.  1.
         22    1    1    0    0    0  0.96859693007E+01 -0.88630973750E+01  0.26264529465E+02  0.29363208347E+02  0.00000000000E+00 0.  1.
</event>
<event>
 5    1  0.6622912E-004  0.9118800E+02  0.7818608E-02  0.1130116E+00
         25   -1    0    0    0    0  0.00000000000E+00  0.00000000000E+00  0.99999998245E-14  0.12500000000E+03  0.12500000000E+03 0.  0.
        -11    1    3    3    0    0  0.39366205353E+01  0.21292060483E+01 -0.33323461658E+02  0.33622664927E+02  0.51100000000E-03 0.  1.
         23    2    1    0    0    0 -0.23656917504E+00  0.22410046519E+02  0.22548830015E+02  0.93208241870E+02  0.87618836259E+02 0.  0.
         11    1    3    3    0    0 -0.41731897103E+01  0.20280840471E+02  0.55872291673E+02  0.59585576943E+02  0.51100000000E-03 0. -1.
         22    1    1    0    0    0  0.23656917504E+00 -0.22410046519E+02 -0.22548830015E+02  0.31791758130E+02  0.00000000000E+00 0. -1.
</event>
<event>
 5    1  0.6622912E-004  0.9118800E+02  0.7818608E-02  0.1130116E+00
         25   -1    0    0    0    0  0.00000000000E+00  0.00000000000E+00  0.99999998245E-14  0.12500000000E+03  0.12500000000E+03 0.  0.
        -11    1    3    3    0    0  0.38531782722E+02  0.33303036635E+02  0.32247459244E+02  0.60280089224E+02  0.51100000000E-03 0. -1.
         23    2    1    0    0    0  0.23171947328E+02  0.13275588100E+02  0.42776396651E+01  0.97954139254E+02  0.94146347851E+02 0.  0.
         11    1    3    3    0    0 -0.15359835394E+02 -0.20027448535E+02 -0.27969819579E+02  0.37674050031E+02  0.51100000000E-03 0.  1.
         22    1    1    0    0    0 -0.23171947328E+02 -0.13275588100E+02 -0.42776396651E+01  0.27045860746E+02  0.00000000000E+00 0. -1.
</event>
<event>
 5    1  0.6622912E-004  0.9118800E+02  0.7818608E-02  0.1130116E+00
         25   -1    0    0    0    0  0.00000000000E+00  0.00000000000E+00  0.99999998245E-14  0.12500000000E+03  0.12500000000E+03 0.  0.
        -11    1    3    3    0    0 -0.27246542843E+02 -0.17718411182E+02  0.12835645801E+01  0.32526354392E+02  0.51100000000E-03 0.  1.
         23    2    1    0    0    0  0.60894133239E+01  0.29523118538E+02 -0.13137944740E+02  0.92116857285E+02  0.86047744429E+02 0.  0.
         11    1    3    3    0    0  0.33335956167E+02  0.47241529719E+02 -0.14421509320E+02  0.59590502894E+02  0.51100000000E-03 0. -1.
         22    1    1    0    0    0 -0.60894133239E+01 -0.29523118538E+02  0.13137944740E+02  0.32883142715E+02  0.00000000000E+00 0. -1.
</event>
<event>
 5    1  0.6622912E-004  0.9118800E+02  0.7818608E-02  0.1130116E+00
         25   -1    0    0    0    0  0.00000000000E+00  0.00000000000E+00  0.99999998245E-14  0.12500000000E+03  0.12500000000E+03 0.  0.
        -11    1    3    3    0    0  0.38192128292E+02 -0.16992971286E+02 -0.32632039820E+02  0.53030649248E+02  0.51100000000E-03 0.  1.
         23    2    1    0    0    0  0.27798601176E+02  0.88881815199E+01 -0.18835866581E+00  0.95814430328E+02  0.91261205241E+02 0.  0.
         11    1    3    3    0    0 -0.10393527116E+02  0.25881152805E+02  0.32443681154E+02  0.42783781081E+02  0.51100000000E-03 0. -1.
         22    1    1    0    0    0 -0.27798601176E+02 -0.88881815199E+01  0.18835866581E+00  0.29185569672E+02  0.00000000000E+00 0.  1.
</event>
<event>
 5    1  0.6622912E-004  0.9118800E+02  0.7818608E-02  0.1130116E+00
         25   -1    0    0    0    0  0.00000000000E+00  0.00000000000E+00  0.99999998245E-14  0.12500000000E+03  0.12500000000E+03 0.  0.
        -11    1    3    3    0    0  0.68783612198E+01  0.50248311602E+02  0.20278310385E+02  0.54620642108E+02  0.51100000000E-03 0. -1.
         23    2    1    0    0    0 -0.12449458684E+02  0.20510464124E+02 -0.77075496973E+01  0.99799315834E+02  0.96565153955E+02 0.  0.
         11    1    3    3    0    0 -0.19327819904E+02 -0.29737847478E+02 -0.27985860083E+02  0.45178673726E+02  0.51100000000E-03 0.  1.
         22    1    1    0    0    0  0.12449458684E+02 -0.20510464124E+02  0.77075496973E+01  0.25200684166E+02  0.00000000000E+00 0. -1.
</event>
<event>
 5    1  0.6622912E-004  0.9118800E+02  0.7818608E-02  0.1130116E+00
         25   -1    0    0    0    0  0.00000000000E+00  0.00000000000E+00  0.99999998245E-14  0.12500000000E+03  0.12500000000E+03 0.  0.
        -11    1    3    3    0    0  0.25985979062E+02  0.10091889494E+02 -0.24443929282E+02  0.37075908895E+02  0.51100000000E-03 0.  1.
         23    2    1    0    0    0  0.76585992308E+01 -0.16645431252E+02  0.23655217423E+02  0.95078538888E+02  0.90247630007E+02 0.  0.
         11    1    3    3    0    0 -0.18327379831E+02 -0.26737320746E+02  0.48099146705E+02  0.58002629993E+02  0.51100000000E-03 0. -1.
         22    1    1    0    0    0 -0.76585992308E+01  0.16645431252E+02 -0.23655217423E+02  0.29921461112E+02  0.00000000000E+00 0. -1.
</event>
<event>
 5    1  0.6622912E-004  0.9118800E+02  0.7818608E-02  0.1130116E+00
         25   -1    0    0    0    0  0.00000000000E+00  0.00000000000E+00  0.99999998245E-14  0.12500000000E+03  0.12500000000E+03 0.  0.
        -11    1    3    3    0    0  0.10776525191E+02 -0.51330711142E+02  0.74830780984E+01  0.52980863145E+02  0.51100000000E-03 0.  1.
         23    2    1    0    0    0  0.14598009034E+02 -0.10289086924E+02  0.21983455620E+02  0.96676167306E+02  0.92433986317E+02 0.  0.
         11    1    3    3    0    0  0.38214838428E+01  0.41041624218E+02  0.14500377522E+02  0.43695304161E+02  0.51100000000E-03 0. -1.
         22    1    1    0    0    0 -0.14598009034E+02  0.10289086924E+02 -0.21983455620E+02  0.28323832694E+02  0.00000000000E+00 0.  1.
</event>
<event>
 5    1  0.6622912E-004  0.9118800E+02  0.7818608E-02  0.1130116E+00
         25   -1    0    0    0    0  0.00000000000E+00  0.00000000000E+00  0.99999998245E-14  0.12500000000E+03  0.12500000000E+03 0.  0.
        -11    1    3    3    0    0 -0.36820294306E+02  0.30758197045E+02 -0.23149190178E+02  0.53269933024E+02  0.51100000000E-03 0. -1.
         23    2    1    0    0    0 -0.15869702007E+02  0.21864958004E+02  0.12234711306E+02  0.95341746662E+02  0.90611459902E+02 0.  0.
         11    1    3    3    0    0  0.20950592299E+02 -0.88932390410E+01  0.35383901484E+02  0.42071813638E+02  0.51100000000E-03 0.  1.
         22    1    1    0    0    0  0.15869702007E+02 -0.21864958004E+02 -0.12234711306E+02  0.29658253338E+02  0.00000000000E+00 0. -1.
</event>
<event>
 5    1  0.6622912E-004  0.9118800E+02  0.7818608E-02  0.1130116E+00
         25   -1    0    0    0    0  0.00000000000E+00  0.00000000000E+00  0.99999998245E-14  0.12500000000E+03  0.12500000000E+03 0.  0.
        -11    1    3    3    0    0  0.11566510916E+02  0.36588036708E+02 -0.76518879910E+01  0.39128250599E+02  0.51100000000E-03 0. -1.
         23    2    1    0    0    0 -0.26592302958E+02 -0.50331214964E+01 -0.11208991588E+02  0.95706239896E+02  0.91112896859E+02 0.  0.
         11    1    3    3    0    0 -0.38158813875E+02 -0.41621158204E+02 -0.35571035965E+01  0.56577989296E+02  0.51100000000E-03 0.  1.
         22    1    1    0    0    0  0.26592302958E+02  0.50331214964E+01  0.11208991588E+02  0.29293760104E+02  0.00000000000E+00 0.  1.
</event>
<event>
 5    1  0.6622912E-004  0.9118800E+02  0.7818608E-02  0.1130116E+00
         25   -1    0    0    0    0  0.00000000000E+00  0.00000000000E+00  0.99999998245E-14  0.12500000000E+03  0.12500000000E+03 0.  0.
        -11    1    3    3    0    0  0.17119504052E+02 -0.14758996187E+02  0.37997908605E+02  0.44212514586E+02  0.51100000000E-03 0.  1.
         23    2    1    0    0    0  0.59860399408E+01 -0.59406179129E+01 -0.19667178983E+02  0.10360089851E+03  0.10136678267E+03 0.  0.
         11    1    3    3    0    0 -0.11133464111E+02  0.88183782745E+01 -0.57665087588E+02  0.59388383925E+02  0.51100000000E-03 0. -1.
         22    1    1    0    0    0 -0.59860399408E+01  0.59406179129E+01  0.19667178983E+02  0.21399101488E+02  0.00000000000E+00 0. -1.
</event>
<event>
 5    1  0.6622912E-004  0.9118800E+02  0.7818608E-02  0.1130116E+00
         25   -1    0    0    0    0  0.00000000000E+00  0.00000000000E+00  0.99999998245E-14  0.12500000000E+03  0.12500000000E+03 0.  0.
        -11    1    3    3    0    0 -0.46311123564E+02 -0.73079195064E+01 -0.62807008050E+01  0.47302992042E+02  0.51100000000E-03 0.  1.
         23    2    1    0    0    0  0.87452278570E+01 -0.13822917548E+02  0.10899231216E+02  0.10534433158E+03  0.10349436166E+03 0.  0.
         11    1    3    3    0    0  0.55056351420E+02 -0.65149980420E+01  0.17179932021E+02  0.58041339541E+02  0.51100000000E-03 0. -1.
         22    1    1    0    0    0 -0.87452278570E+01  0.13822917548E+02 -0.10899231216E+02  0.19655668417E+02  0.00000000000E+00 0. -1.
</event>
<event>
 5    1  0.6622912E-004  0.9118800E+02  0.7818608E-02  0.1130116E+00
         25   -1    0    0    0    0  0.00000000000E+00  0.00000000000E+00  0.99999998245E-14  0.12500000000E+03  0.12500000000E+03 0.  0.
        -11    1    3    3    0    0  0.99521538505E+01  0.18798124793E+02 -0.32650644566E+02  0.38967671894E+02  0.51100000000E-03 0.  1.
         23    2    1    0    0    0  0.80936292068E+01 -0.17669988091E+02  0.16019812862E+02  0.99813302777E+02  0.96583257837E+02 0.  0.
         11    1    3    3    0    0 -0.18585246437E+01 -0.36468112883E+02  0.48670457428E+02  0.60845630883E+02  0.51100000000E-03 0. -1.
         22    1    1    0    0    0 -0.80936292068E+01  0.17669988091E+02 -0.16019812862E+02  0.25186697223E+02  0.00000000000E+00 0. -1.
</event>
<event>
 5    1  0.6622912E-004  0.9118800E+02  0.7818608E-02  0.1130116E+00
         25   -1    0    0    0    0  0.00000000000E+00  0.00000000000E+00  0.99999998245E-14  0.12500000000E+03  0.12500000000E+03 0.  0.
        -11    1    3    3    0    0 -0.33234367848E+02  0.25292247159E+02  0.74977038708E+01  0.42431551188E+02  0.51100000000E-03 0. -1.
         23    2    1    0    0    0 -0.12083406238E+02 -0.24126192662E+02  0.99473799361E+01  0.96241831660E+02  0.91844748979E+02 0.  0.
         11    1    3    3    0    0  0.21150961611E+02 -0.49418439821E+02  0.24496760653E+01  0.53810280472E+02  0.51100000000E-03 0.  1.
         22    1    1    0    0    0  0.12083406238E+02  0.24126192662E+02 -0.99473799361E+01  0.28758168340E+02  0.00000000000E+00 0.  1.
</event>
<event>
 5    1  0.6622912E-004  0.9118800E+02  0.7818608E-02  0.1130116E+00
         25   -1    0    0    0    0  0.00000000000E+00  0.00000000000E+00  0.99999998245E-14  0.12500000000E+03  0.12500000000E+03 0.  0.
        -11    1    3    3    0    0  0.40702059777E+01  0.53474716232E+02 -0.21922881574E+02  0.57937246997E+02  0.51100000000E-03 0. -1.
         23    2    1    0    0    0  0.17609389139E+02  0.27963758870E+02 -0.18783274424E+02  0.86988504448E+02  0.78244016462E+02 0.  0.
         11    1    3    3    0    0  0.13539183161E+02 -0.25510957362E+02  0.31396071500E+01  0.29051257451E+02  0.51100000000E-03 0.  1.
         22    1    1    0    0    0 -0.17609389139E+02 -0.27963758870E+02  0.18783274424E+02  0.38011495552E+02  0.00000000000E+00 0. -1.
</event>
<event>
 5    1  0.6622912E-004  0.9118800E+02  0.7818608E-02  0.1130116E+00
         25   -1    0    0    0    0  0.00000000000E+00  0.00000000000E+00  0.99999998245E-14  0.12500000000E+03  0.12500000000E+03 0.  0.
        -11    1    3    3    0    0  0.29141019651E+02 -0.17761945740E+02 -0.48980503797E+01  0.34477190149E+02  0.51100000000E-03 0. -1.
         23    2    1    0    0    0 -0.99159809375E+01  0.28298181135E+02 -0.85653705427E+00  0.95002543621E+02  0.90142309185E+02 0.  0.
         11    1    3    3    0    0 -0.39057000589E+02  0.46060126875E+02  0.40415133254E+01  0.60525353472E+02  0.51100000000E-03 0.  1.
         22    1    1    0    0    0  0.99159809375E+01 -0.28298181135E+02  0.85653705427E+00  0.29997456379E+02  0.00000000000E+00 0.  1.
</event>
<event>
 5    1  0.6622912E-004  0.9118800E+02  0.7818608E-02  0.1130116E+00
         25   -1    0    0    0    0  0.00000000000E+00  0.00000000000E+00  0.99999998245E-14  0.12500000000E+03  0.12500000000E+03 0.  0.
        -11    1    3    3    0    0 -0.11743019819E+02  0.26763419380E+02  0.21767779184E+02  0.36441944820E+02  0.51100000000E-03 0.  1.
         23    2    1    0    0    0  0.24349958360E+02 -0.10108425848E+02 -0.97345602519E+01  0.96895509104E+02  0.92730131435E+02 0.  0.
         11    1    3    3    0    0  0.36092978179E+02 -0.36871845228E+02 -0.31502339436E+02  0.60453564283E+02  0.51100000000E-03 0. -1.
         22    1    1    0    0    0 -0.24349958360E+02  0.10108425848E+02  0.97345602519E+01  0.28104490896E+02  0.00000000000E+00 0. -1.
</event>
<event>
 5    1  0.6622912E-004  0.9118800E+02  0.7818608E-02  0.1130116E+00
         25   -1    0    0    0    0  0.00000000000E+00  0.00000000000E+00  0.99999998245E-14  0.12500000000E+03  0.12500000000E+03 0.  0.
        -11    1    3    3    0    0 -0.53146357749E+02  0.94130678453E+01 -0.15577883794E+01  0.53995998862E+02  0.51100000000E-03 0. -1.
         23    2    1    0    0    0 -0.19337478132E+02 -0.30937088925E+01  0.20813670534E+02  0.96421721949E+02  0.92089252833E+02 0.  0.
         11    1    3    3    0    0  0.33808879617E+02 -0.12506776738E+02  0.22371458913E+02  0.42425723087E+02  0.51100000000E-03 0.  1.
         22    1    1    0    0    0  0.19337478132E+02  0.30937088925E+01 -0.20813670534E+02  0.28578278051E+02  0.00000000000E+00 0. -1.
</event>
<event>
 5    1  0.6622912E-004  0.9118800E+02  0.7818608E-02  0.1130116E+00
         25   -1    0    0    0    0  0.00000000000E+00  0.00000000000E+00  0.99999998245E-14  0.12500000000E+03  0.12500000000E+03 0.  0.
        -11    1    3    3    0    0  0.59978564192E+01 -0.60909107426E+02  0.65177783999E+01  0.61549777291E+02  0.51100000000E-03 0. -1.
         23    2    1    0    0    0 -0.31297575647E+00 -0.20624688599E+02  0.92013058451E+01  0.10241372623E+03  0.99892099573E+02 0.  0.
         11    1    3    3    0    0 -0.63108321757E+01  0.40284418827E+02  0.26835274452E+01  0.40863948938E+02  0.51100000000E-03 0.  1.
         22    1    1    0    0    0  0.31297575647E+00  0.20624688599E+02 -0.92013058451E+01  0.22586273771E+02  0.00000000000E+00 0. -1.
</event>
<event>
 5    1  0.6622912E-004  0.9118800E+02  0.7818608E-02  0.1130116E+00
         25   -1    0    0    0    0  0.00000000000E+00  0.00000000000E+00  0.99999998245E-14  0.12500000000E+03  0.12500000000E+03 0.  0.
        -11    1    3    3    0    0 -0.50770109015E+02  0.19043642250E+02 -0.25150461910E+02  0.59772987328E+02  0.51100000000E-03 0.  1.
         23    2    1    0    0    0 -0.19723046627E+02  0.16156280569E+01 -0.21835930374E+02  0.95531089644E+02  0.90872286265E+02 0.  0.
         11    1    3    3    0    0  0.31047062389E+02 -0.17428014193E+02  0.33145315360E+01  0.35758102316E+02  0.51100000000E-03 0. -1.
         22    1    1    0    0    0  0.19723046627E+02 -0.16156280569E+01  0.21835930374E+02  0.29468910356E+02  0.00000000000E+00 0.  1.
</event>
<event>
 5    1  0.6622912E-004  0.9118800E+02  0.7818608E-02  0.1130116E+00
         25   -1    0    0    0    0  0.00000000000E+00  0.00000000000E+00  0.99999998245E-14  0.12500000000E+03  0.12500000000E+03 0.  0.
        -11    1    3    3    0    0 -0.39082507708E+02 -0.12551578762E+02 -0.46489943761E+02  0.62018540851E+02  0.51100000000E-03 0. -1.
         23    2    1    0    0    0 -0.16154167755E+02 -0.74560301080E+01 -0.27611432491E+02  0.92152766859E+02  0.86099893813E+02 0.  0.
         11    1    3    3    0    0  0.22928339952E+02  0.50955486536E+01  0.18878511270E+02  0.30134226008E+02  0.51100000000E-03 0.  1.
         22    1    1    0    0    0  0.16154167755E+02  0.74560301080E+01  0.27611432491E+02  0.32847233141E+02  0.00000000000E+00 0. -1.
</event>
<event>
 5    1  0.6622912E-004  0.9118800E+02  0.7818608E-02  0.1130116E+00
         25   -1    0    0    0    0  0.00000000000E+00  0.00000000000E+00  0.99999998245E-14  0.12500000000E+03  0.12500000000E+03 0.  0.
        -11    1    3    3    0    0 -0.43065934516E+02  0.22893283216E+02 -0.20409619736E+01  0.48815393660E+02  0.51100000000E-03 0.  1.
         23    2    1    0    0    0 -0.32892817366E+01  0.19299700541E+02 -0.23708315167E+02  0.94252934719E+02  0.89096765821E+02 0.  0.
         11    1    3    3    0    0  0.39776652780E+02 -0.35935826749E+01 -0.21667353194E+02  0.45437541059E+02  0.51100000000E-03 0. -1.
         22    1    1    0    0    0  0.32892817366E+01 -0.19299700541E+02  0.23708315167E+02  0.30747065281E+02  0.00000000000E+00 0.  1.
</event>
<event>
 4    1  0.6622912E-004  0.9118800E+02  0.7818608E-02  0.1130116E+00
         25   -1    0    0    0    0  0.00000000000E+00  0.00000000000E+00  0.99999998245E-14  0.12500000000E+03  0.12500000000E+03 0.  0.
        -11    1    1    0    0    0  0.69872042179E+01 -0.52558985741E+02 -0.32363500281E+02  0.62118146749E+02  0.51100000000E-03 0. -1.
         11    1    1    0    0    0 -0.30288007931E+01  0.97209329370E+01  0.24173711433E+01  0.10464886761E+02  0.51100000000E-03 0.  1.
         22    1    1    0    0    0 -0.39584034248E+01  0.42838052804E+02  0.29946129137E+02  0.52416966490E+02  0.00000000000E+00 0. -1.
</event>
<event>
 5    1  0.6622912E-004  0.9118800E+02  0.7818608E-02  0.1130116E+00
         25   -1    0    0    0    0  0.00000000000E+00  0.00000000000E+00  0.99999998245E-14  0.12500000000E+03  0.12500000000E+03 0.  0.
        -11    1    3    3    0    0  0.40065444475E+02  0.54431974175E+01 -0.14737288232E+02  0.43035519095E+02  0.51100000000E-03 0.  1.
         23    2    1    0    0    0 -0.10125376026E+02 -0.49290569498E+01 -0.27010493203E+02  0.95735933550E+02  0.91153625202E+02 0.  0.
         11    1    3    3    0    0 -0.50190820501E+02 -0.10372254367E+02 -0.12273204971E+02  0.52700414455E+02  0.51100000000E-03 0. -1.
         22    1    1    0    0    0  0.10125376026E+02  0.49290569498E+01  0.27010493203E+02  0.29264066450E+02  0.00000000000E+00 0. -1.
</event>
<event>
 5    1  0.6622912E-004  0.9118800E+02  0.7818608E-02  0.1130116E+00
         25   -1    0    0    0    0  0.00000000000E+00  0.00000000000E+00  0.99999998245E-14  0.12500000000E+03  0.12500000000E+03 0.  0.
        -11    1    3    3    0    0  0.44852596174E+02  0.28654469930E+02  0.26924463524E+02  0.59646967793E+02  0.51100000000E-03 0. -1.
         23    2    1    0    0    0  0.27360572153E+02  0.12892830507E+02  0.90230824292E+00  0.94740453619E+02  0.89778134336E+02 0.  0.
         11    1    3    3    0    0 -0.17492024022E+02 -0.15761639424E+02 -0.26022155281E+02  0.35093485826E+02  0.51100000000E-03 0.  1.
         22    1    1    0    0    0 -0.27360572153E+02 -0.12892830507E+02 -0.90230824292E+00  0.30259546381E+02  0.00000000000E+00 0. -1.
</event>
<event>
 5    1  0.6622912E-004  0.9118800E+02  0.7818608E-02  0.1130116E+00
         25   -1    0    0    0    0  0.00000000000E+00  0.00000000000E+00  0.99999998245E-14  0.12500000000E+03  0.12500000000E+03 0.  0.
        -11    1    3    3    0    0  0.10580558528E+02  0.48883199312E+01 -0.36187203588E+02  0.38017858886E+02  0.51100000000E-03 0.  1.
         23    2    1    0    0    0 -0.16667500862E+02  0.17920735727E+02  0.14156307783E+02  0.96727055264E+02  0.92502777342E+02 0.  0.
         11    1    3    3    0    0 -0.27248059391E+02  0.13032415796E+02  0.50343511370E+02  0.58709196378E+02  0.51100000000E-03 0. -1.
         22    1    1    0    0    0  0.16667500862E+02 -0.17920735727E+02 -0.14156307783E+02  0.28272944736E+02  0.00000000000E+00 0. -1.
</event>
<event>
 5    1  0.6622912E-004  0.9118800E+02  0.7818608E-02  0.1130116E+00
         25   -1    0    0    0    0  0.00000000000E+00  0.00000000000E+00  0.99999998245E-14  0.12500000000E+03  0.12500000000E+03 0.  0.
        -11    1    3    3    0    0  0.51251864904E+02  0.17319715600E+02 -0.98354922267E+01  0.54986026518E+02  0.51100000000E-03 0. -1.
         23    2    1    0    0    0  0.18189526667E+02  0.17455995096E+02  0.14387905381E+02  0.95972728919E+02  0.91477769046E+02 0.  0.
         11    1    3    3    0    0 -0.33062338237E+02  0.13627949594E+00  0.24223397608E+02  0.40986702401E+02  0.51100000000E-03 0.  1.
         22    1    1    0    0    0 -0.18189526667E+02 -0.17455995096E+02 -0.14387905381E+02  0.29027271081E+02  0.00000000000E+00 0. -1.
</event>
<event>
 5    1  0.6622912E-004  0.9118800E+02  0.7818608E-02  0.1130116E+00
         25   -1    0    0    0    0  0.00000000000E+00  0.00000000000E+00  0.99999998245E-14  0.12500000000E+03  0.12500000000E+03 0.  0.
        -11    1    3    3    0    0 -0.27204959556E+02  0.47426576760E+02 -0.74362537682E+01  0.55178690434E+02  0.51100000000E-03 0. -1.
         23    2    1    0    0    0 -0.27287845269E+02  0.60246926348E+01 -0.46130181257E+01  0.96676805318E+02  0.92434849107E+02 0.  0.
         11    1    3    3    0    0 -0.82885713660E-01 -0.41401884125E+02  0.28232356425E+01  0.41498114884E+02  0.51100000000E-03 0.  1.
         22    1    1    0    0    0  0.27287845269E+02 -0.60246926348E+01  0.46130181257E+01  0.28323194682E+02  0.00000000000E+00 0. -1.
</event>
<event>
 5    1  0.6622912E-004  0.9118800E+02  0.7818608E-02  0.1130116E+00
         25   -1    0    0    0    0  0.00000000000E+00  0.00000000000E+00  0.99999998245E-14  0.12500000000E+03  0.12500000000E+03 0.  0.
        -11    1    3    3    0    0  0.16587257942E+02 -0.36464562718E+02  0.47100580789E+02  0.61832565620E+02  0.51100000000E-03 0.  1.
         23    2    1    0    0    0  0.52605394393E+01 -0.22557133839E+02  0.19640352901E+02  0.94631578501E+02  0.89626417006E+02 0.  0.
         11    1    3    3    0    0 -0.11326718502E+02  0.13907428879E+02 -0.27460227888E+02  0.32799012881E+02  0.51100000000E-03 0. -1.
         22    1    1    0    0    0 -0.52605394393E+01  0.22557133839E+02 -0.19640352901E+02  0.30368421499E+02  0.00000000000E+00 0.  1.
</event>
<event>
 5    1  0.6622912E-004  0.9118800E+02  0.7818608E-02  0.1130116E+00
         25   -1    0    0    0    0  0.00000000000E+00  0.00000000000E+00  0.99999998245E-14  0.12500000000E+03  0.12500000000E+03 0.  0.
        -11    1    3    3    0    0 -0.53605988590E+02  0.21475224248E+02  0.73376296903E+01  0.58211923855E+02  0.51100000000E-03 0.  1.
         23    2    1    0    0    0 -0.17140696469E+02  0.21162723546E+02  0.12486776826E+02  0.95040294748E+02  0.90194643338E+02 0.  0.
         11    1    3    3    0    0  0.36465292121E+02 -0.31250070204E+00  0.51491471355E+01  0.36828370893E+02  0.51100000000E-03 0. -1.
         22    1    1    0    0    0  0.17140696469E+02 -0.21162723546E+02 -0.12486776826E+02  0.29959705252E+02  0.00000000000E+00 0.  1.
</event>
<event>
 5    1  0.6622912E-004  0.9118800E+02  0.7818608E-02  0.1130116E+00
         25   -1    0    0    0    0  0.00000000000E+00  0.00000000000E+00  0.99999998245E-14  0.12500000000E+03  0.12500000000E+03 0.  0.
        -11    1    3    3    0    0 -0.62021541545E+01  0.29842819274E+02  0.40551835359E+02  0.50729793313E+02  0.51100000000E-03 0. -1.
         23    2    1    0    0    0 -0.20982922243E+02  0.26987646761E+02  0.36054756853E+01  0.90625364606E+02  0.83853092677E+02 0.  0.
         11    1    3    3    0    0 -0.14780768088E+02 -0.28551725126E+01 -0.36946359674E+02  0.39895571293E+02  0.51100000000E-03 0.  1.
         22    1    1    0    0    0  0.20982922243E+02 -0.26987646761E+02 -0.36054756853E+01  0.34374635394E+02  0.00000000000E+00 0. -1.
</event>
<event>
 5    1  0.6622912E-004  0.9118800E+02  0.7818608E-02  0.1130116E+00
         25   -1    0    0    0    0  0.00000000000E+00  0.00000000000E+00  0.99999998245E-14  0.12500000000E+03  0.12500000000E+03 0.  0.
        -11    1    3    3    0    0 -0.24302638216E+02  0.21328160120E+02  0.49605918152E+01  0.32712629210E+02  0.51100000000E-03 0.  1.
         23    2    1    0    0    0  0.18425444509E+02 -0.21914943113E+02  0.12088880886E+02  0.93921023536E+02  0.88629881439E+02 0.  0.
         11    1    3    3    0    0  0.42728082725E+02 -0.43243103234E+02  0.71282890704E+01  0.61208394326E+02  0.51100000000E-03 0. -1.
         22    1    1    0    0    0 -0.18425444509E+02  0.21914943113E+02 -0.12088880886E+02  0.31078976464E+02  0.00000000000E+00 0. -1.
</event>
<event>
 5    1  0.6622912E-004  0.9118800E+02  0.7818608E-02  0.1130116E+00
         25   -1    0    0    0    0  0.00000000000E+00  0.00000000000E+00  0.99999998245E-14  0.12500000000E+03  0.12500000000E+03 0.  0.
        -11    1    3    3    0    0  0.36127283247E+02 -0.13107304616E+02 -0.14172386750E+02  0.40961427899E+02  0.51100000000E-03 0. -1.
         23    2    1    0    0    0 -0.16148518145E+02  0.10455084983E-01 -0.24321939617E+02  0.95805283110E+02  0.91248675483E+02 0.  0.
         11    1    3    3    0    0 -0.52275801392E+02  0.13117759701E+02 -0.10149552867E+02  0.54843855211E+02  0.51100000000E-03 0.  1.
         22    1    1    0    0    0  0.16148518145E+02 -0.10455084983E-01  0.24321939617E+02  0.29194716890E+02  0.00000000000E+00 0.  1.
</event>
<event>
 5    1  0.6622912E-004  0.9118800E+02  0.7818608E-02  0.1130116E+00
         25   -1    0    0    0    0  0.00000000000E+00  0.00000000000E+00  0.99999998245E-14  0.12500000000E+03  0.12500000000E+03 0.  0.
        -11    1    3    3    0    0  0.15012069851E+02 -0.84811260914E+01  0.43501737620E+02  0.46794154733E+02  0.51100000000E-03 0. -1.
         23    2    1    0    0    0  0.28750373300E+02 -0.37332150222E+01 -0.33186230358E+01  0.95818942477E+02  0.91267385299E+02 0.  0.
         11    1    3    3    0    0  0.13738303449E+02  0.47479110692E+01 -0.46820360655E+02  0.49024787744E+02  0.51100000000E-03 0.  1.
         22    1    1    0    0    0 -0.28750373300E+02  0.37332150222E+01  0.33186230358E+01  0.29181057523E+02  0.00000000000E+00 0.  1.
</event>
<event>
 5    1  0.6622912E-004  0.9118800E+02  0.7818608E-02  0.1130116E+00
         25   -1    0    0    0    0  0.00000000000E+00  0.00000000000E+00  0.99999998245E-14  0.12500000000E+03  0.12500000000E+03 0.  0.
        -11    1    3    3    0    0 -0.37934638632E+02 -0.24181312531E+02  0.45192890623E+01  0.45212793076E+02  0.51100000000E-03 0.  1.
         23    2    1    0    0    0 -0.13721265580E+02  0.98826900242E+01 -0.23878228638E+02  0.95740634078E+02  0.91160070862E+02 0.  0.
         11    1    3    3    0    0  0.24213373051E+02  0.34064002555E+02 -0.28397517700E+02  0.50527841003E+02  0.51100000000E-03 0. -1.
         22    1    1    0    0    0  0.13721265580E+02 -0.98826900242E+01  0.23878228638E+02  0.29259365922E+02  0.00000000000E+00 0. -1.
</event>
<event>
 5    1  0.6622912E-004  0.9118800E+02  0.7818608E-02  0.1130116E+00
         25   -1    0    0    0    0  0.00000000000E+00  0.00000000000E+00  0.99999998245E-14  0.12500000000E+03  0.12500000000E+03 0.  0.
        -11    1    3    3    0    0  0.81363682328E-01  0.51166242849E+02  0.80124838586E+01  0.51789872805E+02  0.51100000000E-03 0.  1.
         23    2    1    0    0    0  0.24854929280E+02  0.25111189698E+02  0.11331734394E+02  0.87895450926E+02  0.79679751076E+02 0.  0.
         11    1    3    3    0    0  0.24773565598E+02 -0.26055053150E+02  0.33192505357E+01  0.36105578121E+02  0.51100000000E-03 0. -1.
         22    1    1    0    0    0 -0.24854929280E+02 -0.25111189698E+02 -0.11331734394E+02  0.37104549074E+02  0.00000000000E+00 0.  1.
</event>
<event>
 5    1  0.6622912E-004  0.9118800E+02  0.7818608E-02  0.1130116E+00
         25   -1    0    0    0    0  0.00000000000E+00  0.00000000000E+00  0.99999998245E-14  0.12500000000E+03  0.12500000000E+03 0.  0.
        -11    1    3    3    0    0  0.81781298584E+01 -0.49866223420E+02  0.45802794064E+01  0.50739540851E+02  0.51100000000E-03 0.  1.
         23    2    1    0    0    0 -0.23256011220E+02 -0.18570575903E+02  0.20670544983E+01  0.95167449631E+02  0.90370694407E+02 0.  0.
         11    1    3    3    0    0 -0.31434141078E+02  0.31295647516E+02 -0.25132249081E+01  0.44427908779E+02  0.51100000000E-03 0. -1.
         22    1    1    0    0    0  0.23256011220E+02  0.18570575903E+02 -0.20670544983E+01  0.29832550369E+02  0.00000000000E+00 0. -1.
</event>
<event>
 5    1  0.6622912E-004  0.9118800E+02  0.7818608E-02  0.1130116E+00
         25   -1    0    0    0    0  0.00000000000E+00  0.00000000000E+00  0.99999998245E-14  0.12500000000E+03  0.12500000000E+03 0.  0.
        -11    1    3    3    0    0  0.51658502978E+02 -0.28101287424E+01 -0.64008084805E+01  0.52129340135E+02  0.51100000000E-03 0.  1.
         23    2    1    0    0    0  0.20438917259E+02  0.45669620932E+01  0.21747941217E+02  0.94807626316E+02  0.89871611642E+02 0.  0.
         11    1    3    3    0    0 -0.31219585718E+02  0.73770908356E+01  0.28148749697E+02  0.42678286181E+02  0.51100000000E-03 0. -1.
         22    1    1    0    0    0 -0.20438917259E+02 -0.45669620932E+01 -0.21747941217E+02  0.30192373684E+02  0.00000000000E+00 0.  1.
</event>
<event>
 5    1  0.6622912E-004  0.9118800E+02  0.7818608E-02  0.1130116E+00
         25   -1    0    0    0    0  0.00000000000E+00  0.00000000000E+00  0.99999998245E-14  0.12500000000E+03  0.12500000000E+03 0.  0.
        -11    1    3    3    0    0  0.99273398206E+01 -0.38271770550E+02  0.63491648950E+01  0.40044879723E+02  0.51100000000E-03 0. -1.
         23    2    1    0    0    0  0.17001625151E+02  0.10094773827E+02  0.25662919066E+02  0.92603316043E+02  0.86751536072E+02 0.  0.
         11    1    3    3    0    0  0.70742853302E+01  0.48366544377E+02  0.19313754171E+02  0.52558436320E+02  0.51100000000E-03 0.  1.
         22    1    1    0    0    0 -0.17001625151E+02 -0.10094773827E+02 -0.25662919066E+02  0.32396683957E+02  0.00000000000E+00 0.  1.
</event>
<event>
 5    1  0.6622912E-004  0.9118800E+02  0.7818608E-02  0.1130116E+00
         25   -1    0    0    0    0  0.00000000000E+00  0.00000000000E+00  0.99999998245E-14  0.12500000000E+03  0.12500000000E+03 0.  0.
        -11    1    3    3    0    0 -0.27454188539E+02 -0.43651377643E+02 -0.98900779389E+01  0.52507036485E+02  0.51100000000E-03 0.  1.
         23    2    1    0    0    0 -0.41261541437E+02 -0.23803015293E+02 -0.63324964103E+01  0.76945875832E+02  0.60095498649E+02 0.  0.
         11    1    3    3    0    0 -0.13807352898E+02  0.19848362350E+02  0.35575815285E+01  0.24438839347E+02  0.51100000000E-03 0. -1.
         22    1    1    0    0    0  0.41261541437E+02  0.23803015293E+02  0.63324964103E+01  0.48054124168E+02  0.00000000000E+00 0.  1.
</event>
<event>
 5    1  0.6622912E-004  0.9118800E+02  0.7818608E-02  0.1130116E+00
         25   -1    0    0    0    0  0.00000000000E+00  0.00000000000E+00  0.99999998245E-14  0.12500000000E+03  0.12500000000E+03 0.  0.
        -11    1    3    3    0    0  0.13779500428E+02 -0.25673232324E+02  0.20690146824E+02  0.35736139493E+02  0.51100000000E-03 0. -1.
         23    2    1    0    0    0  0.99504344809E+01  0.23236898167E+02 -0.14264897258E+02  0.95974978440E+02  0.91480842858E+02 0.  0.
         11    1    3    3    0    0 -0.38290659469E+01  0.48910130491E+02 -0.34955044082E+02  0.60238838947E+02  0.51100000000E-03 0.  1.
         22    1    1    0    0    0 -0.99504344809E+01 -0.23236898167E+02  0.14264897258E+02  0.29025021560E+02  0.00000000000E+00 0.  1.
</event>
<event>
 5    1  0.6622912E-004  0.9118800E+02  0.7818608E-02  0.1130116E+00
         25   -1    0    0    0    0  0.00000000000E+00  0.00000000000E+00  0.99999998245E-14  0.12500000000E+03  0.12500000000E+03 0.  0.
        -11    1    3    3    0    0  0.22162532568E+01  0.22724627607E+02 -0.15252841810E+02  0.27458508006E+02  0.51100000000E-03 0. -1.
         23    2    1    0    0    0  0.31319367498E+02 -0.23344415346E+02  0.50562206507E+01  0.85611805378E+02  0.76012836709E+02 0.  0.
         11    1    3    3    0    0  0.29103114241E+02 -0.46069042952E+02  0.20309062460E+02  0.58153297373E+02  0.51100000000E-03 0.  1.
         22    1    1    0    0    0 -0.31319367498E+02  0.23344415346E+02 -0.50562206507E+01  0.39388194622E+02  0.00000000000E+00 0.  1.
</event>
<event>
 5    1  0.6622912E-004  0.9118800E+02  0.7818608E-02  0.1130116E+00
         25   -1    0    0    0    0  0.00000000000E+00  0.00000000000E+00  0.99999998245E-14  0.12500000000E+03  0.12500000000E+03 0.  0.
        -11    1    3    3    0    0  0.81076999667E+01  0.32613615687E+02 -0.19076458707E+02  0.38643162448E+02  0.51100000000E-03 0. -1.
         23    2    1    0    0    0  0.11137391113E+02 -0.23244048832E+02 -0.15990768696E+02  0.94667971212E+02  0.89677158758E+02 0.  0.
         11    1    3    3    0    0  0.30296911466E+01 -0.55857664519E+02  0.30856900113E+01  0.56024808764E+02  0.51100000000E-03 0.  1.
         22    1    1    0    0    0 -0.11137391113E+02  0.23244048832E+02  0.15990768696E+02  0.30332028788E+02  0.00000000000E+00 0.  1.
</event>
<event>
 5    1  0.6622912E-004  0.9118800E+02  0.7818608E-02  0.1130116E+00
         25   -1    0    0    0    0  0.00000000000E+00  0.00000000000E+00  0.99999998245E-14  0.12500000000E+03  0.12500000000E+03 0.  0.
        -11    1    3    3    0    0 -0.84089119989E+01 -0.31929297426E+02  0.29756870040E+01  0.33151840801E+02  0.51100000000E-03 0. -1.
         23    2    1    0    0    0  0.28674223387E+00  0.29595883961E+02 -0.66757209932E+00  0.95395199358E+02  0.90685168795E+02 0.  0.
         11    1    3    3    0    0  0.86956542328E+01  0.61525181387E+02 -0.36432591033E+01  0.62243358557E+02  0.51100000000E-03 0.  1.
         22    1    1    0    0    0 -0.28674223387E+00 -0.29595883961E+02  0.66757209932E+00  0.29604800642E+02  0.00000000000E+00 0.  1.
</event>
<event>
 5    1  0.6622912E-004  0.9118800E+02  0.7818608E-02  0.1130116E+00
         25   -1    0    0    0    0  0.00000000000E+00  0.00000000000E+00  0.99999998245E-14  0.12500000000E+03  0.12500000000E+03 0.  0.
        -11    1    3    3    0    0 -0.20133905952E-02 -0.35854799334E+02 -0.10827016352E+02  0.37453850572E+02  0.51100000000E-03 0.  1.
         23    2    1    0    0    0 -0.35715756439E+02 -0.19033961811E+01  0.42419214387E+01  0.88982891947E+02  0.81367825255E+02 0.  0.
         11    1    3    3    0    0 -0.35713743048E+02  0.33951403153E+02  0.15068937791E+02  0.51529041375E+02  0.51100000000E-03 0. -1.
         22    1    1    0    0    0  0.35715756439E+02  0.19033961811E+01 -0.42419214387E+01  0.36017108053E+02  0.00000000000E+00 0.  1.
</event>
<event>
 5    1  0.6622912E-004  0.9118800E+02  0.7818608E-02  0.1130116E+00
         25   -1    0    0    0    0  0.00000000000E+00  0.00000000000E+00  0.99999998245E-14  0.12500000000E+03  0.12500000000E+03 0.  0.
        -11    1    3    3    0    0  0.82210516233E+01 -0.49985518435E+02  0.73098832386E+00  0.50662334009E+02  0.51100000000E-03 0.  1.
         23    2    1    0    0    0  0.12344258686E+01 -0.81122586975E+01  0.24393220535E+02  0.99263610267E+02  0.95869195088E+02 0.  0.
         11    1    3    3    0    0 -0.69866257547E+01  0.41873259738E+02  0.23662232211E+02  0.48601276259E+02  0.51100000000E-03 0. -1.
         22    1    1    0    0    0 -0.12344258686E+01  0.81122586975E+01 -0.24393220535E+02  0.25736389733E+02  0.00000000000E+00 0.  1.
</event>
<event>
 5    1  0.6622912E-004  0.9118800E+02  0.7818608E-02  0.1130116E+00
         25   -1    0    0    0    0  0.00000000000E+00  0.00000000000E+00  0.99999998245E-14  0.12500000000E+03  0.12500000000E+03 0.  0.
        -11    1    3    3    0    0  0.17124280247E+02  0.42970233571E+02 -0.38040292719E+02  0.59889446629E+02  0.51100000000E-03 0.  1.
         23    2    1    0    0    0  0.55546097207E+01  0.29337322613E+02 -0.93204030084E+01  0.93720580257E+02  0.88346732052E+02 0.  0.
         11    1    3    3    0    0 -0.11569670526E+02 -0.13632910958E+02  0.28719889711E+02  0.33831133628E+02  0.51100000000E-03 0. -1.
         22    1    1    0    0    0 -0.55546097207E+01 -0.29337322613E+02  0.93204030084E+01  0.31279419743E+02  0.00000000000E+00 0.  1.
</event>
<event>
 5    1  0.6622912E-004  0.9118800E+02  0.7818608E-02  0.1130116E+00
         25   -1    0    0    0    0  0.00000000000E+00  0.00000000000E+00  0.99999998245E-14  0.12500000000E+03  0.12500000000E+03 0.  0.
        -11    1    3    3    0    0  0.11628457163E+02 -0.46715564009E+02  0.95444169643E+01  0.49078109501E+02  0.51100000000E-03 0. -1.
         23    2    1    0    0    0  0.14011870337E+02 -0.11824123299E+02 -0.22129607457E+02  0.96262186438E+02  0.91872447499E+02 0.  0.
         11    1    3    3    0    0  0.23834131739E+01  0.34891440710E+02 -0.31674024421E+02  0.47184076937E+02  0.51100000000E-03 0.  1.
         22    1    1    0    0    0 -0.14011870337E+02  0.11824123299E+02  0.22129607457E+02  0.28737813562E+02  0.00000000000E+00 0.  1.
</event>
<event>
 5    1  0.6622912E-004  0.9118800E+02  0.7818608E-02  0.1130116E+00
         25   -1    0    0    0    0  0.00000000000E+00  0.00000000000E+00  0.99999998245E-14  0.12500000000E+03  0.12500000000E+03 0.  0.
        -11    1    3    3    0    0 -0.57187048713E+01 -0.11834542646E+02  0.32389817354E+02  0.34955117701E+02  0.51100000000E-03 0.  1.
         23    2    1    0    0    0  0.15964343195E+02 -0.78293513175E+01 -0.23785548717E+02  0.95303008174E+02  0.90558003752E+02 0.  0.
         11    1    3    3    0    0  0.21683048067E+02  0.40051913285E+01 -0.56175366071E+02  0.60347890473E+02  0.51100000000E-03 0. -1.
         22    1    1    0    0    0 -0.15964343195E+02  0.78293513175E+01  0.23785548717E+02  0.29696991826E+02  0.00000000000E+00 0. -1.
</event>
<event>
 5    1  0.6622912E-004  0.9118800E+02  0.7818608E-02  0.1130116E+00
         25   -1    0    0    0    0  0.00000000000E+00  0.00000000000E+00  0.99999998245E-14  0.12500000000E+03  0.12500000000E+03 0.  0.
        -11    1    3    3    0    0 -0.76228466823E+01 -0.19776921399E+02 -0.27632403643E+02  0.34825050508E+02  0.51100000000E-03 0. -1.
         23    2    1    0    0    0  0.16427558511E+02  0.86467033464E+01  0.21578855585E+02  0.96534632169E+02  0.92242387448E+02 0.  0.
         11    1    3    3    0    0  0.24050405194E+02  0.28423624746E+02  0.49211259228E+02  0.61709581660E+02  0.51100000000E-03 0.  1.
         22    1    1    0    0    0 -0.16427558511E+02 -0.86467033464E+01 -0.21578855585E+02  0.28465367831E+02  0.00000000000E+00 0.  1.
</event>
<event>
 5    1  0.6622912E-004  0.9118800E+02  0.7818608E-02  0.1130116E+00
         25   -1    0    0    0    0  0.00000000000E+00  0.00000000000E+00  0.99999998245E-14  0.12500000000E+03  0.12500000000E+03 0.  0.
        -11    1    3    3    0    0  0.59539470159E+02  0.20826809302E+01 -0.62226741623E+01  0.59899981141E+02  0.51100000000E-03 0.  1.
         23    2    1    0    0    0  0.22807522502E+02  0.13209730537E+02 -0.11040105427E+01  0.98620104192E+02  0.95026449203E+02 0.  0.
         11    1    3    3    0    0 -0.36731947657E+02  0.11127049607E+02  0.51186636196E+01  0.38720123052E+02  0.51100000000E-03 0. -1.
         22    1    1    0    0    0 -0.22807522502E+02 -0.13209730537E+02  0.11040105427E+01  0.26379895808E+02  0.00000000000E+00 0.  1.
</event>
<event>
 5    1  0.6622912E-004  0.9118800E+02  0.7818608E-02  0.1130116E+00
         25   -1    0    0    0    0  0.00000000000E+00  0.00000000000E+00  0.99999998245E-14  0.12500000000E+03  0.12500000000E+03 0.  0.
        -11    1    3    3    0    0 -0.38881755391E+02  0.16229024754E+02  0.17394484357E+02  0.45582235938E+02  0.51100000000E-03 0.  1.
         23    2    1    0    0    0  0.84992246590E+01  0.51706313848E+01  0.27918658571E+02  0.95361785730E+02  0.90639099910E+02 0.  0.
         11    1    3    3    0    0  0.47380980050E+02 -0.11058393370E+02  0.10524174214E+02  0.49779549792E+02  0.51100000000E-03 0. -1.
         22    1    1    0    0    0 -0.84992246590E+01 -0.51706313848E+01 -0.27918658571E+02  0.29638214270E+02  0.00000000000E+00 0. -1.
</event>
<event>
 5    1  0.6622912E-004  0.9118800E+02  0.7818608E-02  0.1130116E+00
         25   -1    0    0    0    0  0.00000000000E+00  0.00000000000E+00  0.99999998245E-14  0.12500000000E+03  0.12500000000E+03 0.  0.
        -11    1    3    3    0    0 -0.49200071679E+02 -0.20503018790E+02 -0.22523595769E+01  0.53348795269E+02  0.51100000000E-03 0. -1.
         23    2    1    0    0    0 -0.23826828435E+02  0.11418427316E+02 -0.13049992289E+02  0.95531363548E+02  0.90872663034E+02 0.  0.
         11    1    3    3    0    0  0.25373243244E+02  0.31921446105E+02 -0.10797632712E+02  0.42182568279E+02  0.51100000000E-03 0.  1.
         22    1    1    0    0    0  0.23826828435E+02 -0.11418427316E+02  0.13049992289E+02  0.29468636452E+02  0.00000000000E+00 0. -1.
</event>
<event>
 5    1  0.6622912E-004  0.9118800E+02  0.7818608E-02  0.1130116E+00
         25   -1    0    0    0    0  0.00000000000E+00  0.00000000000E+00  0.99999998245E-14  0.12500000000E+03  0.12500000000E+03 0.  0.
        -11    1    3    3    0    0  0.16983147313E+02 -0.11507106790E+02  0.32481993634E+02  0.38417713493E+02  0.51100000000E-03 0. -1.
         23    2    1    0    0    0  0.38364784954E+01 -0.15138045620E+01 -0.25737616130E+02  0.98934024945E+02  0.95438494520E+02 0.  0.
         11    1    3    3    0    0 -0.13146668818E+02  0.99933022283E+01 -0.58219609764E+02  0.60516311452E+02  0.51100000000E-03 0.  1.
         22    1    1    0    0    0 -0.38364784954E+01  0.15138045620E+01  0.25737616130E+02  0.26065975055E+02  0.00000000000E+00 0.  1.
</event>
<event>
 5    1  0.6622912E-004  0.9118800E+02  0.7818608E-02  0.1130116E+00
         25   -1    0    0    0    0  0.00000000000E+00  0.00000000000E+00  0.99999998245E-14  0.12500000000E+03  0.12500000000E+03 0.  0.
        -11    1    3    3    0    0  0.78789047768E+01 -0.20594382422E+02 -0.58030750132E+02  0.62078770034E+02  0.51100000000E-03 0. -1.
         23    2    1    0    0    0 -0.10157219148E+01 -0.79463776166E+01 -0.28272821038E+02  0.95614135751E+02  0.90986449198E+02 0.  0.
         11    1    3    3    0    0 -0.88946266916E+01  0.12648004805E+02  0.29757929094E+02  0.33535365717E+02  0.51100000000E-03 0.  1.
         22    1    1    0    0    0  0.10157219148E+01  0.79463776166E+01  0.28272821038E+02  0.29385864249E+02  0.00000000000E+00 0. -1.
</event>
<event>
 5    1  0.6622912E-004  0.9118800E+02  0.7818608E-02  0.1130116E+00
         25   -1    0    0    0    0  0.00000000000E+00  0.00000000000E+00  0.99999998245E-14  0.12500000000E+03  0.12500000000E+03 0.  0.
        -11    1    3    3    0    0 -0.13634435062E+02 -0.21899692310E+02 -0.49008602224E+02  0.55383548414E+02  0.51100000000E-03 0.  1.
         23    2    1    0    0    0 -0.19609227416E+02 -0.19652960096E+02 -0.91227182958E+01  0.95776984593E+02  0.91209901591E+02 0.  0.
         11    1    3    3    0    0 -0.59747923536E+01  0.22467322139E+01  0.39885883928E+02  0.40393436178E+02  0.51100000000E-03 0. -1.
         22    1    1    0    0    0  0.19609227416E+02  0.19652960096E+02  0.91227182958E+01  0.29223015407E+02  0.00000000000E+00 0. -1.
</event>
<event>
 5    1  0.6622912E-004  0.9118800E+02  0.7818608E-02  0.1130116E+00
         25   -1    0    0    0    0  0.00000000000E+00  0.00000000000E+00  0.99999998245E-14  0.12500000000E+03  0.12500000000E+03 0.  0.
        -11    1    3    3    0    0  0.41830278150E+01  0.14719884101E+02 -0.41168221830E+02  0.43920327851E+02  0.51100000000E-03 0.  1.
         23    2    1    0    0    0 -0.24700590015E+02  0.38964177100E+01  0.50531334946E+01  0.99488524618E+02  0.96162004734E+02 0.  0.
         11    1    3    3    0    0 -0.28883617830E+02 -0.10823466391E+02  0.46221355324E+02  0.55568196767E+02  0.51100000000E-03 0. -1.
         22    1    1    0    0    0  0.24700590015E+02 -0.38964177100E+01 -0.50531334946E+01  0.25511475382E+02  0.00000000000E+00 0. -1.
</event>
<event>
 5    1  0.6622912E-004  0.9118800E+02  0.7818608E-02  0.1130116E+00
         25   -1    0    0    0    0  0.00000000000E+00  0.00000000000E+00  0.99999998245E-14  0.12500000000E+03  0.12500000000E+03 0.  0.
        -11    1    3    3    0    0 -0.12112768865E+02 -0.98395732387E+01 -0.33801142395E+02  0.37229740780E+02  0.51100000000E-03 0.  1.
         23    2    1    0    0    0  0.90964528481E+01  0.25497025515E+02  0.88302798740E+01  0.96525140787E+02  0.92229524540E+02 0.  0.
         11    1    3    3    0    0  0.21209221713E+02  0.35336598754E+02  0.42631422269E+02  0.59295400007E+02  0.51100000000E-03 0. -1.
         22    1    1    0    0    0 -0.90964528481E+01 -0.25497025515E+02 -0.88302798740E+01  0.28474859213E+02  0.00000000000E+00 0. -1.
</event>
<event>
 5    1  0.6622912E-004  0.9118800E+02  0.7818608E-02  0.1130116E+00
         25   -1    0    0    0    0  0.00000000000E+00  0.00000000000E+00  0.99999998245E-14  0.12500000000E+03  0.12500000000E+03 0.  0.
        -11    1    3    3    0    0 -0.41587848205E+02 -0.34517040536E+02  0.24182914606E+02  0.59209699921E+02  0.51100000000E-03 0. -1.
         23    2    1    0    0    0 -0.11260531236E+02 -0.13913475481E+02  0.22951010381E+02  0.95894446557E+02  0.91370737325E+02 0.  0.
         11    1    3    3    0    0  0.30327316968E+02  0.20603565055E+02 -0.12319042249E+01  0.36684746636E+02  0.51100000000E-03 0.  1.
         22    1    1    0    0    0  0.11260531236E+02  0.13913475481E+02 -0.22951010381E+02  0.29105553443E+02  0.00000000000E+00 0. -1.
</event>
<event>
 5    1  0.6622912E-004  0.9118800E+02  0.7818608E-02  0.1130116E+00
         25   -1    0    0    0    0  0.00000000000E+00  0.00000000000E+00  0.99999998245E-14  0.12500000000E+03  0.12500000000E+03 0.  0.
        -11    1    3    3    0    0 -0.28837464313E+02 -0.17125798918E+02  0.53408542439E+01  0.33961994360E+02  0.51100000000E-03 0.  1.
         23    2    1    0    0    0  0.19728508333E+02  0.21240469170E+02  0.16870532512E+01  0.95961788618E+02  0.91462818427E+02 0.  0.
         11    1    3    3    0    0  0.48565972646E+02  0.38366268088E+02 -0.36538009927E+01  0.61999794258E+02  0.51100000000E-03 0. -1.
         22    1    1    0    0    0 -0.19728508333E+02 -0.21240469170E+02 -0.16870532512E+01  0.29038211382E+02  0.00000000000E+00 0. -1.
</event>
<event>
 5    1  0.6622912E-004  0.9118800E+02  0.7818608E-02  0.1130116E+00
         25   -1    0    0    0    0  0.00000000000E+00  0.00000000000E+00  0.99999998245E-14  0.12500000000E+03  0.12500000000E+03 0.  0.
        -11    1    3    3    0    0 -0.23738564668E+02 -0.18979356165E+02 -0.12084232655E+02  0.32707248310E+02  0.51100000000E-03 0.  1.
         23    2    1    0    0    0  0.30333150928E+02  0.25869035368E+01  0.66066894726E+01  0.93848106624E+02  0.88526982643E+02 0.  0.
         11    1    3    3    0    0  0.54071715596E+02  0.21566259702E+02  0.18690922128E+02  0.61140858313E+02  0.51100000000E-03 0. -1.
         22    1    1    0    0    0 -0.30333150928E+02 -0.25869035368E+01 -0.66066894726E+01  0.31151893376E+02  0.00000000000E+00 0. -1.
</event>
<event>
 5    1  0.6622912E-004  0.9118800E+02  0.7818608E-02  0.1130116E+00
         25   -1    0    0    0    0  0.00000000000E+00  0.00000000000E+00  0.99999998245E-14  0.12500000000E+03  0.12500000000E+03 0.  0.
        -11    1    3    3    0    0  0.41101526343E+02 -0.18254439650E+02 -0.22310781299E+02  0.50202898293E+02  0.51100000000E-03 0. -1.
         23    2    1    0    0    0 -0.53601046649E+01 -0.22658025186E+02 -0.14633210793E+02  0.97500042082E+02  0.93541490904E+02 0.  0.
         11    1    3    3    0    0 -0.46461631008E+02 -0.44035855368E+01  0.76775705057E+01  0.47297143789E+02  0.51100000000E-03 0.  1.
         22    1    1    0    0    0  0.53601046649E+01  0.22658025186E+02  0.14633210793E+02  0.27499957918E+02  0.00000000000E+00 0.  1.
</event>
<event>
 5    1  0.6622912E-004  0.9118800E+02  0.7818608E-02  0.1130116E+00
         25   -1    0    0    0    0  0.00000000000E+00  0.00000000000E+00  0.99999998245E-14  0.12500000000E+03  0.12500000000E+03 0.  0.
        -11    1    3    3    0    0 -0.18970992719E+02  0.39112543618E+02  0.31219557326E+02  0.53519626241E+02  0.51100000000E-03 0.  1.
         23    2    1    0    0    0  0.13455854977E+02  0.23778983615E+02  0.70153723540E+01  0.96791569625E+02  0.92589915252E+02 0.  0.
         11    1    3    3    0    0  0.32426847696E+02 -0.15333560003E+02 -0.24204184972E+02  0.43271943385E+02  0.51100000000E-03 0. -1.
         22    1    1    0    0    0 -0.13455854977E+02 -0.23778983615E+02 -0.70153723540E+01  0.28208430375E+02  0.00000000000E+00 0.  1.
</event>
<event>
 5    1  0.6622912E-004  0.9118800E+02  0.7818608E-02  0.1130116E+00
         25   -1    0    0    0    0  0.00000000000E+00  0.00000000000E+00  0.99999998245E-14  0.12500000000E+03  0.12500000000E+03 0.  0.
        -11    1    3    3    0    0  0.37040980481E+02  0.11163803184E+02 -0.14673934322E+02  0.41376189835E+02  0.51100000000E-03 0.  1.
         23    2    1    0    0    0  0.88592231375E+01 -0.15119403992E+02  0.23544337436E+02  0.95650076031E+02  0.91035811677E+02 0.  0.
         11    1    3    3    0    0 -0.28181757343E+02 -0.26283207176E+02  0.38218271758E+02  0.54273886196E+02  0.51100000000E-03 0. -1.
         22    1    1    0    0    0 -0.88592231375E+01  0.15119403992E+02 -0.23544337436E+02  0.29349923969E+02  0.00000000000E+00 0. -1.
</event>
<event>
 5    1  0.6622912E-004  0.9118800E+02  0.7818608E-02  0.1130116E+00
         25   -1    0    0    0    0  0.00000000000E+00  0.00000000000E+00  0.99999998245E-14  0.12500000000E+03  0.12500000000E+03 0.  0.
        -11    1    3    3    0    0  0.44299410478E+02 -0.40292895698E+02  0.11676146621E+02  0.61010553289E+02  0.51100000000E-03 0.  1.
         23    2    1    0    0    0  0.24906698809E+02 -0.19373991706E+02 -0.33793089150E+01  0.93264925888E+02  0.87699666316E+02 0.  0.
         11    1    3    3    0    0 -0.19392711670E+02  0.20918903992E+02 -0.15055455536E+02  0.32254372599E+02  0.51100000000E-03 0. -1.
         22    1    1    0    0    0 -0.24906698809E+02  0.19373991706E+02  0.33793089150E+01  0.31735074112E+02  0.00000000000E+00 0.  1.
</event>
<event>
 5    1  0.6622912E-004  0.9118800E+02  0.7818608E-02  0.1130116E+00
         25   -1    0    0    0    0  0.00000000000E+00  0.00000000000E+00  0.99999998245E-14  0.12500000000E+03  0.12500000000E+03 0.  0.
        -11    1    3    3    0    0 -0.28124449186E+02  0.53075393067E+02 -0.86813229014E+01  0.60690587069E+02  0.51100000000E-03 0. -1.
         23    2    1    0    0    0 -0.20656906450E+02  0.20516911815E+02  0.21490547267E+01  0.95806338176E+02  0.91250120789E+02 0.  0.
         11    1    3    3    0    0  0.74675427363E+01 -0.32558481252E+02  0.10830377628E+02  0.35115751107E+02  0.51100000000E-03 0.  1.
         22    1    1    0    0    0  0.20656906450E+02 -0.20516911815E+02 -0.21490547267E+01  0.29193661824E+02  0.00000000000E+00 0. -1.
</event>
<event>
 5    1  0.6622912E-004  0.9118800E+02  0.7818608E-02  0.1130116E+00
         25   -1    0    0    0    0  0.00000000000E+00  0.00000000000E+00  0.99999998245E-14  0.12500000000E+03  0.12500000000E+03 0.  0.
        -11    1    3    3    0    0 -0.31687356999E+02 -0.15502073938E+02  0.33528903218E+02  0.48668164555E+02  0.51100000000E-03 0. -1.
         23    2    1    0    0    0 -0.27621540545E+02 -0.67648878901E+01 -0.11209413112E+02  0.94432629283E+02  0.89348516052E+02 0.  0.
         11    1    3    3    0    0  0.40658164538E+01  0.87371860477E+01 -0.44738316330E+02  0.45764464727E+02  0.51100000000E-03 0.  1.
         22    1    1    0    0    0  0.27621540545E+02  0.67648878901E+01  0.11209413112E+02  0.30567370717E+02  0.00000000000E+00 0.  1.
</event>
<event>
 5    1  0.6622912E-004  0.9118800E+02  0.7818608E-02  0.1130116E+00
         25   -1    0    0    0    0  0.00000000000E+00  0.00000000000E+00  0.99999998245E-14  0.12500000000E+03  0.12500000000E+03 0.  0.
        -11    1    3    3    0    0 -0.55611473756E+01  0.15939239446E+02 -0.38207265894E+02  0.41770574351E+02  0.51100000000E-03 0.  1.
         23    2    1    0    0    0 -0.25228366665E+02 -0.17971027241E+02 -0.40563192222E+01  0.93760889412E+02  0.88403746261E+02 0.  0.
         11    1    3    3    0    0 -0.19667219289E+02 -0.33910266687E+02  0.34150946671E+02  0.51990315061E+02  0.51100000000E-03 0. -1.
         22    1    1    0    0    0  0.25228366665E+02  0.17971027241E+02  0.40563192222E+01  0.31239110588E+02  0.00000000000E+00 0. -1.
</event>
<event>
 5    1  0.6622912E-004  0.9118800E+02  0.7818608E-02  0.1130116E+00
         25   -1    0    0    0    0  0.00000000000E+00  0.00000000000E+00  0.99999998245E-14  0.12500000000E+03  0.12500000000E+03 0.  0.
        -11    1    3    3    0    0  0.51587270462E+02 -0.45823183565E+01  0.13816316110E+02  0.53601629698E+02  0.51100000000E-03 0.  1.
         23    2    1    0    0    0  0.28014541515E+02 -0.31931603340E+01 -0.16732544223E+02  0.92212977485E+02  0.86187263393E+02 0.  0.
         11    1    3    3    0    0 -0.23572728947E+02  0.13891580225E+01 -0.30548860333E+02  0.38611347786E+02  0.51100000000E-03 0. -1.
         22    1    1    0    0    0 -0.28014541515E+02  0.31931603340E+01  0.16732544223E+02  0.32787022515E+02  0.00000000000E+00 0.  1.
</event>
<event>
 5    1  0.6622912E-004  0.9118800E+02  0.7818608E-02  0.1130116E+00
         25   -1    0    0    0    0  0.00000000000E+00  0.00000000000E+00  0.99999998245E-14  0.12500000000E+03  0.12500000000E+03 0.  0.
        -11    1    3    3    0    0  0.15771808901E+02 -0.21229689109E+02  0.38016364948E+02  0.46310837391E+02  0.51100000000E-03 0. -1.
         23    2    1    0    0    0  0.37874735003E+02 -0.14079604300E+02  0.87849769923E+01  0.83648982727E+02  0.72713449111E+02 0.  0.
         11    1    3    3    0    0  0.22102926102E+02  0.71500848092E+01 -0.29231387956E+02  0.37338145336E+02  0.51100000000E-03 0.  1.
         22    1    1    0    0    0 -0.37874735003E+02  0.14079604300E+02 -0.87849769923E+01  0.41351017273E+02  0.00000000000E+00 0. -1.
</event>
<event>
 5    1  0.6622912E-004  0.9118800E+02  0.7818608E-02  0.1130116E+00
         25   -1    0    0    0    0  0.00000000000E+00  0.00000000000E+00  0.99999998245E-14  0.12500000000E+03  0.12500000000E+03 0.  0.
        -11    1    3    3    0    0 -0.53833562708E+02  0.38246000700E+01 -0.47647264257E+01  0.54179171807E+02  0.51100000000E-03 0.  1.
         23    2    1    0    0    0 -0.19418705449E+02 -0.16159206111E+02 -0.15453178713E+02  0.95385699472E+02  0.90672073253E+02 0.  0.
         11    1    3    3    0    0  0.34414857259E+02 -0.19983806181E+02 -0.10688452287E+02  0.41206527665E+02  0.51100000000E-03 0. -1.
         22    1    1    0    0    0  0.19418705449E+02  0.16159206111E+02  0.15453178713E+02  0.29614300528E+02  0.00000000000E+00 0.  1.
</event>
<event>
 5    1  0.6622912E-004  0.9118800E+02  0.7818608E-02  0.1130116E+00
         25   -1    0    0    0    0  0.00000000000E+00  0.00000000000E+00  0.99999998245E-14  0.12500000000E+03  0.12500000000E+03 0.  0.
        -11    1    3    3    0    0  0.25519488226E+02 -0.90910387623E+01  0.31058324380E+02  0.41212992838E+02  0.51100000000E-03 0. -1.
         23    2    1    0    0    0 -0.68965096974E+01  0.23615022372E+02 -0.52385506055E+01  0.99846997394E+02  0.96626856249E+02 0.  0.
         11    1    3    3    0    0 -0.32415997923E+02  0.32706061135E+02 -0.36296874986E+02  0.58634004556E+02  0.51100000000E-03 0.  1.
         22    1    1    0    0    0  0.68965096974E+01 -0.23615022372E+02  0.52385506055E+01  0.25153002606E+02  0.00000000000E+00 0.  1.
</event>
<event>
 5    1  0.6622912E-004  0.9118800E+02  0.7818608E-02  0.1130116E+00
         25   -1    0    0    0    0  0.00000000000E+00  0.00000000000E+00  0.99999998245E-14  0.12500000000E+03  0.12500000000E+03 0.  0.
        -11    1    3    3    0    0  0.50791778556E+02  0.21965395503E+02  0.17348509648E+02  0.57993569952E+02  0.51100000000E-03 0. -1.
         23    2    1    0    0    0  0.13926572751E+02  0.14839409081E+02  0.21047318203E+02  0.95722925454E+02  0.91135785307E+02 0.  0.
         11    1    3    3    0    0 -0.36865205806E+02 -0.71259864224E+01  0.36988085545E+01  0.37729355501E+02  0.51100000000E-03 0.  1.
         22    1    1    0    0    0 -0.13926572751E+02 -0.14839409081E+02 -0.21047318203E+02  0.29277074546E+02  0.00000000000E+00 0. -1.
</event>
<event>
 5    1  0.6622912E-004  0.9118800E+02  0.7818608E-02  0.1130116E+00
         25   -1    0    0    0    0  0.00000000000E+00  0.00000000000E+00  0.99999998245E-14  0.12500000000E+03  0.12500000000E+03 0.  0.
        -11    1    3    3    0    0 -0.42509013199E+02  0.36121919360E+02 -0.23485550257E+02  0.60525864988E+02  0.51100000000E-03 0.  1.
         23    2    1    0    0    0 -0.15854002885E+02  0.15393424228E+02 -0.21212737418E+02  0.94368526877E+02  0.89258790711E+02 0.  0.
         11    1    3    3    0    0  0.26655010314E+02 -0.20728495132E+02  0.22728128386E+01  0.33842661889E+02  0.51100000000E-03 0. -1.
         22    1    1    0    0    0  0.15854002885E+02 -0.15393424228E+02  0.21212737418E+02  0.30631473123E+02  0.00000000000E+00 0.  1.
</event>
<event>
 5    1  0.6622912E-004  0.9118800E+02  0.7818608E-02  0.1130116E+00
         25   -1    0    0    0    0  0.00000000000E+00  0.00000000000E+00  0.99999998245E-14  0.12500000000E+03  0.12500000000E+03 0.  0.
        -11    1    3    3    0    0  0.21688146276E+02 -0.25751163696E+02 -0.92735399683E+01  0.34921292421E+02  0.51100000000E-03 0. -1.
         23    2    1    0    0    0  0.10776417706E+02 -0.19924738448E+02  0.36337609617E+02  0.82180048418E+02  0.70142797951E+02 0.  0.
         11    1    3    3    0    0 -0.10911728570E+02  0.58264252474E+01  0.45611149585E+02  0.47258755996E+02  0.51100000000E-03 0.  1.
         22    1    1    0    0    0 -0.10776417706E+02  0.19924738448E+02 -0.36337609617E+02  0.42819951582E+02  0.00000000000E+00 0.  1.
</event>
<event>
 5    1  0.6622912E-004  0.9118800E+02  0.7818608E-02  0.1130116E+00
         25   -1    0    0    0    0  0.00000000000E+00  0.00000000000E+00  0.99999998245E-14  0.12500000000E+03  0.12500000000E+03 0.  0.
        -11    1    3    3    0    0 -0.10003548881E+02 -0.16519766511E+02  0.52832019281E+02  0.56251186098E+02  0.51100000000E-03 0. -1.
         23    2    1    0    0    0  0.64088416018E+01 -0.66257198682E+01  0.48145603305E+02  0.75979876255E+02  0.58051434639E+02 0.  0.
         11    1    3    3    0    0  0.16412390483E+02  0.98940466426E+01 -0.46864159767E+01  0.19728690157E+02  0.51100000000E-03 0.  1.
         22    1    1    0    0    0 -0.64088416018E+01  0.66257198682E+01 -0.48145603305E+02  0.49020123745E+02  0.00000000000E+00 0. -1.
</event>
<event>
 5    1  0.6622912E-004  0.9118800E+02  0.7818608E-02  0.1130116E+00
         25   -1    0    0    0    0  0.00000000000E+00  0.00000000000E+00  0.99999998245E-14  0.12500000000E+03  0.12500000000E+03 0.  0.
        -11    1    3    3    0    0 -0.24941428674E+02  0.12333583973E+02 -0.21210896583E+02  0.34987058922E+02  0.51100000000E-03 0.  1.
         23    2    1    0    0    0  0.19645105981E+02 -0.21811184307E+02  0.16011532554E+01  0.95602353127E+02  0.90970260425E+02 0.  0.
         11    1    3    3    0    0  0.44586534655E+02 -0.34144768280E+02  0.22812049839E+02  0.60615294205E+02  0.51100000000E-03 0. -1.
         22    1    1    0    0    0 -0.19645105981E+02  0.21811184307E+02 -0.16011532554E+01  0.29397646873E+02  0.00000000000E+00 0. -1.
</event>
<event>
 5    1  0.6622912E-004  0.9118800E+02  0.7818608E-02  0.1130116E+00
         25   -1    0    0    0    0  0.00000000000E+00  0.00000000000E+00  0.99999998245E-14  0.12500000000E+03  0.12500000000E+03 0.  0.
        -11    1    3    3    0    0  0.82354270759E+01  0.43956606867E+02 -0.39944711267E+02  0.59963201255E+02  0.51100000000E-03 0.  1.
         23    2    1    0    0    0 -0.70852758398E+01  0.25241945018E+02 -0.14620709726E+02  0.94981304577E+02  0.90112852270E+02 0.  0.
         11    1    3    3    0    0 -0.15320702916E+02 -0.18714661849E+02  0.25324001540E+02  0.35018103321E+02  0.51100000000E-03 0. -1.
         22    1    1    0    0    0  0.70852758398E+01 -0.25241945018E+02  0.14620709726E+02  0.30018695423E+02  0.00000000000E+00 0.  1.
</event>
<event>
 5    1  0.6622912E-004  0.9118800E+02  0.7818608E-02  0.1130116E+00
         25   -1    0    0    0    0  0.00000000000E+00  0.00000000000E+00  0.99999998245E-14  0.12500000000E+03  0.12500000000E+03 0.  0.
        -11    1    3    3    0    0  0.60275491687E+01 -0.58312198320E+02 -0.68034227881E+01  0.59016356917E+02  0.51100000000E-03 0. -1.
         23    2    1    0    0    0  0.55278432694E+01 -0.29380741609E+02  0.11176083279E+02  0.93083078686E+02  0.87440091900E+02 0.  0.
         11    1    3    3    0    0 -0.49970589934E+00  0.28931456711E+02  0.17979506067E+02  0.34066721769E+02  0.51100000000E-03 0.  1.
         22    1    1    0    0    0 -0.55278432694E+01  0.29380741609E+02 -0.11176083279E+02  0.31916921314E+02  0.00000000000E+00 0. -1.
</event>
<event>
 5    1  0.6622912E-004  0.9118800E+02  0.7818608E-02  0.1130116E+00
         25   -1    0    0    0    0  0.00000000000E+00  0.00000000000E+00  0.99999998245E-14  0.12500000000E+03  0.12500000000E+03 0.  0.
        -11    1    3    3    0    0  0.36427641700E+02 -0.28768234837E+02  0.18193725247E+02  0.49855752468E+02  0.51100000000E-03 0.  1.
         23    2    1    0    0    0  0.24166877831E+02 -0.27699035336E+01 -0.17020031879E+02  0.95311755949E+02  0.90570077769E+02 0.  0.
         11    1    3    3    0    0 -0.12260763869E+02  0.25998331304E+02 -0.35213757126E+02  0.45456003481E+02  0.51100000000E-03 0. -1.
         22    1    1    0    0    0 -0.24166877831E+02  0.27699035336E+01  0.17020031879E+02  0.29688244051E+02  0.00000000000E+00 0.  1.
</event>
<event>
 5    1  0.6622912E-004  0.9118800E+02  0.7818608E-02  0.1130116E+00
         25   -1    0    0    0    0  0.00000000000E+00  0.00000000000E+00  0.99999998245E-14  0.12500000000E+03  0.12500000000E+03 0.  0.
        -11    1    3    3    0    0 -0.38051539000E+02 -0.63992323456E+01 -0.86349452536E+01  0.39540258910E+02  0.51100000000E-03 0. -1.
         23    2    1    0    0    0 -0.10815502465E+00  0.11764315931E+02  0.27559199310E+02  0.95034681823E+02  0.90186864098E+02 0.  0.
         11    1    3    3    0    0  0.37943383976E+02  0.18163548276E+02  0.36194144564E+02  0.55494422913E+02  0.51100000000E-03 0.  1.
         22    1    1    0    0    0  0.10815502465E+00 -0.11764315931E+02 -0.27559199310E+02  0.29965318177E+02  0.00000000000E+00 0.  1.
</event>
<event>
 5    1  0.6622912E-004  0.9118800E+02  0.7818608E-02  0.1130116E+00
         25   -1    0    0    0    0  0.00000000000E+00  0.00000000000E+00  0.99999998245E-14  0.12500000000E+03  0.12500000000E+03 0.  0.
        -11    1    3    3    0    0  0.50451848985E+02  0.99681130751E+01 -0.20661097345E+02  0.55422317599E+02  0.51100000000E-03 0. -1.
         23    2    1    0    0    0  0.27433264646E+02  0.93913943233E+01  0.10494343241E+02  0.94163114027E+02  0.88970660932E+02 0.  0.
         11    1    3    3    0    0 -0.23018584339E+02 -0.57671875183E+00  0.31155440586E+02  0.38740796428E+02  0.51100000000E-03 0.  1.
         22    1    1    0    0    0 -0.27433264646E+02 -0.93913943233E+01 -0.10494343241E+02  0.30836885973E+02  0.00000000000E+00 0.  1.
</event>
<event>
 5    1  0.6622912E-004  0.9118800E+02  0.7818608E-02  0.1130116E+00
         25   -1    0    0    0    0  0.00000000000E+00  0.00000000000E+00  0.99999998245E-14  0.12500000000E+03  0.12500000000E+03 0.  0.
        -11    1    3    3    0    0 -0.29746179609E+02  0.25300409638E+02 -0.60684034338E+01  0.39519254165E+02  0.51100000000E-03 0. -1.
         23    2    1    0    0    0 -0.36812461046E+02  0.68187337983E+01 -0.34453948618E+02  0.74120465861E+02  0.53899132323E+02 0.  0.
         11    1    3    3    0    0 -0.70662814362E+01 -0.18481675840E+02 -0.28385545184E+02  0.34601211696E+02  0.51100000000E-03 0.  1.
         22    1    1    0    0    0  0.36812461046E+02 -0.68187337983E+01  0.34453948618E+02  0.50879534139E+02  0.00000000000E+00 0.  1.
</event>
<event>
 5    1  0.6622912E-004  0.9118800E+02  0.7818608E-02  0.1130116E+00
         25   -1    0    0    0    0  0.00000000000E+00  0.00000000000E+00  0.99999998245E-14  0.12500000000E+03  0.12500000000E+03 0.  0.
        -11    1    3    3    0    0 -0.27514368977E+02  0.28665982304E+02 -0.29736284531E+02  0.49628879291E+02  0.51100000000E-03 0. -1.
         23    2    1    0    0    0 -0.17969038492E+02  0.20492438484E+02  0.13450509265E+02  0.94606866255E+02  0.89591944748E+02 0.  0.
         11    1    3    3    0    0  0.95453304851E+01 -0.81735438199E+01  0.43186793797E+02  0.44977986964E+02  0.51100000000E-03 0.  1.
         22    1    1    0    0    0  0.17969038492E+02 -0.20492438484E+02 -0.13450509265E+02  0.30393133745E+02  0.00000000000E+00 0.  1.
</event>
<event>
 5    1  0.6622912E-004  0.9118800E+02  0.7818608E-02  0.1130116E+00
         25   -1    0    0    0    0  0.00000000000E+00  0.00000000000E+00  0.99999998245E-14  0.12500000000E+03  0.12500000000E+03 0.  0.
        -11    1    3    3    0    0  0.34617259988E+02  0.36232967373E+02 -0.25247813088E+02  0.56112696243E+02  0.51100000000E-03 0.  1.
         23    2    1    0    0    0  0.17401419287E+02  0.16157861436E+01 -0.24655361243E+02  0.94779030524E+02  0.89831829721E+02 0.  0.
         11    1    3    3    0    0 -0.17215840701E+02 -0.34617181229E+02  0.59245184478E+00  0.38666334281E+02  0.51100000000E-03 0. -1.
         22    1    1    0    0    0 -0.17401419287E+02 -0.16157861436E+01  0.24655361243E+02  0.30220969476E+02  0.00000000000E+00 0.  1.
</event>
<event>
 5    1  0.6622912E-004  0.9118800E+02  0.7818608E-02  0.1130116E+00
         25   -1    0    0    0    0  0.00000000000E+00  0.00000000000E+00  0.99999998245E-14  0.12500000000E+03  0.12500000000E+03 0.  0.
        -11    1    3    3    0    0  0.10416269451E+01 -0.56149028766E+02 -0.25579168266E+02  0.61709742080E+02  0.51100000000E-03 0.  1.
         23    2    1    0    0    0 -0.42015968936E+01 -0.29064332216E+02 -0.75085155946E+01  0.94688836544E+02  0.89706238000E+02 0.  0.
         11    1    3    3    0    0 -0.52432238387E+01  0.27084696551E+02  0.18070652672E+02  0.32979094465E+02  0.51100000000E-03 0. -1.
         22    1    1    0    0    0  0.42015968936E+01  0.29064332216E+02  0.75085155946E+01  0.30311163456E+02  0.00000000000E+00 0.  1.
</event>
<event>
 5    1  0.6622912E-004  0.9118800E+02  0.7818608E-02  0.1130116E+00
         25   -1    0    0    0    0  0.00000000000E+00  0.00000000000E+00  0.99999998245E-14  0.12500000000E+03  0.12500000000E+03 0.  0.
        -11    1    3    3    0    0  0.52894852130E+02 -0.15180975280E+02  0.29234279096E+02  0.62313485433E+02  0.51100000000E-03 0. -1.
         23    2    1    0    0    0  0.24029096002E+02 -0.50432057255E+01  0.16299024345E+02  0.95529852846E+02  0.90870584963E+02 0.  0.
         11    1    3    3    0    0 -0.28865756128E+02  0.10137769554E+02 -0.12935254752E+02  0.33216367413E+02  0.51100000000E-03 0.  1.
         22    1    1    0    0    0 -0.24029096002E+02  0.50432057255E+01 -0.16299024345E+02  0.29470147154E+02  0.00000000000E+00 0. -1.
</event>
<event>
 5    1  0.6622912E-004  0.9118800E+02  0.7818608E-02  0.1130116E+00
         25   -1    0    0    0    0  0.00000000000E+00  0.00000000000E+00  0.99999998245E-14  0.12500000000E+03  0.12500000000E+03 0.  0.
        -11    1    3    3    0    0  0.33900945355E+02 -0.32044180019E+02 -0.26349919682E+02  0.53576317871E+02  0.51100000000E-03 0. -1.
         23    2    1    0    0    0  0.26484687672E+02  0.63383003696E+01 -0.93241754337E+01  0.96215403769E+02  0.91808773776E+02 0.  0.
         11    1    3    3    0    0 -0.74162576832E+01  0.38382480389E+02  0.17025744248E+02  0.42639085899E+02  0.51100000000E-03 0.  1.
         22    1    1    0    0    0 -0.26484687672E+02 -0.63383003696E+01  0.93241754337E+01  0.28784596231E+02  0.00000000000E+00 0. -1.
</event>
<event>
 5    1  0.6622912E-004  0.9118800E+02  0.7818608E-02  0.1130116E+00
         25   -1    0    0    0    0  0.00000000000E+00  0.00000000000E+00  0.99999998245E-14  0.12500000000E+03  0.12500000000E+03 0.  0.
        -11    1    3    3    0    0 -0.56424785101E+02 -0.17883374838E+02 -0.19563707116E+02  0.62340276753E+02  0.51100000000E-03 0. -1.
         23    2    1    0    0    0 -0.26391159235E+02 -0.69422107750E+01 -0.12009719397E+02  0.95185222855E+02  0.90395274842E+02 0.  0.
         11    1    3    3    0    0  0.30033625866E+02  0.10941164063E+02  0.75539877186E+01  0.32844946102E+02  0.51100000000E-03 0.  1.
         22    1    1    0    0    0  0.26391159235E+02  0.69422107750E+01  0.12009719397E+02  0.29814777145E+02  0.00000000000E+00 0. -1.
</event>
<event>
 5    1  0.6622912E-004  0.9118800E+02  0.7818608E-02  0.1130116E+00
         25   -1    0    0    0    0  0.00000000000E+00  0.00000000000E+00  0.99999998245E-14  0.12500000000E+03  0.12500000000E+03 0.  0.
        -11    1    3    3    0    0  0.60213434550E+01 -0.14032805402E+02  0.43679571423E+02  0.46271818253E+02  0.51100000000E-03 0.  1.
         23    2    1    0    0    0  0.21499994070E+02 -0.22435326653E+02 -0.59443901866E+00  0.93920312344E+02  0.88628878397E+02 0.  0.
         11    1    3    3    0    0  0.15478650615E+02 -0.84025212513E+01 -0.44274010442E+02  0.47648494091E+02  0.51100000000E-03 0. -1.
         22    1    1    0    0    0 -0.21499994070E+02  0.22435326653E+02  0.59443901866E+00  0.31079687656E+02  0.00000000000E+00 0. -1.
</event>
<event>
 5    1  0.6622912E-004  0.9118800E+02  0.7818608E-02  0.1130116E+00
         25   -1    0    0    0    0  0.00000000000E+00  0.00000000000E+00  0.99999998245E-14  0.12500000000E+03  0.12500000000E+03 0.  0.
        -11    1    3    3    0    0  0.28139898733E+02  0.31586668649E+02 -0.30210032199E+02  0.51982858548E+02  0.51100000000E-03 0.  1.
         23    2    1    0    0    0  0.21409031789E+02 -0.95195032195E+01 -0.18195194698E+02  0.95334655003E+02  0.90601676313E+02 0.  0.
         11    1    3    3    0    0 -0.67308669440E+01 -0.41106171868E+02  0.12014837501E+02  0.43351796455E+02  0.51100000000E-03 0. -1.
         22    1    1    0    0    0 -0.21409031789E+02  0.95195032195E+01  0.18195194698E+02  0.29665344997E+02  0.00000000000E+00 0. -1.
</event>
<event>
 5    1  0.6622912E-004  0.9118800E+02  0.7818608E-02  0.1130116E+00
         25   -1    0    0    0    0  0.00000000000E+00  0.00000000000E+00  0.99999998245E-14  0.12500000000E+03  0.12500000000E+03 0.  0.
        -11    1    3    3    0    0 -0.32729522483E+02  0.38051013756E+02  0.18903948878E+02  0.53632644661E+02  0.51100000000E-03 0. -1.
         23    2    1    0    0    0 -0.24846391324E+02  0.10967335804E+02 -0.11853956283E+02  0.95366540937E+02  0.90645657559E+02 0.  0.
         11    1    3    3    0    0  0.78831311589E+01 -0.27083677952E+02 -0.30757905160E+02  0.41733896277E+02  0.51100000000E-03 0.  1.
         22    1    1    0    0    0  0.24846391324E+02 -0.10967335804E+02  0.11853956283E+02  0.29633459063E+02  0.00000000000E+00 0. -1.
</event>
<event>
 5    1  0.6622912E-004  0.9118800E+02  0.7818608E-02  0.1130116E+00
         25   -1    0    0    0    0  0.00000000000E+00  0.00000000000E+00  0.99999998245E-14  0.12500000000E+03  0.12500000000E+03 0.  0.
        -11    1    3    3    0    0 -0.52419742183E+01 -0.29536123702E+02  0.49349009834E+02  0.57751066388E+02  0.51100000000E-03 0.  1.
         23    2    1    0    0    0  0.83527069419E+01 -0.24806424506E+02  0.15387011009E+02  0.94637415824E+02  0.89634557823E+02 0.  0.
         11    1    3    3    0    0  0.13594681160E+02  0.47296991961E+01 -0.33961998825E+02  0.36886349437E+02  0.51100000000E-03 0. -1.
         22    1    1    0    0    0 -0.83527069419E+01  0.24806424506E+02 -0.15387011009E+02  0.30362584176E+02  0.00000000000E+00 0.  1.
</event>
<event>
 5    1  0.6622912E-004  0.9118800E+02  0.7818608E-02  0.1130116E+00
         25   -1    0    0    0    0  0.00000000000E+00  0.00000000000E+00  0.99999998245E-14  0.12500000000E+03  0.12500000000E+03 0.  0.
        -11    1    3    3    0    0  0.15911271403E+02  0.36785874747E+02  0.78238242026E+01  0.40836030218E+02  0.51100000000E-03 0. -1.
         23    2    1    0    0    0 -0.68960544286E+01 -0.10530409031E+02  0.25750893980E+02  0.96337243297E+02  0.91974511818E+02 0.  0.
         11    1    3    3    0    0 -0.22807325832E+02 -0.47316283778E+02  0.17927069778E+02  0.55501213079E+02  0.51100000000E-03 0.  1.
         22    1    1    0    0    0  0.68960544286E+01  0.10530409031E+02 -0.25750893980E+02  0.28662756703E+02  0.00000000000E+00 0.  1.
</event>
<event>
 5    1  0.6622912E-004  0.9118800E+02  0.7818608E-02  0.1130116E+00
         25   -1    0    0    0    0  0.00000000000E+00  0.00000000000E+00  0.99999998245E-14  0.12500000000E+03  0.12500000000E+03 0.  0.
        -11    1    3    3    0    0 -0.33815325103E+02  0.13237947704E+02 -0.11798789326E+02  0.38182861352E+02  0.51100000000E-03 0.  1.
         23    2    1    0    0    0 -0.16782518984E+01 -0.31446518283E+01  0.30795375942E+02  0.93999023499E+02  0.88739821246E+02 0.  0.
         11    1    3    3    0    0  0.32137073204E+02 -0.16382599533E+02  0.42594165269E+02  0.55816162147E+02  0.51100000000E-03 0. -1.
         22    1    1    0    0    0  0.16782518984E+01  0.31446518283E+01 -0.30795375942E+02  0.31000976501E+02  0.00000000000E+00 0. -1.
</event>
<event>
 5    1  0.6622912E-004  0.9118800E+02  0.7818608E-02  0.1130116E+00
         25   -1    0    0    0    0  0.00000000000E+00  0.00000000000E+00  0.99999998245E-14  0.12500000000E+03  0.12500000000E+03 0.  0.
        -11    1    3    3    0    0  0.93942443356E+01  0.45756805621E+02  0.34924138749E+02  0.58323516311E+02  0.51100000000E-03 0.  1.
         23    2    1    0    0    0  0.19788004215E+02  0.18084121473E+02  0.12525494895E+02  0.95411343683E+02  0.90707419326E+02 0.  0.
         11    1    3    3    0    0  0.10393759880E+02 -0.27672684149E+02 -0.22398643854E+02  0.37087827372E+02  0.51100000000E-03 0. -1.
         22    1    1    0    0    0 -0.19788004215E+02 -0.18084121473E+02 -0.12525494895E+02  0.29588656317E+02  0.00000000000E+00 0.  1.
</event>
<event>
 5    1  0.6622912E-004  0.9118800E+02  0.7818608E-02  0.1130116E+00
         25   -1    0    0    0    0  0.00000000000E+00  0.00000000000E+00  0.99999998245E-14  0.12500000000E+03  0.12500000000E+03 0.  0.
        -11    1    3    3    0    0  0.65215499192E+01  0.25703866856E+02  0.27214650738E+02  0.37998113108E+02  0.51100000000E-03 0. -1.
         23    2    1    0    0    0 -0.65379051964E+01  0.82617373376E+01 -0.26779215629E+02  0.96222805941E+02  0.91818851470E+02 0.  0.
         11    1    3    3    0    0 -0.13059455116E+02 -0.17442129518E+02 -0.53993866367E+02  0.58224692834E+02  0.51100000000E-03 0.  1.
         22    1    1    0    0    0  0.65379051964E+01 -0.82617373376E+01  0.26779215629E+02  0.28777194059E+02  0.00000000000E+00 0.  1.
</event>
<event>
 5    1  0.6622912E-004  0.9118800E+02  0.7818608E-02  0.1130116E+00
         25   -1    0    0    0    0  0.00000000000E+00  0.00000000000E+00  0.99999998245E-14  0.12500000000E+03  0.12500000000E+03 0.  0.
        -11    1    3    3    0    0  0.21818235001E+02  0.17434644961E+02  0.21110692309E+02  0.35009478052E+02  0.51100000000E-03 0.  1.
         23    2    1    0    0    0 -0.80537502704E+01 -0.37021484370E+00 -0.28380318528E+02  0.95496738617E+02  0.90825022182E+02 0.  0.
         11    1    3    3    0    0 -0.29871985272E+02 -0.17804859804E+02 -0.49491010837E+02  0.60487260565E+02  0.51100000000E-03 0. -1.
         22    1    1    0    0    0  0.80537502704E+01  0.37021484370E+00  0.28380318528E+02  0.29503261383E+02  0.00000000000E+00 0. -1.
</event>
<event>
 5    1  0.6622912E-004  0.9118800E+02  0.7818608E-02  0.1130116E+00
         25   -1    0    0    0    0  0.00000000000E+00  0.00000000000E+00  0.99999998245E-14  0.12500000000E+03  0.12500000000E+03 0.  0.
        -11    1    3    3    0    0  0.69598977271E+01 -0.52595395373E+02  0.28549949905E+02  0.60247949597E+02  0.51100000000E-03 0.  1.
         23    2    1    0    0    0  0.10598157332E+02 -0.27082715147E+02  0.43614184747E+01  0.95592239635E+02  0.90956362662E+02 0.  0.
         11    1    3    3    0    0  0.36382596050E+01  0.25512680226E+02 -0.24188531430E+02  0.35344290038E+02  0.51100000000E-03 0. -1.
         22    1    1    0    0    0 -0.10598157332E+02  0.27082715147E+02 -0.43614184747E+01  0.29407760365E+02  0.00000000000E+00 0.  1.
</event>
<event>
 5    1  0.6622912E-004  0.9118800E+02  0.7818608E-02  0.1130116E+00
         25   -1    0    0    0    0  0.00000000000E+00  0.00000000000E+00  0.99999998245E-14  0.12500000000E+03  0.12500000000E+03 0.  0.
        -11    1    3    3    0    0  0.10324767612E+02  0.28263074692E+02  0.53072550655E+02  0.61008998112E+02  0.51100000000E-03 0. -1.
         23    2    1    0    0    0 -0.47388929928E+01  0.14714063559E+02  0.24323839728E+02  0.96179695486E+02  0.91760143153E+02 0.  0.
         11    1    3    3    0    0 -0.15063660604E+02 -0.13549011134E+02 -0.28748710928E+02  0.35170697374E+02  0.51100000000E-03 0.  1.
         22    1    1    0    0    0  0.47388929928E+01 -0.14714063559E+02 -0.24323839728E+02  0.28820304514E+02  0.00000000000E+00 0. -1.
</event>
<event>
 5    1  0.6622912E-004  0.9118800E+02  0.7818608E-02  0.1130116E+00
         25   -1    0    0    0    0  0.00000000000E+00  0.00000000000E+00  0.99999998245E-14  0.12500000000E+03  0.12500000000E+03 0.  0.
        -11    1    3    3    0    0 -0.14648453895E+02 -0.25352066220E+02 -0.16822984474E+02  0.33768584069E+02  0.51100000000E-03 0.  1.
         23    2    1    0    0    0  0.16256155531E+02  0.25355549377E+02 -0.82826327176E+01  0.93762706878E+02  0.88406316061E+02 0.  0.
         11    1    3    3    0    0  0.30904609426E+02  0.50707615597E+02  0.85403517564E+01  0.59994122809E+02  0.51100000000E-03 0. -1.
         22    1    1    0    0    0 -0.16256155531E+02 -0.25355549377E+02  0.82826327176E+01  0.31237293122E+02  0.00000000000E+00 0. -1.
</event>
<event>
 5    1  0.6622912E-004  0.9118800E+02  0.7818608E-02  0.1130116E+00
         25   -1    0    0    0    0  0.00000000000E+00  0.00000000000E+00  0.99999998245E-14  0.12500000000E+03  0.12500000000E+03 0.  0.
        -11    1    3    3    0    0  0.66785391438E+01  0.52965282700E+02  0.30193108038E+02  0.61331458729E+02  0.51100000000E-03 0. -1.
         23    2    1    0    0    0 -0.47124351348E+01  0.23296381566E+02  0.17179523073E+02  0.95673144526E+02  0.91067481196E+02 0.  0.
         11    1    3    3    0    0 -0.11390974279E+02 -0.29668901133E+02 -0.13013584965E+02  0.34341685797E+02  0.51100000000E-03 0.  1.
         22    1    1    0    0    0  0.47124351348E+01 -0.23296381566E+02 -0.17179523073E+02  0.29326855474E+02  0.00000000000E+00 0. -1.
</event>
<event>
 5    1  0.6622912E-004  0.9118800E+02  0.7818608E-02  0.1130116E+00
         25   -1    0    0    0    0  0.00000000000E+00  0.00000000000E+00  0.99999998245E-14  0.12500000000E+03  0.12500000000E+03 0.  0.
        -11    1    3    3    0    0  0.47171994864E+02  0.34983191962E+02  0.73684320871E+01  0.59188804777E+02  0.51100000000E-03 0. -1.
         23    2    1    0    0    0  0.15592935977E+02  0.19153622677E+02  0.16025119703E+02  0.95558441353E+02  0.90909902312E+02 0.  0.
         11    1    3    3    0    0 -0.31579058887E+02 -0.15829569285E+02  0.86566876163E+01  0.36369636576E+02  0.51100000000E-03 0.  1.
         22    1    1    0    0    0 -0.15592935977E+02 -0.19153622677E+02 -0.16025119703E+02  0.29441558647E+02  0.00000000000E+00 0. -1.
</event>
<event>
 5    1  0.6622912E-004  0.9118800E+02  0.7818608E-02  0.1130116E+00
         25   -1    0    0    0    0  0.00000000000E+00  0.00000000000E+00  0.99999998245E-14  0.12500000000E+03  0.12500000000E+03 0.  0.
        -11    1    3    3    0    0  0.47726827371E+02  0.31839768170E+02  0.24427937721E+02  0.62356595718E+02  0.51100000000E-03 0.  1.
         23    2    1    0    0    0  0.23444060873E+02  0.12580187838E+02  0.95931779669E+01  0.96717245895E+02  0.92489520886E+02 0.  0.
         11    1    3    3    0    0 -0.24282766498E+02 -0.19259580331E+02 -0.14834759754E+02  0.34360650176E+02  0.51100000000E-03 0. -1.
         22    1    1    0    0    0 -0.23444060873E+02 -0.12580187838E+02 -0.95931779669E+01  0.28282754105E+02  0.00000000000E+00 0.  1.
</event>
<event>
 5    1  0.6622912E-004  0.9118800E+02  0.7818608E-02  0.1130116E+00
         25   -1    0    0    0    0  0.00000000000E+00  0.00000000000E+00  0.99999998245E-14  0.12500000000E+03  0.12500000000E+03 0.  0.
        -11    1    3    3    0    0  0.45087256333E+02  0.14652813701E+02 -0.37788281566E+02  0.60626065821E+02  0.51100000000E-03 0. -1.
         23    2    1    0    0    0  0.18905391171E+02  0.16551865229E+02 -0.13096902628E+02  0.96664387842E+02  0.92418055382E+02 0.  0.
         11    1    3    3    0    0 -0.26181865161E+02  0.18990515281E+01  0.24691378937E+02  0.36038322022E+02  0.51100000000E-03 0.  1.
         22    1    1    0    0    0 -0.18905391171E+02 -0.16551865229E+02  0.13096902628E+02  0.28335612158E+02  0.00000000000E+00 0. -1.
</event>
<event>
 5    1  0.6622912E-004  0.9118800E+02  0.7818608E-02  0.1130116E+00
         25   -1    0    0    0    0  0.00000000000E+00  0.00000000000E+00  0.99999998245E-14  0.12500000000E+03  0.12500000000E+03 0.  0.
        -11    1    3    3    0    0 -0.22957048492E+02 -0.53356420838E+02 -0.16167391416E+02  0.60293600536E+02  0.51100000000E-03 0. -1.
         23    2    1    0    0    0 -0.42781724170E+01 -0.32057591865E+02 -0.52610310267E+00  0.92653922342E+02  0.86824423899E+02 0.  0.
         11    1    3    3    0    0  0.18678876075E+02  0.21298828973E+02  0.15641288313E+02  0.32360321806E+02  0.51100000000E-03 0.  1.
         22    1    1    0    0    0  0.42781724170E+01  0.32057591865E+02  0.52610310267E+00  0.32346077658E+02  0.00000000000E+00 0. -1.
</event>
<event>
 5    1  0.6622912E-004  0.9118800E+02  0.7818608E-02  0.1130116E+00
         25   -1    0    0    0    0  0.00000000000E+00  0.00000000000E+00  0.99999998245E-14  0.12500000000E+03  0.12500000000E+03 0.  0.
        -11    1    3    3    0    0  0.79155718979E+01  0.49705298473E+01  0.42270999868E+02  0.43292030161E+02  0.51100000000E-03 0.  1.
         23    2    1    0    0    0  0.35422462673E+02 -0.41438404847E+01  0.74981365521E+01  0.88556285486E+02  0.80709797246E+02 0.  0.
         11    1    3    3    0    0  0.27506890775E+02 -0.91143703320E+01 -0.34772863316E+02  0.45264255325E+02  0.51100000000E-03 0. -1.
         22    1    1    0    0    0 -0.35422462673E+02  0.41438404847E+01 -0.74981365521E+01  0.36443714514E+02  0.00000000000E+00 0.  1.
</event>
<event>
 5    1  0.6622912E-004  0.9118800E+02  0.7818608E-02  0.1130116E+00
         25   -1    0    0    0    0  0.00000000000E+00  0.00000000000E+00  0.99999998245E-14  0.12500000000E+03  0.12500000000E+03 0.  0.
        -11    1    3    3    0    0 -0.39143124174E+02 -0.47445516664E+01 -0.90036794442E+01  0.40444544557E+02  0.51100000000E-03 0. -1.
         23    2    1    0    0    0  0.10408636237E+02 -0.22930578201E+02  0.11812865623E+02  0.97184628006E+02  0.93119047469E+02 0.  0.
         11    1    3    3    0    0  0.49551760411E+02 -0.18186026535E+02  0.20816545067E+02  0.56740083449E+02  0.51100000000E-03 0.  1.
         22    1    1    0    0    0 -0.10408636237E+02  0.22930578201E+02 -0.11812865623E+02  0.27815371994E+02  0.00000000000E+00 0.  1.
</event>
<event>
 5    1  0.6622912E-004  0.9118800E+02  0.7818608E-02  0.1130116E+00
         25   -1    0    0    0    0  0.00000000000E+00  0.00000000000E+00  0.99999998245E-14  0.12500000000E+03  0.12500000000E+03 0.  0.
        -11    1    3    3    0    0  0.54414533101E+02  0.13816349091E+02 -0.74292770171E+01  0.56630619563E+02  0.51100000000E-03 0. -1.
         23    2    1    0    0    0  0.25395743718E+02 -0.12906528885E+02 -0.40939749698E+01  0.96220095242E+02  0.91815161115E+02 0.  0.
         11    1    3    3    0    0 -0.29018789383E+02 -0.26722877975E+02  0.33353020474E+01  0.39589475679E+02  0.51100000000E-03 0.  1.
         22    1    1    0    0    0 -0.25395743718E+02  0.12906528885E+02  0.40939749698E+01  0.28779904758E+02  0.00000000000E+00 0. -1.
</event>
<event>
 5    1  0.6622912E-004  0.9118800E+02  0.7818608E-02  0.1130116E+00
         25   -1    0    0    0    0  0.00000000000E+00  0.00000000000E+00  0.99999998245E-14  0.12500000000E+03  0.12500000000E+03 0.  0.
        -11    1    3    3    0    0 -0.34771933917E+02  0.12705239962E+02  0.56230948229E+00  0.37024676947E+02  0.51100000000E-03 0. -1.
         23    2    1    0    0    0  0.11077662756E+02 -0.21296946942E+02 -0.15624735488E+02  0.96357253619E+02  0.92001703271E+02 0.  0.
         11    1    3    3    0    0  0.45849596673E+02 -0.34002186904E+02 -0.16187044971E+02  0.59332576672E+02  0.51100000000E-03 0.  1.
         22    1    1    0    0    0 -0.11077662756E+02  0.21296946942E+02  0.15624735488E+02  0.28642746381E+02  0.00000000000E+00 0.  1.
</event>
<event>
 5    1  0.6622912E-004  0.9118800E+02  0.7818608E-02  0.1130116E+00
         25   -1    0    0    0    0  0.00000000000E+00  0.00000000000E+00  0.99999998245E-14  0.12500000000E+03  0.12500000000E+03 0.  0.
        -11    1    3    3    0    0  0.11386802160E+02 -0.61702416277E+01 -0.36165545683E+02  0.38414552451E+02  0.51100000000E-03 0. -1.
         23    2    1    0    0    0 -0.13648953193E+02  0.24523789533E+02  0.60353338017E+01  0.96292240937E+02  0.91913330014E+02 0.  0.
         11    1    3    3    0    0 -0.25035755352E+02  0.30694031161E+02  0.42200879485E+02  0.57877688486E+02  0.51100000000E-03 0.  1.
         22    1    1    0    0    0  0.13648953193E+02 -0.24523789533E+02 -0.60353338017E+01  0.28707759063E+02  0.00000000000E+00 0.  1.
</event>
<event>
 5    1  0.6622912E-004  0.9118800E+02  0.7818608E-02  0.1130116E+00
         25   -1    0    0    0    0  0.00000000000E+00  0.00000000000E+00  0.99999998245E-14  0.12500000000E+03  0.12500000000E+03 0.  0.
        -11    1    3    3    0    0 -0.57800863596E+02  0.11918206280E+02  0.16891643331E+02  0.61386570910E+02  0.51100000000E-03 0.  1.
         23    2    1    0    0    0 -0.26823558818E+02  0.11173720222E+02  0.17103722938E+01  0.95891913415E+02  0.91367271787E+02 0.  0.
         11    1    3    3    0    0  0.30977304778E+02 -0.74448605793E+00 -0.15181271038E+02  0.34505342505E+02  0.51100000000E-03 0. -1.
         22    1    1    0    0    0  0.26823558818E+02 -0.11173720222E+02 -0.17103722938E+01  0.29108086585E+02  0.00000000000E+00 0.  1.
</event>
<event>
 5    1  0.6622912E-004  0.9118800E+02  0.7818608E-02  0.1130116E+00
         25   -1    0    0    0    0  0.00000000000E+00  0.00000000000E+00  0.99999998245E-14  0.12500000000E+03  0.12500000000E+03 0.  0.
        -11    1    3    3    0    0  0.33948724190E+02 -0.67219152694E+01 -0.14034010630E+02  0.37345059561E+02  0.51100000000E-03 0. -1.
         23    2    1    0    0    0 -0.13539651542E+02  0.23896137836E+02 -0.14691673182E+02  0.93852081478E+02  0.88532594955E+02 0.  0.
         11    1    3    3    0    0 -0.47488375731E+02  0.30618053106E+02 -0.65766255225E+00  0.56507021917E+02  0.51100000000E-03 0.  1.
         22    1    1    0    0    0  0.13539651542E+02 -0.23896137836E+02  0.14691673182E+02  0.31147918522E+02  0.00000000000E+00 0.  1.
</event>
<event>
 5    1  0.6622912E-004  0.9118800E+02  0.7818608E-02  0.1130116E+00
         25   -1    0    0    0    0  0.00000000000E+00  0.00000000000E+00  0.99999998245E-14  0.12500000000E+03  0.12500000000E+03 0.  0.
        -11    1    3    3    0    0  0.28473257990E+02  0.10767341975E+02  0.50938838958E+02  0.59341615991E+02  0.51100000000E-03 0. -1.
         23    2    1    0    0    0  0.11479880206E+02  0.18986592288E+02  0.23160399138E+02  0.92926920564E+02  0.87216570335E+02 0.  0.
         11    1    3    3    0    0 -0.16993377783E+02  0.82192503130E+01 -0.27778439820E+02  0.33585304573E+02  0.51100000000E-03 0.  1.
         22    1    1    0    0    0 -0.11479880206E+02 -0.18986592288E+02 -0.23160399138E+02  0.32073079436E+02  0.00000000000E+00 0. -1.
</event>
<event>
 5    1  0.6622912E-004  0.9118800E+02  0.7818608E-02  0.1130116E+00
         25   -1    0    0    0    0  0.00000000000E+00  0.00000000000E+00  0.99999998245E-14  0.12500000000E+03  0.12500000000E+03 0.  0.
        -11    1    3    3    0    0 -0.30018966855E+02 -0.28329124369E+02 -0.42865734031E+02  0.59507552570E+02  0.51100000000E-03 0.  1.
         23    2    1    0    0    0 -0.20574612905E+02 -0.18629594963E+02 -0.92555451871E+01  0.95741811037E+02  0.91161684710E+02 0.  0.
         11    1    3    3    0    0  0.94443539492E+01  0.96995294061E+01  0.33610188844E+02  0.36234258467E+02  0.51100000000E-03 0. -1.
         22    1    1    0    0    0  0.20574612905E+02  0.18629594963E+02  0.92555451871E+01  0.29258188963E+02  0.00000000000E+00 0.  1.
</event>
<event>
 5    1  0.6622912E-004  0.9118800E+02  0.7818608E-02  0.1130116E+00
         25   -1    0    0    0    0  0.00000000000E+00  0.00000000000E+00  0.99999998245E-14  0.12500000000E+03  0.12500000000E+03 0.  0.
        -11    1    3    3    0    0 -0.52725126243E+02 -0.76757426813E+01  0.23479489081E+02  0.58224929118E+02  0.51100000000E-03 0. -1.
         23    2    1    0    0    0 -0.27142059758E+02  0.11421489923E+02  0.49438662186E+01  0.95140601929E+02  0.90333551255E+02 0.  0.
         11    1    3    3    0    0  0.25583066486E+02  0.19097232604E+02 -0.18535622862E+02  0.36915672811E+02  0.51100000000E-03 0.  1.
         22    1    1    0    0    0  0.27142059758E+02 -0.11421489923E+02 -0.49438662186E+01  0.29859398071E+02  0.00000000000E+00 0. -1.
</event>
<event>
 5    1  0.6622912E-004  0.9118800E+02  0.7818608E-02  0.1130116E+00
         25   -1    0    0    0    0  0.00000000000E+00  0.00000000000E+00  0.99999998245E-14  0.12500000000E+03  0.12500000000E+03 0.  0.
        -11    1    3    3    0    0 -0.36241514001E+02  0.13743456527E+02 -0.14272407315E+02  0.41304134724E+02  0.51100000000E-03 0.  1.
         23    2    1    0    0    0  0.18929401390E+02  0.10189472259E+02 -0.18344659122E+02  0.96739177291E+02  0.92519156517E+02 0.  0.
         11    1    3    3    0    0  0.55170915392E+02 -0.35539842683E+01 -0.40722518066E+01  0.55435042567E+02  0.51100000000E-03 0. -1.
         22    1    1    0    0    0 -0.18929401390E+02 -0.10189472259E+02  0.18344659122E+02  0.28260822709E+02  0.00000000000E+00 0. -1.
</event>
<event>
 5    1  0.6622912E-004  0.9118800E+02  0.7818608E-02  0.1130116E+00
         25   -1    0    0    0    0  0.00000000000E+00  0.00000000000E+00  0.99999998245E-14  0.12500000000E+03  0.12500000000E+03 0.  0.
        -11    1    3    3    0    0  0.21385855236E+02  0.18760712426E+02  0.44776951201E+02  0.53049924543E+02  0.51100000000E-03 0. -1.
         23    2    1    0    0    0 -0.86970308568E+01 -0.67114268915E+01  0.26126611123E+02  0.96657780514E+02  0.92409118211E+02 0.  0.
         11    1    3    3    0    0 -0.30082886092E+02 -0.25472139318E+02 -0.18650340078E+02  0.43607855971E+02  0.51100000000E-03 0.  1.
         22    1    1    0    0    0  0.86970308568E+01  0.67114268915E+01 -0.26126611123E+02  0.28342219486E+02  0.00000000000E+00 0. -1.
</event>
<event>
 5    1  0.6622912E-004  0.9118800E+02  0.7818608E-02  0.1130116E+00
         25   -1    0    0    0    0  0.00000000000E+00  0.00000000000E+00  0.99999998245E-14  0.12500000000E+03  0.12500000000E+03 0.  0.
        -11    1    3    3    0    0 -0.18544445294E+02 -0.51567852571E+02  0.72135399872E+01  0.55273637744E+02  0.51100000000E-03 0.  1.
         23    2    1    0    0    0 -0.25082967495E+02 -0.11965498120E+02 -0.39358959502E+01  0.96931874296E+02  0.92779138679E+02 0.  0.
         11    1    3    3    0    0 -0.65385222009E+01  0.39602354451E+02 -0.11149435937E+02  0.41658236552E+02  0.51100000000E-03 0. -1.
         22    1    1    0    0    0  0.25082967495E+02  0.11965498120E+02  0.39358959502E+01  0.28068125704E+02  0.00000000000E+00 0.  1.
</event>
<event>
 5    1  0.6622912E-004  0.9118800E+02  0.7818608E-02  0.1130116E+00
         25   -1    0    0    0    0  0.00000000000E+00  0.00000000000E+00  0.99999998245E-14  0.12500000000E+03  0.12500000000E+03 0.  0.
        -11    1    3    3    0    0 -0.11647001104E+02 -0.32625482650E+02 -0.51229385163E+02  0.61842741347E+02  0.51100000000E-03 0. -1.
         23    2    1    0    0    0 -0.48597330439E+00 -0.18910270052E+02 -0.22199555824E+02  0.95834013607E+02  0.91288024416E+02 0.  0.
         11    1    3    3    0    0  0.11161027799E+02  0.13715212598E+02  0.29029829339E+02  0.33991272260E+02  0.51100000000E-03 0.  1.
         22    1    1    0    0    0  0.48597330439E+00  0.18910270052E+02  0.22199555824E+02  0.29165986393E+02  0.00000000000E+00 0. -1.
</event>
<event>
 5    1  0.6622912E-004  0.9118800E+02  0.7818608E-02  0.1130116E+00
         25   -1    0    0    0    0  0.00000000000E+00  0.00000000000E+00  0.99999998245E-14  0.12500000000E+03  0.12500000000E+03 0.  0.
        -11    1    3    3    0    0  0.44104591605E+02 -0.12107196626E+02 -0.70491279764E+01  0.46276229495E+02  0.51100000000E-03 0. -1.
         23    2    1    0    0    0 -0.30968938371E+01 -0.28312756197E+02 -0.17066407746E+01  0.96467290040E+02  0.92151085235E+02 0.  0.
         11    1    3    3    0    0 -0.47201485442E+02 -0.16205559571E+02  0.53424872018E+01  0.50191060546E+02  0.51100000000E-03 0.  1.
         22    1    1    0    0    0  0.30968938371E+01  0.28312756197E+02  0.17066407746E+01  0.28532709960E+02  0.00000000000E+00 0. -1.
</event>
<event>
 5    1  0.6622912E-004  0.9118800E+02  0.7818608E-02  0.1130116E+00
         25   -1    0    0    0    0  0.00000000000E+00  0.00000000000E+00  0.99999998245E-14  0.12500000000E+03  0.12500000000E+03 0.  0.
        -11    1    3    3    0    0  0.37457379758E+02 -0.21880562310E+02  0.42351726085E+01  0.43586133031E+02  0.51100000000E-03 0.  1.
         23    2    1    0    0    0 -0.93828258721E+01 -0.14059847882E+02  0.24513967087E+02  0.95223309012E+02  0.90447925643E+02 0.  0.
         11    1    3    3    0    0 -0.46840205630E+02  0.78207144277E+01  0.20278794478E+02  0.51637175982E+02  0.51100000000E-03 0. -1.
         22    1    1    0    0    0  0.93828258721E+01  0.14059847882E+02 -0.24513967087E+02  0.29776690988E+02  0.00000000000E+00 0.  1.
</event>
<event>
 5    1  0.6622912E-004  0.9118800E+02  0.7818608E-02  0.1130116E+00
         25   -1    0    0    0    0  0.00000000000E+00  0.00000000000E+00  0.99999998245E-14  0.12500000000E+03  0.12500000000E+03 0.  0.
        -11    1    3    3    0    0 -0.45014026182E+02 -0.31111057984E+02 -0.17018671491E+02  0.57304412234E+02  0.51100000000E-03 0.  1.
         23    2    1    0    0    0 -0.17535190353E+02 -0.20391900677E+01 -0.21069754069E+02  0.97512262127E+02  0.93557819191E+02 0.  0.
         11    1    3    3    0    0  0.27478835829E+02  0.29071867916E+02 -0.40510825784E+01  0.40207849892E+02  0.51100000000E-03 0. -1.
         22    1    1    0    0    0  0.17535190353E+02  0.20391900677E+01  0.21069754069E+02  0.27487737873E+02  0.00000000000E+00 0.  1.
</event>
<event>
 5    1  0.6622912E-004  0.9118800E+02  0.7818608E-02  0.1130116E+00
         25   -1    0    0    0    0  0.00000000000E+00  0.00000000000E+00  0.99999998245E-14  0.12500000000E+03  0.12500000000E+03 0.  0.
        -11    1    3    3    0    0 -0.17833411316E+02  0.48600309906E+02 -0.18933219922E+02  0.55122477258E+02  0.51100000000E-03 0. -1.
         23    2    1    0    0    0 -0.85965695031E+01  0.10960030951E+02 -0.26916204490E+02  0.94693146818E+02  0.89712243893E+02 0.  0.
         11    1    3    3    0    0  0.92368418132E+01 -0.37640278955E+02 -0.79829845685E+01  0.39570669560E+02  0.51100000000E-03 0.  1.
         22    1    1    0    0    0  0.85965695031E+01 -0.10960030951E+02  0.26916204490E+02  0.30306853182E+02  0.00000000000E+00 0. -1.
</event>
<event>
 5    1  0.6622912E-004  0.9118800E+02  0.7818608E-02  0.1130116E+00
         25   -1    0    0    0    0  0.00000000000E+00  0.00000000000E+00  0.99999998245E-14  0.12500000000E+03  0.12500000000E+03 0.  0.
        -11    1    3    3    0    0 -0.14950469905E+02  0.49130075133E+02  0.20988752969E+01  0.51397335639E+02  0.51100000000E-03 0. -1.
         23    2    1    0    0    0 -0.35016904333E+01  0.13536808557E+02  0.25792135545E+02  0.95661607444E+02  0.91051643922E+02 0.  0.
         11    1    3    3    0    0  0.11448779472E+02 -0.35593266577E+02  0.23693260249E+02  0.44264271805E+02  0.51100000000E-03 0.  1.
         22    1    1    0    0    0  0.35016904333E+01 -0.13536808557E+02 -0.25792135545E+02  0.29338392556E+02  0.00000000000E+00 0. -1.
</event>
<event>
 5    1  0.6622912E-004  0.9118800E+02  0.7818608E-02  0.1130116E+00
         25   -1    0    0    0    0  0.00000000000E+00  0.00000000000E+00  0.99999998245E-14  0.12500000000E+03  0.12500000000E+03 0.  0.
        -11    1    3    3    0    0 -0.40317778478E+02  0.23862353344E+02 -0.15922985441E+02  0.49482083971E+02  0.51100000000E-03 0.  1.
         23    2    1    0    0    0 -0.20301751155E+02  0.61501257971E+01  0.21057494662E+02  0.95110148399E+02  0.90291401029E+02 0.  0.
         11    1    3    3    0    0  0.20016027324E+02 -0.17712227547E+02  0.36980480103E+02  0.45628064428E+02  0.51100000000E-03 0. -1.
         22    1    1    0    0    0  0.20301751155E+02 -0.61501257971E+01 -0.21057494662E+02  0.29889851601E+02  0.00000000000E+00 0.  1.
</event>
<event>
 5    1  0.6622912E-004  0.9118800E+02  0.7818608E-02  0.1130116E+00
         25   -1    0    0    0    0  0.00000000000E+00  0.00000000000E+00  0.99999998245E-14  0.12500000000E+03  0.12500000000E+03 0.  0.
        -11    1    3    3    0    0  0.41761856035E+02  0.38231940945E+02  0.26440832408E+02  0.62488811372E+02  0.51100000000E-03 0. -1.
         23    2    1    0    0    0  0.20562234453E+02  0.18509645708E+02  0.12033337023E+02  0.94830252407E+02  0.89903076153E+02 0.  0.
         11    1    3    3    0    0 -0.21199621583E+02 -0.19722295237E+02 -0.14407495386E+02  0.32341441035E+02  0.51100000000E-03 0.  1.
         22    1    1    0    0    0 -0.20562234453E+02 -0.18509645708E+02 -0.12033337023E+02  0.30169747593E+02  0.00000000000E+00 0. -1.
</event>
<event>
 5    1  0.6622912E-004  0.9118800E+02  0.7818608E-02  0.1130116E+00
         25   -1    0    0    0    0  0.00000000000E+00  0.00000000000E+00  0.99999998245E-14  0.12500000000E+03  0.12500000000E+03 0.  0.
        -11    1    3    3    0    0  0.14045666024E+02 -0.22051212498E+02 -0.26506822716E+02  0.37231013382E+02  0.51100000000E-03 0. -1.
         23    2    1    0    0    0 -0.27267913205E+02 -0.51906245433E+01  0.10621872249E+02  0.95279538298E+02  0.90525601763E+02 0.  0.
         11    1    3    3    0    0 -0.41313579229E+02  0.16860587954E+02  0.37128694965E+02  0.58048524916E+02  0.51100000000E-03 0.  1.
         22    1    1    0    0    0  0.27267913205E+02  0.51906245433E+01 -0.10621872249E+02  0.29720461702E+02  0.00000000000E+00 0.  1.
</event>
<event>
 5    1  0.6622912E-004  0.9118800E+02  0.7818608E-02  0.1130116E+00
         25   -1    0    0    0    0  0.00000000000E+00  0.00000000000E+00  0.99999998245E-14  0.12500000000E+03  0.12500000000E+03 0.  0.
        -11    1    3    3    0    0  0.49529793645E+02  0.48003786472E+01 -0.31993391692E+02  0.59159286726E+02  0.51100000000E-03 0. -1.
         23    2    1    0    0    0  0.20024539466E+02  0.15905549492E+02 -0.10284915767E+02  0.97436470149E+02  0.93456500776E+02 0.  0.
         11    1    3    3    0    0 -0.29505254179E+02  0.11105170845E+02  0.21708475924E+02  0.38277183424E+02  0.51100000000E-03 0.  1.
         22    1    1    0    0    0 -0.20024539466E+02 -0.15905549492E+02  0.10284915767E+02  0.27563529851E+02  0.00000000000E+00 0. -1.
</event>
<event>
 5    1  0.6622912E-004  0.9118800E+02  0.7818608E-02  0.1130116E+00
         25   -1    0    0    0    0  0.00000000000E+00  0.00000000000E+00  0.99999998245E-14  0.12500000000E+03  0.12500000000E+03 0.  0.
        -11    1    3    3    0    0 -0.48351787942E+02  0.34008991094E+02  0.26975102251E+01  0.59175868681E+02  0.51100000000E-03 0. -1.
         23    2    1    0    0    0 -0.27116824835E+02  0.69438937999E+01 -0.91353113294E+01  0.95555242176E+02  0.90905503375E+02 0.  0.
         11    1    3    3    0    0  0.21234963106E+02 -0.27065097295E+02 -0.11832821555E+02  0.36379373495E+02  0.51100000000E-03 0.  1.
         22    1    1    0    0    0  0.27116824835E+02 -0.69438937999E+01  0.91353113294E+01  0.29444757824E+02  0.00000000000E+00 0. -1.
</event>
<event>
 5    1  0.6622912E-004  0.9118800E+02  0.7818608E-02  0.1130116E+00
         25   -1    0    0    0    0  0.00000000000E+00  0.00000000000E+00  0.99999998245E-14  0.12500000000E+03  0.12500000000E+03 0.  0.
        -11    1    3    3    0    0  0.33332268147E+01 -0.22628095027E+02  0.22210578476E+02  0.31881826831E+02  0.51100000000E-03 0.  1.
         23    2    1    0    0    0 -0.75677226938E+01  0.50898207383E+01 -0.30904520373E+02  0.92777863488E+02  0.87002677384E+02 0.  0.
         11    1    3    3    0    0 -0.10900949509E+02  0.27717915765E+02 -0.53115098849E+02  0.60896036657E+02  0.51100000000E-03 0. -1.
         22    1    1    0    0    0  0.75677226938E+01 -0.50898207383E+01  0.30904520373E+02  0.32222136512E+02  0.00000000000E+00 0. -1.
</event>
<event>
 5    1  0.6622912E-004  0.9118800E+02  0.7818608E-02  0.1130116E+00
         25   -1    0    0    0    0  0.00000000000E+00  0.00000000000E+00  0.99999998245E-14  0.12500000000E+03  0.12500000000E+03 0.  0.
        -11    1    3    3    0    0  0.50637426050E+02  0.96168423908E+01 -0.95655597174E+01  0.52422633542E+02  0.51100000000E-03 0. -1.
         23    2    1    0    0    0  0.15896625118E+02 -0.84180144171E+01 -0.24746650941E+02  0.94406497590E+02  0.89311949915E+02 0.  0.
         11    1    3    3    0    0 -0.34740800931E+02 -0.18034856808E+02 -0.15181091224E+02  0.41983864048E+02  0.51100000000E-03 0.  1.
         22    1    1    0    0    0 -0.15896625118E+02  0.84180144171E+01  0.24746650941E+02  0.30593502410E+02  0.00000000000E+00 0. -1.
</event>
<event>
 5    1  0.6622912E-004  0.9118800E+02  0.7818608E-02  0.1130116E+00
         25   -1    0    0    0    0  0.00000000000E+00  0.00000000000E+00  0.99999998245E-14  0.12500000000E+03  0.12500000000E+03 0.  0.
        -11    1    3    3    0    0 -0.49963864881E+02  0.67396953287E+01 -0.41309279102E+01  0.50585332386E+02  0.51100000000E-03 0.  1.
         23    2    1    0    0    0 -0.16886806079E+02 -0.15758063583E+02  0.17462712571E+02  0.96044394018E+02  0.91575643621E+02 0.  0.
         11    1    3    3    0    0  0.33077058802E+02 -0.22497758911E+02  0.21593640481E+02  0.45459061633E+02  0.51100000000E-03 0. -1.
         22    1    1    0    0    0  0.16886806079E+02  0.15758063583E+02 -0.17462712571E+02  0.28955605982E+02  0.00000000000E+00 0.  1.
</event>
<event>
 5    1  0.6622912E-004  0.9118800E+02  0.7818608E-02  0.1130116E+00
         25   -1    0    0    0    0  0.00000000000E+00  0.00000000000E+00  0.99999998245E-14  0.12500000000E+03  0.12500000000E+03 0.  0.
        -11    1    3    3    0    0  0.85574744714E+01 -0.51419771917E+02 -0.13037410293E+02  0.53732647252E+02  0.51100000000E-03 0.  1.
         23    2    1    0    0    0 -0.11013479727E+02 -0.23742002262E+02  0.12327373303E+02  0.96070023511E+02  0.91610620988E+02 0.  0.
         11    1    3    3    0    0 -0.19570954198E+02  0.27677769655E+02  0.25364783597E+02  0.42337376259E+02  0.51100000000E-03 0. -1.
         22    1    1    0    0    0  0.11013479727E+02  0.23742002262E+02 -0.12327373303E+02  0.28929976489E+02  0.00000000000E+00 0.  1.
</event>
<event>
 5    1  0.6622912E-004  0.9118800E+02  0.7818608E-02  0.1130116E+00
         25   -1    0    0    0    0  0.00000000000E+00  0.00000000000E+00  0.99999998245E-14  0.12500000000E+03  0.12500000000E+03 0.  0.
        -11    1    3    3    0    0  0.23485646198E+02  0.30180089271E+02  0.55954299907E+01  0.38648702472E+02  0.51100000000E-03 0.  1.
         23    2    1    0    0    0  0.83964949563E+01 -0.26200127867E+02  0.51191720220E+01  0.97015115688E+02  0.92891220909E+02 0.  0.
         11    1    3    3    0    0 -0.15089151241E+02 -0.56380217138E+02 -0.47625796869E+00  0.58366413215E+02  0.51100000000E-03 0. -1.
         22    1    1    0    0    0 -0.83964949563E+01  0.26200127867E+02 -0.51191720220E+01  0.27984884312E+02  0.00000000000E+00 0. -1.
</event>
<event>
 5    1  0.6622912E-004  0.9118800E+02  0.7818608E-02  0.1130116E+00
         25   -1    0    0    0    0  0.00000000000E+00  0.00000000000E+00  0.99999998245E-14  0.12500000000E+03  0.12500000000E+03 0.  0.
        -11    1    3    3    0    0  0.10201757660E+02  0.26526263075E+02  0.27285419961E+02  0.39398129839E+02  0.51100000000E-03 0.  1.
         23    2    1    0    0    0 -0.52701467273E+01 -0.25885121941E+02  0.71946564277E+01  0.97621594905E+02  0.93703781814E+02 0.  0.
         11    1    3    3    0    0 -0.15471904388E+02 -0.52411385016E+02 -0.20090763533E+02  0.58223465066E+02  0.51100000000E-03 0. -1.
         22    1    1    0    0    0  0.52701467273E+01  0.25885121941E+02 -0.71946564277E+01  0.27378405095E+02  0.00000000000E+00 0. -1.
</event>
<event>
 5    1  0.6622912E-004  0.9118800E+02  0.7818608E-02  0.1130116E+00
         25   -1    0    0    0    0  0.00000000000E+00  0.00000000000E+00  0.99999998245E-14  0.12500000000E+03  0.12500000000E+03 0.  0.
        -11    1    3    3    0    0  0.30059514435E+01  0.35428130924E+02 -0.22845431254E+02  0.42262299207E+02  0.51100000000E-03 0. -1.
         23    2    1    0    0    0  0.25411455170E+02  0.25279020191E+01  0.13456222172E+02  0.96134756928E+02  0.91698905293E+02 0.  0.
         11    1    3    3    0    0  0.22405503726E+02 -0.32900228904E+02  0.36301653426E+02  0.53872457721E+02  0.51100000000E-03 0.  1.
         22    1    1    0    0    0 -0.25411455170E+02 -0.25279020191E+01 -0.13456222172E+02  0.28865243072E+02  0.00000000000E+00 0.  1.
</event>
<event>
 5    1  0.6622912E-004  0.9118800E+02  0.7818608E-02  0.1130116E+00
         25   -1    0    0    0    0  0.00000000000E+00  0.00000000000E+00  0.99999998245E-14  0.12500000000E+03  0.12500000000E+03 0.  0.
        -11    1    3    3    0    0  0.74187154406E+01  0.40617970985E+02 -0.44650466397E+02  0.60815467238E+02  0.51100000000E-03 0. -1.
         23    2    1    0    0    0 -0.57883912083E+01  0.23605600653E+02 -0.20219136089E+02  0.93384444981E+02  0.87869854018E+02 0.  0.
         11    1    3    3    0    0 -0.13207106649E+02 -0.17012370331E+02  0.24431330308E+02  0.32568977742E+02  0.51100000000E-03 0.  1.
         22    1    1    0    0    0  0.57883912083E+01 -0.23605600653E+02  0.20219136089E+02  0.31615555019E+02  0.00000000000E+00 0. -1.
</event>
<event>
 5    1  0.6622912E-004  0.9118800E+02  0.7818608E-02  0.1130116E+00
         25   -1    0    0    0    0  0.00000000000E+00  0.00000000000E+00  0.99999998245E-14  0.12500000000E+03  0.12500000000E+03 0.  0.
        -11    1    3    3    0    0  0.28968484275E+02  0.34141182013E+02  0.10058879224E+02  0.45890897158E+02  0.51100000000E-03 0. -1.
         23    2    1    0    0    0  0.89316223831E+01  0.85017459037E+01 -0.27065628184E+02  0.95257744020E+02  0.90495502678E+02 0.  0.
         11    1    3    3    0    0 -0.20036861892E+02 -0.25639436110E+02 -0.37124507409E+02  0.49366846862E+02  0.51100000000E-03 0.  1.
         22    1    1    0    0    0 -0.89316223831E+01 -0.85017459037E+01  0.27065628184E+02  0.29742255980E+02  0.00000000000E+00 0.  1.
</event>
<event>
 5    1  0.6622912E-004  0.9118800E+02  0.7818608E-02  0.1130116E+00
         25   -1    0    0    0    0  0.00000000000E+00  0.00000000000E+00  0.99999998245E-14  0.12500000000E+03  0.12500000000E+03 0.  0.
        -11    1    3    3    0    0 -0.13228977254E+02 -0.29407901852E+02 -0.12834023810E+02  0.34706522412E+02  0.51100000000E-03 0. -1.
         23    2    1    0    0    0  0.20861124377E+02  0.12106411296E+02  0.16370502149E+02  0.95849613290E+02  0.91309382445E+02 0.  0.
         11    1    3    3    0    0  0.34090101631E+02  0.41514313148E+02  0.29204525959E+02  0.61143090878E+02  0.51100000000E-03 0.  1.
         22    1    1    0    0    0 -0.20861124377E+02 -0.12106411296E+02 -0.16370502149E+02  0.29150386710E+02  0.00000000000E+00 0.  1.
</event>
<event>
 5    1  0.6622912E-004  0.9118800E+02  0.7818608E-02  0.1130116E+00
         25   -1    0    0    0    0  0.00000000000E+00  0.00000000000E+00  0.99999998245E-14  0.12500000000E+03  0.12500000000E+03 0.  0.
        -11    1    3    3    0    0  0.76314604721E+01  0.24477714201E+02  0.23148888152E+02  0.34543721635E+02  0.51100000000E-03 0. -1.
         23    2    1    0    0    0 -0.11482141565E+02 -0.25764535267E+02 -0.66690714134E+01  0.96015049320E+02  0.91535579585E+02 0.  0.
         11    1    3    3    0    0 -0.19113602037E+02 -0.50242249468E+02 -0.29817959566E+02  0.61471327685E+02  0.51100000000E-03 0.  1.
         22    1    1    0    0    0  0.11482141565E+02  0.25764535267E+02  0.66690714134E+01  0.28984950680E+02  0.00000000000E+00 0.  1.
</event>
<event>
 5    1  0.6622912E-004  0.9118800E+02  0.7818608E-02  0.1130116E+00
         25   -1    0    0    0    0  0.00000000000E+00  0.00000000000E+00  0.99999998245E-14  0.12500000000E+03  0.12500000000E+03 0.  0.
        -11    1    3    3    0    0 -0.10040318291E+02  0.22673766905E+01  0.50645714360E+02  0.51681112330E+02  0.51100000000E-03 0.  1.
         23    2    1    0    0    0  0.12019202390E+02  0.20918288174E+02  0.22660750274E+02  0.91900972685E+02  0.85733559189E+02 0.  0.
         11    1    3    3    0    0  0.22059520680E+02  0.18650911484E+02 -0.27984964086E+02  0.40219860355E+02  0.51100000000E-03 0. -1.
         22    1    1    0    0    0 -0.12019202390E+02 -0.20918288174E+02 -0.22660750274E+02  0.33099027315E+02  0.00000000000E+00 0.  1.
</event>
<event>
 5    1  0.6622912E-004  0.9118800E+02  0.7818608E-02  0.1130116E+00
         25   -1    0    0    0    0  0.00000000000E+00  0.00000000000E+00  0.99999998245E-14  0.12500000000E+03  0.12500000000E+03 0.  0.
        -11    1    3    3    0    0 -0.29137072817E+02  0.76888166951E+01 -0.51212763699E+02  0.59420821944E+02  0.51100000000E-03 0.  1.
         23    2    1    0    0    0 -0.17876963942E+02 -0.95109517633E+01 -0.22568076761E+02  0.94679014991E+02  0.89692551239E+02 0.  0.
         11    1    3    3    0    0  0.11260108875E+02 -0.17199768458E+02  0.28644686938E+02  0.35258193047E+02  0.51100000000E-03 0. -1.
         22    1    1    0    0    0  0.17876963942E+02  0.95109517633E+01  0.22568076761E+02  0.30320985009E+02  0.00000000000E+00 0.  1.
</event>
<event>
 5    1  0.6622912E-004  0.9118800E+02  0.7818608E-02  0.1130116E+00
         25   -1    0    0    0    0  0.00000000000E+00  0.00000000000E+00  0.99999998245E-14  0.12500000000E+03  0.12500000000E+03 0.  0.
        -11    1    3    3    0    0 -0.38075454214E+02 -0.17056604290E+02  0.41100301883E+02  0.58565371839E+02  0.51100000000E-03 0.  1.
         23    2    1    0    0    0 -0.11380296245E+02  0.44129228457E+01  0.26538172412E+02  0.95789391899E+02  0.91226903789E+02 0.  0.
         11    1    3    3    0    0  0.26695157970E+02  0.21469527135E+02 -0.14562129471E+02  0.37224020060E+02  0.51100000000E-03 0. -1.
         22    1    1    0    0    0  0.11380296245E+02 -0.44129228457E+01 -0.26538172412E+02  0.29210608101E+02  0.00000000000E+00 0.  1.
</event>
<event>
 5    1  0.6622912E-004  0.9118800E+02  0.7818608E-02  0.1130116E+00
         25   -1    0    0    0    0  0.00000000000E+00  0.00000000000E+00  0.99999998245E-14  0.12500000000E+03  0.12500000000E+03 0.  0.
        -11    1    3    3    0    0 -0.17084000759E+01  0.57743197607E+02 -0.19613974850E+02  0.61007405373E+02  0.51100000000E-03 0. -1.
         23    2    1    0    0    0  0.68166793192E+01  0.27883612813E+02 -0.32391261361E+01  0.96113066646E+02  0.91669333267E+02 0.  0.
         11    1    3    3    0    0  0.85250793951E+01 -0.29859584794E+02  0.16374848714E+02  0.35105661273E+02  0.51100000000E-03 0.  1.
         22    1    1    0    0    0 -0.68166793192E+01 -0.27883612813E+02  0.32391261361E+01  0.28886933354E+02  0.00000000000E+00 0. -1.
</event>
<event>
 5    1  0.6622912E-004  0.9118800E+02  0.7818608E-02  0.1130116E+00
         25   -1    0    0    0    0  0.00000000000E+00  0.00000000000E+00  0.99999998245E-14  0.12500000000E+03  0.12500000000E+03 0.  0.
        -11    1    3    3    0    0 -0.13158700414E+02 -0.27751380535E+02  0.22307018720E+02  0.37959104344E+02  0.51100000000E-03 0. -1.
         23    2    1    0    0    0  0.25347205026E+02  0.12520722050E+02  0.51114172011E+01  0.96270644472E+02  0.91883954627E+02 0.  0.
         11    1    3    3    0    0  0.38505905439E+02  0.40272102585E+02 -0.17195601519E+02  0.58311540128E+02  0.51100000000E-03 0.  1.
         22    1    1    0    0    0 -0.25347205026E+02 -0.12520722050E+02 -0.51114172011E+01  0.28729355528E+02  0.00000000000E+00 0.  1.
</event>
<event>
 5    1  0.6622912E-004  0.9118800E+02  0.7818608E-02  0.1130116E+00
         25   -1    0    0    0    0  0.00000000000E+00  0.00000000000E+00  0.99999998245E-14  0.12500000000E+03  0.12500000000E+03 0.  0.
        -11    1    3    3    0    0 -0.61419753793E+01  0.51486300967E+02 -0.22583358844E+02  0.56555911679E+02  0.51100000000E-03 0.  1.
         23    2    1    0    0    0  0.16393400991E+02  0.21305078529E+02 -0.10893668599E+02  0.95994449105E+02  0.91507443829E+02 0.  0.
         11    1    3    3    0    0  0.22535376370E+02 -0.30181222438E+02  0.11689690245E+02  0.39438537426E+02  0.51100000000E-03 0. -1.
         22    1    1    0    0    0 -0.16393400991E+02 -0.21305078529E+02  0.10893668599E+02  0.29005550895E+02  0.00000000000E+00 0.  1.
</event>
<event>
 5    1  0.6622912E-004  0.9118800E+02  0.7818608E-02  0.1130116E+00
         25   -1    0    0    0    0  0.00000000000E+00  0.00000000000E+00  0.99999998245E-14  0.12500000000E+03  0.12500000000E+03 0.  0.
        -11    1    3    3    0    0  0.10437375899E+02 -0.32490660628E+02 -0.51950413296E+02  0.62156474205E+02  0.51100000000E-03 0. -1.
         23    2    1    0    0    0  0.48742175587E+01 -0.11099843391E+02 -0.26461625232E+02  0.95893606716E+02  0.91369588370E+02 0.  0.
         11    1    3    3    0    0 -0.55631583398E+01  0.21390817237E+02  0.25488788065E+02  0.33737132511E+02  0.51100000000E-03 0.  1.
         22    1    1    0    0    0 -0.48742175587E+01  0.11099843391E+02  0.26461625232E+02  0.29106393284E+02  0.00000000000E+00 0. -1.
</event>
<event>
 5    1  0.6622912E-004  0.9118800E+02  0.7818608E-02  0.1130116E+00
         25   -1    0    0    0    0  0.00000000000E+00  0.00000000000E+00  0.99999998245E-14  0.12500000000E+03  0.12500000000E+03 0.  0.
        -11    1    3    3    0    0  0.29004746376E+02  0.33289066964E+02  0.11438852309E+02  0.45610137405E+02  0.51100000000E-03 0.  1.
         23    2    1    0    0    0  0.24176301608E+02 -0.13227107382E+02 -0.80735013172E+01  0.96283604811E+02  0.91901584332E+02 0.  0.
         11    1    3    3    0    0 -0.48284447683E+01 -0.46516174346E+02 -0.19512353626E+02  0.50673467406E+02  0.51100000000E-03 0. -1.
         22    1    1    0    0    0 -0.24176301608E+02  0.13227107382E+02  0.80735013172E+01  0.28716395189E+02  0.00000000000E+00 0. -1.
</event>
<event>
 5    1  0.6622912E-004  0.9118800E+02  0.7818608E-02  0.1130116E+00
         25   -1    0    0    0    0  0.00000000000E+00  0.00000000000E+00  0.99999998245E-14  0.12500000000E+03  0.12500000000E+03 0.  0.
        -11    1    3    3    0    0 -0.56290180667E+01  0.13695361513E+02 -0.35043573379E+02  0.38043406877E+02  0.51100000000E-03 0.  1.
         23    2    1    0    0    0 -0.12332441260E+02 -0.27828334439E+02  0.25478482480E+01  0.94455003098E+02  0.89379811896E+02 0.  0.
         11    1    3    3    0    0 -0.67034231929E+01 -0.41523695951E+02  0.37591421627E+02  0.56411596221E+02  0.51100000000E-03 0. -1.
         22    1    1    0    0    0  0.12332441260E+02  0.27828334439E+02 -0.25478482480E+01  0.30544996902E+02  0.00000000000E+00 0. -1.
</event>
<event>
 5    1  0.6622912E-004  0.9118800E+02  0.7818608E-02  0.1130116E+00
         25   -1    0    0    0    0  0.00000000000E+00  0.00000000000E+00  0.99999998245E-14  0.12500000000E+03  0.12500000000E+03 0.  0.
        -11    1    3    3    0    0  0.14808944177E+02  0.53706916043E+02  0.68865925688E+01  0.56135219034E+02  0.51100000000E-03 0.  1.
         23    2    1    0    0    0 -0.10846973442E+02  0.27584993583E+02 -0.56291720357E+01  0.94829214766E+02  0.89901633420E+02 0.  0.
         11    1    3    3    0    0 -0.25655917618E+02 -0.26121922460E+02 -0.12515764604E+02  0.38693995733E+02  0.51100000000E-03 0. -1.
         22    1    1    0    0    0  0.10846973442E+02 -0.27584993583E+02  0.56291720357E+01  0.30170785234E+02  0.00000000000E+00 0.  1.
</event>
<event>
 5    1  0.6622912E-004  0.9118800E+02  0.7818608E-02  0.1130116E+00
         25   -1    0    0    0    0  0.00000000000E+00  0.00000000000E+00  0.99999998245E-14  0.12500000000E+03  0.12500000000E+03 0.  0.
        -11    1    3    3    0    0 -0.34066128581E+02 -0.16616206921E+02 -0.20151340345E+02  0.42926401747E+02  0.51100000000E-03 0.  1.
         23    2    1    0    0    0  0.14361412806E+02 -0.24563795322E+02  0.13693433569E+01  0.96513067564E+02  0.92213160075E+02 0.  0.
         11    1    3    3    0    0  0.48427541386E+02 -0.79475884010E+01  0.21520683702E+02  0.53586665817E+02  0.51100000000E-03 0. -1.
         22    1    1    0    0    0 -0.14361412806E+02  0.24563795322E+02 -0.13693433569E+01  0.28486932436E+02  0.00000000000E+00 0. -1.
</event>
<event>
 5    1  0.6622912E-004  0.9118800E+02  0.7818608E-02  0.1130116E+00
         25   -1    0    0    0    0  0.00000000000E+00  0.00000000000E+00  0.99999998245E-14  0.12500000000E+03  0.12500000000E+03 0.  0.
        -11    1    3    3    0    0  0.48451181933E+02  0.99873808721E+01 -0.28963403848E+02  0.57324894855E+02  0.51100000000E-03 0.  1.
         23    2    1    0    0    0  0.19670893100E+02 -0.12416610591E+02 -0.18528494136E+02  0.95260777601E+02  0.90499692819E+02 0.  0.
         11    1    3    3    0    0 -0.28780288833E+02 -0.22403991463E+02  0.10434909712E+02  0.37935882746E+02  0.51100000000E-03 0. -1.
         22    1    1    0    0    0 -0.19670893100E+02  0.12416610591E+02  0.18528494136E+02  0.29739222399E+02  0.00000000000E+00 0.  1.
</event>
<event>
 5    1  0.6622912E-004  0.9118800E+02  0.7818608E-02  0.1130116E+00
         25   -1    0    0    0    0  0.00000000000E+00  0.00000000000E+00  0.99999998245E-14  0.12500000000E+03  0.12500000000E+03 0.  0.
        -11    1    3    3    0    0 -0.22848108646E+02  0.35169514012E+02 -0.41174605335E+02  0.58773113831E+02  0.51100000000E-03 0.  1.
         23    2    1    0    0    0 -0.13987309730E+02  0.27254840806E+01 -0.25298050545E+02  0.95964427708E+02  0.91466425135E+02 0.  0.
         11    1    3    3    0    0  0.88607989163E+01 -0.32444029932E+02  0.15876554791E+02  0.37191313877E+02  0.51100000000E-03 0. -1.
         22    1    1    0    0    0  0.13987309730E+02 -0.27254840806E+01  0.25298050545E+02  0.29035572292E+02  0.00000000000E+00 0.  1.
</event>
<event>
 5    1  0.6622912E-004  0.9118800E+02  0.7818608E-02  0.1130116E+00
         25   -1    0    0    0    0  0.00000000000E+00  0.00000000000E+00  0.99999998245E-14  0.12500000000E+03  0.12500000000E+03 0.  0.
        -11    1    3    3    0    0  0.39639243960E+02  0.26864130751E+02 -0.17554433138E+02  0.51001071614E+02  0.51100000000E-03 0. -1.
         23    2    1    0    0    0  0.33341671418E+02 -0.68878923842E+01  0.26706778212E+01  0.90849705207E+02  0.84186853497E+02 0.  0.
         11    1    3    3    0    0 -0.62975725416E+01 -0.33752023135E+02  0.20225110959E+02  0.39848633593E+02  0.51100000000E-03 0.  1.
         22    1    1    0    0    0 -0.33341671418E+02  0.68878923842E+01 -0.26706778212E+01  0.34150294793E+02  0.00000000000E+00 0. -1.
</event>
<event>
 5    1  0.6622912E-004  0.9118800E+02  0.7818608E-02  0.1130116E+00
         25   -1    0    0    0    0  0.00000000000E+00  0.00000000000E+00  0.99999998245E-14  0.12500000000E+03  0.12500000000E+03 0.  0.
        -11    1    3    3    0    0 -0.25288461941E+02 -0.11985568005E+02 -0.49290200396E+02  0.56680543426E+02  0.51100000000E-03 0.  1.
         23    2    1    0    0    0 -0.20346078321E+02  0.11436364695E+02 -0.25552103515E+02  0.90392727144E+02  0.83505579370E+02 0.  0.
         11    1    3    3    0    0  0.49423836202E+01  0.23421932700E+02  0.23738096881E+02  0.33712183718E+02  0.51100000000E-03 0. -1.
         22    1    1    0    0    0  0.20346078321E+02 -0.11436364695E+02  0.25552103515E+02  0.34607272856E+02  0.00000000000E+00 0.  1.
</event>
<event>
 5    1  0.6622912E-004  0.9118800E+02  0.7818608E-02  0.1130116E+00
         25   -1    0    0    0    0  0.00000000000E+00  0.00000000000E+00  0.99999998245E-14  0.12500000000E+03  0.12500000000E+03 0.  0.
        -11    1    3    3    0    0  0.37690557464E+02  0.20599085833E+02  0.21256990880E+02  0.47924525252E+02  0.51100000000E-03 0.  1.
         23    2    1    0    0    0  0.68449382480E+01 -0.15261567890E+02  0.24497488702E+02  0.95336965988E+02  0.90604864643E+02 0.  0.
         11    1    3    3    0    0 -0.30845619216E+02 -0.35860653722E+02  0.32404978219E+01  0.47412440736E+02  0.51100000000E-03 0. -1.
         22    1    1    0    0    0 -0.68449382480E+01  0.15261567890E+02 -0.24497488702E+02  0.29663034012E+02  0.00000000000E+00 0. -1.
</event>
<event>
 5    1  0.6622912E-004  0.9118800E+02  0.7818608E-02  0.1130116E+00
         25   -1    0    0    0    0  0.00000000000E+00  0.00000000000E+00  0.99999998245E-14  0.12500000000E+03  0.12500000000E+03 0.  0.
        -11    1    3    3    0    0  0.20198904718E+02 -0.49370583405E+02  0.30709096859E+02  0.61550782999E+02  0.51100000000E-03 0. -1.
         23    2    1    0    0    0  0.15715677271E+02 -0.18846643475E+02  0.15783658957E+02  0.95822913573E+02  0.91272823957E+02 0.  0.
         11    1    3    3    0    0 -0.44832274475E+01  0.30523939931E+02 -0.14925437902E+02  0.34272130574E+02  0.51100000000E-03 0.  1.
         22    1    1    0    0    0 -0.15715677271E+02  0.18846643475E+02 -0.15783658957E+02  0.29177086427E+02  0.00000000000E+00 0. -1.
</event>
<event>
 5    1  0.6622912E-004  0.9118800E+02  0.7818608E-02  0.1130116E+00
         25   -1    0    0    0    0  0.00000000000E+00  0.00000000000E+00  0.99999998245E-14  0.12500000000E+03  0.12500000000E+03 0.  0.
        -11    1    3    3    0    0  0.58810726431E+01 -0.60096575865E+02 -0.43003763689E+01  0.60536589624E+02  0.51100000000E-03 0.  1.
         23    2    1    0    0    0  0.12961130640E+02 -0.24850708582E+02  0.14084694548E+01  0.96936992130E+02  0.92786033607E+02 0.  0.
         11    1    3    3    0    0  0.70800579969E+01  0.35245867282E+02  0.57088458236E+01  0.36400402506E+02  0.51100000000E-03 0. -1.
         22    1    1    0    0    0 -0.12961130640E+02  0.24850708582E+02 -0.14084694548E+01  0.28063007870E+02  0.00000000000E+00 0.  1.
</event>
<event>
 5    1  0.6622912E-004  0.9118800E+02  0.7818608E-02  0.1130116E+00
         25   -1    0    0    0    0  0.00000000000E+00  0.00000000000E+00  0.99999998245E-14  0.12500000000E+03  0.12500000000E+03 0.  0.
        -11    1    3    3    0    0  0.26937026569E+02 -0.13008976983E+02 -0.46362617716E+02  0.55175440227E+02  0.51100000000E-03 0. -1.
         23    2    1    0    0    0 -0.36533784259E+01  0.62651438759E+01 -0.28667348093E+02  0.95429473315E+02  0.90732399554E+02 0.  0.
         11    1    3    3    0    0 -0.30590404994E+02  0.19274120858E+02  0.17695269623E+02  0.40254033088E+02  0.51100000000E-03 0.  1.
         22    1    1    0    0    0  0.36533784259E+01 -0.62651438759E+01  0.28667348093E+02  0.29570526685E+02  0.00000000000E+00 0. -1.
</event>
<event>
 5    1  0.6622912E-004  0.9118800E+02  0.7818608E-02  0.1130116E+00
         25   -1    0    0    0    0  0.00000000000E+00  0.00000000000E+00  0.99999998245E-14  0.12500000000E+03  0.12500000000E+03 0.  0.
        -11    1    3    3    0    0  0.86100199644E+01  0.32109658842E+02 -0.63620513296E+01  0.33847279538E+02  0.51100000000E-03 0.  1.
         23    2    1    0    0    0 -0.13440992288E+02 -0.22038406519E+02  0.13846347756E+02  0.95707117217E+02  0.91114100468E+02 0.  0.
         11    1    3    3    0    0 -0.22051012252E+02 -0.54148065361E+02  0.20208399085E+02  0.61859837678E+02  0.51100000000E-03 0. -1.
         22    1    1    0    0    0  0.13440992288E+02  0.22038406519E+02 -0.13846347756E+02  0.29292882783E+02  0.00000000000E+00 0. -1.
</event>
<event>
 5    1  0.6622912E-004  0.9118800E+02  0.7818608E-02  0.1130116E+00
         25   -1    0    0    0    0  0.00000000000E+00  0.00000000000E+00  0.99999998245E-14  0.12500000000E+03  0.12500000000E+03 0.  0.
        -11    1    3    3    0    0  0.43576663658E+01  0.25857646282E+02  0.85080712699E+01  0.27567996017E+02  0.51100000000E-03 0. -1.
         23    2    1    0    0    0  0.96915386186E+01 -0.17692172537E+02 -0.31926987999E+02  0.87233990778E+02  0.78635219173E+02 0.  0.
         11    1    3    3    0    0  0.53338722528E+01 -0.43549818819E+02 -0.40435059269E+02  0.59665994761E+02  0.51100000000E-03 0.  1.
         22    1    1    0    0    0 -0.96915386186E+01  0.17692172537E+02  0.31926987999E+02  0.37766009222E+02  0.00000000000E+00 0.  1.
</event>
<event>
 5    1  0.6622912E-004  0.9118800E+02  0.7818608E-02  0.1130116E+00
         25   -1    0    0    0    0  0.00000000000E+00  0.00000000000E+00  0.99999998245E-14  0.12500000000E+03  0.12500000000E+03 0.  0.
        -11    1    3    3    0    0  0.39135195146E+02 -0.35125959354E+01  0.46181643680E+02  0.60635353075E+02  0.51100000000E-03 0.  1.
         23    2    1    0    0    0  0.25613243527E+02  0.39042087210E+01  0.15946307693E+02  0.94576886767E+02  0.89550107157E+02 0.  0.
         11    1    3    3    0    0 -0.13521951618E+02  0.74168046564E+01 -0.30235335987E+02  0.33941533692E+02  0.51100000000E-03 0. -1.
         22    1    1    0    0    0 -0.25613243527E+02 -0.39042087210E+01 -0.15946307693E+02  0.30423113233E+02  0.00000000000E+00 0.  1.
</event>
<event>
 5    1  0.6622912E-004  0.9118800E+02  0.7818608E-02  0.1130116E+00
         25   -1    0    0    0    0  0.00000000000E+00  0.00000000000E+00  0.99999998245E-14  0.12500000000E+03  0.12500000000E+03 0.  0.
        -11    1    3    3    0    0  0.12661633932E+02 -0.22961344661E+02  0.34337835909E+02  0.43204482379E+02  0.51100000000E-03 0. -1.
         23    2    1    0    0    0 -0.14958252673E+01  0.24541445699E+02  0.95631689723E+01  0.98618676094E+02  0.95024570630E+02 0.  0.
         11    1    3    3    0    0 -0.14157459200E+02  0.47502790360E+02 -0.24774666936E+02  0.55414193715E+02  0.51100000000E-03 0.  1.
         22    1    1    0    0    0  0.14958252673E+01 -0.24541445699E+02 -0.95631689723E+01  0.26381323906E+02  0.00000000000E+00 0.  1.
</event>
<event>
 5    1  0.6622912E-004  0.9118800E+02  0.7818608E-02  0.1130116E+00
         25   -1    0    0    0    0  0.00000000000E+00  0.00000000000E+00  0.99999998245E-14  0.12500000000E+03  0.12500000000E+03 0.  0.
        -11    1    3    3    0    0 -0.22197111248E+02  0.50717756691E+02 -0.41509689992E+01  0.55517863211E+02  0.51100000000E-03 0.  1.
         23    2    1    0    0    0  0.10340518942E+02  0.26856908272E+02 -0.45193952297E+01  0.95868491506E+02  0.91335222540E+02 0.  0.
         11    1    3    3    0    0  0.32537630190E+02 -0.23860848420E+02 -0.36842623044E+00  0.40350628295E+02  0.51100000000E-03 0. -1.
         22    1    1    0    0    0 -0.10340518942E+02 -0.26856908272E+02  0.45193952297E+01  0.29131508494E+02  0.00000000000E+00 0.  1.
</event>
<event>
 5    1  0.6622912E-004  0.9118800E+02  0.7818608E-02  0.1130116E+00
         25   -1    0    0    0    0  0.00000000000E+00  0.00000000000E+00  0.99999998245E-14  0.12500000000E+03  0.12500000000E+03 0.  0.
        -11    1    3    3    0    0 -0.23397010187E+02  0.26207422734E+02 -0.43244536704E+02  0.55716595796E+02  0.51100000000E-03 0.  1.
         23    2    1    0    0    0  0.54878304684E+01  0.24432838202E+02 -0.17503155406E+02  0.94447744519E+02  0.89369660006E+02 0.  0.
         11    1    3    3    0    0  0.28884840655E+02 -0.17745845325E+01  0.25741381299E+02  0.38731148723E+02  0.51100000000E-03 0. -1.
         22    1    1    0    0    0 -0.54878304684E+01 -0.24432838202E+02  0.17503155406E+02  0.30552255481E+02  0.00000000000E+00 0.  1.
</event>
<event>
 5    1  0.6622912E-004  0.9118800E+02  0.7818608E-02  0.1130116E+00
         25   -1    0    0    0    0  0.00000000000E+00  0.00000000000E+00  0.99999998245E-14  0.12500000000E+03  0.12500000000E+03 0.  0.
        -11    1    3    3    0    0 -0.53929561357E+01 -0.14948902770E+02  0.33988547578E+02  0.37520328312E+02  0.51100000000E-03 0. -1.
         23    2    1    0    0    0 -0.12708187311E+02  0.38557823456E+01 -0.23257348285E+02  0.98218115610E+02  0.94496184592E+02 0.  0.
         11    1    3    3    0    0 -0.73152311753E+01  0.18804685116E+02 -0.57245895863E+02  0.60697787298E+02  0.51100000000E-03 0.  1.
         22    1    1    0    0    0  0.12708187311E+02 -0.38557823456E+01  0.23257348285E+02  0.26781884390E+02  0.00000000000E+00 0.  1.
</event>
<event>
 5    1  0.6622912E-004  0.9118800E+02  0.7818608E-02  0.1130116E+00
         25   -1    0    0    0    0  0.00000000000E+00  0.00000000000E+00  0.99999998245E-14  0.12500000000E+03  0.12500000000E+03 0.  0.
        -11    1    3    3    0    0 -0.13733565592E+02 -0.26110716364E+02 -0.30901849687E+02  0.42723584204E+02  0.51100000000E-03 0. -1.
         23    2    1    0    0    0 -0.61935532928E+01  0.22730826789E+02 -0.21652617557E+02  0.93001774487E+02  0.87323786117E+02 0.  0.
         11    1    3    3    0    0  0.75400122993E+01  0.48841543152E+02  0.92492321298E+01  0.50278190284E+02  0.51100000000E-03 0.  1.
         22    1    1    0    0    0  0.61935532928E+01 -0.22730826789E+02  0.21652617557E+02  0.31998225513E+02  0.00000000000E+00 0.  1.
</event>
<event>
 5    1  0.6622912E-004  0.9118800E+02  0.7818608E-02  0.1130116E+00
         25   -1    0    0    0    0  0.00000000000E+00  0.00000000000E+00  0.99999998245E-14  0.12500000000E+03  0.12500000000E+03 0.  0.
        -11    1    3    3    0    0  0.43586944972E+02  0.56639768290E+01 -0.15303436177E+02  0.46541353274E+02  0.51100000000E-03 0. -1.
         23    2    1    0    0    0  0.47770997013E+01  0.30406781479E+02 -0.37730273692E+01  0.93989860094E+02  0.88726912623E+02 0.  0.
         11    1    3    3    0    0 -0.38809845271E+02  0.24742804650E+02  0.11530408808E+02  0.47448506820E+02  0.51100000000E-03 0.  1.
         22    1    1    0    0    0 -0.47770997013E+01 -0.30406781479E+02  0.37730273692E+01  0.31010139906E+02  0.00000000000E+00 0. -1.
</event>
<event>
 5    1  0.6622912E-004  0.9118800E+02  0.7818608E-02  0.1130116E+00
         25   -1    0    0    0    0  0.00000000000E+00  0.00000000000E+00  0.99999998245E-14  0.12500000000E+03  0.12500000000E+03 0.  0.
        -11    1    3    3    0    0 -0.15835196269E+02  0.33711551222E+02 -0.49095391527E+01  0.37567615064E+02  0.51100000000E-03 0.  1.
         23    2    1    0    0    0  0.62281153472E+01 -0.20389669225E+02 -0.17596659854E+02  0.97356366558E+02  0.93349299084E+02 0.  0.
         11    1    3    3    0    0  0.22063311616E+02 -0.54101220446E+02 -0.12687120701E+02  0.59788751494E+02  0.51100000000E-03 0. -1.
         22    1    1    0    0    0 -0.62281153472E+01  0.20389669225E+02  0.17596659854E+02  0.27643633442E+02  0.00000000000E+00 0. -1.
</event>
<event>
 5    1  0.6622912E-004  0.9118800E+02  0.7818608E-02  0.1130116E+00
         25   -1    0    0    0    0  0.00000000000E+00  0.00000000000E+00  0.99999998245E-14  0.12500000000E+03  0.12500000000E+03 0.  0.
        -11    1    3    3    0    0 -0.28234226488E+02  0.68956078861E+01 -0.52553843995E+02  0.60055203541E+02  0.51100000000E-03 0. -1.
         23    2    1    0    0    0 -0.46076970329E+01  0.11706267078E+02 -0.27135145143E+02  0.95090408515E+02  0.90264068869E+02 0.  0.
         11    1    3    3    0    0  0.23626529455E+02  0.48106591922E+01  0.25418698852E+02  0.35035204974E+02  0.51100000000E-03 0.  1.
         22    1    1    0    0    0  0.46076970329E+01 -0.11706267078E+02  0.27135145143E+02  0.29909591485E+02  0.00000000000E+00 0. -1.
</event>
<event>
 5    1  0.6622912E-004  0.9118800E+02  0.7818608E-02  0.1130116E+00
         25   -1    0    0    0    0  0.00000000000E+00  0.00000000000E+00  0.99999998245E-14  0.12500000000E+03  0.12500000000E+03 0.  0.
        -11    1    3    3    0    0  0.37989991243E+02 -0.28663460531E+02 -0.27200556556E+02  0.54815177474E+02  0.51100000000E-03 0.  1.
         23    2    1    0    0    0  0.29072813886E+02 -0.28300627414E+00  0.11415725106E+01  0.95903405911E+02  0.91382993373E+02 0.  0.
         11    1    3    3    0    0 -0.89171773573E+01  0.28380454257E+02  0.28342129066E+02  0.41088228437E+02  0.51100000000E-03 0. -1.
         22    1    1    0    0    0 -0.29072813886E+02  0.28300627414E+00 -0.11415725106E+01  0.29096594089E+02  0.00000000000E+00 0.  1.
</event>
<event>
 5    1  0.6622912E-004  0.9118800E+02  0.7818608E-02  0.1130116E+00
         25   -1    0    0    0    0  0.00000000000E+00  0.00000000000E+00  0.99999998245E-14  0.12500000000E+03  0.12500000000E+03 0.  0.
        -11    1    3    3    0    0  0.19838063863E+02  0.26340423471E+02  0.15302983794E+02  0.36353101652E+02  0.51100000000E-03 0. -1.
         23    2    1    0    0    0 -0.28035604165E+02 -0.66980503391E+00 -0.76671900006E+01  0.95927168315E+02  0.91415491460E+02 0.  0.
         11    1    3    3    0    0 -0.47873668028E+02 -0.27010228505E+02 -0.22970173795E+02  0.59574066663E+02  0.51100000000E-03 0.  1.
         22    1    1    0    0    0  0.28035604165E+02  0.66980503391E+00  0.76671900006E+01  0.29072831685E+02  0.00000000000E+00 0.  1.
</event>
<event>
 5    1  0.6622912E-004  0.9118800E+02  0.7818608E-02  0.1130116E+00
         25   -1    0    0    0    0  0.00000000000E+00  0.00000000000E+00  0.99999998245E-14  0.12500000000E+03  0.12500000000E+03 0.  0.
        -11    1    3    3    0    0 -0.24096991727E+01 -0.60891848202E+02 -0.66146834579E+00  0.60943099431E+02  0.51100000000E-03 0. -1.
         23    2    1    0    0    0  0.40669978130E+01 -0.29848347860E+02  0.80289246091E+01  0.93824240642E+02  0.88493277488E+02 0.  0.
         11    1    3    3    0    0  0.64766969857E+01  0.31043500343E+02  0.86903929549E+01  0.32881141211E+02  0.51100000000E-03 0.  1.
         22    1    1    0    0    0 -0.40669978130E+01  0.29848347860E+02 -0.80289246091E+01  0.31175759358E+02  0.00000000000E+00 0. -1.
</event>
<event>
 5    1  0.6622912E-004  0.9118800E+02  0.7818608E-02  0.1130116E+00
         25   -1    0    0    0    0  0.00000000000E+00  0.00000000000E+00  0.99999998245E-14  0.12500000000E+03  0.12500000000E+03 0.  0.
        -11    1    3    3    0    0  0.19095417857E+01 -0.10207093717E+02  0.31318977360E+02  0.32995597511E+02  0.51100000000E-03 0.  1.
         23    2    1    0    0    0 -0.69584898519E+01 -0.97675327304E+01 -0.28818877255E+02  0.93785372613E+02  0.88438357929E+02 0.  0.
         11    1    3    3    0    0 -0.88680316376E+01  0.43956098696E+00 -0.60137854615E+02  0.60789775102E+02  0.51100000000E-03 0. -1.
         22    1    1    0    0    0  0.69584898519E+01  0.97675327304E+01  0.28818877255E+02  0.31214627387E+02  0.00000000000E+00 0. -1.
</event>
<event>
 5    1  0.6622912E-004  0.9118800E+02  0.7818608E-02  0.1130116E+00
         25   -1    0    0    0    0  0.00000000000E+00  0.00000000000E+00  0.99999998245E-14  0.12500000000E+03  0.12500000000E+03 0.  0.
        -11    1    3    3    0    0 -0.48462177902E+02 -0.31711444663E+02 -0.19460157800E+02  0.61097431628E+02  0.51100000000E-03 0.  1.
         23    2    1    0    0    0 -0.24679737320E+02 -0.16097743962E+02 -0.56476646260E-01  0.95534257442E+02  0.90876643647E+02 0.  0.
         11    1    3    3    0    0  0.23782440582E+02  0.15613700701E+02  0.19403681154E+02  0.34436825815E+02  0.51100000000E-03 0. -1.
         22    1    1    0    0    0  0.24679737320E+02  0.16097743962E+02  0.56476646260E-01  0.29465742558E+02  0.00000000000E+00 0.  1.
</event>
<event>
 5    1  0.6622912E-004  0.9118800E+02  0.7818608E-02  0.1130116E+00
         25   -1    0    0    0    0  0.00000000000E+00  0.00000000000E+00  0.99999998245E-14  0.12500000000E+03  0.12500000000E+03 0.  0.
        -11    1    3    3    0    0  0.13897296781E+02 -0.10279902760E+02  0.48798741517E+02  0.51769956852E+02  0.51100000000E-03 0. -1.
         23    2    1    0    0    0  0.28558197255E+02  0.72605089228E+01  0.16848070919E+02  0.91056766301E+02  0.84493736900E+02 0.  0.
         11    1    3    3    0    0  0.14660900474E+02  0.17540411683E+02 -0.31950670599E+02  0.39286809449E+02  0.51100000000E-03 0.  1.
         22    1    1    0    0    0 -0.28558197255E+02 -0.72605089228E+01 -0.16848070919E+02  0.33943233699E+02  0.00000000000E+00 0. -1.
</event>
<event>
 5    1  0.6622912E-004  0.9118800E+02  0.7818608E-02  0.1130116E+00
         25   -1    0    0    0    0  0.00000000000E+00  0.00000000000E+00  0.99999998245E-14  0.12500000000E+03  0.12500000000E+03 0.  0.
        -11    1    3    3    0    0  0.27397950651E+02  0.30545177654E+02 -0.37203699799E+01  0.41200688475E+02  0.51100000000E-03 0. -1.
         23    2    1    0    0    0 -0.18582209726E+02  0.12107466587E+02  0.19088139753E+02  0.95738312682E+02  0.91156887675E+02 0.  0.
         11    1    3    3    0    0 -0.45980160377E+02 -0.18437711068E+02  0.22808509733E+02  0.54537624207E+02  0.51100000000E-03 0.  1.
         22    1    1    0    0    0  0.18582209726E+02 -0.12107466587E+02 -0.19088139753E+02  0.29261687318E+02  0.00000000000E+00 0.  1.
</event>
<event>
 5    1  0.6622912E-004  0.9118800E+02  0.7818608E-02  0.1130116E+00
         25   -1    0    0    0    0  0.00000000000E+00  0.00000000000E+00  0.99999998245E-14  0.12500000000E+03  0.12500000000E+03 0.  0.
        -11    1    3    3    0    0 -0.15161756876E+01  0.42296452944E+02 -0.15383011858E+02  0.45032496871E+02  0.51100000000E-03 0. -1.
         23    2    1    0    0    0 -0.47785129262E+01  0.12246845135E+02  0.25756676857E+02  0.96082430872E+02  0.91627548904E+02 0.  0.
         11    1    3    3    0    0 -0.32623372385E+01 -0.30049607809E+02  0.41139688715E+02  0.51049934001E+02  0.51100000000E-03 0.  1.
         22    1    1    0    0    0  0.47785129262E+01 -0.12246845135E+02 -0.25756676857E+02  0.28917569128E+02  0.00000000000E+00 0. -1.
</event>
<event>
 5    1  0.6622912E-004  0.9118800E+02  0.7818608E-02  0.1130116E+00
         25   -1    0    0    0    0  0.00000000000E+00  0.00000000000E+00  0.99999998245E-14  0.12500000000E+03  0.12500000000E+03 0.  0.
        -11    1    3    3    0    0  0.32916359993E+02  0.83987870579E+01  0.24053733692E+02  0.41624613920E+02  0.51100000000E-03 0.  1.
         23    2    1    0    0    0  0.16095689977E+02 -0.15102698425E+02 -0.20595811528E+02  0.94811422888E+02  0.89876892036E+02 0.  0.
         11    1    3    3    0    0 -0.16820670016E+02 -0.23501485482E+02 -0.44649545219E+02  0.53186808968E+02  0.51100000000E-03 0. -1.
         22    1    1    0    0    0 -0.16095689977E+02  0.15102698425E+02  0.20595811528E+02  0.30188577112E+02  0.00000000000E+00 0. -1.
</event>
<event>
 5    1  0.6622912E-004  0.9118800E+02  0.7818608E-02  0.1130116E+00
         25   -1    0    0    0    0  0.00000000000E+00  0.00000000000E+00  0.99999998245E-14  0.12500000000E+03  0.12500000000E+03 0.  0.
        -11    1    3    3    0    0 -0.27803852212E+02  0.81193427759E+01 -0.32818375010E+02  0.43772407559E+02  0.51100000000E-03 0. -1.
         23    2    1    0    0    0 -0.16661103595E+02 -0.18455218819E+02  0.12263256828E+02  0.97276815791E+02  0.93242715253E+02 0.  0.
         11    1    3    3    0    0  0.11142748617E+02 -0.26574561595E+02  0.45081631838E+02  0.53504408232E+02  0.51100000000E-03 0.  1.
         22    1    1    0    0    0  0.16661103595E+02  0.18455218819E+02 -0.12263256828E+02  0.27723184209E+02  0.00000000000E+00 0.  1.
</event>
<event>
 5    1  0.6622912E-004  0.9118800E+02  0.7818608E-02  0.1130116E+00
         25   -1    0    0    0    0  0.00000000000E+00  0.00000000000E+00  0.99999998245E-14  0.12500000000E+03  0.12500000000E+03 0.  0.
        -11    1    3    3    0    0  0.34561391182E+02 -0.11586192504E+02 -0.35158992341E+02  0.50644687381E+02  0.51100000000E-03 0.  1.
         23    2    1    0    0    0 -0.99726517495E+01 -0.16362917621E+02 -0.18303033698E+02  0.98500945327E+02  0.94869575375E+02 0.  0.
         11    1    3    3    0    0 -0.44534042931E+02 -0.47767251166E+01  0.16855958643E+02  0.47856257947E+02  0.51100000000E-03 0. -1.
         22    1    1    0    0    0  0.99726517495E+01  0.16362917621E+02  0.18303033698E+02  0.26499054673E+02  0.00000000000E+00 0. -1.
</event>
<event>
 5    1  0.6622912E-004  0.9118800E+02  0.7818608E-02  0.1130116E+00
         25   -1    0    0    0    0  0.00000000000E+00  0.00000000000E+00  0.99999998245E-14  0.12500000000E+03  0.12500000000E+03 0.  0.
        -11    1    3    3    0    0  0.36900442893E+02  0.46645909343E+01  0.22287633461E+02  0.43360577716E+02  0.51100000000E-03 0.  1.
         23    2    1    0    0    0  0.91692407804E+01 -0.27240051060E+02 -0.77662684452E+01  0.95227356789E+02  0.90453519540E+02 0.  0.
         11    1    3    3    0    0 -0.27731202113E+02 -0.31904641994E+02 -0.30053901906E+02  0.51866779073E+02  0.51100000000E-03 0. -1.
         22    1    1    0    0    0 -0.91692407804E+01  0.27240051060E+02  0.77662684452E+01  0.29772643211E+02  0.00000000000E+00 0. -1.
</event>
<event>
 5    1  0.6622912E-004  0.9118800E+02  0.7818608E-02  0.1130116E+00
         25   -1    0    0    0    0  0.00000000000E+00  0.00000000000E+00  0.99999998245E-14  0.12500000000E+03  0.12500000000E+03 0.  0.
        -11    1    3    3    0    0 -0.35389775601E+02  0.34132000932E+02  0.96665283232E+01  0.50108596815E+02  0.51100000000E-03 0. -1.
         23    2    1    0    0    0 -0.25637162338E+02 -0.10630615621E+02  0.86385917513E+01  0.95932847600E+02  0.91423256888E+02 0.  0.
         11    1    3    3    0    0  0.97526132638E+01 -0.44762616553E+02 -0.10279365719E+01  0.45824250785E+02  0.51100000000E-03 0.  1.
         22    1    1    0    0    0  0.25637162338E+02  0.10630615621E+02 -0.86385917513E+01  0.29067152400E+02  0.00000000000E+00 0. -1.
</event>
<event>
 5    1  0.6622912E-004  0.9118800E+02  0.7818608E-02  0.1130116E+00
         25   -1    0    0    0    0  0.00000000000E+00  0.00000000000E+00  0.99999998245E-14  0.12500000000E+03  0.12500000000E+03 0.  0.
        -11    1    3    3    0    0  0.11006030141E+02 -0.36757941082E+02 -0.28993267150E+01  0.38479670317E+02  0.51100000000E-03 0.  1.
         23    2    1    0    0    0 -0.27395784560E+02  0.25178996487E+01  0.11368602034E+02  0.95232333942E+02  0.90460397332E+02 0.  0.
         11    1    3    3    0    0 -0.38401814702E+02  0.39275840731E+02  0.14267928749E+02  0.56752663625E+02  0.51100000000E-03 0. -1.
         22    1    1    0    0    0  0.27395784560E+02 -0.25178996487E+01 -0.11368602034E+02  0.29767666058E+02  0.00000000000E+00 0. -1.
</event>
<event>
 5    1  0.6622912E-004  0.9118800E+02  0.7818608E-02  0.1130116E+00
         25   -1    0    0    0    0  0.00000000000E+00  0.00000000000E+00  0.99999998245E-14  0.12500000000E+03  0.12500000000E+03 0.  0.
        -11    1    3    3    0    0  0.88543965381E+01  0.43756195703E+02 -0.29045129481E+02  0.53259971341E+02  0.51100000000E-03 0. -1.
         23    2    1    0    0    0 -0.10818083617E+02  0.27346292990E+02  0.42670655339E+01  0.95283699394E+02  0.90531347325E+02 0.  0.
         11    1    3    3    0    0 -0.19672480155E+02 -0.16409902713E+02  0.33312195015E+02  0.42023728053E+02  0.51100000000E-03 0.  1.
         22    1    1    0    0    0  0.10818083617E+02 -0.27346292990E+02 -0.42670655339E+01  0.29716300606E+02  0.00000000000E+00 0. -1.
</event>
<event>
 5    1  0.6622912E-004  0.9118800E+02  0.7818608E-02  0.1130116E+00
         25   -1    0    0    0    0  0.00000000000E+00  0.00000000000E+00  0.99999998245E-14  0.12500000000E+03  0.12500000000E+03 0.  0.
        -11    1    3    3    0    0 -0.16070398908E+02  0.32512004700E+02 -0.17791982037E+02  0.40396074014E+02  0.51100000000E-03 0.  1.
         23    2    1    0    0    0 -0.24648026591E+02 -0.14712067665E+02  0.84223586130E+01  0.95085015888E+02  0.90256600712E+02 0.  0.
         11    1    3    3    0    0 -0.85776276832E+01 -0.47224072365E+02  0.26214340650E+02  0.54688941875E+02  0.51100000000E-03 0. -1.
         22    1    1    0    0    0  0.24648026591E+02  0.14712067665E+02 -0.84223586130E+01  0.29914984112E+02  0.00000000000E+00 0. -1.
</event>
<event>
 5    1  0.6622912E-004  0.9118800E+02  0.7818608E-02  0.1130116E+00
         25   -1    0    0    0    0  0.00000000000E+00  0.00000000000E+00  0.99999998245E-14  0.12500000000E+03  0.12500000000E+03 0.  0.
        -11    1    3    3    0    0  0.35342557565E+02  0.11405669499E+01  0.60677307534E+01  0.35877773411E+02  0.51100000000E-03 0. -1.
         23    2    1    0    0    0 -0.23033073694E+02 -0.12515720511E+02  0.12092449563E+02  0.96131451714E+02  0.91694399657E+02 0.  0.
         11    1    3    3    0    0 -0.58375631259E+02 -0.13656287461E+02  0.60247188099E+01  0.60253678303E+02  0.51100000000E-03 0.  1.
         22    1    1    0    0    0  0.23033073694E+02  0.12515720511E+02 -0.12092449563E+02  0.28868548286E+02  0.00000000000E+00 0.  1.
</event>
<event>
 5    1  0.6622912E-004  0.9118800E+02  0.7818608E-02  0.1130116E+00
         25   -1    0    0    0    0  0.00000000000E+00  0.00000000000E+00  0.99999998245E-14  0.12500000000E+03  0.12500000000E+03 0.  0.
        -11    1    3    3    0    0  0.35570359287E+02  0.10785095466E+02  0.40867980964E+02  0.55242742622E+02  0.51100000000E-03 0.  1.
         23    2    1    0    0    0  0.26526990664E+02  0.13064455727E+02  0.18359919741E+01  0.95373456097E+02  0.90655193035E+02 0.  0.
         11    1    3    3    0    0 -0.90433686238E+01  0.22793602604E+01 -0.39031988990E+02  0.40130713475E+02  0.51100000000E-03 0. -1.
         22    1    1    0    0    0 -0.26526990664E+02 -0.13064455727E+02 -0.18359919741E+01  0.29626543903E+02  0.00000000000E+00 0.  1.
</event>
<event>
 5    1  0.6622912E-004  0.9118800E+02  0.7818608E-02  0.1130116E+00
         25   -1    0    0    0    0  0.00000000000E+00  0.00000000000E+00  0.99999998245E-14  0.12500000000E+03  0.12500000000E+03 0.  0.
        -11    1    3    3    0    0  0.46156373703E+02  0.95340229682E+00  0.98641284381E+01  0.47208270880E+02  0.51100000000E-03 0.  1.
         23    2    1    0    0    0  0.18918335075E+02 -0.18458709192E+02 -0.19847188911E+02  0.91946433556E+02  0.85799815786E+02 0.  0.
         11    1    3    3    0    0 -0.27238038628E+02 -0.19412111488E+02 -0.29711317349E+02  0.44738162676E+02  0.51100000000E-03 0. -1.
         22    1    1    0    0    0 -0.18918335075E+02  0.18458709192E+02  0.19847188911E+02  0.33053566444E+02  0.00000000000E+00 0.  1.
</event>
<event>
 5    1  0.6622912E-004  0.9118800E+02  0.7818608E-02  0.1130116E+00
         25   -1    0    0    0    0  0.00000000000E+00  0.00000000000E+00  0.99999998245E-14  0.12500000000E+03  0.12500000000E+03 0.  0.
        -11    1    3    3    0    0 -0.22736199530E+02 -0.48288868254E+02 -0.14477996001E+02  0.55302458669E+02  0.51100000000E-03 0. -1.
         23    2    1    0    0    0 -0.28703624337E+02 -0.12596363589E+02 -0.11494031727E+02  0.91613188366E+02  0.85312936249E+02 0.  0.
         11    1    3    3    0    0 -0.59674248067E+01  0.35692504665E+02  0.29839642739E+01  0.36310729697E+02  0.51100000000E-03 0.  1.
         22    1    1    0    0    0  0.28703624337E+02  0.12596363589E+02  0.11494031727E+02  0.33386811634E+02  0.00000000000E+00 0. -1.
</event>
<event>
 5    1  0.6622912E-004  0.9118800E+02  0.7818608E-02  0.1130116E+00
         25   -1    0    0    0    0  0.00000000000E+00  0.00000000000E+00  0.99999998245E-14  0.12500000000E+03  0.12500000000E+03 0.  0.
        -11    1    3    3    0    0  0.39986503734E+02  0.10566377810E+02  0.44652945940E+02  0.60864229251E+02  0.51100000000E-03 0.  1.
         23    2    1    0    0    0  0.10965117217E+02  0.53502814537E+01  0.27348714600E+02  0.95053188860E+02  0.90212511410E+02 0.  0.
         11    1    3    3    0    0 -0.29021386517E+02 -0.52160963563E+01 -0.17304231341E+02  0.34188959609E+02  0.51100000000E-03 0. -1.
         22    1    1    0    0    0 -0.10965117217E+02 -0.53502814537E+01 -0.27348714600E+02  0.29946811140E+02  0.00000000000E+00 0.  1.
</event>
<event>
 5    1  0.6622912E-004  0.9118800E+02  0.7818608E-02  0.1130116E+00
         25   -1    0    0    0    0  0.00000000000E+00  0.00000000000E+00  0.99999998245E-14  0.12500000000E+03  0.12500000000E+03 0.  0.
        -11    1    3    3    0    0 -0.24903083928E+02  0.43316843031E+02 -0.97099461289E+01  0.50899857892E+02  0.51100000000E-03 0.  1.
         23    2    1    0    0    0 -0.26758688703E+02  0.59275839941E+01 -0.21519669120E+02  0.90153768752E+02  0.83147111724E+02 0.  0.
         11    1    3    3    0    0 -0.18556047750E+01 -0.37389259037E+02 -0.11809722991E+02  0.39253910860E+02  0.51100000000E-03 0. -1.
         22    1    1    0    0    0  0.26758688703E+02 -0.59275839941E+01  0.21519669120E+02  0.34846231248E+02  0.00000000000E+00 0.  1.
</event>
<event>
 5    1  0.6622912E-004  0.9118800E+02  0.7818608E-02  0.1130116E+00
         25   -1    0    0    0    0  0.00000000000E+00  0.00000000000E+00  0.99999998245E-14  0.12500000000E+03  0.12500000000E+03 0.  0.
        -11    1    3    3    0    0  0.29970641118E+01  0.33475717878E+02 -0.20879843528E+02  0.39567334340E+02  0.51100000000E-03 0.  1.
         23    2    1    0    0    0 -0.25689905676E+02 -0.11785360946E+02 -0.10141805021E+01  0.96717592953E+02  0.92489989936E+02 0.  0.
         11    1    3    3    0    0 -0.28686969787E+02 -0.45261078824E+02  0.19865663026E+02  0.57150258614E+02  0.51100000000E-03 0. -1.
         22    1    1    0    0    0  0.25689905676E+02  0.11785360946E+02  0.10141805021E+01  0.28282407047E+02  0.00000000000E+00 0. -1.
</event>
<event>
 5    1  0.6622912E-004  0.9118800E+02  0.7818608E-02  0.1130116E+00
         25   -1    0    0    0    0  0.00000000000E+00  0.00000000000E+00  0.99999998245E-14  0.12500000000E+03  0.12500000000E+03 0.  0.
        -11    1    3    3    0    0  0.67390115121E+01  0.41215799168E+02 -0.43978277060E+02  0.60648538570E+02  0.51100000000E-03 0.  1.
         23    2    1    0    0    0  0.10602879877E+02  0.24892192833E+02 -0.15179831893E+02  0.93976305474E+02  0.88707814585E+02 0.  0.
         11    1    3    3    0    0  0.38638683652E+01 -0.16323606335E+02  0.28798445167E+02  0.33327766904E+02  0.51100000000E-03 0. -1.
         22    1    1    0    0    0 -0.10602879877E+02 -0.24892192833E+02  0.15179831893E+02  0.31023694526E+02  0.00000000000E+00 0.  1.
</event>
<event>
 5    1  0.6622912E-004  0.9118800E+02  0.7818608E-02  0.1130116E+00
         25   -1    0    0    0    0  0.00000000000E+00  0.00000000000E+00  0.99999998245E-14  0.12500000000E+03  0.12500000000E+03 0.  0.
        -11    1    3    3    0    0  0.43374392992E+01 -0.12732636608E+02  0.60446549971E+02  0.61925106527E+02  0.51100000000E-03 0.  1.
         23    2    1    0    0    0  0.76549697415E+01 -0.73728532077E+01  0.26568710852E+02  0.96384376252E+02  0.92038546615E+02 0.  0.
         11    1    3    3    0    0  0.33175304423E+01  0.53597833999E+01 -0.33877839119E+02  0.34459269725E+02  0.51100000000E-03 0. -1.
         22    1    1    0    0    0 -0.76549697415E+01  0.73728532077E+01 -0.26568710852E+02  0.28615623748E+02  0.00000000000E+00 0.  1.
</event>
<event>
 5    1  0.6622912E-004  0.9118800E+02  0.7818608E-02  0.1130116E+00
         25   -1    0    0    0    0  0.00000000000E+00  0.00000000000E+00  0.99999998245E-14  0.12500000000E+03  0.12500000000E+03 0.  0.
        -11    1    3    3    0    0 -0.23589308594E+02  0.42068860115E+02  0.45632127065E+01  0.48446541484E+02  0.51100000000E-03 0. -1.
         23    2    1    0    0    0 -0.13351129131E+02  0.36520405594E+00 -0.22233307725E+02  0.99063423597E+02  0.95607823421E+02 0.  0.
         11    1    3    3    0    0  0.10238179463E+02 -0.41703656059E+02 -0.26796520432E+02  0.50616882114E+02  0.51100000000E-03 0.  1.
         22    1    1    0    0    0  0.13351129131E+02 -0.36520405594E+00  0.22233307725E+02  0.25936576403E+02  0.00000000000E+00 0.  1.
</event>
<event>
 5    1  0.6622912E-004  0.9118800E+02  0.7818608E-02  0.1130116E+00
         25   -1    0    0    0    0  0.00000000000E+00  0.00000000000E+00  0.99999998245E-14  0.12500000000E+03  0.12500000000E+03 0.  0.
        -11    1    3    3    0    0 -0.32563287692E+02 -0.86168142083E+01 -0.18353111293E+02  0.38359534497E+02  0.51100000000E-03 0.  1.
         23    2    1    0    0    0  0.18317419400E+02 -0.11540332657E+02  0.14452336083E+02  0.98969687871E+02  0.95485192400E+02 0.  0.
         11    1    3    3    0    0  0.50880707091E+02 -0.29235184486E+01  0.32805447376E+02  0.60610153374E+02  0.51100000000E-03 0. -1.
         22    1    1    0    0    0 -0.18317419400E+02  0.11540332657E+02 -0.14452336083E+02  0.26030312129E+02  0.00000000000E+00 0. -1.
</event>
<event>
 5    1  0.6622912E-004  0.9118800E+02  0.7818608E-02  0.1130116E+00
         25   -1    0    0    0    0  0.00000000000E+00  0.00000000000E+00  0.99999998245E-14  0.12500000000E+03  0.12500000000E+03 0.  0.
        -11    1    3    3    0    0  0.70177550005E+01 -0.21048067651E+01 -0.35277661145E+02  0.36030438144E+02  0.51100000000E-03 0. -1.
         23    2    1    0    0    0  0.30906914741E+01  0.24807278675E+02  0.16867945562E+02  0.94842396705E+02  0.89919959832E+02 0.  0.
         11    1    3    3    0    0 -0.39270635264E+01  0.26912085440E+02  0.52145606706E+02  0.58811958560E+02  0.51100000000E-03 0.  1.
         22    1    1    0    0    0 -0.30906914741E+01 -0.24807278675E+02 -0.16867945562E+02  0.30157603295E+02  0.00000000000E+00 0.  1.
</event>
<event>
 5    1  0.6622912E-004  0.9118800E+02  0.7818608E-02  0.1130116E+00
         25   -1    0    0    0    0  0.00000000000E+00  0.00000000000E+00  0.99999998245E-14  0.12500000000E+03  0.12500000000E+03 0.  0.
        -11    1    3    3    0    0  0.20439546505E+02  0.18242129232E+02 -0.30341345632E+02  0.40879672152E+02  0.51100000000E-03 0.  1.
         23    2    1    0    0    0 -0.24387955323E+02 -0.87755694688E+01 -0.12895174551E+02  0.96050587034E+02  0.91584096647E+02 0.  0.
         11    1    3    3    0    0 -0.44827501829E+02 -0.27017698701E+02  0.17446171080E+02  0.55170914882E+02  0.51100000000E-03 0. -1.
         22    1    1    0    0    0  0.24387955323E+02  0.87755694688E+01  0.12895174551E+02  0.28949412966E+02  0.00000000000E+00 0. -1.
</event>
<event>
 5    1  0.6622912E-004  0.9118800E+02  0.7818608E-02  0.1130116E+00
         25   -1    0    0    0    0  0.00000000000E+00  0.00000000000E+00  0.99999998245E-14  0.12500000000E+03  0.12500000000E+03 0.  0.
        -11    1    3    3    0    0 -0.52311680349E+02  0.20404475175E+02 -0.26599247987E+02  0.62131912105E+02  0.51100000000E-03 0.  1.
         23    2    1    0    0    0 -0.26891165857E+02  0.93663855980E+01 -0.83094651218E+01  0.95336702966E+02  0.90604501773E+02 0.  0.
         11    1    3    3    0    0  0.25420514493E+02 -0.11038089577E+02  0.18289782865E+02  0.33204790861E+02  0.51100000000E-03 0. -1.
         22    1    1    0    0    0  0.26891165857E+02 -0.93663855980E+01  0.83094651218E+01  0.29663297034E+02  0.00000000000E+00 0.  1.
</event>
<event>
 5    1  0.6622912E-004  0.9118800E+02  0.7818608E-02  0.1130116E+00
         25   -1    0    0    0    0  0.00000000000E+00  0.00000000000E+00  0.99999998245E-14  0.12500000000E+03  0.12500000000E+03 0.  0.
        -11    1    3    3    0    0  0.14251361127E+02  0.12541367406E+02 -0.23242449651E+02  0.30009975948E+02  0.51100000000E-03 0. -1.
         23    2    1    0    0    0 -0.17213034888E+02 -0.31499257836E+01  0.27896275098E+02  0.92069576880E+02  0.85979033607E+02 0.  0.
         11    1    3    3    0    0 -0.31464396016E+02 -0.15691293189E+02  0.51138724749E+02  0.62059600932E+02  0.51100000000E-03 0.  1.
         22    1    1    0    0    0  0.17213034888E+02  0.31499257836E+01 -0.27896275098E+02  0.32930423120E+02  0.00000000000E+00 0.  1.
</event>
<event>
 5    1  0.6622912E-004  0.9118800E+02  0.7818608E-02  0.1130116E+00
         25   -1    0    0    0    0  0.00000000000E+00  0.00000000000E+00  0.99999998245E-14  0.12500000000E+03  0.12500000000E+03 0.  0.
        -11    1    3    3    0    0  0.34971887497E+02 -0.17127936495E+02 -0.13010435667E+02  0.41056918543E+02  0.51100000000E-03 0. -1.
         23    2    1    0    0    0 -0.64212188180E+01 -0.13002551626E+02  0.24146387275E+02  0.96833594153E+02  0.92646632633E+02 0.  0.
         11    1    3    3    0    0 -0.41393106315E+02  0.41253848685E+01  0.37156822942E+02  0.55776675611E+02  0.51100000000E-03 0.  1.
         22    1    1    0    0    0  0.64212188180E+01  0.13002551626E+02 -0.24146387275E+02  0.28166405847E+02  0.00000000000E+00 0.  1.
</event>
<event>
 5    1  0.6622912E-004  0.9118800E+02  0.7818608E-02  0.1130116E+00
         25   -1    0    0    0    0  0.00000000000E+00  0.00000000000E+00  0.99999998245E-14  0.12500000000E+03  0.12500000000E+03 0.  0.
        -11    1    3    3    0    0  0.16825048282E+02  0.24537566255E+02  0.40262797987E+02  0.50062633865E+02  0.51100000000E-03 0.  1.
         23    2    1    0    0    0 -0.34544024827E+00  0.29422818536E+02 -0.15576470577E+01  0.95533954389E+02  0.90876226799E+02 0.  0.
         11    1    3    3    0    0 -0.17170488530E+02  0.48852522809E+01 -0.41820445045E+02  0.45471320525E+02  0.51100000000E-03 0. -1.
         22    1    1    0    0    0  0.34544024827E+00 -0.29422818536E+02  0.15576470577E+01  0.29466045611E+02  0.00000000000E+00 0.  1.
</event>
<event>
 5    1  0.6622912E-004  0.9118800E+02  0.7818608E-02  0.1130116E+00
         25   -1    0    0    0    0  0.00000000000E+00  0.00000000000E+00  0.99999998245E-14  0.12500000000E+03  0.12500000000E+03 0.  0.
        -11    1    3    3    0    0  0.24278551214E+01  0.26155268801E+02 -0.20840868242E+02  0.33531095358E+02  0.51100000000E-03 0.  1.
         23    2    1    0    0    0  0.70100345168E+01 -0.28838057537E+02  0.57225096047E+01  0.94775485734E+02  0.89826897049E+02 0.  0.
         11    1    3    3    0    0  0.45821793954E+01 -0.54993326338E+02  0.26563377847E+02  0.61244390377E+02  0.51100000000E-03 0. -1.
         22    1    1    0    0    0 -0.70100345168E+01  0.28838057537E+02 -0.57225096047E+01  0.30224514266E+02  0.00000000000E+00 0. -1.
</event>
<event>
 5    1  0.6622912E-004  0.9118800E+02  0.7818608E-02  0.1130116E+00
         25   -1    0    0    0    0  0.00000000000E+00  0.00000000000E+00  0.99999998245E-14  0.12500000000E+03  0.12500000000E+03 0.  0.
        -11    1    3    3    0    0 -0.98645061042E+01  0.31382197739E+02  0.30331712948E+02  0.44745543087E+02  0.51100000000E-03 0.  1.
         23    2    1    0    0    0 -0.11219124378E+02 -0.18794896608E+02  0.18557491177E+02  0.96303356135E+02  0.91928445183E+02 0.  0.
         11    1    3    3    0    0 -0.13546182738E+01 -0.50177094346E+02 -0.11774221770E+02  0.51557813048E+02  0.51100000000E-03 0. -1.
         22    1    1    0    0    0  0.11219124378E+02  0.18794896608E+02 -0.18557491177E+02  0.28696643865E+02  0.00000000000E+00 0. -1.
</event>
<event>
 5    1  0.6622912E-004  0.9118800E+02  0.7818608E-02  0.1130116E+00
         25   -1    0    0    0    0  0.00000000000E+00  0.00000000000E+00  0.99999998245E-14  0.12500000000E+03  0.12500000000E+03 0.  0.
        -11    1    3    3    0    0  0.44020137840E+02  0.20429728519E+02 -0.19558477735E+02  0.52322847728E+02  0.51100000000E-03 0. -1.
         23    2    1    0    0    0  0.19410670580E+02 -0.16142652526E+02 -0.11998781371E+02  0.97047717135E+02  0.92935081018E+02 0.  0.
         11    1    3    3    0    0 -0.24609467259E+02 -0.36572381046E+02  0.75596963638E+01  0.44724869407E+02  0.51100000000E-03 0.  1.
         22    1    1    0    0    0 -0.19410670580E+02  0.16142652526E+02  0.11998781371E+02  0.27952282865E+02  0.00000000000E+00 0. -1.
</event>
<event>
 5    1  0.6622912E-004  0.9118800E+02  0.7818608E-02  0.1130116E+00
         25   -1    0    0    0    0  0.00000000000E+00  0.00000000000E+00  0.99999998245E-14  0.12500000000E+03  0.12500000000E+03 0.  0.
        -11    1    3    3    0    0  0.31407161062E+02 -0.17280620616E+02 -0.45982614927E+02  0.58304635241E+02  0.51100000000E-03 0. -1.
         23    2    1    0    0    0  0.26432596355E+02 -0.56070406555E+01 -0.10460584876E+02  0.96025098949E+02  0.91549302221E+02 0.  0.
         11    1    3    3    0    0 -0.49745647069E+01  0.11673579961E+02  0.35522030050E+02  0.37720463707E+02  0.51100000000E-03 0.  1.
         22    1    1    0    0    0 -0.26432596355E+02  0.56070406555E+01  0.10460584876E+02  0.28974901051E+02  0.00000000000E+00 0. -1.
</event>
<event>
 5    1  0.6622912E-004  0.9118800E+02  0.7818608E-02  0.1130116E+00
         25   -1    0    0    0    0  0.00000000000E+00  0.00000000000E+00  0.99999998245E-14  0.12500000000E+03  0.12500000000E+03 0.  0.
        -11    1    3    3    0    0  0.35413006041E+02  0.28939015209E+02  0.41609176238E+02  0.61829371221E+02  0.51100000000E-03 0. -1.
         23    2    1    0    0    0  0.21209348237E+02  0.13120419384E+02  0.14967694013E+02  0.95913684979E+02  0.91397052713E+02 0.  0.
         11    1    3    3    0    0 -0.14203657804E+02 -0.15818595824E+02 -0.26641482225E+02  0.34084313757E+02  0.51100000000E-03 0.  1.
         22    1    1    0    0    0 -0.21209348237E+02 -0.13120419384E+02 -0.14967694013E+02  0.29086315021E+02  0.00000000000E+00 0. -1.
</event>
<event>
 5    1  0.6622912E-004  0.9118800E+02  0.7818608E-02  0.1130116E+00
         25   -1    0    0    0    0  0.00000000000E+00  0.00000000000E+00  0.99999998245E-14  0.12500000000E+03  0.12500000000E+03 0.  0.
        -11    1    3    3    0    0 -0.35316598392E+02 -0.29538976387E+01  0.48148195362E+02  0.59784917413E+02  0.51100000000E-03 0. -1.
         23    2    1    0    0    0 -0.23004573498E+02 -0.12108413145E+02  0.18745638805E+02  0.92949679488E+02  0.87249182644E+02 0.  0.
         11    1    3    3    0    0  0.12312024894E+02 -0.91545155058E+01 -0.29402556557E+02  0.33164762075E+02  0.51100000000E-03 0.  1.
         22    1    1    0    0    0  0.23004573498E+02  0.12108413145E+02 -0.18745638805E+02  0.32050320512E+02  0.00000000000E+00 0. -1.
</event>
<event>
 5    1  0.6622912E-004  0.9118800E+02  0.7818608E-02  0.1130116E+00
         25   -1    0    0    0    0  0.00000000000E+00  0.00000000000E+00  0.99999998245E-14  0.12500000000E+03  0.12500000000E+03 0.  0.
        -11    1    3    3    0    0  0.37379535161E+02 -0.71877635597E+01  0.50249877002E+01  0.38394584195E+02  0.51100000000E-03 0. -1.
         23    2    1    0    0    0 -0.73840741044E+01  0.22162440799E+02 -0.16826402903E+02  0.96210658792E+02  0.91802313141E+02 0.  0.
         11    1    3    3    0    0 -0.44763609265E+02  0.29350204359E+02 -0.21851390603E+02  0.57816074598E+02  0.51100000000E-03 0.  1.
         22    1    1    0    0    0  0.73840741044E+01 -0.22162440799E+02  0.16826402903E+02  0.28789341208E+02  0.00000000000E+00 0.  1.
</event>
<event>
 5    1  0.6622912E-004  0.9118800E+02  0.7818608E-02  0.1130116E+00
         25   -1    0    0    0    0  0.00000000000E+00  0.00000000000E+00  0.99999998245E-14  0.12500000000E+03  0.12500000000E+03 0.  0.
        -11    1    3    3    0    0 -0.16175238539E+02  0.48119049536E+02  0.35317059248E+02  0.61841538987E+02  0.51100000000E-03 0. -1.
         23    2    1    0    0    0 -0.99111444719E+01  0.18606717091E+02  0.21027281045E+02  0.95224384913E+02  0.90449412537E+02 0.  0.
         11    1    3    3    0    0  0.62640940671E+01 -0.29512332445E+02 -0.14289778203E+02  0.33382845926E+02  0.51100000000E-03 0.  1.
         22    1    1    0    0    0  0.99111444719E+01 -0.18606717091E+02 -0.21027281045E+02  0.29775615087E+02  0.00000000000E+00 0. -1.
</event>
<event>
 5    1  0.6622912E-004  0.9118800E+02  0.7818608E-02  0.1130116E+00
         25   -1    0    0    0    0  0.00000000000E+00  0.00000000000E+00  0.99999998245E-14  0.12500000000E+03  0.12500000000E+03 0.  0.
        -11    1    3    3    0    0  0.34290278630E+02 -0.34781890125E+02  0.23898119383E+01  0.48901066354E+02  0.51100000000E-03 0.  1.
         23    2    1    0    0    0  0.16562290109E+02 -0.16162928284E+01 -0.24677807224E+02  0.95235658490E+02  0.90464991143E+02 0.  0.
         11    1    3    3    0    0 -0.17727988520E+02  0.33165597297E+02 -0.27067619162E+02  0.46334592136E+02  0.51100000000E-03 0. -1.
         22    1    1    0    0    0 -0.16562290109E+02  0.16162928284E+01  0.24677807224E+02  0.29764341510E+02  0.00000000000E+00 0. -1.
</event>
<event>
 5    1  0.6622912E-004  0.9118800E+02  0.7818608E-02  0.1130116E+00
         25   -1    0    0    0    0  0.00000000000E+00  0.00000000000E+00  0.99999998245E-14  0.12500000000E+03  0.12500000000E+03 0.  0.
        -11    1    3    3    0    0 -0.53594467766E+02  0.18091260233E+02  0.14098437826E+02  0.58296025776E+02  0.51100000000E-03 0.  1.
         23    2    1    0    0    0 -0.21878327415E+02  0.18764228300E+00  0.20197376573E+02  0.95223659719E+02  0.90448410322E+02 0.  0.
         11    1    3    3    0    0  0.31716140351E+02 -0.17903617950E+02  0.60989387477E+01  0.36927633943E+02  0.51100000000E-03 0. -1.
         22    1    1    0    0    0  0.21878327415E+02 -0.18764228300E+00 -0.20197376573E+02  0.29776340281E+02  0.00000000000E+00 0.  1.
</event>
<event>
 5    1  0.6622912E-004  0.9118800E+02  0.7818608E-02  0.1130116E+00
         25   -1    0    0    0    0  0.00000000000E+00  0.00000000000E+00  0.99999998245E-14  0.12500000000E+03  0.12500000000E+03 0.  0.
        -11    1    3    3    0    0 -0.32876596170E+02 -0.10261718626E+02  0.50268817355E+02  0.60935436680E+02  0.51100000000E-03 0. -1.
         23    2    1    0    0    0 -0.26668401662E+02 -0.83622580091E+01  0.23487163688E+02  0.88492769698E+02  0.80611366597E+02 0.  0.
         11    1    3    3    0    0  0.62081945079E+01  0.18994606166E+01 -0.26781653667E+02  0.27557333019E+02  0.51100000000E-03 0.  1.
         22    1    1    0    0    0  0.26668401662E+02  0.83622580091E+01 -0.23487163688E+02  0.36507230302E+02  0.00000000000E+00 0. -1.
</event>
<event>
 5    1  0.6622912E-004  0.9118800E+02  0.7818608E-02  0.1130116E+00
         25   -1    0    0    0    0  0.00000000000E+00  0.00000000000E+00  0.99999998245E-14  0.12500000000E+03  0.12500000000E+03 0.  0.
        -11    1    3    3    0    0 -0.15029002487E+01  0.41712497010E+02 -0.57086426412E+01  0.42128134507E+02  0.51100000000E-03 0. -1.
         23    2    1    0    0    0  0.29912527933E+02 -0.66862942632E+00 -0.20375309829E+01  0.95010703157E+02  0.90153623273E+02 0.  0.
         11    1    3    3    0    0  0.31415428182E+02 -0.42381126437E+02  0.36711116583E+01  0.52882568649E+02  0.51100000000E-03 0.  1.
         22    1    1    0    0    0 -0.29912527933E+02  0.66862942632E+00  0.20375309829E+01  0.29989296843E+02  0.00000000000E+00 0.  1.
</event>
<event>
 5    1  0.6622912E-004  0.9118800E+02  0.7818608E-02  0.1130116E+00
         25   -1    0    0    0    0  0.00000000000E+00  0.00000000000E+00  0.99999998245E-14  0.12500000000E+03  0.12500000000E+03 0.  0.
        -11    1    3    3    0    0  0.12054264552E+01 -0.17229431370E+02  0.59491485265E+02  0.61947906967E+02  0.51100000000E-03 0.  1.
         23    2    1    0    0    0 -0.52589603419E+01 -0.86766157543E+01  0.27495154991E+02  0.95692596962E+02  0.91094177863E+02 0.  0.
         11    1    3    3    0    0 -0.64643867972E+01  0.85528156162E+01 -0.31996330274E+02  0.33744689995E+02  0.51100000000E-03 0. -1.
         22    1    1    0    0    0  0.52589603419E+01  0.86766157543E+01 -0.27495154991E+02  0.29307403038E+02  0.00000000000E+00 0.  1.
</event>
<event>
 5    1  0.6622912E-004  0.9118800E+02  0.7818608E-02  0.1130116E+00
         25   -1    0    0    0    0  0.00000000000E+00  0.00000000000E+00  0.99999998245E-14  0.12500000000E+03  0.12500000000E+03 0.  0.
        -11    1    3    3    0    0 -0.49111376042E+02 -0.10788960990E+02 -0.31402101476E+02  0.59282551508E+02  0.51100000000E-03 0.  1.
         23    2    1    0    0    0 -0.26965650964E+02  0.77119817656E+01 -0.99463622881E+01  0.95241789075E+02  0.90473461683E+02 0.  0.
         11    1    3    3    0    0  0.22145725078E+02  0.18500942756E+02  0.21455739188E+02  0.35959237567E+02  0.51100000000E-03 0. -1.
         22    1    1    0    0    0  0.26965650964E+02 -0.77119817656E+01  0.99463622881E+01  0.29758210925E+02  0.00000000000E+00 0.  1.
</event>
<event>
 5    1  0.6622912E-004  0.9118800E+02  0.7818608E-02  0.1130116E+00
         25   -1    0    0    0    0  0.00000000000E+00  0.00000000000E+00  0.99999998245E-14  0.12500000000E+03  0.12500000000E+03 0.  0.
        -11    1    3    3    0    0  0.40269421139E+01 -0.17083273670E+02  0.29993496963E+02  0.34751465616E+02  0.51100000000E-03 0.  1.
         23    2    1    0    0    0  0.67774111863E+00  0.44650781629E+01 -0.27962900211E+02  0.96674745469E+02  0.92432063523E+02 0.  0.
         11    1    3    3    0    0 -0.33492009953E+01  0.21548351833E+02 -0.57956397175E+02  0.61923279853E+02  0.51100000000E-03 0. -1.
         22    1    1    0    0    0 -0.67774111863E+00 -0.44650781629E+01  0.27962900211E+02  0.28325254531E+02  0.00000000000E+00 0. -1.
</event>
<event>
 5    1  0.6622912E-004  0.9118800E+02  0.7818608E-02  0.1130116E+00
         25   -1    0    0    0    0  0.00000000000E+00  0.00000000000E+00  0.99999998245E-14  0.12500000000E+03  0.12500000000E+03 0.  0.
        -11    1    3    3    0    0  0.14021074934E+02 -0.46407758043E+02 -0.24807860604E+02  0.54458245445E+02  0.51100000000E-03 0. -1.
         23    2    1    0    0    0  0.26970782488E+02 -0.12702457221E+02 -0.91437905928E+01  0.93816920712E+02  0.88482937214E+02 0.  0.
         11    1    3    3    0    0  0.12949707553E+02  0.33705300822E+02  0.15664070011E+02  0.39358675267E+02  0.51100000000E-03 0.  1.
         22    1    1    0    0    0 -0.26970782488E+02  0.12702457221E+02  0.91437905928E+01  0.31183079288E+02  0.00000000000E+00 0. -1.
</event>
<event>
 5    1  0.6622912E-004  0.9118800E+02  0.7818608E-02  0.1130116E+00
         25   -1    0    0    0    0  0.00000000000E+00  0.00000000000E+00  0.99999998245E-14  0.12500000000E+03  0.12500000000E+03 0.  0.
        -11    1    3    3    0    0 -0.26274212016E+02  0.18375306421E+02  0.50704775360E+02  0.59991335605E+02  0.51100000000E-03 0.  1.
         23    2    1    0    0    0 -0.33542995068E+01  0.17837573750E+01  0.29259526250E+02  0.95494864991E+02  0.90822443524E+02 0.  0.
         11    1    3    3    0    0  0.22919912510E+02 -0.16591549046E+02 -0.21445249110E+02  0.35503529386E+02  0.51100000000E-03 0. -1.
         22    1    1    0    0    0  0.33542995068E+01 -0.17837573750E+01 -0.29259526250E+02  0.29505135009E+02  0.00000000000E+00 0.  1.
</event>
<event>
 5    1  0.6622912E-004  0.9118800E+02  0.7818608E-02  0.1130116E+00
         25   -1    0    0    0    0  0.00000000000E+00  0.00000000000E+00  0.99999998245E-14  0.12500000000E+03  0.12500000000E+03 0.  0.
        -11    1    3    3    0    0  0.21433238702E+02 -0.10447186193E+02  0.57627696357E+02  0.62365686144E+02  0.51100000000E-03 0.  1.
         23    2    1    0    0    0  0.10914404843E+02 -0.21281473473E+01  0.26868984037E+02  0.95920874370E+02  0.91406884820E+02 0.  0.
         11    1    3    3    0    0 -0.10518833858E+02  0.83190388457E+01 -0.30758712320E+02  0.33555188226E+02  0.51100000000E-03 0. -1.
         22    1    1    0    0    0 -0.10914404843E+02  0.21281473473E+01 -0.26868984037E+02  0.29079125630E+02  0.00000000000E+00 0.  1.
</event>
<event>
 5    1  0.6622912E-004  0.9118800E+02  0.7818608E-02  0.1130116E+00
         25   -1    0    0    0    0  0.00000000000E+00  0.00000000000E+00  0.99999998245E-14  0.12500000000E+03  0.12500000000E+03 0.  0.
        -11    1    3    3    0    0  0.49931555695E+02 -0.50599859569E+01  0.33210110370E+02  0.60180355125E+02  0.51100000000E-03 0.  1.
         23    2    1    0    0    0  0.18414283831E+02 -0.13202939077E+02  0.17747971217E+02  0.96218166639E+02  0.91812535418E+02 0.  0.
         11    1    3    3    0    0 -0.31517271864E+02 -0.81429531204E+01 -0.15462139153E+02  0.36037811514E+02  0.51100000000E-03 0. -1.
         22    1    1    0    0    0 -0.18414283831E+02  0.13202939077E+02 -0.17747971217E+02  0.28781833361E+02  0.00000000000E+00 0.  1.
</event>
<event>
 5    1  0.6622912E-004  0.9118800E+02  0.7818608E-02  0.1130116E+00
         25   -1    0    0    0    0  0.00000000000E+00  0.00000000000E+00  0.99999998245E-14  0.12500000000E+03  0.12500000000E+03 0.  0.
        -11    1    3    3    0    0 -0.20553257441E+02  0.25903126577E+02 -0.35372239133E+02  0.48421107582E+02  0.51100000000E-03 0. -1.
         23    2    1    0    0    0 -0.16906888548E+02 -0.17492696802E+02 -0.11368861997E+02  0.98146911818E+02  0.94401948892E+02 0.  0.
         11    1    3    3    0    0  0.36463688923E+01 -0.43395823379E+02  0.24003377136E+02  0.49725804237E+02  0.51100000000E-03 0.  1.
         22    1    1    0    0    0  0.16906888548E+02  0.17492696802E+02  0.11368861997E+02  0.26853088182E+02  0.00000000000E+00 0. -1.
</event>
<event>
 5    1  0.6622912E-004  0.9118800E+02  0.7818608E-02  0.1130116E+00
         25   -1    0    0    0    0  0.00000000000E+00  0.00000000000E+00  0.99999998245E-14  0.12500000000E+03  0.12500000000E+03 0.  0.
        -11    1    3    3    0    0 -0.24812590217E+01  0.21017340597E+02  0.45254004114E+02  0.49958083838E+02  0.51100000000E-03 0. -1.
         23    2    1    0    0    0 -0.27269794230E+02  0.53054764799E+01  0.10860374465E+02  0.95171532196E+02  0.90376341202E+02 0.  0.
         11    1    3    3    0    0 -0.24788535208E+02 -0.15711864117E+02 -0.34393629649E+02  0.45213448359E+02  0.51100000000E-03 0.  1.
         22    1    1    0    0    0  0.27269794230E+02 -0.53054764799E+01 -0.10860374465E+02  0.29828467804E+02  0.00000000000E+00 0. -1.
</event>
<event>
 5    1  0.6622912E-004  0.9118800E+02  0.7818608E-02  0.1130116E+00
         25   -1    0    0    0    0  0.00000000000E+00  0.00000000000E+00  0.99999998245E-14  0.12500000000E+03  0.12500000000E+03 0.  0.
        -11    1    3    3    0    0 -0.25261665477E+02  0.20116950033E+01  0.24665358013E+02  0.35363519984E+02  0.51100000000E-03 0.  1.
         23    2    1    0    0    0  0.59897858971E+01 -0.11590141254E+02 -0.25700416106E+02  0.96177781185E+02  0.91757535365E+02 0.  0.
         11    1    3    3    0    0  0.31251451374E+02 -0.13601836257E+02 -0.50365774119E+02  0.60814261201E+02  0.51100000000E-03 0. -1.
         22    1    1    0    0    0 -0.59897858971E+01  0.11590141254E+02  0.25700416106E+02  0.28822218815E+02  0.00000000000E+00 0. -1.
</event>
<event>
 5    1  0.6622912E-004  0.9118800E+02  0.7818608E-02  0.1130116E+00
         25   -1    0    0    0    0  0.00000000000E+00  0.00000000000E+00  0.99999998245E-14  0.12500000000E+03  0.12500000000E+03 0.  0.
        -11    1    3    3    0    0  0.30325433824E+02  0.52053973861E+02  0.44033221662E+01  0.60403951673E+02  0.51100000000E-03 0. -1.
         23    2    1    0    0    0  0.10657941012E+02  0.23165705687E+02  0.12977089866E+02  0.96388000979E+02  0.92043469321E+02 0.  0.
         11    1    3    3    0    0 -0.19667492812E+02 -0.28888268174E+02  0.85737676999E+01  0.35984049306E+02  0.51100000000E-03 0.  1.
         22    1    1    0    0    0 -0.10657941012E+02 -0.23165705687E+02 -0.12977089866E+02  0.28611999021E+02  0.00000000000E+00 0. -1.
</event>
<event>
 5    1  0.6622912E-004  0.9118800E+02  0.7818608E-02  0.1130116E+00
         25   -1    0    0    0    0  0.00000000000E+00  0.00000000000E+00  0.99999998245E-14  0.12500000000E+03  0.12500000000E+03 0.  0.
        -11    1    3    3    0    0 -0.20522719040E+02  0.86677578435E+01 -0.30104889920E+02  0.37451520933E+02  0.51100000000E-03 0. -1.
         23    2    1    0    0    0  0.29175619217E+02 -0.71646238081E+01 -0.11590278833E+02  0.92799329907E+02  0.87033513527E+02 0.  0.
         11    1    3    3    0    0  0.49698338257E+02 -0.15832381652E+02  0.18514611087E+02  0.55347808974E+02  0.51100000000E-03 0.  1.
         22    1    1    0    0    0 -0.29175619217E+02  0.71646238081E+01  0.11590278833E+02  0.32200670093E+02  0.00000000000E+00 0.  1.
</event>
<event>
 5    1  0.6622912E-004  0.9118800E+02  0.7818608E-02  0.1130116E+00
         25   -1    0    0    0    0  0.00000000000E+00  0.00000000000E+00  0.99999998245E-14  0.12500000000E+03  0.12500000000E+03 0.  0.
        -11    1    3    3    0    0  0.60711693984E+02  0.72664444365E+01 -0.22262973397E+01  0.61185516271E+02  0.51100000000E-03 0.  1.
         23    2    1    0    0    0  0.27831802857E+02 -0.56151480900E+01  0.49152445364E+00  0.96603156255E+02  0.92335199484E+02 0.  0.
         11    1    3    3    0    0 -0.32879891127E+02 -0.12881592526E+02  0.27178217933E+01  0.35417639985E+02  0.51100000000E-03 0. -1.
         22    1    1    0    0    0 -0.27831802857E+02  0.56151480900E+01 -0.49152445364E+00  0.28396843745E+02  0.00000000000E+00 0.  1.
</event>
<event>
 5    1  0.6622912E-004  0.9118800E+02  0.7818608E-02  0.1130116E+00
         25   -1    0    0    0    0  0.00000000000E+00  0.00000000000E+00  0.99999998245E-14  0.12500000000E+03  0.12500000000E+03 0.  0.
        -11    1    3    3    0    0 -0.35605144703E+02 -0.16136808868E+02 -0.32855365699E+02  0.51064645160E+02  0.51100000000E-03 0.  1.
         23    2    1    0    0    0 -0.36791409192E+01 -0.28521571249E+02 -0.37652527223E+01  0.95996668596E+02  0.91510475625E+02 0.  0.
         11    1    3    3    0    0  0.31926003784E+02 -0.12384762381E+02  0.29090112977E+02  0.44932023437E+02  0.51100000000E-03 0. -1.
         22    1    1    0    0    0  0.36791409192E+01  0.28521571249E+02  0.37652527223E+01  0.29003331404E+02  0.00000000000E+00 0.  1.
</event>
<event>
 5    1  0.6622912E-004  0.9118800E+02  0.7818608E-02  0.1130116E+00
         25   -1    0    0    0    0  0.00000000000E+00  0.00000000000E+00  0.99999998245E-14  0.12500000000E+03  0.12500000000E+03 0.  0.
        -11    1    3    3    0    0 -0.13228660830E+01  0.52913473663E+02 -0.16988017662E+02  0.55589373212E+02  0.51100000000E-03 0.  1.
         23    2    1    0    0    0 -0.10867758159E+02  0.31625165222E+02  0.88566392082E+01  0.90406658144E+02  0.83526430165E+02 0.  0.
         11    1    3    3    0    0 -0.95448920758E+01 -0.21288308441E+02  0.25844656870E+02  0.34817284932E+02  0.51100000000E-03 0. -1.
         22    1    1    0    0    0  0.10867758159E+02 -0.31625165222E+02 -0.88566392082E+01  0.34593341856E+02  0.00000000000E+00 0.  1.
</event>
<event>
 5    1  0.6622912E-004  0.9118800E+02  0.7818608E-02  0.1130116E+00
         25   -1    0    0    0    0  0.00000000000E+00  0.00000000000E+00  0.99999998245E-14  0.12500000000E+03  0.12500000000E+03 0.  0.
        -11    1    3    3    0    0  0.33382235956E+02  0.23413353997E+02 -0.49665860200E+00  0.40777512097E+02  0.51100000000E-03 0. -1.
         23    2    1    0    0    0 -0.17447606688E+02  0.16902963929E+02  0.17466746846E+02  0.95079832652E+02  0.90249421954E+02 0.  0.
         11    1    3    3    0    0 -0.50829842645E+02 -0.65103900679E+01  0.17963405448E+02  0.54302320555E+02  0.51100000000E-03 0.  1.
         22    1    1    0    0    0  0.17447606688E+02 -0.16902963929E+02 -0.17466746846E+02  0.29920167348E+02  0.00000000000E+00 0.  1.
</event>
<event>
 5    1  0.6622912E-004  0.9118800E+02  0.7818608E-02  0.1130116E+00
         25   -1    0    0    0    0  0.00000000000E+00  0.00000000000E+00  0.99999998245E-14  0.12500000000E+03  0.12500000000E+03 0.  0.
        -11    1    3    3    0    0 -0.65534920444E+01 -0.42211815232E+02  0.10247304994E+02  0.43929407725E+02  0.51100000000E-03 0.  1.
         23    2    1    0    0    0 -0.67405242450E+01  0.55330122770E+01  0.28614906787E+02  0.95085759539E+02  0.90257630617E+02 0.  0.
         11    1    3    3    0    0 -0.18703220054E+00  0.47744827509E+02  0.18367601793E+02  0.51156351813E+02  0.51100000000E-03 0. -1.
         22    1    1    0    0    0  0.67405242450E+01 -0.55330122770E+01 -0.28614906787E+02  0.29914240461E+02  0.00000000000E+00 0. -1.
</event>
<event>
 5    1  0.6622912E-004  0.9118800E+02  0.7818608E-02  0.1130116E+00
         25   -1    0    0    0    0  0.00000000000E+00  0.00000000000E+00  0.99999998245E-14  0.12500000000E+03  0.12500000000E+03 0.  0.
        -11    1    3    3    0    0  0.58889484631E+02 -0.20782163689E+02 -0.22190232375E+00  0.62449331210E+02  0.51100000000E-03 0.  1.
         23    2    1    0    0    0  0.28077970166E+02 -0.80572122585E+01  0.21958071345E+00  0.95788028247E+02  0.91225035279E+02 0.  0.
         11    1    3    3    0    0 -0.30811514465E+02  0.12724951431E+02  0.44148303720E+00  0.33338697036E+02  0.51100000000E-03 0. -1.
         22    1    1    0    0    0 -0.28077970166E+02  0.80572122585E+01 -0.21958071345E+00  0.29211971753E+02  0.00000000000E+00 0.  1.
</event>
<event>
 5    1  0.6622912E-004  0.9118800E+02  0.7818608E-02  0.1130116E+00
         25   -1    0    0    0    0  0.00000000000E+00  0.00000000000E+00  0.99999998245E-14  0.12500000000E+03  0.12500000000E+03 0.  0.
        -11    1    3    3    0    0 -0.12134342173E+02  0.30879434514E+02  0.24031468473E+02  0.40966977104E+02  0.51100000000E-03 0.  1.
         23    2    1    0    0    0 -0.23879507327E+02 -0.42221256122E+00 -0.18302327798E+02  0.94910394877E+02  0.90014436172E+02 0.  0.
         11    1    3    3    0    0 -0.11745165154E+02 -0.31301647075E+02 -0.42333796271E+02  0.53943417773E+02  0.51100000000E-03 0. -1.
         22    1    1    0    0    0  0.23879507327E+02  0.42221256122E+00  0.18302327798E+02  0.30089605123E+02  0.00000000000E+00 0.  1.
</event>
<event>
 5    1  0.6622912E-004  0.9118800E+02  0.7818608E-02  0.1130116E+00
         25   -1    0    0    0    0  0.00000000000E+00  0.00000000000E+00  0.99999998245E-14  0.12500000000E+03  0.12500000000E+03 0.  0.
        -11    1    3    3    0    0  0.15052216476E+02 -0.46031318247E+02 -0.28692668507E+01  0.48514783035E+02  0.51100000000E-03 0.  1.
         23    2    1    0    0    0 -0.32525887627E+01 -0.15066171156E+02 -0.28442427536E+02  0.92649721314E+02  0.86818375523E+02 0.  0.
         11    1    3    3    0    0 -0.18304805239E+02  0.30965147091E+02 -0.25573160685E+02  0.44134938279E+02  0.51100000000E-03 0. -1.
         22    1    1    0    0    0  0.32525887627E+01  0.15066171156E+02  0.28442427536E+02  0.32350278686E+02  0.00000000000E+00 0.  1.
</event>
<event>
 5    1  0.6622912E-004  0.9118800E+02  0.7818608E-02  0.1130116E+00
         25   -1    0    0    0    0  0.00000000000E+00  0.00000000000E+00  0.99999998245E-14  0.12500000000E+03  0.12500000000E+03 0.  0.
        -11    1    3    3    0    0  0.36657432578E+02  0.22626159637E+02 -0.27702581328E+02  0.51216632803E+02  0.51100000000E-03 0.  1.
         23    2    1    0    0    0  0.81425343446E-01  0.19940812474E+02  0.90179265796E+01  0.10311471654E+03  0.10076546599E+03 0.  0.
         11    1    3    3    0    0 -0.36576007235E+02 -0.26853471625E+01  0.36720507907E+02  0.51898083740E+02  0.51100000000E-03 0. -1.
         22    1    1    0    0    0 -0.81425343446E-01 -0.19940812474E+02 -0.90179265796E+01  0.21885283458E+02  0.00000000000E+00 0. -1.
</event>
<event>
 5    1  0.6622912E-004  0.9118800E+02  0.7818608E-02  0.1130116E+00
         25   -1    0    0    0    0  0.00000000000E+00  0.00000000000E+00  0.99999998245E-14  0.12500000000E+03  0.12500000000E+03 0.  0.
        -11    1    3    3    0    0  0.10978539965E+02  0.35599502720E+02 -0.30276646528E+01  0.37376726545E+02  0.51100000000E-03 0. -1.
         23    2    1    0    0    0 -0.20311816101E+02 -0.10754039686E+02 -0.18603372915E+02  0.95431355684E+02  0.90734992814E+02 0.  0.
         11    1    3    3    0    0 -0.31290356066E+02 -0.46353542407E+02 -0.15575708262E+02  0.58054629139E+02  0.51100000000E-03 0.  1.
         22    1    1    0    0    0  0.20311816101E+02  0.10754039686E+02  0.18603372915E+02  0.29568644316E+02  0.00000000000E+00 0.  1.
</event>
<event>
 5    1  0.6622912E-004  0.9118800E+02  0.7818608E-02  0.1130116E+00
         25   -1    0    0    0    0  0.00000000000E+00  0.00000000000E+00  0.99999998245E-14  0.12500000000E+03  0.12500000000E+03 0.  0.
        -11    1    3    3    0    0  0.30786493199E+02  0.40960431335E+02  0.81375342788E+01  0.51882410922E+02  0.51100000000E-03 0.  1.
         23    2    1    0    0    0  0.21063662290E+02  0.54573085090E+01  0.24557913731E+02  0.92189160144E+02  0.86152713457E+02 0.  0.
         11    1    3    3    0    0 -0.97228309093E+01 -0.35503122826E+02  0.16420379452E+02  0.40306749222E+02  0.51100000000E-03 0. -1.
         22    1    1    0    0    0 -0.21063662290E+02 -0.54573085090E+01 -0.24557913731E+02  0.32810839856E+02  0.00000000000E+00 0.  1.
</event>
<event>
 5    1  0.6622912E-004  0.9118800E+02  0.7818608E-02  0.1130116E+00
         25   -1    0    0    0    0  0.00000000000E+00  0.00000000000E+00  0.99999998245E-14  0.12500000000E+03  0.12500000000E+03 0.  0.
        -11    1    3    3    0    0 -0.48416440348E+02 -0.33549775833E+02  0.12200093921E+02  0.60154646091E+02  0.51100000000E-03 0.  1.
         23    2    1    0    0    0 -0.18654161741E+02 -0.17804593387E+02 -0.61341164744E+01  0.98493233301E+02  0.94859413477E+02 0.  0.
         11    1    3    3    0    0  0.29762278607E+02  0.15745182446E+02 -0.18334210395E+02  0.38338587209E+02  0.51100000000E-03 0. -1.
         22    1    1    0    0    0  0.18654161741E+02  0.17804593387E+02  0.61341164744E+01  0.26506766699E+02  0.00000000000E+00 0.  1.
</event>
<event>
 5    1  0.6622912E-004  0.9118800E+02  0.7818608E-02  0.1130116E+00
         25   -1    0    0    0    0  0.00000000000E+00  0.00000000000E+00  0.99999998245E-14  0.12500000000E+03  0.12500000000E+03 0.  0.
        -11    1    3    3    0    0 -0.63162692452E+01 -0.21085466536E+01 -0.39479580954E+02  0.40037214423E+02  0.51100000000E-03 0. -1.
         23    2    1    0    0    0 -0.82068163634E+01 -0.23657544407E+02  0.12989708508E+02  0.96790714839E+02  0.92588761250E+02 0.  0.
         11    1    3    3    0    0 -0.18905471182E+01 -0.21548997753E+02  0.52469289462E+02  0.56753500416E+02  0.51100000000E-03 0.  1.
         22    1    1    0    0    0  0.82068163634E+01  0.23657544407E+02 -0.12989708508E+02  0.28209285161E+02  0.00000000000E+00 0.  1.
</event>
<event>
 5    1  0.6622912E-004  0.9118800E+02  0.7818608E-02  0.1130116E+00
         25   -1    0    0    0    0  0.00000000000E+00  0.00000000000E+00  0.99999998245E-14  0.12500000000E+03  0.12500000000E+03 0.  0.
        -11    1    3    3    0    0  0.14403590595E+01  0.44219724920E+02 -0.62627088355E+01  0.44684227961E+02  0.51100000000E-03 0. -1.
         23    2    1    0    0    0 -0.29400656474E+02  0.58223556876E+01  0.32786023105E+01  0.94849582756E+02  0.89929948789E+02 0.  0.
         11    1    3    3    0    0 -0.30841015533E+02 -0.38397369233E+02  0.95413111460E+01  0.50165354796E+02  0.51100000000E-03 0.  1.
         22    1    1    0    0    0  0.29400656474E+02 -0.58223556876E+01 -0.32786023105E+01  0.30150417244E+02  0.00000000000E+00 0.  1.
</event>
<event>
 5    1  0.6622912E-004  0.9118800E+02  0.7818608E-02  0.1130116E+00
         25   -1    0    0    0    0  0.00000000000E+00  0.00000000000E+00  0.99999998245E-14  0.12500000000E+03  0.12500000000E+03 0.  0.
        -11    1    3    3    0    0  0.20816399951E+02 -0.44691523106E+02 -0.13329175286E+02  0.51071730522E+02  0.51100000000E-03 0. -1.
         23    2    1    0    0    0 -0.16566504465E+02 -0.25074124861E+02 -0.95889048316E+01  0.93454669068E+02  0.87969695163E+02 0.  0.
         11    1    3    3    0    0 -0.37382904416E+02  0.19617398244E+02  0.37402704545E+01  0.42382938546E+02  0.51100000000E-03 0.  1.
         22    1    1    0    0    0  0.16566504465E+02  0.25074124861E+02  0.95889048316E+01  0.31545330932E+02  0.00000000000E+00 0. -1.
</event>
<event>
 5    1  0.6622912E-004  0.9118800E+02  0.7818608E-02  0.1130116E+00
         25   -1    0    0    0    0  0.00000000000E+00  0.00000000000E+00  0.99999998245E-14  0.12500000000E+03  0.12500000000E+03 0.  0.
        -11    1    3    3    0    0  0.44382892500E+02 -0.25444549059E+02 -0.30017179356E+02  0.59315236493E+02  0.51100000000E-03 0. -1.
         23    2    1    0    0    0  0.10380138421E+02 -0.19592705613E+02 -0.19733495383E+02  0.95317812969E+02  0.90578436961E+02 0.  0.
         11    1    3    3    0    0 -0.34002754078E+02  0.58518434468E+01  0.10283683972E+02  0.36002576476E+02  0.51100000000E-03 0.  1.
         22    1    1    0    0    0 -0.10380138421E+02  0.19592705613E+02  0.19733495383E+02  0.29682187031E+02  0.00000000000E+00 0. -1.
</event>
<event>
 5    1  0.6622912E-004  0.9118800E+02  0.7818608E-02  0.1130116E+00
         25   -1    0    0    0    0  0.00000000000E+00  0.00000000000E+00  0.99999998245E-14  0.12500000000E+03  0.12500000000E+03 0.  0.
        -11    1    3    3    0    0 -0.23427235804E+01  0.17376603670E+02 -0.52317484584E+02  0.55177476404E+02  0.51100000000E-03 0.  1.
         23    2    1    0    0    0 -0.21282949980E+02  0.99308734629E+01 -0.16759454205E+02  0.96147521548E+02  0.91716303823E+02 0.  0.
         11    1    3    3    0    0 -0.18940226399E+02 -0.74457302076E+01  0.35558030379E+02  0.40970045144E+02  0.51100000000E-03 0. -1.
         22    1    1    0    0    0  0.21282949980E+02 -0.99308734629E+01  0.16759454205E+02  0.28852478452E+02  0.00000000000E+00 0. -1.
</event>
<event>
 5    1  0.6622912E-004  0.9118800E+02  0.7818608E-02  0.1130116E+00
         25   -1    0    0    0    0  0.00000000000E+00  0.00000000000E+00  0.99999998245E-14  0.12500000000E+03  0.12500000000E+03 0.  0.
        -11    1    3    3    0    0  0.50719923151E+02 -0.32358376341E+01  0.43145362016E+01  0.51005847434E+02  0.51100000000E-03 0. -1.
         23    2    1    0    0    0  0.12228696878E+02  0.23742802226E+02  0.38824384031E+01  0.98012317387E+02  0.94223560465E+02 0.  0.
         11    1    3    3    0    0 -0.38491226273E+02  0.26978639860E+02 -0.43209779844E+00  0.47006469953E+02  0.51100000000E-03 0.  1.
         22    1    1    0    0    0 -0.12228696878E+02 -0.23742802226E+02 -0.38824384031E+01  0.26987682613E+02  0.00000000000E+00 0. -1.
</event>
<event>
 5    1  0.6622912E-004  0.9118800E+02  0.7818608E-02  0.1130116E+00
         25   -1    0    0    0    0  0.00000000000E+00  0.00000000000E+00  0.99999998245E-14  0.12500000000E+03  0.12500000000E+03 0.  0.
        -11    1    3    3    0    0  0.49231743556E+02 -0.27432591765E+02 -0.14738146928E+01  0.56378043550E+02  0.51100000000E-03 0.  1.
         23    2    1    0    0    0  0.19253658712E+02 -0.14575280825E+02 -0.19781794140E+02  0.93783633070E+02  0.88435899201E+02 0.  0.
         11    1    3    3    0    0 -0.29978084845E+02  0.12857310940E+02 -0.18307979447E+02  0.37405589519E+02  0.51100000000E-03 0. -1.
         22    1    1    0    0    0 -0.19253658712E+02  0.14575280825E+02  0.19781794140E+02  0.31216366930E+02  0.00000000000E+00 0.  1.
</event>
<event>
 5    1  0.6622912E-004  0.9118800E+02  0.7818608E-02  0.1130116E+00
         25   -1    0    0    0    0  0.00000000000E+00  0.00000000000E+00  0.99999998245E-14  0.12500000000E+03  0.12500000000E+03 0.  0.
        -11    1    3    3    0    0  0.14805912447E+02  0.24070796027E+02 -0.47441020648E+02  0.55220183857E+02  0.51100000000E-03 0. -1.
         23    2    1    0    0    0  0.23888476491E+02  0.22672118910E+00 -0.13907872358E+02  0.97356924464E+02  0.93350046149E+02 0.  0.
         11    1    3    3    0    0  0.90825640446E+01 -0.23844074838E+02  0.33533148290E+02  0.42136740608E+02  0.51100000000E-03 0.  1.
         22    1    1    0    0    0 -0.23888476491E+02 -0.22672118910E+00  0.13907872358E+02  0.27643075536E+02  0.00000000000E+00 0. -1.
</event>
<event>
 5    1  0.6622912E-004  0.9118800E+02  0.7818608E-02  0.1130116E+00
         25   -1    0    0    0    0  0.00000000000E+00  0.00000000000E+00  0.99999998245E-14  0.12500000000E+03  0.12500000000E+03 0.  0.
        -11    1    3    3    0    0  0.82592359521E+01  0.33276105987E+02 -0.11961044302E+02  0.36312267751E+02  0.51100000000E-03 0.  1.
         23    2    1    0    0    0 -0.25584002695E+02  0.34597688122E+02  0.14819608508E+02  0.79489978976E+02  0.65172806783E+02 0.  0.
         11    1    3    3    0    0 -0.33843238647E+02  0.13215821348E+01  0.26780652809E+02  0.43177711225E+02  0.51100000000E-03 0. -1.
         22    1    1    0    0    0  0.25584002695E+02 -0.34597688122E+02 -0.14819608508E+02  0.45510021024E+02  0.00000000000E+00 0.  1.
</event>
<event>
 5    1  0.6622912E-004  0.9118800E+02  0.7818608E-02  0.1130116E+00
         25   -1    0    0    0    0  0.00000000000E+00  0.00000000000E+00  0.99999998245E-14  0.12500000000E+03  0.12500000000E+03 0.  0.
        -11    1    3    3    0    0  0.31373560216E+02  0.21347285303E+02  0.29138359932E+02  0.47844026694E+02  0.51100000000E-03 0.  1.
         23    2    1    0    0    0 -0.69001475835E+01  0.29535629105E+02  0.38906432752E+01  0.94420553825E+02  0.89331620696E+02 0.  0.
         11    1    3    3    0    0 -0.38273707799E+02  0.81883438016E+01 -0.25247716657E+02  0.46576527131E+02  0.51100000000E-03 0. -1.
         22    1    1    0    0    0  0.69001475835E+01 -0.29535629105E+02 -0.38906432752E+01  0.30579446175E+02  0.00000000000E+00 0. -1.
</event>
<event>
 5    1  0.6622912E-004  0.9118800E+02  0.7818608E-02  0.1130116E+00
         25   -1    0    0    0    0  0.00000000000E+00  0.00000000000E+00  0.99999998245E-14  0.12500000000E+03  0.12500000000E+03 0.  0.
        -11    1    3    3    0    0 -0.78714666948E+01 -0.38640474367E+02 -0.35876344647E+02  0.53311896915E+02  0.51100000000E-03 0.  1.
         23    2    1    0    0    0 -0.79548495628E+01 -0.32083929923E+02  0.21265117471E+01  0.91876288808E+02  0.85697562405E+02 0.  0.
         11    1    3    3    0    0 -0.83382868023E-01  0.65565444434E+01  0.38002856394E+02  0.38564391893E+02  0.51100000000E-03 0. -1.
         22    1    1    0    0    0  0.79548495628E+01  0.32083929923E+02 -0.21265117471E+01  0.33123711192E+02  0.00000000000E+00 0.  1.
</event>
<event>
 5    1  0.6622912E-004  0.9118800E+02  0.7818608E-02  0.1130116E+00
         25   -1    0    0    0    0  0.00000000000E+00  0.00000000000E+00  0.99999998245E-14  0.12500000000E+03  0.12500000000E+03 0.  0.
        -11    1    3    3    0    0  0.51358125452E+02 -0.40797396770E+01  0.32435360214E+00  0.51520932943E+02  0.51100000000E-03 0.  1.
         23    2    1    0    0    0  0.32334967440E+02  0.53480322907E+01  0.24784067699E+02  0.83909835965E+02  0.73160501578E+02 0.  0.
         11    1    3    3    0    0 -0.19023158012E+02  0.94277719677E+01  0.24459714097E+02  0.32388903022E+02  0.51100000000E-03 0. -1.
         22    1    1    0    0    0 -0.32334967440E+02 -0.53480322907E+01 -0.24784067699E+02  0.41090164035E+02  0.00000000000E+00 0.  1.
</event>
<event>
 5    1  0.6622912E-004  0.9118800E+02  0.7818608E-02  0.1130116E+00
         25   -1    0    0    0    0  0.00000000000E+00  0.00000000000E+00  0.99999998245E-14  0.12500000000E+03  0.12500000000E+03 0.  0.
        -11    1    3    3    0    0 -0.30613776636E+02  0.39954439400E+02 -0.34189593688E+02  0.60848080204E+02  0.51100000000E-03 0. -1.
         23    2    1    0    0    0 -0.18057705285E+02  0.98689195536E+01 -0.19659267360E+02  0.96540149570E+02  0.92249863917E+02 0.  0.
         11    1    3    3    0    0  0.12556071351E+02 -0.30085519847E+02  0.14530326327E+02  0.35692069366E+02  0.51100000000E-03 0.  1.
         22    1    1    0    0    0  0.18057705285E+02 -0.98689195536E+01  0.19659267360E+02  0.28459850430E+02  0.00000000000E+00 0. -1.
</event>
<event>
 5    1  0.6622912E-004  0.9118800E+02  0.7818608E-02  0.1130116E+00
         25   -1    0    0    0    0  0.00000000000E+00  0.00000000000E+00  0.99999998245E-14  0.12500000000E+03  0.12500000000E+03 0.  0.
        -11    1    3    3    0    0 -0.30164806919E+02  0.47012893914E+02  0.24914572477E+02  0.61162600440E+02  0.51100000000E-03 0.  1.
         23    2    1    0    0    0 -0.83673506161E+01  0.28876218288E+02  0.16316691861E+02  0.90793524411E+02  0.84103395310E+02 0.  0.
         11    1    3    3    0    0  0.21797456303E+02 -0.18136675626E+02 -0.85978806154E+01  0.29630923971E+02  0.51100000000E-03 0. -1.
         22    1    1    0    0    0  0.83673506161E+01 -0.28876218288E+02 -0.16316691861E+02  0.34206475589E+02  0.00000000000E+00 0.  1.
</event>
<event>
 5    1  0.6622912E-004  0.9118800E+02  0.7818608E-02  0.1130116E+00
         25   -1    0    0    0    0  0.00000000000E+00  0.00000000000E+00  0.99999998245E-14  0.12500000000E+03  0.12500000000E+03 0.  0.
        -11    1    3    3    0    0 -0.29778711141E+02  0.22757930744E+02  0.46873660810E+02  0.60015290776E+02  0.51100000000E-03 0. -1.
         23    2    1    0    0    0 -0.19416700237E+01  0.12896197896E+02  0.25125738026E+02  0.96691260819E+02  0.92454395270E+02 0.  0.
         11    1    3    3    0    0  0.27837041118E+02 -0.98617328475E+01 -0.21747922783E+02  0.36675970043E+02  0.51100000000E-03 0.  1.
         22    1    1    0    0    0  0.19416700237E+01 -0.12896197896E+02 -0.25125738026E+02  0.28308739181E+02  0.00000000000E+00 0. -1.
</event>
<event>
 5    1  0.6622912E-004  0.9118800E+02  0.7818608E-02  0.1130116E+00
         25   -1    0    0    0    0  0.00000000000E+00  0.00000000000E+00  0.99999998245E-14  0.12500000000E+03  0.12500000000E+03 0.  0.
        -11    1    3    3    0    0  0.35721399140E+01  0.60586319933E+02  0.42761963107E+01  0.60841993736E+02  0.51100000000E-03 0.  1.
         23    2    1    0    0    0 -0.76520517469E+01  0.25159089728E+02 -0.23775384735E+01  0.98595712828E+02  0.94994358817E+02 0.  0.
         11    1    3    3    0    0 -0.11224191661E+02 -0.35427230205E+02 -0.66537347842E+01  0.37753719092E+02  0.51100000000E-03 0. -1.
         22    1    1    0    0    0  0.76520517469E+01 -0.25159089728E+02  0.23775384735E+01  0.26404287172E+02  0.00000000000E+00 0.  1.
</event>
<event>
 5    1  0.6622912E-004  0.9118800E+02  0.7818608E-02  0.1130116E+00
         25   -1    0    0    0    0  0.00000000000E+00  0.00000000000E+00  0.99999998245E-14  0.12500000000E+03  0.12500000000E+03 0.  0.
        -11    1    3    3    0    0 -0.17231367053E+02 -0.14598699213E+02 -0.25946789632E+02  0.34398806981E+02  0.51100000000E-03 0.  1.
         23    2    1    0    0    0  0.15680369518E+02 -0.12276567825E+02  0.23721833851E+02  0.94027213444E+02  0.88779521068E+02 0.  0.
         11    1    3    3    0    0  0.32911736571E+02  0.23221313883E+01  0.49668623483E+02  0.59628406463E+02  0.51100000000E-03 0. -1.
         22    1    1    0    0    0 -0.15680369518E+02  0.12276567825E+02 -0.23721833851E+02  0.30972786556E+02  0.00000000000E+00 0. -1.
</event>
<event>
 5    1  0.6622912E-004  0.9118800E+02  0.7818608E-02  0.1130116E+00
         25   -1    0    0    0    0  0.00000000000E+00  0.00000000000E+00  0.99999998245E-14  0.12500000000E+03  0.12500000000E+03 0.  0.
        -11    1    3    3    0    0  0.88028893783E+01  0.39080852863E+02  0.20182613656E+02  0.44856903773E+02  0.51100000000E-03 0. -1.
         23    2    1    0    0    0 -0.75605992446E+01 -0.91419257134E+01  0.26301631825E+02  0.96146693373E+02  0.91715175097E+02 0.  0.
         11    1    3    3    0    0 -0.16363488623E+02 -0.48222778576E+02  0.61190181693E+01  0.51289789599E+02  0.51100000000E-03 0.  1.
         22    1    1    0    0    0  0.75605992446E+01  0.91419257134E+01 -0.26301631825E+02  0.28853306627E+02  0.00000000000E+00 0.  1.
</event>
<event>
 5    1  0.6622912E-004  0.9118800E+02  0.7818608E-02  0.1130116E+00
         25   -1    0    0    0    0  0.00000000000E+00  0.00000000000E+00  0.99999998245E-14  0.12500000000E+03  0.12500000000E+03 0.  0.
        -11    1    3    3    0    0  0.42750022117E+02 -0.80214796432E+00 -0.43184803477E+01  0.42975075395E+02  0.51100000000E-03 0.  1.
         23    2    1    0    0    0 -0.26592282079E+00  0.29367993383E+02 -0.16817338928E+01  0.95582692523E+02  0.90943241260E+02 0.  0.
         11    1    3    3    0    0 -0.43015944938E+02  0.30170141347E+02  0.26367464549E+01  0.52607617129E+02  0.51100000000E-03 0. -1.
         22    1    1    0    0    0  0.26592282079E+00 -0.29367993383E+02  0.16817338928E+01  0.29417307477E+02  0.00000000000E+00 0. -1.
</event>
<event>
 5    1  0.6622912E-004  0.9118800E+02  0.7818608E-02  0.1130116E+00
         25   -1    0    0    0    0  0.00000000000E+00  0.00000000000E+00  0.99999998245E-14  0.12500000000E+03  0.12500000000E+03 0.  0.
        -11    1    3    3    0    0  0.25872633734E+02  0.27511198549E+02  0.16313668386E+02  0.41138728692E+02  0.51100000000E-03 0. -1.
         23    2    1    0    0    0 -0.20140527463E+01  0.19142191878E+02 -0.26091483605E+02  0.92577084723E+02  0.86713731212E+02 0.  0.
         11    1    3    3    0    0 -0.27886686481E+02 -0.83690066705E+01 -0.42405151991E+02  0.51438356031E+02  0.51100000000E-03 0.  1.
         22    1    1    0    0    0  0.20140527463E+01 -0.19142191878E+02  0.26091483605E+02  0.32422915277E+02  0.00000000000E+00 0.  1.
</event>
<event>
 5    1  0.6622912E-004  0.9118800E+02  0.7818608E-02  0.1130116E+00
         25   -1    0    0    0    0  0.00000000000E+00  0.00000000000E+00  0.99999998245E-14  0.12500000000E+03  0.12500000000E+03 0.  0.
        -11    1    3    3    0    0 -0.23057915438E+02  0.20386895930E+02 -0.50817687734E+02  0.59411534040E+02  0.51100000000E-03 0.  1.
         23    2    1    0    0    0  0.10110366921E+01  0.16724546476E+02 -0.25064805677E+02  0.94850752353E+02  0.89931574479E+02 0.  0.
         11    1    3    3    0    0  0.24068952130E+02 -0.36623494544E+01  0.25752882057E+02  0.35439218314E+02  0.51100000000E-03 0. -1.
         22    1    1    0    0    0 -0.10110366921E+01 -0.16724546476E+02  0.25064805677E+02  0.30149247647E+02  0.00000000000E+00 0.  1.
</event>
<event>
 5    1  0.6622912E-004  0.9118800E+02  0.7818608E-02  0.1130116E+00
         25   -1    0    0    0    0  0.00000000000E+00  0.00000000000E+00  0.99999998245E-14  0.12500000000E+03  0.12500000000E+03 0.  0.
        -11    1    3    3    0    0 -0.13218887336E+02  0.33025839103E+02 -0.14152266265E+02  0.38284875233E+02  0.51100000000E-03 0. -1.
         23    2    1    0    0    0  0.12945807094E+01 -0.22602204484E+02 -0.18249900090E+02  0.95920893410E+02  0.91406910858E+02 0.  0.
         11    1    3    3    0    0  0.14513468046E+02 -0.55628043588E+02 -0.40976338250E+01  0.57636018177E+02  0.51100000000E-03 0.  1.
         22    1    1    0    0    0 -0.12945807094E+01  0.22602204484E+02  0.18249900090E+02  0.29079106590E+02  0.00000000000E+00 0.  1.
</event>
<event>
 5    1  0.6622912E-004  0.9118800E+02  0.7818608E-02  0.1130116E+00
         25   -1    0    0    0    0  0.00000000000E+00  0.00000000000E+00  0.99999998245E-14  0.12500000000E+03  0.12500000000E+03 0.  0.
        -11    1    3    3    0    0  0.75696795121E+01 -0.28547621716E+02  0.25188376646E+02  0.38816505148E+02  0.51100000000E-03 0.  1.
         23    2    1    0    0    0  0.35818884239E+02  0.46874965971E+00 -0.43129333585E+01  0.88919346063E+02  0.81270145292E+02 0.  0.
         11    1    3    3    0    0  0.28249204727E+02  0.29016371375E+02 -0.29501310005E+02  0.50102840915E+02  0.51100000000E-03 0. -1.
         22    1    1    0    0    0 -0.35818884239E+02 -0.46874965971E+00  0.43129333585E+01  0.36080653937E+02  0.00000000000E+00 0. -1.
</event>
<event>
 5    1  0.6622912E-004  0.9118800E+02  0.7818608E-02  0.1130116E+00
         25   -1    0    0    0    0  0.00000000000E+00  0.00000000000E+00  0.99999998245E-14  0.12500000000E+03  0.12500000000E+03 0.  0.
        -11    1    3    3    0    0 -0.27307026033E+02 -0.21153297430E+02  0.11045947572E+02  0.36264977884E+02  0.51100000000E-03 0. -1.
         23    2    1    0    0    0 -0.32447389609E+02  0.16844134166E+02 -0.17887047354E+02  0.84299822957E+02  0.73823815529E+02 0.  0.
         11    1    3    3    0    0 -0.51403635765E+01  0.37997431596E+02 -0.28932994926E+02  0.48034845073E+02  0.51100000000E-03 0.  1.
         22    1    1    0    0    0  0.32447389609E+02 -0.16844134166E+02  0.17887047354E+02  0.40700177043E+02  0.00000000000E+00 0.  1.
</event>
<event>
 5    1  0.6622912E-004  0.9118800E+02  0.7818608E-02  0.1130116E+00
         25   -1    0    0    0    0  0.00000000000E+00  0.00000000000E+00  0.99999998245E-14  0.12500000000E+03  0.12500000000E+03 0.  0.
        -11    1    3    3    0    0 -0.35149571676E+02  0.40977339737E+02  0.27934578212E+02  0.60786309487E+02  0.51100000000E-03 0. -1.
         23    2    1    0    0    0 -0.74817931015E+01  0.22085893459E+02  0.17397442431E+02  0.95906445370E+02  0.91387150860E+02 0.  0.
         11    1    3    3    0    0  0.27667778574E+02 -0.18891446277E+02 -0.10537135781E+02  0.35120135883E+02  0.51100000000E-03 0.  1.
         22    1    1    0    0    0  0.74817931015E+01 -0.22085893459E+02 -0.17397442431E+02  0.29093554630E+02  0.00000000000E+00 0. -1.
</event>
<event>
 5    1  0.6622912E-004  0.9118800E+02  0.7818608E-02  0.1130116E+00
         25   -1    0    0    0    0  0.00000000000E+00  0.00000000000E+00  0.99999998245E-14  0.12500000000E+03  0.12500000000E+03 0.  0.
        -11    1    3    3    0    0  0.32295286816E+02 -0.92681944871E+01  0.95774754157E+01  0.34937272578E+02  0.51100000000E-03 0. -1.
         23    2    1    0    0    0 -0.20505389795E+02 -0.11623467757E+02 -0.18730015480E+02  0.94893696786E+02  0.89991245110E+02 0.  0.
         11    1    3    3    0    0 -0.52800676611E+02 -0.23552732702E+01 -0.28307490895E+02  0.59956424208E+02  0.51100000000E-03 0.  1.
         22    1    1    0    0    0  0.20505389795E+02  0.11623467757E+02  0.18730015480E+02  0.30106303214E+02  0.00000000000E+00 0.  1.
</event>
<event>
 5    1  0.6622912E-004  0.9118800E+02  0.7818608E-02  0.1130116E+00
         25   -1    0    0    0    0  0.00000000000E+00  0.00000000000E+00  0.99999998245E-14  0.12500000000E+03  0.12500000000E+03 0.  0.
        -11    1    3    3    0    0  0.17095524581E+02 -0.12392809395E+02 -0.47423967498E+02  0.51912150590E+02  0.51100000000E-03 0.  1.
         23    2    1    0    0    0 -0.13913908472E+02 -0.18663417401E+02 -0.14492197702E+02  0.97578406460E+02  0.93646151095E+02 0.  0.
         11    1    3    3    0    0 -0.31009433053E+02 -0.62706080065E+01  0.32931769796E+02  0.45666255870E+02  0.51100000000E-03 0. -1.
         22    1    1    0    0    0  0.13913908472E+02  0.18663417401E+02  0.14492197702E+02  0.27421593540E+02  0.00000000000E+00 0.  1.
</event>
<event>
 5    1  0.6622912E-004  0.9118800E+02  0.7818608E-02  0.1130116E+00
         25   -1    0    0    0    0  0.00000000000E+00  0.00000000000E+00  0.99999998245E-14  0.12500000000E+03  0.12500000000E+03 0.  0.
        -11    1    3    3    0    0  0.34835377962E+02  0.22519845512E+02 -0.29408440653E+01  0.41584799671E+02  0.51100000000E-03 0. -1.
         23    2    1    0    0    0 -0.16065125996E+02 -0.84535547900E+01  0.12281585228E+02  0.10308224013E+03  0.10072517080E+03 0.  0.
         11    1    3    3    0    0 -0.50900503958E+02 -0.30973400302E+02  0.15222429294E+02  0.61497440462E+02  0.51100000000E-03 0.  1.
         22    1    1    0    0    0  0.16065125996E+02  0.84535547900E+01 -0.12281585228E+02  0.21917759867E+02  0.00000000000E+00 0.  1.
</event>
<event>
 5    1  0.6622912E-004  0.9118800E+02  0.7818608E-02  0.1130116E+00
         25   -1    0    0    0    0  0.00000000000E+00  0.00000000000E+00  0.99999998245E-14  0.12500000000E+03  0.12500000000E+03 0.  0.
        -11    1    3    3    0    0 -0.30674648478E+02 -0.41491528010E+02 -0.31401983764E+02  0.60403357029E+02  0.51100000000E-03 0. -1.
         23    2    1    0    0    0 -0.53074356773E+01 -0.26236018651E+02 -0.13178483494E+02  0.95164283562E+02  0.90366315021E+02 0.  0.
         11    1    3    3    0    0  0.25367212801E+02  0.15255509358E+02  0.18223500270E+02  0.34760926533E+02  0.51100000000E-03 0.  1.
         22    1    1    0    0    0  0.53074356773E+01  0.26236018651E+02  0.13178483494E+02  0.29835716438E+02  0.00000000000E+00 0. -1.
</event>
<event>
 5    1  0.6622912E-004  0.9118800E+02  0.7818608E-02  0.1130116E+00
         25   -1    0    0    0    0  0.00000000000E+00  0.00000000000E+00  0.99999998245E-14  0.12500000000E+03  0.12500000000E+03 0.  0.
        -11    1    3    3    0    0  0.11126466416E+02  0.13419694586E+02 -0.34029309229E+02  0.38234543865E+02  0.51100000000E-03 0.  1.
         23    2    1    0    0    0 -0.16523217616E+02  0.15902353624E+02  0.17086204939E+02  0.96402098497E+02  0.92062612521E+02 0.  0.
         11    1    3    3    0    0 -0.27649684032E+02  0.24826590376E+01  0.51115514168E+02  0.58167554632E+02  0.51100000000E-03 0. -1.
         22    1    1    0    0    0  0.16523217616E+02 -0.15902353624E+02 -0.17086204939E+02  0.28597901503E+02  0.00000000000E+00 0. -1.
</event>
<event>
 5    1  0.6622912E-004  0.9118800E+02  0.7818608E-02  0.1130116E+00
         25   -1    0    0    0    0  0.00000000000E+00  0.00000000000E+00  0.99999998245E-14  0.12500000000E+03  0.12500000000E+03 0.  0.
        -11    1    3    3    0    0  0.46812160922E+02  0.72284762294E+01  0.16871450445E+02  0.50281956199E+02  0.51100000000E-03 0. -1.
         23    2    1    0    0    0  0.22150004191E+02 -0.16691019159E+02 -0.11633908338E+02  0.94924085560E+02  0.90033445951E+02 0.  0.
         11    1    3    3    0    0 -0.24662156731E+02 -0.23919495388E+02 -0.28505358783E+02  0.44642129361E+02  0.51100000000E-03 0.  1.
         22    1    1    0    0    0 -0.22150004191E+02  0.16691019159E+02  0.11633908338E+02  0.30075914440E+02  0.00000000000E+00 0.  1.
</event>
<event>
 5    1  0.6622912E-004  0.9118800E+02  0.7818608E-02  0.1130116E+00
         25   -1    0    0    0    0  0.00000000000E+00  0.00000000000E+00  0.99999998245E-14  0.12500000000E+03  0.12500000000E+03 0.  0.
        -11    1    3    3    0    0  0.16551527208E+02 -0.18894413002E+02  0.56611166889E+02  0.61933642815E+02  0.51100000000E-03 0.  1.
         23    2    1    0    0    0  0.53064031987E+01 -0.43827160759E+01  0.29716836391E+02  0.94496615266E+02  0.89437988666E+02 0.  0.
         11    1    3    3    0    0 -0.11245124009E+02  0.14511696926E+02 -0.26894330498E+02  0.32562972451E+02  0.51100000000E-03 0. -1.
         22    1    1    0    0    0 -0.53064031987E+01  0.43827160759E+01 -0.29716836391E+02  0.30503384734E+02  0.00000000000E+00 0.  1.
</event>
<event>
 5    1  0.6622912E-004  0.9118800E+02  0.7818608E-02  0.1130116E+00
         25   -1    0    0    0    0  0.00000000000E+00  0.00000000000E+00  0.99999998245E-14  0.12500000000E+03  0.12500000000E+03 0.  0.
        -11    1    3    3    0    0  0.29890535690E+02 -0.19344305595E+02 -0.10430931898E+02  0.37100547480E+02  0.51100000000E-03 0. -1.
         23    2    1    0    0    0  0.23869265554E+01  0.25784750765E+02  0.14265323396E+02  0.95435659284E+02  0.90740921424E+02 0.  0.
         11    1    3    3    0    0 -0.27503609134E+02  0.45129056360E+02  0.24696255294E+02  0.58335111804E+02  0.51100000000E-03 0.  1.
         22    1    1    0    0    0 -0.23869265554E+01 -0.25784750765E+02 -0.14265323396E+02  0.29564340716E+02  0.00000000000E+00 0.  1.
</event>
<event>
 5    1  0.6622912E-004  0.9118800E+02  0.7818608E-02  0.1130116E+00
         25   -1    0    0    0    0  0.00000000000E+00  0.00000000000E+00  0.99999998245E-14  0.12500000000E+03  0.12500000000E+03 0.  0.
        -11    1    3    3    0    0  0.17657962808E+02  0.78236249481E+01  0.30184728977E+02  0.35834768334E+02  0.51100000000E-03 0. -1.
         23    2    1    0    0    0 -0.11013796505E+02  0.22888456766E+02 -0.17982252266E+02  0.93878519265E+02  0.88569914848E+02 0.  0.
         11    1    3    3    0    0 -0.28671759313E+02  0.15064831818E+02 -0.48166981243E+02  0.58043750931E+02  0.51100000000E-03 0.  1.
         22    1    1    0    0    0  0.11013796505E+02 -0.22888456766E+02  0.17982252266E+02  0.31121480735E+02  0.00000000000E+00 0.  1.
</event>
<event>
 5    1  0.6622912E-004  0.9118800E+02  0.7818608E-02  0.1130116E+00
         25   -1    0    0    0    0  0.00000000000E+00  0.00000000000E+00  0.99999998245E-14  0.12500000000E+03  0.12500000000E+03 0.  0.
        -11    1    3    3    0    0  0.40991968321E+01 -0.32315187520E+02 -0.16714840433E+02  0.36612301896E+02  0.51100000000E-03 0. -1.
         23    2    1    0    0    0  0.83210655538E+01  0.16936134172E+02  0.19480232614E+02  0.97878933736E+02  0.94046442962E+02 0.  0.
         11    1    3    3    0    0  0.42218687217E+01  0.49251321692E+02  0.36195073046E+02  0.61266631840E+02  0.51100000000E-03 0.  1.
         22    1    1    0    0    0 -0.83210655538E+01 -0.16936134172E+02 -0.19480232614E+02  0.27121066264E+02  0.00000000000E+00 0.  1.
</event>
<event>
 5    1  0.6622912E-004  0.9118800E+02  0.7818608E-02  0.1130116E+00
         25   -1    0    0    0    0  0.00000000000E+00  0.00000000000E+00  0.99999998245E-14  0.12500000000E+03  0.12500000000E+03 0.  0.
        -11    1    3    3    0    0  0.51052553994E+01  0.57533427938E+02  0.17014236505E+02  0.60213314201E+02  0.51100000000E-03 0. -1.
         23    2    1    0    0    0  0.70062887501E+01  0.21669110100E+02  0.17735200999E+02  0.96135215763E+02  0.91699530756E+02 0.  0.
         11    1    3    3    0    0  0.19010333506E+01 -0.35864317838E+02  0.72096449346E+00  0.35921901562E+02  0.51100000000E-03 0.  1.
         22    1    1    0    0    0 -0.70062887501E+01 -0.21669110100E+02 -0.17735200999E+02  0.28864784237E+02  0.00000000000E+00 0. -1.
</event>
<event>
 5    1  0.6622912E-004  0.9118800E+02  0.7818608E-02  0.1130116E+00
         25   -1    0    0    0    0  0.00000000000E+00  0.00000000000E+00  0.99999998245E-14  0.12500000000E+03  0.12500000000E+03 0.  0.
        -11    1    3    3    0    0  0.39902935643E+02 -0.41682546283E+02  0.12637549268E+01  0.57717207264E+02  0.51100000000E-03 0.  1.
         23    2    1    0    0    0  0.34603050800E+02 -0.18421058611E+02  0.12175648103E+02  0.83951821822E+02  0.73232202312E+02 0.  0.
         11    1    3    3    0    0 -0.52998848428E+01  0.23261487672E+02  0.10911893176E+02  0.26234614558E+02  0.51100000000E-03 0. -1.
         22    1    1    0    0    0 -0.34603050800E+02  0.18421058611E+02 -0.12175648103E+02  0.41048178178E+02  0.00000000000E+00 0.  1.
</event>
<event>
 5    1  0.6622912E-004  0.9118800E+02  0.7818608E-02  0.1130116E+00
         25   -1    0    0    0    0  0.00000000000E+00  0.00000000000E+00  0.99999998245E-14  0.12500000000E+03  0.12500000000E+03 0.  0.
        -11    1    3    3    0    0  0.41514719683E+02 -0.94606415500E+01 -0.10936211207E+02  0.43961078293E+02  0.51100000000E-03 0.  1.
         23    2    1    0    0    0  0.25808552679E+01  0.44569327110E+01  0.25447441096E+02  0.99036615756E+02  0.95572767768E+02 0.  0.
         11    1    3    3    0    0 -0.38933864415E+02  0.13917574261E+02  0.36383652303E+02  0.55075537462E+02  0.51100000000E-03 0. -1.
         22    1    1    0    0    0 -0.25808552679E+01 -0.44569327110E+01 -0.25447441096E+02  0.25963384244E+02  0.00000000000E+00 0. -1.
</event>
<event>
 5    1  0.6622912E-004  0.9118800E+02  0.7818608E-02  0.1130116E+00
         25   -1    0    0    0    0  0.00000000000E+00  0.00000000000E+00  0.99999998245E-14  0.12500000000E+03  0.12500000000E+03 0.  0.
        -11    1    3    3    0    0 -0.87492065445E+01  0.25308238706E+02  0.18681363109E+02  0.32650404124E+02  0.51100000000E-03 0. -1.
         23    2    1    0    0    0 -0.23120140954E+02 -0.17803948428E+02 -0.17706088619E+02  0.90867507100E+02  0.84213281464E+02 0.  0.
         11    1    3    3    0    0 -0.14370934410E+02 -0.43112187135E+02 -0.36387451729E+02  0.58217102976E+02  0.51100000000E-03 0.  1.
         22    1    1    0    0    0  0.23120140954E+02  0.17803948428E+02  0.17706088619E+02  0.34132492900E+02  0.00000000000E+00 0.  1.
</event>
<event>
 5    1  0.6622912E-004  0.9118800E+02  0.7818608E-02  0.1130116E+00
         25   -1    0    0    0    0  0.00000000000E+00  0.00000000000E+00  0.99999998245E-14  0.12500000000E+03  0.12500000000E+03 0.  0.
        -11    1    3    3    0    0  0.10087724512E+02 -0.39035267305E+02  0.18539023795E+02  0.44375778110E+02  0.51100000000E-03 0. -1.
         23    2    1    0    0    0  0.16513570564E+01  0.12650841561E+02  0.24792007218E+02  0.97117848106E+02  0.93029361099E+02 0.  0.
         11    1    3    3    0    0 -0.84363674560E+01  0.51686108865E+02  0.62529834237E+01  0.52742069996E+02  0.51100000000E-03 0.  1.
         22    1    1    0    0    0 -0.16513570564E+01 -0.12650841561E+02 -0.24792007218E+02  0.27882151894E+02  0.00000000000E+00 0.  1.
</event>
<event>
 5    1  0.6622912E-004  0.9118800E+02  0.7818608E-02  0.1130116E+00
         25   -1    0    0    0    0  0.00000000000E+00  0.00000000000E+00  0.99999998245E-14  0.12500000000E+03  0.12500000000E+03 0.  0.
        -11    1    3    3    0    0 -0.14935750871E+02 -0.54354374433E+02 -0.17913100144E+02  0.59146883529E+02  0.51100000000E-03 0. -1.
         23    2    1    0    0    0  0.27116380786E+01 -0.32276814541E+02 -0.19030082519E+02  0.87432863050E+02  0.78950717301E+02 0.  0.
         11    1    3    3    0    0  0.17647388950E+02  0.22077559892E+02 -0.11169823746E+01  0.28285979521E+02  0.51100000000E-03 0.  1.
         22    1    1    0    0    0 -0.27116380786E+01  0.32276814541E+02  0.19030082519E+02  0.37567136950E+02  0.00000000000E+00 0. -1.
</event>
<event>
 5    1  0.6622912E-004  0.9118800E+02  0.7818608E-02  0.1130116E+00
         25   -1    0    0    0    0  0.00000000000E+00  0.00000000000E+00  0.99999998245E-14  0.12500000000E+03  0.12500000000E+03 0.  0.
        -11    1    3    3    0    0 -0.89741132959E+01 -0.56555561252E+02  0.12566719423E+02  0.58625836074E+02  0.51100000000E-03 0. -1.
         23    2    1    0    0    0  0.56754609983E+00 -0.26741447221E+02 -0.91565345975E+01  0.96728649946E+02  0.92504932227E+02 0.  0.
         11    1    3    3    0    0  0.95416593958E+01  0.29814114031E+02 -0.21723254020E+02  0.38102813872E+02  0.51100000000E-03 0.  1.
         22    1    1    0    0    0 -0.56754609983E+00  0.26741447221E+02  0.91565345975E+01  0.28271350054E+02  0.00000000000E+00 0. -1.
</event>
<event>
 5    1  0.6622912E-004  0.9118800E+02  0.7818608E-02  0.1130116E+00
         25   -1    0    0    0    0  0.00000000000E+00  0.00000000000E+00  0.99999998245E-14  0.12500000000E+03  0.12500000000E+03 0.  0.
        -11    1    3    3    0    0 -0.52153458405E+02 -0.16044978443E+02 -0.19958757388E+02  0.58101433317E+02  0.51100000000E-03 0. -1.
         23    2    1    0    0    0 -0.26379877109E+02 -0.54627320821E+01  0.73096282836E+01  0.97086382826E+02  0.92987072793E+02 0.  0.
         11    1    3    3    0    0  0.25773581296E+02  0.10582246361E+02  0.27268385671E+02  0.38984949509E+02  0.51100000000E-03 0.  1.
         22    1    1    0    0    0  0.26379877109E+02  0.54627320821E+01 -0.73096282836E+01  0.27913617174E+02  0.00000000000E+00 0. -1.
</event>
<event>
 5    1  0.6622912E-004  0.9118800E+02  0.7818608E-02  0.1130116E+00
         25   -1    0    0    0    0  0.00000000000E+00  0.00000000000E+00  0.99999998245E-14  0.12500000000E+03  0.12500000000E+03 0.  0.
        -11    1    3    3    0    0  0.27848298514E+02 -0.15184507314E+02 -0.29344366408E+02  0.43210980463E+02  0.51100000000E-03 0.  1.
         23    2    1    0    0    0  0.17451631716E+02 -0.22818843061E+01  0.21805439414E+02  0.96977801058E+02  0.92840994525E+02 0.  0.
         11    1    3    3    0    0 -0.10396666798E+02  0.12902623008E+02  0.51149805822E+02  0.53766820594E+02  0.51100000000E-03 0. -1.
         22    1    1    0    0    0 -0.17451631716E+02  0.22818843061E+01 -0.21805439414E+02  0.28022198942E+02  0.00000000000E+00 0. -1.
</event>
<event>
 5    1  0.6622912E-004  0.9118800E+02  0.7818608E-02  0.1130116E+00
         25   -1    0    0    0    0  0.00000000000E+00  0.00000000000E+00  0.99999998245E-14  0.12500000000E+03  0.12500000000E+03 0.  0.
        -11    1    3    3    0    0 -0.15492856782E+02 -0.23683225164E+02  0.31849269391E+02  0.42606334347E+02  0.51100000000E-03 0. -1.
         23    2    1    0    0    0 -0.12448443336E+02  0.24620940062E+02  0.11605726628E+02  0.95069291328E+02  0.90234820508E+02 0.  0.
         11    1    3    3    0    0  0.30444134460E+01  0.48304165226E+02 -0.20243542763E+02  0.52462956982E+02  0.51100000000E-03 0.  1.
         22    1    1    0    0    0  0.12448443336E+02 -0.24620940062E+02 -0.11605726628E+02  0.29930708672E+02  0.00000000000E+00 0.  1.
</event>
<event>
 5    1  0.6622912E-004  0.9118800E+02  0.7818608E-02  0.1130116E+00
         25   -1    0    0    0    0  0.00000000000E+00  0.00000000000E+00  0.99999998245E-14  0.12500000000E+03  0.12500000000E+03 0.  0.
        -11    1    3    3    0    0 -0.39650924218E+02  0.38234840655E+02  0.10840864892E+02  0.56139319404E+02  0.51100000000E-03 0. -1.
         23    2    1    0    0    0  0.64024004479E+00  0.22945823722E+02  0.11685514606E+02  0.99242050058E+02  0.95841079472E+02 0.  0.
         11    1    3    3    0    0  0.40291164263E+02 -0.15289016933E+02  0.84464971385E+00  0.43102730654E+02  0.51100000000E-03 0.  1.
         22    1    1    0    0    0 -0.64024004479E+00 -0.22945823722E+02 -0.11685514606E+02  0.25757949942E+02  0.00000000000E+00 0. -1.
</event>
<event>
 5    1  0.6622912E-004  0.9118800E+02  0.7818608E-02  0.1130116E+00
         25   -1    0    0    0    0  0.00000000000E+00  0.00000000000E+00  0.99999998245E-14  0.12500000000E+03  0.12500000000E+03 0.  0.
        -11    1    3    3    0    0 -0.35668012828E+02 -0.11055911903E+02  0.43668155738E+02  0.57457359432E+02  0.51100000000E-03 0. -1.
         23    2    1    0    0    0 -0.21860749748E+02  0.10926163630E+02  0.14174164992E+02  0.96747913627E+02  0.92530959180E+02 0.  0.
         11    1    3    3    0    0  0.13807263080E+02  0.21982075533E+02 -0.29493990746E+02  0.39290554195E+02  0.51100000000E-03 0.  1.
         22    1    1    0    0    0  0.21860749748E+02 -0.10926163630E+02 -0.14174164992E+02  0.28252086373E+02  0.00000000000E+00 0. -1.
</event>
<event>
 5    1  0.6622912E-004  0.9118800E+02  0.7818608E-02  0.1130116E+00
         25   -1    0    0    0    0  0.00000000000E+00  0.00000000000E+00  0.99999998245E-14  0.12500000000E+03  0.12500000000E+03 0.  0.
        -11    1    3    3    0    0 -0.63608804930E+01 -0.36853116456E+02  0.41486612194E+02  0.55854740039E+02  0.51100000000E-03 0. -1.
         23    2    1    0    0    0  0.12560662235E+02 -0.25939362216E+02  0.93719236544E+01  0.94693998928E+02  0.89713431169E+02 0.  0.
         11    1    3    3    0    0  0.18921542728E+02  0.10913754240E+02 -0.32114688540E+02  0.38839258890E+02  0.51100000000E-03 0.  1.
         22    1    1    0    0    0 -0.12560662235E+02  0.25939362216E+02 -0.93719236544E+01  0.30306001072E+02  0.00000000000E+00 0. -1.
</event>
<event>
 5    1  0.6622912E-004  0.9118800E+02  0.7818608E-02  0.1130116E+00
         25   -1    0    0    0    0  0.00000000000E+00  0.00000000000E+00  0.99999998245E-14  0.12500000000E+03  0.12500000000E+03 0.  0.
        -11    1    3    3    0    0 -0.44109430359E+02  0.24473792723E+02  0.30628110769E+02  0.59014316453E+02  0.51100000000E-03 0.  1.
         23    2    1    0    0    0 -0.20287454301E+02 -0.16667009547E+01  0.21185546744E+02  0.95619971325E+02  0.90994465938E+02 0.  0.
         11    1    3    3    0    0  0.23821976058E+02 -0.26140493677E+02 -0.94425640244E+01  0.36605654873E+02  0.51100000000E-03 0. -1.
         22    1    1    0    0    0  0.20287454301E+02  0.16667009547E+01 -0.21185546744E+02  0.29380028675E+02  0.00000000000E+00 0.  1.
</event>
<event>
 5    1  0.6622912E-004  0.9118800E+02  0.7818608E-02  0.1130116E+00
         25   -1    0    0    0    0  0.00000000000E+00  0.00000000000E+00  0.99999998245E-14  0.12500000000E+03  0.12500000000E+03 0.  0.
        -11    1    3    3    0    0 -0.15882687276E+01  0.41852984919E+02 -0.26772513767E+02  0.49708776266E+02  0.51100000000E-03 0. -1.
         23    2    1    0    0    0 -0.24498346461E+02  0.30433552920E+01 -0.14302500029E+02  0.96469446240E+02  0.92154010006E+02 0.  0.
         11    1    3    3    0    0 -0.22910077733E+02 -0.38809629627E+02  0.12470013738E+02  0.46760669974E+02  0.51100000000E-03 0.  1.
         22    1    1    0    0    0  0.24498346461E+02 -0.30433552920E+01  0.14302500029E+02  0.28530553760E+02  0.00000000000E+00 0. -1.
</event>
<event>
 5    1  0.6622912E-004  0.9118800E+02  0.7818608E-02  0.1130116E+00
         25   -1    0    0    0    0  0.00000000000E+00  0.00000000000E+00  0.99999998245E-14  0.12500000000E+03  0.12500000000E+03 0.  0.
        -11    1    3    3    0    0 -0.99048829337E+00  0.59917764637E+01 -0.33477503840E+02  0.34023899187E+02  0.51100000000E-03 0.  1.
         23    2    1    0    0    0 -0.19748378293E+02 -0.12468746718E+02  0.20402587761E+02  0.93988168753E+02  0.88724529800E+02 0.  0.
         11    1    3    3    0    0 -0.18757890000E+02 -0.18460523182E+02  0.53880091601E+02  0.59964269566E+02  0.51100000000E-03 0. -1.
         22    1    1    0    0    0  0.19748378293E+02  0.12468746718E+02 -0.20402587761E+02  0.31011831247E+02  0.00000000000E+00 0. -1.
</event>
<event>
 5    1  0.6622912E-004  0.9118800E+02  0.7818608E-02  0.1130116E+00
         25   -1    0    0    0    0  0.00000000000E+00  0.00000000000E+00  0.99999998245E-14  0.12500000000E+03  0.12500000000E+03 0.  0.
        -11    1    3    3    0    0 -0.15230831181E+02 -0.35648183561E+02 -0.36673477678E+02  0.53363987622E+02  0.51100000000E-03 0.  1.
         23    2    1    0    0    0 -0.24411684510E+02 -0.40418974067E+01 -0.36495730796E+01  0.99988269574E+02  0.96809438555E+02 0.  0.
         11    1    3    3    0    0 -0.91808533287E+01  0.31606286154E+02  0.33023904598E+02  0.46624281951E+02  0.51100000000E-03 0. -1.
         22    1    1    0    0    0  0.24411684510E+02  0.40418974067E+01  0.36495730796E+01  0.25011730426E+02  0.00000000000E+00 0.  1.
</event>
<event>
 5    1  0.6622912E-004  0.9118800E+02  0.7818608E-02  0.1130116E+00
         25   -1    0    0    0    0  0.00000000000E+00  0.00000000000E+00  0.99999998245E-14  0.12500000000E+03  0.12500000000E+03 0.  0.
        -11    1    3    3    0    0 -0.34919492178E+01 -0.14518881796E+02 -0.52919183137E+02  0.54985739807E+02  0.51100000000E-03 0.  1.
         23    2    1    0    0    0 -0.67869807450E+01 -0.25823673546E+02 -0.15694685767E+02  0.94028264751E+02  0.88781001277E+02 0.  0.
         11    1    3    3    0    0 -0.32950315272E+01 -0.11304791750E+02  0.37224497370E+02  0.39042524944E+02  0.51100000000E-03 0. -1.
         22    1    1    0    0    0  0.67869807450E+01  0.25823673546E+02  0.15694685767E+02  0.30971735249E+02  0.00000000000E+00 0.  1.
</event>
<event>
 5    1  0.6622912E-004  0.9118800E+02  0.7818608E-02  0.1130116E+00
         25   -1    0    0    0    0  0.00000000000E+00  0.00000000000E+00  0.99999998245E-14  0.12500000000E+03  0.12500000000E+03 0.  0.
        -11    1    3    3    0    0 -0.67801256591E+01 -0.53786808353E+01  0.60914448391E+02  0.61526176011E+02  0.51100000000E-03 0.  1.
         23    2    1    0    0    0 -0.14605737428E+01 -0.99861717422E+01  0.26715120937E+02  0.96442083612E+02  0.92116887176E+02 0.  0.
         11    1    3    3    0    0  0.53195519163E+01 -0.46074909069E+01 -0.34199327454E+02  0.34915907601E+02  0.51100000000E-03 0. -1.
         22    1    1    0    0    0  0.14605737428E+01  0.99861717422E+01 -0.26715120937E+02  0.28557916388E+02  0.00000000000E+00 0.  1.
</event>
<event>
 5    1  0.6622912E-004  0.9118800E+02  0.7818608E-02  0.1130116E+00
         25   -1    0    0    0    0  0.00000000000E+00  0.00000000000E+00  0.99999998245E-14  0.12500000000E+03  0.12500000000E+03 0.  0.
        -11    1    3    3    0    0  0.27792738644E+02 -0.18504329748E+02 -0.16341492118E+02  0.37173793264E+02  0.51100000000E-03 0.  1.
         23    2    1    0    0    0 -0.88659757014E+01  0.26312831515E+02 -0.39108919608E+00  0.97230888054E+02  0.93181124771E+02 0.  0.
         11    1    3    3    0    0 -0.36658714345E+02  0.44817161263E+02  0.15950402921E+02  0.60057094791E+02  0.51100000000E-03 0. -1.
         22    1    1    0    0    0  0.88659757014E+01 -0.26312831515E+02  0.39108919608E+00  0.27769111946E+02  0.00000000000E+00 0. -1.
</event>
<event>
 5    1  0.6622912E-004  0.9118800E+02  0.7818608E-02  0.1130116E+00
         25   -1    0    0    0    0  0.00000000000E+00  0.00000000000E+00  0.99999998245E-14  0.12500000000E+03  0.12500000000E+03 0.  0.
        -11    1    3    3    0    0  0.18802979573E+02 -0.56818088528E+02  0.15207860421E+02  0.61750516141E+02  0.51100000000E-03 0.  1.
         23    2    1    0    0    0  0.11614507339E+02 -0.23138636177E+02  0.12373775464E+02  0.96304990257E+02  0.91930667159E+02 0.  0.
         11    1    3    3    0    0 -0.71884722332E+01  0.33679452351E+02 -0.28340849562E+01  0.34554474117E+02  0.51100000000E-03 0. -1.
         22    1    1    0    0    0 -0.11614507339E+02  0.23138636177E+02 -0.12373775464E+02  0.28695009743E+02  0.00000000000E+00 0.  1.
</event>
<event>
 5    1  0.6622912E-004  0.9118800E+02  0.7818608E-02  0.1130116E+00
         25   -1    0    0    0    0  0.00000000000E+00  0.00000000000E+00  0.99999998245E-14  0.12500000000E+03  0.12500000000E+03 0.  0.
        -11    1    3    3    0    0  0.18839131774E+02 -0.37644914344E+02 -0.24769602264E+02  0.48842457540E+02  0.51100000000E-03 0.  1.
         23    2    1    0    0    0  0.17889637343E+02 -0.18031418747E+02  0.16614199035E+02  0.94648677198E+02  0.89650261011E+02 0.  0.
         11    1    3    3    0    0 -0.94949443122E+00  0.19613495597E+02  0.41383801298E+02  0.45806219658E+02  0.51100000000E-03 0. -1.
         22    1    1    0    0    0 -0.17889637343E+02  0.18031418747E+02 -0.16614199035E+02  0.30351322802E+02  0.00000000000E+00 0. -1.
</event>
<event>
 5    1  0.6622912E-004  0.9118800E+02  0.7818608E-02  0.1130116E+00
         25   -1    0    0    0    0  0.00000000000E+00  0.00000000000E+00  0.99999998245E-14  0.12500000000E+03  0.12500000000E+03 0.  0.
        -11    1    3    3    0    0  0.49906508742E+02  0.66028524258E+01 -0.31222772621E+02  0.59237815670E+02  0.51100000000E-03 0. -1.
         23    2    1    0    0    0  0.19642283490E+02  0.16893898850E+02 -0.14334576045E+02  0.95390825924E+02  0.90679140275E+02 0.  0.
         11    1    3    3    0    0 -0.30264225252E+02  0.10291046424E+02  0.16888196575E+02  0.36153010254E+02  0.51100000000E-03 0.  1.
         22    1    1    0    0    0 -0.19642283490E+02 -0.16893898850E+02  0.14334576045E+02  0.29609174076E+02  0.00000000000E+00 0. -1.
</event>
<event>
 5    1  0.6622912E-004  0.9118800E+02  0.7818608E-02  0.1130116E+00
         25   -1    0    0    0    0  0.00000000000E+00  0.00000000000E+00  0.99999998245E-14  0.12500000000E+03  0.12500000000E+03 0.  0.
        -11    1    3    3    0    0  0.12843586321E+02 -0.69989430751E+01 -0.38535415480E+02  0.41217971326E+02  0.51100000000E-03 0. -1.
         23    2    1    0    0    0  0.22238074652E+02  0.18246984843E+02  0.81362887877E+01  0.95105458436E+02  0.90284907980E+02 0.  0.
         11    1    3    3    0    0  0.93944883312E+01  0.25245927918E+02  0.46671704268E+02  0.53887487110E+02  0.51100000000E-03 0.  1.
         22    1    1    0    0    0 -0.22238074652E+02 -0.18246984843E+02 -0.81362887877E+01  0.29894541564E+02  0.00000000000E+00 0. -1.
</event>
<event>
 5    1  0.6622912E-004  0.9118800E+02  0.7818608E-02  0.1130116E+00
         25   -1    0    0    0    0  0.00000000000E+00  0.00000000000E+00  0.99999998245E-14  0.12500000000E+03  0.12500000000E+03 0.  0.
        -11    1    3    3    0    0 -0.17233439768E+02 -0.91284139301E+01 -0.28775165627E+02  0.34761034856E+02  0.51100000000E-03 0.  1.
         23    2    1    0    0    0 -0.51408888068E+01  0.80969031857E+01  0.28048507604E+02  0.95357001539E+02  0.90632501812E+02 0.  0.
         11    1    3    3    0    0  0.12092550961E+02  0.17225317116E+02  0.56823673231E+02  0.60595966683E+02  0.51100000000E-03 0. -1.
         22    1    1    0    0    0  0.51408888068E+01 -0.80969031857E+01 -0.28048507604E+02  0.29642998461E+02  0.00000000000E+00 0. -1.
</event>
<event>
 5    1  0.6622912E-004  0.9118800E+02  0.7818608E-02  0.1130116E+00
         25   -1    0    0    0    0  0.00000000000E+00  0.00000000000E+00  0.99999998245E-14  0.12500000000E+03  0.12500000000E+03 0.  0.
        -11    1    3    3    0    0 -0.37118939659E+02 -0.38165725356E+02  0.26270803840E+01  0.53304219579E+02  0.51100000000E-03 0.  1.
         23    2    1    0    0    0 -0.55707730848E+01 -0.14350501046E+02  0.22649892132E+02  0.97614091094E+02  0.93693771262E+02 0.  0.
         11    1    3    3    0    0  0.31548166574E+02  0.23815224309E+02  0.20022811748E+02  0.44309871515E+02  0.51100000000E-03 0. -1.
         22    1    1    0    0    0  0.55707730848E+01  0.14350501046E+02 -0.22649892132E+02  0.27385908906E+02  0.00000000000E+00 0.  1.
</event>
<event>
 5    1  0.6622912E-004  0.9118800E+02  0.7818608E-02  0.1130116E+00
         25   -1    0    0    0    0  0.00000000000E+00  0.00000000000E+00  0.99999998245E-14  0.12500000000E+03  0.12500000000E+03 0.  0.
        -11    1    3    3    0    0 -0.38336962885E+02  0.20616958178E+02 -0.43866472088E+02  0.61798455170E+02  0.51100000000E-03 0.  1.
         23    2    1    0    0    0 -0.19265839584E+02  0.14653757008E+02 -0.16409363810E+02  0.95756669307E+02  0.91182055947E+02 0.  0.
         11    1    3    3    0    0  0.19071123301E+02 -0.59632011693E+01  0.27457108278E+02  0.33958214137E+02  0.51100000000E-03 0. -1.
         22    1    1    0    0    0  0.19265839584E+02 -0.14653757008E+02  0.16409363810E+02  0.29243330693E+02  0.00000000000E+00 0.  1.
</event>
<event>
 5    1  0.6622912E-004  0.9118800E+02  0.7818608E-02  0.1130116E+00
         25   -1    0    0    0    0  0.00000000000E+00  0.00000000000E+00  0.99999998245E-14  0.12500000000E+03  0.12500000000E+03 0.  0.
        -11    1    3    3    0    0 -0.37591589968E+02  0.38932297382E+02  0.15499387717E+02  0.56294603965E+02  0.51100000000E-03 0. -1.
         23    2    1    0    0    0 -0.11985485413E+02  0.11616589073E+02  0.25016723586E+02  0.94926199754E+02  0.90036381194E+02 0.  0.
         11    1    3    3    0    0  0.25606104555E+02 -0.27315708309E+02  0.95173358681E+01  0.38631595789E+02  0.51100000000E-03 0.  1.
         22    1    1    0    0    0  0.11985485413E+02 -0.11616589073E+02 -0.25016723586E+02  0.30073800246E+02  0.00000000000E+00 0. -1.
</event>
<event>
 5    1  0.6622912E-004  0.9118800E+02  0.7818608E-02  0.1130116E+00
         25   -1    0    0    0    0  0.00000000000E+00  0.00000000000E+00  0.99999998245E-14  0.12500000000E+03  0.12500000000E+03 0.  0.
        -11    1    3    3    0    0  0.48011123268E+02  0.71638980384E+01 -0.56472817742E+01  0.48870043833E+02  0.51100000000E-03 0. -1.
         23    2    1    0    0    0  0.80500779197E+01  0.10958167477E+02  0.23066923669E+02  0.98223738937E+02  0.94503622863E+02 0.  0.
         11    1    3    3    0    0 -0.39961045348E+02  0.37942694383E+01  0.28714205443E+02  0.49353695104E+02  0.51100000000E-03 0.  1.
         22    1    1    0    0    0 -0.80500779197E+01 -0.10958167477E+02 -0.23066923669E+02  0.26776261063E+02  0.00000000000E+00 0. -1.
</event>
<event>
 5    1  0.6622912E-004  0.9118800E+02  0.7818608E-02  0.1130116E+00
         25   -1    0    0    0    0  0.00000000000E+00  0.00000000000E+00  0.99999998245E-14  0.12500000000E+03  0.12500000000E+03 0.  0.
        -11    1    3    3    0    0  0.24460266857E+02  0.49978108960E+02  0.17221660093E+02  0.58246902119E+02  0.51100000000E-03 0. -1.
         23    2    1    0    0    0 -0.12280063756E+01  0.29063891386E+02 -0.68432363142E+00  0.95902129270E+02  0.91381247078E+02 0.  0.
         11    1    3    3    0    0 -0.25688273232E+02 -0.20914217573E+02 -0.17905983725E+02  0.37655227151E+02  0.51100000000E-03 0.  1.
         22    1    1    0    0    0  0.12280063756E+01 -0.29063891386E+02  0.68432363142E+00  0.29097870730E+02  0.00000000000E+00 0. -1.
</event>
<event>
 5    1  0.6622912E-004  0.9118800E+02  0.7818608E-02  0.1130116E+00
         25   -1    0    0    0    0  0.00000000000E+00  0.00000000000E+00  0.99999998245E-14  0.12500000000E+03  0.12500000000E+03 0.  0.
        -11    1    3    3    0    0 -0.17023823189E+02 -0.46360067719E+02 -0.72381437024E+01  0.49914498489E+02  0.51100000000E-03 0. -1.
         23    2    1    0    0    0  0.11313251575E+02 -0.15012252498E+02 -0.23248151181E+02  0.95102944633E+02  0.90281427538E+02 0.  0.
         11    1    3    3    0    0  0.28337074763E+02  0.31347815220E+02 -0.16010007478E+02  0.45188446145E+02  0.51100000000E-03 0.  1.
         22    1    1    0    0    0 -0.11313251575E+02  0.15012252498E+02  0.23248151181E+02  0.29897055367E+02  0.00000000000E+00 0. -1.
</event>
<event>
 5    1  0.6622912E-004  0.9118800E+02  0.7818608E-02  0.1130116E+00
         25   -1    0    0    0    0  0.00000000000E+00  0.00000000000E+00  0.99999998245E-14  0.12500000000E+03  0.12500000000E+03 0.  0.
        -11    1    3    3    0    0  0.11303543527E+02 -0.46902688985E+02  0.95313719768E+01  0.49178037601E+02  0.51100000000E-03 0.  1.
         23    2    1    0    0    0  0.26766177963E+02 -0.14200525314E+01 -0.21197008961E+00  0.98195340642E+02  0.94466052953E+02 0.  0.
         11    1    3    3    0    0  0.15462634437E+02  0.45482636454E+02 -0.97433420664E+01  0.49017303041E+02  0.51100000000E-03 0. -1.
         22    1    1    0    0    0 -0.26766177963E+02  0.14200525314E+01  0.21197008961E+00  0.26804659358E+02  0.00000000000E+00 0.  1.
</event>
<event>
 5    1  0.6622912E-004  0.9118800E+02  0.7818608E-02  0.1130116E+00
         25   -1    0    0    0    0  0.00000000000E+00  0.00000000000E+00  0.99999998245E-14  0.12500000000E+03  0.12500000000E+03 0.  0.
        -11    1    3    3    0    0  0.83988714803E+01 -0.44701053152E+02 -0.14156537542E+02  0.47635414877E+02  0.51100000000E-03 0. -1.
         23    2    1    0    0    0  0.15425164302E+02 -0.10778572878E+02  0.20869525017E+02  0.96899281122E+02  0.92735215967E+02 0.  0.
         11    1    3    3    0    0  0.70262928214E+01  0.33922480274E+02  0.35026062560E+02  0.49263866245E+02  0.51100000000E-03 0.  1.
         22    1    1    0    0    0 -0.15425164302E+02  0.10778572878E+02 -0.20869525017E+02  0.28100718878E+02  0.00000000000E+00 0. -1.
</event>
<event>
 5    1  0.6622912E-004  0.9118800E+02  0.7818608E-02  0.1130116E+00
         25   -1    0    0    0    0  0.00000000000E+00  0.00000000000E+00  0.99999998245E-14  0.12500000000E+03  0.12500000000E+03 0.  0.
        -11    1    3    3    0    0  0.14853821636E+02 -0.42008616080E+02 -0.24874089603E+02  0.51030188869E+02  0.51100000000E-03 0. -1.
         23    2    1    0    0    0 -0.96737775354E+01 -0.59134400447E+01 -0.28009385897E+02  0.94782845215E+02  0.89837137664E+02 0.  0.
         11    1    3    3    0    0 -0.24527599172E+02  0.36095176036E+02 -0.31352962945E+01  0.43752656345E+02  0.51100000000E-03 0.  1.
         22    1    1    0    0    0  0.96737775354E+01  0.59134400447E+01  0.28009385897E+02  0.30217154785E+02  0.00000000000E+00 0. -1.
</event>
<event>
 5    1  0.6622912E-004  0.9118800E+02  0.7818608E-02  0.1130116E+00
         25   -1    0    0    0    0  0.00000000000E+00  0.00000000000E+00  0.99999998245E-14  0.12500000000E+03  0.12500000000E+03 0.  0.
        -11    1    3    3    0    0  0.25180755493E+02 -0.52770302813E+02  0.19023915669E+02  0.61487272454E+02  0.51100000000E-03 0. -1.
         23    2    1    0    0    0  0.67908766326E+01 -0.21637256255E+02  0.14865031244E+02  0.97884395313E+02  0.94053701831E+02 0.  0.
         11    1    3    3    0    0 -0.18389878861E+02  0.31133046558E+02 -0.41588844253E+01  0.36397122859E+02  0.51100000000E-03 0.  1.
         22    1    1    0    0    0 -0.67908766326E+01  0.21637256255E+02 -0.14865031244E+02  0.27115604687E+02  0.00000000000E+00 0. -1.
</event>
<event>
 5    1  0.6622912E-004  0.9118800E+02  0.7818608E-02  0.1130116E+00
         25   -1    0    0    0    0  0.00000000000E+00  0.00000000000E+00  0.99999998245E-14  0.12500000000E+03  0.12500000000E+03 0.  0.
        -11    1    3    3    0    0  0.14536607724E+01 -0.24039832345E+02  0.20287661255E+02  0.31489932809E+02  0.51100000000E-03 0.  1.
         23    2    1    0    0    0 -0.36875434114E+01  0.16490729909E+02 -0.26478790168E+02  0.93588720527E+02  0.88159968987E+02 0.  0.
         11    1    3    3    0    0 -0.51412041838E+01  0.40530562254E+02 -0.46766451423E+02  0.62098787718E+02  0.51100000000E-03 0. -1.
         22    1    1    0    0    0  0.36875434114E+01 -0.16490729909E+02  0.26478790168E+02  0.31411279473E+02  0.00000000000E+00 0. -1.
</event>
<event>
 5    1  0.6622912E-004  0.9118800E+02  0.7818608E-02  0.1130116E+00
         25   -1    0    0    0    0  0.00000000000E+00  0.00000000000E+00  0.99999998245E-14  0.12500000000E+03  0.12500000000E+03 0.  0.
        -11    1    3    3    0    0  0.93754767061E+01 -0.13411580347E+02  0.44555569575E+02  0.47465448816E+02  0.51100000000E-03 0.  1.
         23    2    1    0    0    0 -0.23823895529E+02  0.65585011794E+01  0.17133677755E+02  0.94930832248E+02  0.90042812384E+02 0.  0.
         11    1    3    3    0    0 -0.33199372235E+02  0.19970081527E+02 -0.27421891821E+02  0.47465383431E+02  0.51100000000E-03 0. -1.
         22    1    1    0    0    0  0.23823895529E+02 -0.65585011794E+01 -0.17133677755E+02  0.30069167752E+02  0.00000000000E+00 0. -1.
</event>
<event>
 5    1  0.6622912E-004  0.9118800E+02  0.7818608E-02  0.1130116E+00
         25   -1    0    0    0    0  0.00000000000E+00  0.00000000000E+00  0.99999998245E-14  0.12500000000E+03  0.12500000000E+03 0.  0.
        -11    1    3    3    0    0 -0.77902483408E+01  0.13083165733E+02  0.32819927685E+02  0.36180172033E+02  0.51100000000E-03 0. -1.
         23    2    1    0    0    0 -0.14855027624E+02 -0.19493306688E+02 -0.16317011830E+02  0.95556737165E+02  0.90907559044E+02 0.  0.
         11    1    3    3    0    0 -0.70647792828E+01 -0.32576472421E+02 -0.49136939515E+02  0.59376565132E+02  0.51100000000E-03 0.  1.
         22    1    1    0    0    0  0.14855027624E+02  0.19493306688E+02  0.16317011830E+02  0.29443262835E+02  0.00000000000E+00 0.  1.
</event>
<event>
 5    1  0.6622912E-004  0.9118800E+02  0.7818608E-02  0.1130116E+00
         25   -1    0    0    0    0  0.00000000000E+00  0.00000000000E+00  0.99999998245E-14  0.12500000000E+03  0.12500000000E+03 0.  0.
        -11    1    3    3    0    0  0.48229338560E+02 -0.23942207729E+02  0.19693829785E+02  0.57333631847E+02  0.51100000000E-03 0. -1.
         23    2    1    0    0    0  0.27479482601E+02 -0.10477146829E+01 -0.52008194374E+01  0.97013071035E+02  0.92888469461E+02 0.  0.
         11    1    3    3    0    0 -0.20749855960E+02  0.22894493046E+02 -0.24894649222E+02  0.39679439189E+02  0.51100000000E-03 0.  1.
         22    1    1    0    0    0 -0.27479482601E+02  0.10477146829E+01  0.52008194374E+01  0.27986928965E+02  0.00000000000E+00 0. -1.
</event>
<event>
 4    1  0.6622912E-004  0.9118800E+02  0.7818608E-02  0.1130116E+00
         25   -1    0    0    0    0  0.00000000000E+00  0.00000000000E+00  0.99999998245E-14  0.12500000000E+03  0.12500000000E+03 0.  0.
        -11    1    1    0    0    0 -0.59704540656E+01 -0.15623562806E+01  0.12276565200E+01  0.62924096886E+01  0.51100000000E-03 0.  1.
         11    1    1    0    0    0  0.49923020747E+02  0.10427565684E+02 -0.35612195658E+02  0.62203461370E+02  0.51100000000E-03 0. -1.
         22    1    1    0    0    0 -0.43952566681E+02 -0.88652094033E+01  0.34384539138E+02  0.56504128941E+02  0.00000000000E+00 0. -1.
</event>
<event>
 5    1  0.6622912E-004  0.9118800E+02  0.7818608E-02  0.1130116E+00
         25   -1    0    0    0    0  0.00000000000E+00  0.00000000000E+00  0.99999998245E-14  0.12500000000E+03  0.12500000000E+03 0.  0.
        -11    1    3    3    0    0 -0.42661740627E+02  0.11051130933E+02 -0.29000972080E+02  0.52756118034E+02  0.51100000000E-03 0.  1.
         23    2    1    0    0    0 -0.15359245993E+02  0.27570491577E+02 -0.42204144613E+01  0.93158983347E+02  0.87548534178E+02 0.  0.
         11    1    3    3    0    0  0.27302494633E+02  0.16519360644E+02  0.24780557619E+02  0.40402865313E+02  0.51100000000E-03 0. -1.
         22    1    1    0    0    0  0.15359245993E+02 -0.27570491577E+02  0.42204144613E+01  0.31841016653E+02  0.00000000000E+00 0.  1.
</event>
<event>
 5    1  0.6622912E-004  0.9118800E+02  0.7818608E-02  0.1130116E+00
         25   -1    0    0    0    0  0.00000000000E+00  0.00000000000E+00  0.99999998245E-14  0.12500000000E+03  0.12500000000E+03 0.  0.
        -11    1    3    3    0    0 -0.14369738495E+02  0.34402191449E+02 -0.42948611046E+01  0.37529268486E+02  0.51100000000E-03 0.  1.
         23    2    1    0    0    0  0.16681998650E+01 -0.13389792778E+02  0.25545167024E+02  0.96110122885E+02  0.91665319076E+02 0.  0.
         11    1    3    3    0    0  0.16037938360E+02 -0.47791984227E+02  0.29840028128E+02  0.58580854400E+02  0.51100000000E-03 0. -1.
         22    1    1    0    0    0 -0.16681998650E+01  0.13389792778E+02 -0.25545167024E+02  0.28889877115E+02  0.00000000000E+00 0. -1.
</event>
<event>
 5    1  0.6622912E-004  0.9118800E+02  0.7818608E-02  0.1130116E+00
         25   -1    0    0    0    0  0.00000000000E+00  0.00000000000E+00  0.99999998245E-14  0.12500000000E+03  0.12500000000E+03 0.  0.
        -11    1    3    3    0    0  0.34956953395E+02  0.16622055678E+01 -0.11107576713E+02  0.36716886833E+02  0.51100000000E-03 0.  1.
         23    2    1    0    0    0 -0.25593160333E+02 -0.33719294756E+01  0.27604898984E+01  0.99038488706E+02  0.95575217376E+02 0.  0.
         11    1    3    3    0    0 -0.60550113728E+02 -0.50341350433E+01  0.13868066611E+02  0.62321601872E+02  0.51100000000E-03 0. -1.
         22    1    1    0    0    0  0.25593160333E+02  0.33719294756E+01 -0.27604898984E+01  0.25961511294E+02  0.00000000000E+00 0. -1.
</event>
<event>
 5    1  0.6622912E-004  0.9118800E+02  0.7818608E-02  0.1130116E+00
         25   -1    0    0    0    0  0.00000000000E+00  0.00000000000E+00  0.99999998245E-14  0.12500000000E+03  0.12500000000E+03 0.  0.
        -11    1    3    3    0    0  0.21665782576E+02  0.96196241659E+01  0.23332384134E+02  0.33261741586E+02  0.51100000000E-03 0.  1.
         23    2    1    0    0    0  0.13631508689E+02  0.13507425796E+02 -0.31118908523E+02  0.88439706669E+02  0.80529042383E+02 0.  0.
         11    1    3    3    0    0 -0.80342738866E+01  0.38878016303E+01 -0.54451292657E+02  0.55177965083E+02  0.51100000000E-03 0. -1.
         22    1    1    0    0    0 -0.13631508689E+02 -0.13507425796E+02  0.31118908523E+02  0.36560293331E+02  0.00000000000E+00 0. -1.
</event>
<event>
 5    1  0.6622912E-004  0.9118800E+02  0.7818608E-02  0.1130116E+00
         25   -1    0    0    0    0  0.00000000000E+00  0.00000000000E+00  0.99999998245E-14  0.12500000000E+03  0.12500000000E+03 0.  0.
        -11    1    3    3    0    0 -0.30511137719E+02  0.86256592552E+00  0.19941149870E+02  0.36459882108E+02  0.51100000000E-03 0.  1.
         23    2    1    0    0    0 -0.88143663372E+01  0.43842562413E+01 -0.31284932305E+02  0.92202717399E+02  0.86172381595E+02 0.  0.
         11    1    3    3    0    0  0.21696771382E+02  0.35216903157E+01 -0.51226082175E+02  0.55742835291E+02  0.51100000000E-03 0. -1.
         22    1    1    0    0    0  0.88143663372E+01 -0.43842562413E+01  0.31284932305E+02  0.32797282601E+02  0.00000000000E+00 0. -1.
</event>
<event>
 5    1  0.6622912E-004  0.9118800E+02  0.7818608E-02  0.1130116E+00
         25   -1    0    0    0    0  0.00000000000E+00  0.00000000000E+00  0.99999998245E-14  0.12500000000E+03  0.12500000000E+03 0.  0.
        -11    1    3    3    0    0 -0.41225534145E+02  0.68450290524E+00  0.15050318807E+02  0.43892200972E+02  0.51100000000E-03 0. -1.
         23    2    1    0    0    0 -0.68527387912E+01  0.22144444605E+02 -0.17570640312E+02  0.95912823155E+02  0.91395874025E+02 0.  0.
         11    1    3    3    0    0  0.34372795354E+02  0.21459941700E+02 -0.32620959119E+02  0.52020622183E+02  0.51100000000E-03 0.  1.
         22    1    1    0    0    0  0.68527387912E+01 -0.22144444605E+02  0.17570640312E+02  0.29087176845E+02  0.00000000000E+00 0. -1.
</event>
<event>
 5    1  0.6622912E-004  0.9118800E+02  0.7818608E-02  0.1130116E+00
         25   -1    0    0    0    0  0.00000000000E+00  0.00000000000E+00  0.99999998245E-14  0.12500000000E+03  0.12500000000E+03 0.  0.
        -11    1    3    3    0    0  0.99804311611E+01  0.47427135730E+01  0.33718403686E+02  0.35482856220E+02  0.51100000000E-03 0. -1.
         23    2    1    0    0    0  0.16072776654E+02  0.83020124152E+01 -0.24732249713E+02  0.94357843820E+02  0.89243828666E+02 0.  0.
         11    1    3    3    0    0  0.60923454926E+01  0.35592988422E+01 -0.58450653399E+02  0.58874987599E+02  0.51100000000E-03 0.  1.
         22    1    1    0    0    0 -0.16072776654E+02 -0.83020124152E+01  0.24732249713E+02  0.30642156180E+02  0.00000000000E+00 0.  1.
</event>
<event>
 5    1  0.6622912E-004  0.9118800E+02  0.7818608E-02  0.1130116E+00
         25   -1    0    0    0    0  0.00000000000E+00  0.00000000000E+00  0.99999998245E-14  0.12500000000E+03  0.12500000000E+03 0.  0.
        -11    1    3    3    0    0  0.17490184004E+02 -0.18806840301E+02 -0.20471910820E+02  0.32843612948E+02  0.51100000000E-03 0. -1.
         23    2    1    0    0    0 -0.70397137537E+01  0.10873891380E+02  0.27644927854E+02  0.94470651505E+02  0.89401693923E+02 0.  0.
         11    1    3    3    0    0 -0.24529897758E+02  0.29680731681E+02  0.48116838673E+02  0.61627038557E+02  0.51100000000E-03 0.  1.
         22    1    1    0    0    0  0.70397137537E+01 -0.10873891380E+02 -0.27644927854E+02  0.30529348495E+02  0.00000000000E+00 0.  1.
</event>
<event>
 5    1  0.6622912E-004  0.9118800E+02  0.7818608E-02  0.1130116E+00
         25   -1    0    0    0    0  0.00000000000E+00  0.00000000000E+00  0.99999998245E-14  0.12500000000E+03  0.12500000000E+03 0.  0.
        -11    1    3    3    0    0  0.25428908193E+02 -0.28098509560E+02 -0.48572199175E+02  0.61606932600E+02  0.51100000000E-03 0.  1.
         23    2    1    0    0    0  0.68474084958E+01 -0.94863517648E+01 -0.26829113803E+02  0.95730916988E+02  0.91146745674E+02 0.  0.
         11    1    3    3    0    0 -0.18581499697E+02  0.18612157795E+02  0.21743085372E+02  0.34123984389E+02  0.51100000000E-03 0. -1.
         22    1    1    0    0    0 -0.68474084958E+01  0.94863517648E+01  0.26829113803E+02  0.29269083012E+02  0.00000000000E+00 0.  1.
</event>
<event>
 5    1  0.6622912E-004  0.9118800E+02  0.7818608E-02  0.1130116E+00
         25   -1    0    0    0    0  0.00000000000E+00  0.00000000000E+00  0.99999998245E-14  0.12500000000E+03  0.12500000000E+03 0.  0.
        -11    1    3    3    0    0  0.39297412760E+01  0.13609447824E+02 -0.52448062847E+02  0.54327334126E+02  0.51100000000E-03 0.  1.
         23    2    1    0    0    0 -0.15110249115E+02  0.19244329924E+02 -0.16206844069E+02  0.95651649839E+02  0.91037972625E+02 0.  0.
         11    1    3    3    0    0 -0.19039990391E+02  0.56348820994E+01  0.36241218778E+02  0.41324315713E+02  0.51100000000E-03 0. -1.
         22    1    1    0    0    0  0.15110249115E+02 -0.19244329924E+02  0.16206844069E+02  0.29348350161E+02  0.00000000000E+00 0.  1.
</event>
<event>
 5    1  0.6622912E-004  0.9118800E+02  0.7818608E-02  0.1130116E+00
         25   -1    0    0    0    0  0.00000000000E+00  0.00000000000E+00  0.99999998245E-14  0.12500000000E+03  0.12500000000E+03 0.  0.
        -11    1    3    3    0    0  0.37504925293E+02  0.22603121741E+02  0.21777930253E+02  0.48906019875E+02  0.51100000000E-03 0.  1.
         23    2    1    0    0    0  0.25062380532E+02 -0.16816905936E+02  0.19421068556E+01  0.94755942365E+02  0.89799697055E+02 0.  0.
         11    1    3    3    0    0 -0.12442544761E+02 -0.39420027677E+02 -0.19835823397E+02  0.45849922489E+02  0.51100000000E-03 0. -1.
         22    1    1    0    0    0 -0.25062380532E+02  0.16816905936E+02 -0.19421068556E+01  0.30244057635E+02  0.00000000000E+00 0.  1.
</event>
<event>
 5    1  0.6622912E-004  0.9118800E+02  0.7818608E-02  0.1130116E+00
         25   -1    0    0    0    0  0.00000000000E+00  0.00000000000E+00  0.99999998245E-14  0.12500000000E+03  0.12500000000E+03 0.  0.
        -11    1    3    3    0    0 -0.44172668935E+02  0.17635327141E+02 -0.60618808691E+01  0.47947636481E+02  0.51100000000E-03 0.  1.
         23    2    1    0    0    0 -0.99931010478E+01  0.78413245914E+00 -0.30282783832E+02  0.93101349105E+02  0.87466206482E+02 0.  0.
         11    1    3    3    0    0  0.34179567887E+02 -0.16851194682E+02 -0.24220902963E+02  0.45153712624E+02  0.51100000000E-03 0. -1.
         22    1    1    0    0    0  0.99931010478E+01 -0.78413245914E+00  0.30282783832E+02  0.31898650895E+02  0.00000000000E+00 0.  1.
</event>
<event>
 5    1  0.6622912E-004  0.9118800E+02  0.7818608E-02  0.1130116E+00
         25   -1    0    0    0    0  0.00000000000E+00  0.00000000000E+00  0.99999998245E-14  0.12500000000E+03  0.12500000000E+03 0.  0.
        -11    1    3    3    0    0 -0.62817191143E+01 -0.46940338674E+02  0.19689529013E+02  0.51288721401E+02  0.51100000000E-03 0.  1.
         23    2    1    0    0    0 -0.23125352274E+02 -0.71730494980E+01  0.18562872631E+02  0.94490742434E+02  0.89429780322E+02 0.  0.
         11    1    3    3    0    0 -0.16843633160E+02  0.39767289177E+02 -0.11266563820E+01  0.43202021033E+02  0.51100000000E-03 0. -1.
         22    1    1    0    0    0  0.23125352274E+02  0.71730494980E+01 -0.18562872631E+02  0.30509257566E+02  0.00000000000E+00 0. -1.
</event>
<event>
 5    1  0.6622912E-004  0.9118800E+02  0.7818608E-02  0.1130116E+00
         25   -1    0    0    0    0  0.00000000000E+00  0.00000000000E+00  0.99999998245E-14  0.12500000000E+03  0.12500000000E+03 0.  0.
        -11    1    3    3    0    0 -0.11537685569E+02 -0.43548603366E+02 -0.29026072904E+02  0.53592088520E+02  0.51100000000E-03 0.  1.
         23    2    1    0    0    0 -0.36599484633E+01 -0.11148613830E+01 -0.27975938794E+02  0.96763653032E+02  0.92552219088E+02 0.  0.
         11    1    3    3    0    0  0.78777371060E+01  0.42433741983E+02  0.10501341097E+01  0.43171564513E+02  0.51100000000E-03 0. -1.
         22    1    1    0    0    0  0.36599484633E+01  0.11148613830E+01  0.27975938794E+02  0.28236346968E+02  0.00000000000E+00 0. -1.
</event>
<event>
 5    1  0.6622912E-004  0.9118800E+02  0.7818608E-02  0.1130116E+00
         25   -1    0    0    0    0  0.00000000000E+00  0.00000000000E+00  0.99999998245E-14  0.12500000000E+03  0.12500000000E+03 0.  0.
        -11    1    3    3    0    0 -0.28933600504E+02 -0.43418794587E+02 -0.33388723094E+02  0.61944747894E+02  0.51100000000E-03 0.  1.
         23    2    1    0    0    0 -0.74554703377E+01 -0.21637912845E+02 -0.15004331396E+02  0.97633720185E+02  0.93719955433E+02 0.  0.
         11    1    3    3    0    0  0.21478130166E+02  0.21780881742E+02  0.18384391698E+02  0.35688972292E+02  0.51100000000E-03 0. -1.
         22    1    1    0    0    0  0.74554703377E+01  0.21637912845E+02  0.15004331396E+02  0.27366279815E+02  0.00000000000E+00 0.  1.
</event>
<event>
 5    1  0.6622912E-004  0.9118800E+02  0.7818608E-02  0.1130116E+00
         25   -1    0    0    0    0  0.00000000000E+00  0.00000000000E+00  0.99999998245E-14  0.12500000000E+03  0.12500000000E+03 0.  0.
        -11    1    3    3    0    0  0.35114996372E+02  0.10198824056E+02 -0.37602388210E+02  0.52450153305E+02  0.51100000000E-03 0.  1.
         23    2    1    0    0    0  0.11185595334E+02 -0.20074823563E+02 -0.18443225695E+02  0.95533601202E+02  0.90875740990E+02 0.  0.
         11    1    3    3    0    0 -0.23929401038E+02 -0.30273647619E+02  0.19159162515E+02  0.43083447897E+02  0.51100000000E-03 0. -1.
         22    1    1    0    0    0 -0.11185595334E+02  0.20074823563E+02  0.18443225695E+02  0.29466398798E+02  0.00000000000E+00 0.  1.
</event>
<event>
 5    1  0.6622912E-004  0.9118800E+02  0.7818608E-02  0.1130116E+00
         25   -1    0    0    0    0  0.00000000000E+00  0.00000000000E+00  0.99999998245E-14  0.12500000000E+03  0.12500000000E+03 0.  0.
        -11    1    3    3    0    0 -0.29376560530E+02  0.36675751948E+02  0.23316798783E+02  0.52457279717E+02  0.51100000000E-03 0.  1.
         23    2    1    0    0    0  0.69699704208E+01  0.27077245421E+02 -0.63684314072E+00  0.97032817867E+02  0.92915038970E+02 0.  0.
         11    1    3    3    0    0  0.36346530951E+02 -0.95985065265E+01 -0.23953641923E+02  0.44575538150E+02  0.51100000000E-03 0. -1.
         22    1    1    0    0    0 -0.69699704208E+01 -0.27077245421E+02  0.63684314072E+00  0.27967182133E+02  0.00000000000E+00 0.  1.
</event>
<event>
 5    1  0.6622912E-004  0.9118800E+02  0.7818608E-02  0.1130116E+00
         25   -1    0    0    0    0  0.00000000000E+00  0.00000000000E+00  0.99999998245E-14  0.12500000000E+03  0.12500000000E+03 0.  0.
        -11    1    3    3    0    0 -0.39397816025E+02  0.28821079656E+02 -0.38114362868E+01  0.48962940954E+02  0.51100000000E-03 0.  1.
         23    2    1    0    0    0 -0.21633716995E+02 -0.11897059444E+02  0.13758889873E+02  0.96735803833E+02  0.92514598622E+02 0.  0.
         11    1    3    3    0    0  0.17764099029E+02 -0.40718139099E+02  0.17570326160E+02  0.47772862879E+02  0.51100000000E-03 0. -1.
         22    1    1    0    0    0  0.21633716995E+02  0.11897059444E+02 -0.13758889873E+02  0.28264196167E+02  0.00000000000E+00 0. -1.
</event>
<event>
 5    1  0.6622912E-004  0.9118800E+02  0.7818608E-02  0.1130116E+00
         25   -1    0    0    0    0  0.00000000000E+00  0.00000000000E+00  0.99999998245E-14  0.12500000000E+03  0.12500000000E+03 0.  0.
        -11    1    3    3    0    0 -0.20837674362E+02 -0.33893682403E+02 -0.86234371638E+01  0.40710613461E+02  0.51100000000E-03 0.  1.
         23    2    1    0    0    0  0.97570089902E+01 -0.42698820610E+01  0.26836531042E+02  0.96127339651E+02  0.91688793823E+02 0.  0.
         11    1    3    3    0    0  0.30594683352E+02  0.29623800342E+02  0.35459968206E+02  0.55416726189E+02  0.51100000000E-03 0. -1.
         22    1    1    0    0    0 -0.97570089902E+01  0.42698820610E+01 -0.26836531042E+02  0.28872660349E+02  0.00000000000E+00 0. -1.
</event>
<event>
 5    1  0.6622912E-004  0.9118800E+02  0.7818608E-02  0.1130116E+00
         25   -1    0    0    0    0  0.00000000000E+00  0.00000000000E+00  0.99999998245E-14  0.12500000000E+03  0.12500000000E+03 0.  0.
        -11    1    3    3    0    0  0.20073678881E+02 -0.29930977870E+02 -0.50468669400E+02  0.62015341742E+02  0.51100000000E-03 0.  1.
         23    2    1    0    0    0  0.55953686459E+01 -0.11619879303E+02 -0.26797567291E+02  0.95260474818E+02  0.90499274608E+02 0.  0.
         11    1    3    3    0    0 -0.14478310235E+02  0.18311098567E+02  0.23671102109E+02  0.33245133077E+02  0.51100000000E-03 0. -1.
         22    1    1    0    0    0 -0.55953686459E+01  0.11619879303E+02  0.26797567291E+02  0.29739525182E+02  0.00000000000E+00 0.  1.
</event>
<event>
 5    1  0.6622912E-004  0.9118800E+02  0.7818608E-02  0.1130116E+00
         25   -1    0    0    0    0  0.00000000000E+00  0.00000000000E+00  0.99999998245E-14  0.12500000000E+03  0.12500000000E+03 0.  0.
        -11    1    3    3    0    0  0.24764558098E+02  0.37645862004E+01 -0.23533024028E+02  0.34369443801E+02  0.51100000000E-03 0. -1.
         23    2    1    0    0    0 -0.27320878021E+02 -0.13614745028E+02 -0.18016960430E+02  0.89554231266E+02  0.82240852479E+02 0.  0.
         11    1    3    3    0    0 -0.52085436119E+02 -0.17379331228E+02  0.55160635983E+01  0.55184787465E+02  0.51100000000E-03 0.  1.
         22    1    1    0    0    0  0.27320878021E+02  0.13614745028E+02  0.18016960430E+02  0.35445768734E+02  0.00000000000E+00 0.  1.
</event>
<event>
 5    1  0.6622912E-004  0.9118800E+02  0.7818608E-02  0.1130116E+00
         25   -1    0    0    0    0  0.00000000000E+00  0.00000000000E+00  0.99999998245E-14  0.12500000000E+03  0.12500000000E+03 0.  0.
        -11    1    3    3    0    0  0.33153572400E+02  0.16272985802E+01  0.12147013487E+00  0.33193707518E+02  0.51100000000E-03 0.  1.
         23    2    1    0    0    0 -0.26782132725E+02  0.14552373846E+02 -0.66776873119E+00  0.94512295382E+02  0.89459900768E+02 0.  0.
         11    1    3    3    0    0 -0.59935705124E+02  0.12925075265E+02 -0.78923886606E+00  0.61318587864E+02  0.51100000000E-03 0. -1.
         22    1    1    0    0    0  0.26782132725E+02 -0.14552373846E+02  0.66776873119E+00  0.30487704618E+02  0.00000000000E+00 0. -1.
</event>
<event>
 5    1  0.6622912E-004  0.9118800E+02  0.7818608E-02  0.1130116E+00
         25   -1    0    0    0    0  0.00000000000E+00  0.00000000000E+00  0.99999998245E-14  0.12500000000E+03  0.12500000000E+03 0.  0.
        -11    1    3    3    0    0 -0.38943773846E+02  0.24691030607E+02  0.41757218015E+02  0.62208759595E+02  0.51100000000E-03 0. -1.
         23    2    1    0    0    0 -0.15057604505E+02  0.90429439586E+01  0.21590166403E+02  0.97167616448E+02  0.93096208902E+02 0.  0.
         11    1    3    3    0    0  0.23886169341E+02 -0.15648086648E+02 -0.20167051611E+02  0.34958856853E+02  0.51100000000E-03 0.  1.
         22    1    1    0    0    0  0.15057604505E+02 -0.90429439586E+01 -0.21590166403E+02  0.27832383552E+02  0.00000000000E+00 0. -1.
</event>
<event>
 5    1  0.6622912E-004  0.9118800E+02  0.7818608E-02  0.1130116E+00
         25   -1    0    0    0    0  0.00000000000E+00  0.00000000000E+00  0.99999998245E-14  0.12500000000E+03  0.12500000000E+03 0.  0.
        -11    1    3    3    0    0 -0.23851148565E+01 -0.38807145908E+02  0.36857939818E-01  0.38880389725E+02  0.51100000000E-03 0. -1.
         23    2    1    0    0    0  0.28767972152E+02  0.78003257293E+01 -0.31249363143E+01  0.95029906070E+02  0.90180244607E+02 0.  0.
         11    1    3    3    0    0  0.31153087008E+02  0.46607471637E+02 -0.31617942541E+01  0.56149516345E+02  0.51100000000E-03 0.  1.
         22    1    1    0    0    0 -0.28767972152E+02 -0.78003257293E+01  0.31249363143E+01  0.29970093930E+02  0.00000000000E+00 0.  1.
</event>
<event>
 5    1  0.6622912E-004  0.9118800E+02  0.7818608E-02  0.1130116E+00
         25   -1    0    0    0    0  0.00000000000E+00  0.00000000000E+00  0.99999998245E-14  0.12500000000E+03  0.12500000000E+03 0.  0.
        -11    1    3    3    0    0  0.19973445621E+02  0.49991530037E+02 -0.12560353205E+02  0.55279780013E+02  0.51100000000E-03 0. -1.
         23    2    1    0    0    0  0.22054461949E+02  0.82925160505E+01 -0.14943865706E+02  0.97098669627E+02  0.93003588140E+02 0.  0.
         11    1    3    3    0    0  0.20810163284E+01 -0.41699013987E+02 -0.23835125014E+01  0.41818889614E+02  0.51100000000E-03 0.  1.
         22    1    1    0    0    0 -0.22054461949E+02 -0.82925160505E+01  0.14943865706E+02  0.27901330373E+02  0.00000000000E+00 0. -1.
</event>
<event>
 5    1  0.6622912E-004  0.9118800E+02  0.7818608E-02  0.1130116E+00
         25   -1    0    0    0    0  0.00000000000E+00  0.00000000000E+00  0.99999998245E-14  0.12500000000E+03  0.12500000000E+03 0.  0.
        -11    1    3    3    0    0 -0.89683447038E+01 -0.19022916999E+00  0.51325594740E+02  0.52103589795E+02  0.51100000000E-03 0.  1.
         23    2    1    0    0    0  0.16959934317E+02  0.13945921316E+02  0.18211562286E+02  0.96473011125E+02  0.92158845377E+02 0.  0.
         11    1    3    3    0    0  0.25928279021E+02  0.14136150486E+02 -0.33114032454E+02  0.44369421330E+02  0.51100000000E-03 0. -1.
         22    1    1    0    0    0 -0.16959934317E+02 -0.13945921316E+02 -0.18211562286E+02  0.28526988875E+02  0.00000000000E+00 0.  1.
</event>
<event>
 5    1  0.6622912E-004  0.9118800E+02  0.7818608E-02  0.1130116E+00
         25   -1    0    0    0    0  0.00000000000E+00  0.00000000000E+00  0.99999998245E-14  0.12500000000E+03  0.12500000000E+03 0.  0.
        -11    1    3    3    0    0  0.39955638362E+02 -0.10941716888E+02  0.38458528557E+01  0.41604864978E+02  0.51100000000E-03 0.  1.
         23    2    1    0    0    0  0.15716259051E+01  0.27841965189E+02 -0.43268331021E+01  0.96780033340E+02  0.92574339507E+02 0.  0.
         11    1    3    3    0    0 -0.38384012457E+02  0.38783682077E+02 -0.81726859578E+01  0.55175168362E+02  0.51100000000E-03 0. -1.
         22    1    1    0    0    0 -0.15716259051E+01 -0.27841965189E+02  0.43268331021E+01  0.28219966660E+02  0.00000000000E+00 0. -1.
</event>
<event>
 5    1  0.6622912E-004  0.9118800E+02  0.7818608E-02  0.1130116E+00
         25   -1    0    0    0    0  0.00000000000E+00  0.00000000000E+00  0.99999998245E-14  0.12500000000E+03  0.12500000000E+03 0.  0.
        -11    1    3    3    0    0  0.28873582403E+02  0.43936694277E+01  0.29325173489E+02  0.41387847157E+02  0.51100000000E-03 0.  1.
         23    2    1    0    0    0  0.11599447993E+02  0.14962487253E+02 -0.21650971338E+02  0.96239127648E+02  0.91841068766E+02 0.  0.
         11    1    3    3    0    0 -0.17274134410E+02  0.10568817825E+02 -0.50976144827E+02  0.54851280492E+02  0.51100000000E-03 0. -1.
         22    1    1    0    0    0 -0.11599447993E+02 -0.14962487253E+02  0.21650971338E+02  0.28760872352E+02  0.00000000000E+00 0.  1.
</event>
<event>
 5    1  0.6622912E-004  0.9118800E+02  0.7818608E-02  0.1130116E+00
         25   -1    0    0    0    0  0.00000000000E+00  0.00000000000E+00  0.99999998245E-14  0.12500000000E+03  0.12500000000E+03 0.  0.
        -11    1    3    3    0    0  0.48139786951E+02 -0.32525869566E+01 -0.24590708573E+02  0.54154606065E+02  0.51100000000E-03 0.  1.
         23    2    1    0    0    0  0.25389754065E+02  0.68191224166E+01  0.10093449027E+02  0.96839429067E+02  0.92654504837E+02 0.  0.
         11    1    3    3    0    0 -0.22750032886E+02  0.10071709373E+02  0.34684157600E+02  0.42684823002E+02  0.51100000000E-03 0. -1.
         22    1    1    0    0    0 -0.25389754065E+02 -0.68191224166E+01 -0.10093449027E+02  0.28160570933E+02  0.00000000000E+00 0.  1.
</event>
<event>
 5    1  0.6622912E-004  0.9118800E+02  0.7818608E-02  0.1130116E+00
         25   -1    0    0    0    0  0.00000000000E+00  0.00000000000E+00  0.99999998245E-14  0.12500000000E+03  0.12500000000E+03 0.  0.
        -11    1    3    3    0    0 -0.23567719685E+02 -0.10012177593E+02 -0.21806299389E+02  0.33633254446E+02  0.51100000000E-03 0.  1.
         23    2    1    0    0    0  0.23370589682E+02 -0.86749745114E+01  0.17229140844E+02  0.94696816354E+02  0.89717356673E+02 0.  0.
         11    1    3    3    0    0  0.46938309368E+02  0.13372030814E+01  0.39035440233E+02  0.61063561908E+02  0.51100000000E-03 0. -1.
         22    1    1    0    0    0 -0.23370589682E+02  0.86749745114E+01 -0.17229140844E+02  0.30303183646E+02  0.00000000000E+00 0. -1.
</event>
<event>
 5    1  0.6622912E-004  0.9118800E+02  0.7818608E-02  0.1130116E+00
         25   -1    0    0    0    0  0.00000000000E+00  0.00000000000E+00  0.99999998245E-14  0.12500000000E+03  0.12500000000E+03 0.  0.
        -11    1    3    3    0    0  0.22824807924E+02 -0.19720365002E+02  0.20430597502E+02  0.36431771397E+02  0.51100000000E-03 0.  1.
         23    2    1    0    0    0 -0.13959278467E+02 -0.69459802039E+01 -0.24544775862E+02  0.95921586728E+02  0.91407858973E+02 0.  0.
         11    1    3    3    0    0 -0.36784086391E+02  0.12774384798E+02 -0.44975373364E+02  0.59489815331E+02  0.51100000000E-03 0. -1.
         22    1    1    0    0    0  0.13959278467E+02  0.69459802039E+01  0.24544775862E+02  0.29078413272E+02  0.00000000000E+00 0. -1.
</event>
<event>
 5    1  0.6622912E-004  0.9118800E+02  0.7818608E-02  0.1130116E+00
         25   -1    0    0    0    0  0.00000000000E+00  0.00000000000E+00  0.99999998245E-14  0.12500000000E+03  0.12500000000E+03 0.  0.
        -11    1    3    3    0    0 -0.66882223491E+01 -0.46185143513E+01 -0.39001353852E+02  0.39839284577E+02  0.51100000000E-03 0. -1.
         23    2    1    0    0    0 -0.24217231577E+02  0.16471158313E+02  0.83383227017E+01  0.94548382852E+02  0.89510310652E+02 0.  0.
         11    1    3    3    0    0 -0.17529009228E+02  0.21089672664E+02  0.47339676554E+02  0.54709098276E+02  0.51100000000E-03 0.  1.
         22    1    1    0    0    0  0.24217231577E+02 -0.16471158313E+02 -0.83383227017E+01  0.30451617148E+02  0.00000000000E+00 0.  1.
</event>
<event>
 5    1  0.6622912E-004  0.9118800E+02  0.7818608E-02  0.1130116E+00
         25   -1    0    0    0    0  0.00000000000E+00  0.00000000000E+00  0.99999998245E-14  0.12500000000E+03  0.12500000000E+03 0.  0.
        -11    1    3    3    0    0 -0.20830678522E+02 -0.57010295666E+02 -0.91594387602E+00  0.60703623722E+02  0.51100000000E-03 0.  1.
         23    2    1    0    0    0 -0.13497576241E+01 -0.28329896259E+02  0.58814279627E+01  0.96034571252E+02  0.91562234644E+02 0.  0.
         11    1    3    3    0    0  0.19480920898E+02  0.28680399407E+02  0.67973718387E+01  0.35330947530E+02  0.51100000000E-03 0. -1.
         22    1    1    0    0    0  0.13497576241E+01  0.28329896259E+02 -0.58814279627E+01  0.28965428748E+02  0.00000000000E+00 0.  1.
</event>
<event>
 5    1  0.6622912E-004  0.9118800E+02  0.7818608E-02  0.1130116E+00
         25   -1    0    0    0    0  0.00000000000E+00  0.00000000000E+00  0.99999998245E-14  0.12500000000E+03  0.12500000000E+03 0.  0.
        -11    1    3    3    0    0 -0.24123980820E+02 -0.75827718222E+01  0.12980356057E+02  0.28424540853E+02  0.51100000000E-03 0.  1.
         23    2    1    0    0    0 -0.73180965538E+01  0.16079361136E+02 -0.35738704061E+02  0.85133280049E+02  0.75221805430E+02 0.  0.
         11    1    3    3    0    0  0.16805884266E+02  0.23662132958E+02 -0.48719060118E+02  0.56708739195E+02  0.51100000000E-03 0. -1.
         22    1    1    0    0    0  0.73180965538E+01 -0.16079361136E+02  0.35738704061E+02  0.39866719951E+02  0.00000000000E+00 0. -1.
</event>
<event>
 5    1  0.6622912E-004  0.9118800E+02  0.7818608E-02  0.1130116E+00
         25   -1    0    0    0    0  0.00000000000E+00  0.00000000000E+00  0.99999998245E-14  0.12500000000E+03  0.12500000000E+03 0.  0.
        -11    1    3    3    0    0  0.17367054707E+02 -0.33384953036E+02 -0.21877804176E+02  0.43529392303E+02  0.51100000000E-03 0. -1.
         23    2    1    0    0    0 -0.26413117297E+02 -0.80521317566E+01 -0.11058487497E+02  0.95254752701E+02  0.90491370722E+02 0.  0.
         11    1    3    3    0    0 -0.43780172003E+02  0.25332821280E+02  0.10819316679E+02  0.51725360398E+02  0.51100000000E-03 0.  1.
         22    1    1    0    0    0  0.26413117297E+02  0.80521317566E+01  0.11058487497E+02  0.29745247299E+02  0.00000000000E+00 0.  1.
</event>
<event>
 5    1  0.6622912E-004  0.9118800E+02  0.7818608E-02  0.1130116E+00
         25   -1    0    0    0    0  0.00000000000E+00  0.00000000000E+00  0.99999998245E-14  0.12500000000E+03  0.12500000000E+03 0.  0.
        -11    1    3    3    0    0 -0.45712953353E+02  0.31555571892E+02  0.25844269294E+02  0.61264626640E+02  0.51100000000E-03 0.  1.
         23    2    1    0    0    0 -0.22503316319E+02  0.81259959381E+01  0.17712102474E+02  0.95231734525E+02  0.90459569042E+02 0.  0.
         11    1    3    3    0    0  0.23209637034E+02 -0.23429575954E+02 -0.81321668205E+01  0.33967107885E+02  0.51100000000E-03 0. -1.
         22    1    1    0    0    0  0.22503316319E+02 -0.81259959381E+01 -0.17712102474E+02  0.29768265475E+02  0.00000000000E+00 0.  1.
</event>
<event>
 5    1  0.6622912E-004  0.9118800E+02  0.7818608E-02  0.1130116E+00
         25   -1    0    0    0    0  0.00000000000E+00  0.00000000000E+00  0.99999998245E-14  0.12500000000E+03  0.12500000000E+03 0.  0.
        -11    1    3    3    0    0 -0.26679954592E+02  0.78564306370E+01  0.38571603413E+02  0.47553255088E+02  0.51100000000E-03 0.  1.
         23    2    1    0    0    0  0.24917368441E+01  0.28444574998E+02  0.61291975371E+01  0.95796067700E+02  0.91236050578E+02 0.  0.
         11    1    3    3    0    0  0.29171691436E+02  0.20588144361E+02 -0.32442405876E+02  0.48242812612E+02  0.51100000000E-03 0. -1.
         22    1    1    0    0    0 -0.24917368441E+01 -0.28444574998E+02 -0.61291975371E+01  0.29203932300E+02  0.00000000000E+00 0. -1.
</event>
<event>
 5    1  0.6622912E-004  0.9118800E+02  0.7818608E-02  0.1130116E+00
         25   -1    0    0    0    0  0.00000000000E+00  0.00000000000E+00  0.99999998245E-14  0.12500000000E+03  0.12500000000E+03 0.  0.
        -11    1    3    3    0    0 -0.11686846512E+02  0.15268726954E+02 -0.30474184349E+02  0.36033211294E+02  0.51100000000E-03 0. -1.
         23    2    1    0    0    0  0.18674175416E+02 -0.68799799203E+01  0.18542751009E+02  0.97799033728E+02  0.93940185394E+02 0.  0.
         11    1    3    3    0    0  0.30361021928E+02 -0.22148706874E+02  0.49016935358E+02  0.61765822433E+02  0.51100000000E-03 0.  1.
         22    1    1    0    0    0 -0.18674175416E+02  0.68799799203E+01 -0.18542751009E+02  0.27200966272E+02  0.00000000000E+00 0.  1.
</event>
<event>
 5    1  0.6622912E-004  0.9118800E+02  0.7818608E-02  0.1130116E+00
         25   -1    0    0    0    0  0.00000000000E+00  0.00000000000E+00  0.99999998245E-14  0.12500000000E+03  0.12500000000E+03 0.  0.
        -11    1    3    3    0    0  0.47748898050E+02  0.28846252488E+02 -0.31291690331E+01  0.55873564829E+02  0.51100000000E-03 0. -1.
         23    2    1    0    0    0  0.17428224676E+02  0.12997504784E+02  0.18586979475E+02  0.96396609433E+02  0.92055159324E+02 0.  0.
         11    1    3    3    0    0 -0.30320673375E+02 -0.15848747704E+02  0.21716148508E+02  0.40523044604E+02  0.51100000000E-03 0.  1.
         22    1    1    0    0    0 -0.17428224676E+02 -0.12997504784E+02 -0.18586979475E+02  0.28603390567E+02  0.00000000000E+00 0. -1.
</event>
<event>
 5    1  0.6622912E-004  0.9118800E+02  0.7818608E-02  0.1130116E+00
         25   -1    0    0    0    0  0.00000000000E+00  0.00000000000E+00  0.99999998245E-14  0.12500000000E+03  0.12500000000E+03 0.  0.
        -11    1    3    3    0    0 -0.15919231812E+02  0.30305851353E+01  0.17145060594E+01  0.16295579739E+02  0.51100000000E-03 0.  1.
         23    2    1    0    0    0  0.22007715403E+02  0.32061964923E+01 -0.44002173597E+02  0.75696749454E+02  0.57438552936E+02 0.  0.
         11    1    3    3    0    0  0.37926947215E+02  0.17561135706E+00 -0.45716679656E+02  0.59401169714E+02  0.51100000000E-03 0. -1.
         22    1    1    0    0    0 -0.22007715403E+02 -0.32061964923E+01  0.44002173597E+02  0.49303250546E+02  0.00000000000E+00 0. -1.
</event>
<event>
 5    1  0.6622912E-004  0.9118800E+02  0.7818608E-02  0.1130116E+00
         25   -1    0    0    0    0  0.00000000000E+00  0.00000000000E+00  0.99999998245E-14  0.12500000000E+03  0.12500000000E+03 0.  0.
        -11    1    3    3    0    0  0.57297230607E+01 -0.17770897996E+02 -0.30533505643E+02  0.35790075566E+02  0.51100000000E-03 0. -1.
         23    2    1    0    0    0  0.18900406115E+02  0.17973364833E+02  0.14806282618E+02  0.95008447861E+02  0.90150496200E+02 0.  0.
         11    1    3    3    0    0  0.13170683054E+02  0.35744262829E+02  0.45339788262E+02  0.59218372294E+02  0.51100000000E-03 0.  1.
         22    1    1    0    0    0 -0.18900406115E+02 -0.17973364833E+02 -0.14806282618E+02  0.29991552139E+02  0.00000000000E+00 0.  1.
</event>
<event>
 5    1  0.6622912E-004  0.9118800E+02  0.7818608E-02  0.1130116E+00
         25   -1    0    0    0    0  0.00000000000E+00  0.00000000000E+00  0.99999998245E-14  0.12500000000E+03  0.12500000000E+03 0.  0.
        -11    1    3    3    0    0  0.14457539695E+02 -0.12805532753E+02 -0.31746391024E+02  0.37159594541E+02  0.51100000000E-03 0. -1.
         23    2    1    0    0    0  0.87513519569E+01 -0.88836276013E+01  0.26445437653E+02  0.95761905447E+02  0.91189233804E+02 0.  0.
         11    1    3    3    0    0 -0.57061877380E+01  0.39219051513E+01  0.58191828677E+02  0.58602310906E+02  0.51100000000E-03 0.  1.
         22    1    1    0    0    0 -0.87513519569E+01  0.88836276013E+01 -0.26445437653E+02  0.29238094553E+02  0.00000000000E+00 0.  1.
</event>
<event>
 5    1  0.6622912E-004  0.9118800E+02  0.7818608E-02  0.1130116E+00
         25   -1    0    0    0    0  0.00000000000E+00  0.00000000000E+00  0.99999998245E-14  0.12500000000E+03  0.12500000000E+03 0.  0.
        -11    1    3    3    0    0 -0.50383370134E+02 -0.31124741976E+02  0.15486961387E+02  0.61213393325E+02  0.51100000000E-03 0. -1.
         23    2    1    0    0    0 -0.27915966083E+02 -0.68534561771E+01  0.85936993306E+01  0.94997955201E+02  0.90135946216E+02 0.  0.
         11    1    3    3    0    0  0.22467404051E+02  0.24271285799E+02 -0.68932620565E+01  0.33784561876E+02  0.51100000000E-03 0.  1.
         22    1    1    0    0    0  0.27915966083E+02  0.68534561771E+01 -0.85936993306E+01  0.30002044799E+02  0.00000000000E+00 0. -1.
</event>
<event>
 5    1  0.6622912E-004  0.9118800E+02  0.7818608E-02  0.1130116E+00
         25   -1    0    0    0    0  0.00000000000E+00  0.00000000000E+00  0.99999998245E-14  0.12500000000E+03  0.12500000000E+03 0.  0.
        -11    1    3    3    0    0 -0.20743606022E+02 -0.12479866429E+02  0.29877578704E+02  0.38454050065E+02  0.51100000000E-03 0.  1.
         23    2    1    0    0    0 -0.23582057759E+02 -0.75370781611E+01 -0.22742786825E+02  0.91382216790E+02  0.84973844196E+02 0.  0.
         11    1    3    3    0    0 -0.28384517372E+01  0.49427882683E+01 -0.52620365530E+02  0.52928166725E+02  0.51100000000E-03 0. -1.
         22    1    1    0    0    0  0.23582057759E+02  0.75370781611E+01  0.22742786825E+02  0.33617783210E+02  0.00000000000E+00 0.  1.
</event>
<event>
 5    1  0.6622912E-004  0.9118800E+02  0.7818608E-02  0.1130116E+00
         25   -1    0    0    0    0  0.00000000000E+00  0.00000000000E+00  0.99999998245E-14  0.12500000000E+03  0.12500000000E+03 0.  0.
        -11    1    3    3    0    0 -0.18647073256E+02 -0.32656201768E+02  0.14818250016E+02  0.40419319499E+02  0.51100000000E-03 0. -1.
         23    2    1    0    0    0  0.28438474849E+02 -0.66558875721E+01  0.19286904855E+01  0.95729408306E+02  0.91144676622E+02 0.  0.
         11    1    3    3    0    0  0.47085548106E+02  0.26000314196E+02 -0.12889559531E+02  0.55310088807E+02  0.51100000000E-03 0.  1.
         22    1    1    0    0    0 -0.28438474849E+02  0.66558875721E+01 -0.19286904855E+01  0.29270591694E+02  0.00000000000E+00 0.  1.
</event>
<event>
 5    1  0.6622912E-004  0.9118800E+02  0.7818608E-02  0.1130116E+00
         25   -1    0    0    0    0  0.00000000000E+00  0.00000000000E+00  0.99999998245E-14  0.12500000000E+03  0.12500000000E+03 0.  0.
        -11    1    3    3    0    0 -0.47908684318E+02 -0.32928586867E+02 -0.25374553040E+01  0.58189110199E+02  0.51100000000E-03 0. -1.
         23    2    1    0    0    0 -0.27139126794E+02 -0.37277901969E+01 -0.11756590596E+02  0.95189833188E+02  0.90401649858E+02 0.  0.
         11    1    3    3    0    0  0.20769557524E+02  0.29200796670E+02 -0.92191352922E+01  0.37000722989E+02  0.51100000000E-03 0.  1.
         22    1    1    0    0    0  0.27139126794E+02  0.37277901969E+01  0.11756590596E+02  0.29810166812E+02  0.00000000000E+00 0. -1.
</event>
<event>
 5    1  0.6622912E-004  0.9118800E+02  0.7818608E-02  0.1130116E+00
         25   -1    0    0    0    0  0.00000000000E+00  0.00000000000E+00  0.99999998245E-14  0.12500000000E+03  0.12500000000E+03 0.  0.
        -11    1    3    3    0    0  0.28508162604E+02  0.54415011926E+01  0.41629539061E+01  0.29319881578E+02  0.51100000000E-03 0.  1.
         23    2    1    0    0    0 -0.29679120929E+02 -0.15639593596E+02  0.40530692744E+01  0.91208366753E+02  0.84717717677E+02 0.  0.
         11    1    3    3    0    0 -0.58187283532E+02 -0.21081094789E+02 -0.10988463162E+00  0.61888485175E+02  0.51100000000E-03 0. -1.
         22    1    1    0    0    0  0.29679120929E+02  0.15639593596E+02 -0.40530692744E+01  0.33791633247E+02  0.00000000000E+00 0. -1.
</event>
<event>
 5    1  0.6622912E-004  0.9118800E+02  0.7818608E-02  0.1130116E+00
         25   -1    0    0    0    0  0.00000000000E+00  0.00000000000E+00  0.99999998245E-14  0.12500000000E+03  0.12500000000E+03 0.  0.
        -11    1    3    3    0    0 -0.38395932024E+02  0.41742455880E+00  0.16934507302E+02  0.41966646007E+02  0.51100000000E-03 0. -1.
         23    2    1    0    0    0  0.13318148883E+01 -0.30548603870E+02  0.27351432974E+01  0.94300294168E+02  0.89163184903E+02 0.  0.
         11    1    3    3    0    0  0.39727746913E+02 -0.30966028429E+02 -0.14199364004E+02  0.52333648161E+02  0.51100000000E-03 0.  1.
         22    1    1    0    0    0 -0.13318148883E+01  0.30548603870E+02 -0.27351432974E+01  0.30699705832E+02  0.00000000000E+00 0.  1.
</event>
<event>
 5    1  0.6622912E-004  0.9118800E+02  0.7818608E-02  0.1130116E+00
         25   -1    0    0    0    0  0.00000000000E+00  0.00000000000E+00  0.99999998245E-14  0.12500000000E+03  0.12500000000E+03 0.  0.
        -11    1    3    3    0    0 -0.19896333691E+02  0.15412207555E+02  0.96876181001E+01  0.26967576472E+02  0.51100000000E-03 0.  1.
         23    2    1    0    0    0  0.29614611492E+02 -0.16409437912E+02 -0.11074781915E+02  0.89377736444E+02  0.81972154486E+02 0.  0.
         11    1    3    3    0    0  0.49510945183E+02 -0.31821645467E+02 -0.20762400015E+02  0.62410159972E+02  0.51100000000E-03 0. -1.
         22    1    1    0    0    0 -0.29614611492E+02  0.16409437912E+02  0.11074781915E+02  0.35622263556E+02  0.00000000000E+00 0. -1.
</event>
<event>
 5    1  0.6622912E-004  0.9118800E+02  0.7818608E-02  0.1130116E+00
         25   -1    0    0    0    0  0.00000000000E+00  0.00000000000E+00  0.99999998245E-14  0.12500000000E+03  0.12500000000E+03 0.  0.
        -11    1    3    3    0    0  0.18187060976E+01  0.14237436669E+02  0.30372850997E+02  0.33593487058E+02  0.51100000000E-03 0.  1.
         23    2    1    0    0    0 -0.12482215458E+02 -0.70903008889E+01 -0.25866016752E+02  0.95417422492E+02  0.90715795885E+02 0.  0.
         11    1    3    3    0    0 -0.14300921555E+02 -0.21327737558E+02 -0.56238867748E+02  0.61823935434E+02  0.51100000000E-03 0. -1.
         22    1    1    0    0    0  0.12482215458E+02  0.70903008889E+01  0.25866016752E+02  0.29582577508E+02  0.00000000000E+00 0. -1.
</event>
<event>
 5    1  0.6622912E-004  0.9118800E+02  0.7818608E-02  0.1130116E+00
         25   -1    0    0    0    0  0.00000000000E+00  0.00000000000E+00  0.99999998245E-14  0.12500000000E+03  0.12500000000E+03 0.  0.
        -11    1    3    3    0    0 -0.51423730466E+02  0.50558442437E+01 -0.30232381127E+02  0.59866171457E+02  0.51100000000E-03 0. -1.
         23    2    1    0    0    0 -0.36528841075E+02  0.12674613762E+02 -0.12220074533E+02  0.84449632728E+02  0.74077042206E+02 0.  0.
         11    1    3    3    0    0  0.14894889391E+02  0.76187695179E+01  0.18012306594E+02  0.24583461271E+02  0.51100000000E-03 0.  1.
         22    1    1    0    0    0  0.36528841075E+02 -0.12674613762E+02  0.12220074533E+02  0.40550367272E+02  0.00000000000E+00 0. -1.
</event>
<event>
 5    1  0.6622912E-004  0.9118800E+02  0.7818608E-02  0.1130116E+00
         25   -1    0    0    0    0  0.00000000000E+00  0.00000000000E+00  0.99999998245E-14  0.12500000000E+03  0.12500000000E+03 0.  0.
        -11    1    3    3    0    0  0.13070395547E+02 -0.43142266941E+02 -0.29730539262E+02  0.53999957423E+02  0.51100000000E-03 0.  1.
         23    2    1    0    0    0 -0.15357442501E+02 -0.21674495605E+02 -0.35692013670E+01  0.98197500148E+02  0.94468910426E+02 0.  0.
         11    1    3    3    0    0 -0.28427838048E+02  0.21467771336E+02  0.26161337895E+02  0.44197542725E+02  0.51100000000E-03 0. -1.
         22    1    1    0    0    0  0.15357442501E+02  0.21674495605E+02  0.35692013670E+01  0.26802499852E+02  0.00000000000E+00 0.  1.
</event>
<event>
 5    1  0.6622912E-004  0.9118800E+02  0.7818608E-02  0.1130116E+00
         25   -1    0    0    0    0  0.00000000000E+00  0.00000000000E+00  0.99999998245E-14  0.12500000000E+03  0.12500000000E+03 0.  0.
        -11    1    3    3    0    0 -0.36230051862E+02  0.36827579209E+01  0.23889204585E+01  0.36495017537E+02  0.51100000000E-03 0.  1.
         23    2    1    0    0    0  0.22833864156E+02  0.15621721358E+02 -0.38145591927E+01  0.97071978367E+02  0.92967707252E+02 0.  0.
         11    1    3    3    0    0  0.59063916018E+02  0.11938963437E+02 -0.62034796512E+01  0.60576960830E+02  0.51100000000E-03 0. -1.
         22    1    1    0    0    0 -0.22833864156E+02 -0.15621721358E+02  0.38145591927E+01  0.27928021633E+02  0.00000000000E+00 0. -1.
</event>
<event>
 5    1  0.6622912E-004  0.9118800E+02  0.7818608E-02  0.1130116E+00
         25   -1    0    0    0    0  0.00000000000E+00  0.00000000000E+00  0.99999998245E-14  0.12500000000E+03  0.12500000000E+03 0.  0.
        -11    1    3    3    0    0 -0.35354637103E+02  0.12809421970E+02 -0.17714390360E+02  0.41567189969E+02  0.51100000000E-03 0. -1.
         23    2    1    0    0    0  0.15184420549E+02  0.20674586933E+02  0.70540246429E+01  0.98396157497E+02  0.94731406483E+02 0.  0.
         11    1    3    3    0    0  0.50539057652E+02  0.78651649631E+01  0.24768415003E+02  0.56828967528E+02  0.51100000000E-03 0.  1.
         22    1    1    0    0    0 -0.15184420549E+02 -0.20674586933E+02 -0.70540246429E+01  0.26603842503E+02  0.00000000000E+00 0.  1.
</event>
<event>
 5    1  0.6622912E-004  0.9118800E+02  0.7818608E-02  0.1130116E+00
         25   -1    0    0    0    0  0.00000000000E+00  0.00000000000E+00  0.99999998245E-14  0.12500000000E+03  0.12500000000E+03 0.  0.
        -11    1    3    3    0    0  0.54404765388E+02  0.90888551465E+01 -0.26157177066E+02  0.61046569904E+02  0.51100000000E-03 0.  1.
         23    2    1    0    0    0  0.23896804365E+02  0.12323613422E+02 -0.69970406820E+01  0.97217140447E+02  0.93162680897E+02 0.  0.
         11    1    3    3    0    0 -0.30507961023E+02  0.32347582754E+01  0.19160136384E+02  0.36170570543E+02  0.51100000000E-03 0. -1.
         22    1    1    0    0    0 -0.23896804365E+02 -0.12323613422E+02  0.69970406820E+01  0.27782859553E+02  0.00000000000E+00 0.  1.
</event>
<event>
 5    1  0.6622912E-004  0.9118800E+02  0.7818608E-02  0.1130116E+00
         25   -1    0    0    0    0  0.00000000000E+00  0.00000000000E+00  0.99999998245E-14  0.12500000000E+03  0.12500000000E+03 0.  0.
        -11    1    3    3    0    0 -0.44628670906E+01  0.14903565813E+02  0.44108954252E+02  0.46772142372E+02  0.51100000000E-03 0.  1.
         23    2    1    0    0    0 -0.17396032656E+01 -0.24728208649E+02  0.18992506988E+02  0.93771393816E+02  0.88418597896E+02 0.  0.
         11    1    3    3    0    0  0.27232638250E+01 -0.39631774462E+02 -0.25116447264E+02  0.46999251444E+02  0.51100000000E-03 0. -1.
         22    1    1    0    0    0  0.17396032656E+01  0.24728208649E+02 -0.18992506988E+02  0.31228606184E+02  0.00000000000E+00 0.  1.
</event>
<event>
 5    1  0.6622912E-004  0.9118800E+02  0.7818608E-02  0.1130116E+00
         25   -1    0    0    0    0  0.00000000000E+00  0.00000000000E+00  0.99999998245E-14  0.12500000000E+03  0.12500000000E+03 0.  0.
        -11    1    3    3    0    0 -0.37619023238E+02  0.29683765294E+02 -0.13980830747E+02  0.49917736928E+02  0.51100000000E-03 0.  1.
         23    2    1    0    0    0 -0.28373779547E+02 -0.45187381256E+01  0.12010813753E+02  0.93859190649E+02  0.88542631892E+02 0.  0.
         11    1    3    3    0    0  0.92452436915E+01 -0.34202503419E+02  0.25991644500E+02  0.43941453721E+02  0.51100000000E-03 0. -1.
         22    1    1    0    0    0  0.28373779547E+02  0.45187381256E+01 -0.12010813753E+02  0.31140809351E+02  0.00000000000E+00 0. -1.
</event>
<event>
 5    1  0.6622912E-004  0.9118800E+02  0.7818608E-02  0.1130116E+00
         25   -1    0    0    0    0  0.00000000000E+00  0.00000000000E+00  0.99999998245E-14  0.12500000000E+03  0.12500000000E+03 0.  0.
        -11    1    3    3    0    0  0.37947222241E+02 -0.27787839226E+02 -0.33781280700E+02  0.57907949460E+02  0.51100000000E-03 0.  1.
         23    2    1    0    0    0  0.14261547594E+02  0.41232820020E+01 -0.20253946928E+02  0.99887939941E+02  0.96679806502E+02 0.  0.
         11    1    3    3    0    0 -0.23685674647E+02  0.31911121228E+02  0.13527333771E+02  0.41979990481E+02  0.51100000000E-03 0. -1.
         22    1    1    0    0    0 -0.14261547594E+02 -0.41232820020E+01  0.20253946928E+02  0.25112060059E+02  0.00000000000E+00 0.  1.
</event>
<event>
 5    1  0.6622912E-004  0.9118800E+02  0.7818608E-02  0.1130116E+00
         25   -1    0    0    0    0  0.00000000000E+00  0.00000000000E+00  0.99999998245E-14  0.12500000000E+03  0.12500000000E+03 0.  0.
        -11    1    3    3    0    0  0.47806700632E+01 -0.30587991325E+01 -0.35018290339E+02  0.35475226805E+02  0.51100000000E-03 0. -1.
         23    2    1    0    0    0  0.21021106328E+02 -0.68221533491E+01  0.21358654786E+02  0.94265315654E+02  0.89114134196E+02 0.  0.
         11    1    3    3    0    0  0.16240436265E+02 -0.37633542165E+01  0.56376945124E+02  0.58790088849E+02  0.51100000000E-03 0.  1.
         22    1    1    0    0    0 -0.21021106328E+02  0.68221533491E+01 -0.21358654786E+02  0.30734684346E+02  0.00000000000E+00 0.  1.
</event>
<event>
 5    1  0.6622912E-004  0.9118800E+02  0.7818608E-02  0.1130116E+00
         25   -1    0    0    0    0  0.00000000000E+00  0.00000000000E+00  0.99999998245E-14  0.12500000000E+03  0.12500000000E+03 0.  0.
        -11    1    3    3    0    0  0.29864812886E+02  0.15525149513E+02  0.19830102098E+02  0.39066229221E+02  0.51100000000E-03 0. -1.
         23    2    1    0    0    0 -0.15084939814E+02  0.20136099094E+02 -0.14632853347E+02  0.95894359774E+02  0.91370618600E+02 0.  0.
         11    1    3    3    0    0 -0.44949752700E+02  0.46109495809E+01 -0.34462955445E+02  0.56828130552E+02  0.51100000000E-03 0.  1.
         22    1    1    0    0    0  0.15084939814E+02 -0.20136099094E+02  0.14632853347E+02  0.29105640226E+02  0.00000000000E+00 0.  1.
</event>
<event>
 5    1  0.6622912E-004  0.9118800E+02  0.7818608E-02  0.1130116E+00
         25   -1    0    0    0    0  0.00000000000E+00  0.00000000000E+00  0.99999998245E-14  0.12500000000E+03  0.12500000000E+03 0.  0.
        -11    1    3    3    0    0  0.35789704504E+02 -0.32214433571E+01 -0.40260287287E+02  0.53964538157E+02  0.51100000000E-03 0.  1.
         23    2    1    0    0    0  0.18998119610E+02  0.19751442971E+02 -0.91929773895E+01  0.96093964619E+02  0.91643282104E+02 0.  0.
         11    1    3    3    0    0 -0.16791584894E+02  0.22972886329E+02  0.31067309898E+02  0.42129426462E+02  0.51100000000E-03 0. -1.
         22    1    1    0    0    0 -0.18998119610E+02 -0.19751442971E+02  0.91929773895E+01  0.28906035381E+02  0.00000000000E+00 0.  1.
</event>
<event>
 5    1  0.6622912E-004  0.9118800E+02  0.7818608E-02  0.1130116E+00
         25   -1    0    0    0    0  0.00000000000E+00  0.00000000000E+00  0.99999998245E-14  0.12500000000E+03  0.12500000000E+03 0.  0.
        -11    1    3    3    0    0 -0.31461192749E+02 -0.19703869581E+02 -0.30538339389E+01  0.37247483508E+02  0.51100000000E-03 0. -1.
         23    2    1    0    0    0  0.18260930046E+02  0.43183809479E+01 -0.22417905419E+02  0.95765218258E+02  0.91193774812E+02 0.  0.
         11    1    3    3    0    0  0.49722122795E+02  0.24022250529E+02 -0.19364071480E+02  0.58517734750E+02  0.51100000000E-03 0.  1.
         22    1    1    0    0    0 -0.18260930046E+02 -0.43183809479E+01  0.22417905419E+02  0.29234781742E+02  0.00000000000E+00 0.  1.
</event>
<event>
 5    1  0.6622912E-004  0.9118800E+02  0.7818608E-02  0.1130116E+00
         25   -1    0    0    0    0  0.00000000000E+00  0.00000000000E+00  0.99999998245E-14  0.12500000000E+03  0.12500000000E+03 0.  0.
        -11    1    3    3    0    0  0.40390706866E+02 -0.64295792085E+01 -0.15314966624E+02  0.43672610328E+02  0.51100000000E-03 0.  1.
         23    2    1    0    0    0 -0.94132238118E+01 -0.23966779106E+02 -0.12038941523E+02  0.96575514142E+02  0.92297771022E+02 0.  0.
         11    1    3    3    0    0 -0.49803930678E+02 -0.17537199898E+02  0.32760251008E+01  0.52902903814E+02  0.51100000000E-03 0. -1.
         22    1    1    0    0    0  0.94132238118E+01  0.23966779106E+02  0.12038941523E+02  0.28424485858E+02  0.00000000000E+00 0. -1.
</event>
<event>
 5    1  0.6622912E-004  0.9118800E+02  0.7818608E-02  0.1130116E+00
         25   -1    0    0    0    0  0.00000000000E+00  0.00000000000E+00  0.99999998245E-14  0.12500000000E+03  0.12500000000E+03 0.  0.
        -11    1    3    3    0    0 -0.23419656077E+02 -0.41383611785E+02  0.15210051587E+02  0.49924235443E+02  0.51100000000E-03 0. -1.
         23    2    1    0    0    0  0.17252976462E+02 -0.21181276486E+02  0.44548577567E+00  0.97677662472E+02  0.93778545617E+02 0.  0.
         11    1    3    3    0    0  0.40672632539E+02  0.20202335298E+02 -0.14764565811E+02  0.47753427029E+02  0.51100000000E-03 0.  1.
         22    1    1    0    0    0 -0.17252976462E+02  0.21181276486E+02 -0.44548577567E+00  0.27322337528E+02  0.00000000000E+00 0. -1.
</event>
<event>
 5    1  0.6622912E-004  0.9118800E+02  0.7818608E-02  0.1130116E+00
         25   -1    0    0    0    0  0.00000000000E+00  0.00000000000E+00  0.99999998245E-14  0.12500000000E+03  0.12500000000E+03 0.  0.
        -11    1    3    3    0    0  0.24758375223E+02 -0.10994160278E+02  0.20888526317E+02  0.34207882657E+02  0.51100000000E-03 0. -1.
         23    2    1    0    0    0 -0.26010499820E+02  0.35390367472E+01 -0.11698430528E+02  0.96261103730E+02  0.91870974375E+02 0.  0.
         11    1    3    3    0    0 -0.50768875043E+02  0.14533197026E+02 -0.32586956845E+02  0.62053221073E+02  0.51100000000E-03 0.  1.
         22    1    1    0    0    0  0.26010499820E+02 -0.35390367472E+01  0.11698430528E+02  0.28738896270E+02  0.00000000000E+00 0.  1.
</event>
<event>
 5    1  0.6622912E-004  0.9118800E+02  0.7818608E-02  0.1130116E+00
         25   -1    0    0    0    0  0.00000000000E+00  0.00000000000E+00  0.99999998245E-14  0.12500000000E+03  0.12500000000E+03 0.  0.
        -11    1    3    3    0    0 -0.42636729930E+02  0.22529546998E+02  0.13357085841E+02  0.50038814630E+02  0.51100000000E-03 0.  1.
         23    2    1    0    0    0 -0.92342204363E+01  0.23480483487E+02  0.28680597250E+02  0.86800777620E+02  0.77943533439E+02 0.  0.
         11    1    3    3    0    0  0.33402509494E+02  0.95093648900E+00  0.15323511409E+02  0.36761962990E+02  0.51100000000E-03 0. -1.
         22    1    1    0    0    0  0.92342204363E+01 -0.23480483487E+02 -0.28680597250E+02  0.38199222380E+02  0.00000000000E+00 0.  1.
</event>
<event>
 5    1  0.6622912E-004  0.9118800E+02  0.7818608E-02  0.1130116E+00
         25   -1    0    0    0    0  0.00000000000E+00  0.00000000000E+00  0.99999998245E-14  0.12500000000E+03  0.12500000000E+03 0.  0.
        -11    1    3    3    0    0  0.29449133193E+02 -0.15938156543E+02 -0.23147979443E-01  0.33485471714E+02  0.51100000000E-03 0.  1.
         23    2    1    0    0    0 -0.19569826537E+02  0.21896770265E+02 -0.30046124588E+01  0.95479255518E+02  0.90800957482E+02 0.  0.
         11    1    3    3    0    0 -0.49018959730E+02  0.37834926809E+02 -0.29814644793E+01  0.61993783804E+02  0.51100000000E-03 0. -1.
         22    1    1    0    0    0  0.19569826537E+02 -0.21896770265E+02  0.30046124588E+01  0.29520744482E+02  0.00000000000E+00 0. -1.
</event>
<event>
 5    1  0.6622912E-004  0.9118800E+02  0.7818608E-02  0.1130116E+00
         25   -1    0    0    0    0  0.00000000000E+00  0.00000000000E+00  0.99999998245E-14  0.12500000000E+03  0.12500000000E+03 0.  0.
        -11    1    3    3    0    0 -0.16615040959E+02  0.39786985916E+02 -0.80467080931E+01  0.43861296672E+02  0.51100000000E-03 0.  1.
         23    2    1    0    0    0 -0.13650113028E+02 -0.16792110485E+02  0.65908557922E+01  0.10237833029E+03  0.99847797039E+02 0.  0.
         11    1    3    3    0    0  0.29649279309E+01 -0.56579096401E+02  0.14637563885E+02  0.58517033622E+02  0.51100000000E-03 0. -1.
         22    1    1    0    0    0  0.13650113028E+02  0.16792110485E+02 -0.65908557922E+01  0.22621669706E+02  0.00000000000E+00 0. -1.
</event>
<event>
 5    1  0.6622912E-004  0.9118800E+02  0.7818608E-02  0.1130116E+00
         25   -1    0    0    0    0  0.00000000000E+00  0.00000000000E+00  0.99999998245E-14  0.12500000000E+03  0.12500000000E+03 0.  0.
        -11    1    3    3    0    0  0.16493462130E-02 -0.27527163805E+02 -0.37204299327E+02  0.46280715623E+02  0.51100000000E-03 0.  1.
         23    2    1    0    0    0 -0.27313443497E+02 -0.69852812874E+01  0.95451708787E-02  0.96807475434E+02  0.92611386224E+02 0.  0.
         11    1    3    3    0    0 -0.27315092843E+02  0.20541882518E+02  0.37213844498E+02  0.50526759811E+02  0.51100000000E-03 0. -1.
         22    1    1    0    0    0  0.27313443497E+02  0.69852812874E+01 -0.95451708787E-02  0.28192524566E+02  0.00000000000E+00 0.  1.
</event>
<event>
 5    1  0.6622912E-004  0.9118800E+02  0.7818608E-02  0.1130116E+00
         25   -1    0    0    0    0  0.00000000000E+00  0.00000000000E+00  0.99999998245E-14  0.12500000000E+03  0.12500000000E+03 0.  0.
        -11    1    3    3    0    0  0.17943027204E+02 -0.55928879907E+02 -0.42862486523E+01  0.58892815866E+02  0.51100000000E-03 0. -1.
         23    2    1    0    0    0 -0.43236355793E+01 -0.27419122007E+02  0.62027037742E+01  0.96557503444E+02  0.92273375689E+02 0.  0.
         11    1    3    3    0    0 -0.22266662783E+02  0.28509757901E+02  0.10488952426E+02  0.37664687577E+02  0.51100000000E-03 0.  1.
         22    1    1    0    0    0  0.43236355793E+01  0.27419122007E+02 -0.62027037742E+01  0.28442496556E+02  0.00000000000E+00 0. -1.
</event>
<event>
 5    1  0.6622912E-004  0.9118800E+02  0.7818608E-02  0.1130116E+00
         25   -1    0    0    0    0  0.00000000000E+00  0.00000000000E+00  0.99999998245E-14  0.12500000000E+03  0.12500000000E+03 0.  0.
        -11    1    3    3    0    0 -0.74957286895E+01 -0.20503974948E+02  0.45107913871E+02  0.50113100396E+02  0.51100000000E-03 0.  1.
         23    2    1    0    0    0 -0.26956296657E+02 -0.69157964561E+01  0.49893170716E+01  0.96726983625E+02  0.92502680536E+02 0.  0.
         11    1    3    3    0    0 -0.19460567968E+02  0.13588178492E+02 -0.40118596799E+02  0.46613883229E+02  0.51100000000E-03 0. -1.
         22    1    1    0    0    0  0.26956296657E+02  0.69157964561E+01 -0.49893170716E+01  0.28273016375E+02  0.00000000000E+00 0.  1.
</event>
<event>
 5    1  0.6622912E-004  0.9118800E+02  0.7818608E-02  0.1130116E+00
         25   -1    0    0    0    0  0.00000000000E+00  0.00000000000E+00  0.99999998245E-14  0.12500000000E+03  0.12500000000E+03 0.  0.
        -11    1    3    3    0    0  0.20406920555E+02 -0.25094564050E+02 -0.36902514152E+02  0.49071122897E+02  0.51100000000E-03 0.  1.
         23    2    1    0    0    0 -0.19448389791E+02 -0.12500556839E+02 -0.20920963008E+02  0.93820030790E+02  0.88487330718E+02 0.  0.
         11    1    3    3    0    0 -0.39855310345E+02  0.12594007211E+02  0.15981551144E+02  0.44748907893E+02  0.51100000000E-03 0. -1.
         22    1    1    0    0    0  0.19448389791E+02  0.12500556839E+02  0.20920963008E+02  0.31179969210E+02  0.00000000000E+00 0.  1.
</event>
<event>
 5    1  0.6622912E-004  0.9118800E+02  0.7818608E-02  0.1130116E+00
         25   -1    0    0    0    0  0.00000000000E+00  0.00000000000E+00  0.99999998245E-14  0.12500000000E+03  0.12500000000E+03 0.  0.
        -11    1    3    3    0    0 -0.79160444519E+01  0.42445700846E+01 -0.53917254638E+02  0.54660319089E+02  0.51100000000E-03 0.  1.
         23    2    1    0    0    0  0.80277842591E+01  0.20048001848E+02 -0.18651255988E+02  0.96465160801E+02  0.92148196945E+02 0.  0.
         11    1    3    3    0    0  0.15943828711E+02  0.15803431763E+02  0.35265998651E+02  0.41804841712E+02  0.51100000000E-03 0. -1.
         22    1    1    0    0    0 -0.80277842591E+01 -0.20048001848E+02  0.18651255988E+02  0.28534839199E+02  0.00000000000E+00 0.  1.
</event>
<event>
 5    1  0.6622912E-004  0.9118800E+02  0.7818608E-02  0.1130116E+00
         25   -1    0    0    0    0  0.00000000000E+00  0.00000000000E+00  0.99999998245E-14  0.12500000000E+03  0.12500000000E+03 0.  0.
        -11    1    3    3    0    0  0.10937500712E+02  0.65051418005E+01 -0.43930824463E+02  0.45736890252E+02  0.51100000000E-03 0. -1.
         23    2    1    0    0    0 -0.26453338413E+02  0.52691185709E+01 -0.10032151975E+02  0.96221765222E+02  0.91817434649E+02 0.  0.
         11    1    3    3    0    0 -0.37390839125E+02 -0.12360232296E+01  0.33898672489E+02  0.50484874969E+02  0.51100000000E-03 0.  1.
         22    1    1    0    0    0  0.26453338413E+02 -0.52691185709E+01  0.10032151975E+02  0.28778234778E+02  0.00000000000E+00 0.  1.
</event>
<event>
 5    1  0.6622912E-004  0.9118800E+02  0.7818608E-02  0.1130116E+00
         25   -1    0    0    0    0  0.00000000000E+00  0.00000000000E+00  0.99999998245E-14  0.12500000000E+03  0.12500000000E+03 0.  0.
        -11    1    3    3    0    0  0.37686814881E+02 -0.88308461016E+01  0.42367773280E+01  0.38938799944E+02  0.51100000000E-03 0.  1.
         23    2    1    0    0    0 -0.95424449167E+01  0.18231169210E+02  0.20705262553E+02  0.95808534070E+02  0.91253128810E+02 0.  0.
         11    1    3    3    0    0 -0.47229259797E+02  0.27062015311E+02  0.16468485225E+02  0.56869734126E+02  0.51100000000E-03 0. -1.
         22    1    1    0    0    0  0.95424449167E+01 -0.18231169210E+02 -0.20705262553E+02  0.29191465930E+02  0.00000000000E+00 0. -1.
</event>
<event>
 5    1  0.6622912E-004  0.9118800E+02  0.7818608E-02  0.1130116E+00
         25   -1    0    0    0    0  0.00000000000E+00  0.00000000000E+00  0.99999998245E-14  0.12500000000E+03  0.12500000000E+03 0.  0.
        -11    1    3    3    0    0 -0.21668728551E+02 -0.30758202737E+02 -0.60019026670E+01  0.38100179376E+02  0.51100000000E-03 0. -1.
         23    2    1    0    0    0 -0.83811127781E+01  0.44958872405E+01  0.32002483797E+02  0.91614149364E+02  0.85314344287E+02 0.  0.
         11    1    3    3    0    0  0.13287615773E+02  0.35254089977E+02  0.38004386464E+02  0.53513969988E+02  0.51100000000E-03 0.  1.
         22    1    1    0    0    0  0.83811127781E+01 -0.44958872405E+01 -0.32002483797E+02  0.33385850636E+02  0.00000000000E+00 0.  1.
</event>
<event>
 5    1  0.6622912E-004  0.9118800E+02  0.7818608E-02  0.1130116E+00
         25   -1    0    0    0    0  0.00000000000E+00  0.00000000000E+00  0.99999998245E-14  0.12500000000E+03  0.12500000000E+03 0.  0.
        -11    1    3    3    0    0 -0.33209917493E+02  0.37978713579E+02 -0.10256897145E+02  0.51482863599E+02  0.51100000000E-03 0.  1.
         23    2    1    0    0    0 -0.11202370367E+01  0.11281263570E+02 -0.26423376360E+02  0.96247319133E+02  0.91852217084E+02 0.  0.
         11    1    3    3    0    0  0.32089680456E+02 -0.26697450009E+02 -0.16166479216E+02  0.44764455534E+02  0.51100000000E-03 0. -1.
         22    1    1    0    0    0  0.11202370367E+01 -0.11281263570E+02  0.26423376360E+02  0.28752680867E+02  0.00000000000E+00 0.  1.
</event>
<event>
 5    1  0.6622912E-004  0.9118800E+02  0.7818608E-02  0.1130116E+00
         25   -1    0    0    0    0  0.00000000000E+00  0.00000000000E+00  0.99999998245E-14  0.12500000000E+03  0.12500000000E+03 0.  0.
        -11    1    3    3    0    0  0.22920672355E+02  0.16866166069E+02  0.52103349575E+02  0.59368205433E+02  0.51100000000E-03 0.  1.
         23    2    1    0    0    0  0.15840280757E+02  0.18370206609E+02  0.16587372987E+02  0.95614290414E+02  0.90986661679E+02 0.  0.
         11    1    3    3    0    0 -0.70803915985E+01  0.15040405395E+01 -0.35515976589E+02  0.36246084981E+02  0.51100000000E-03 0. -1.
         22    1    1    0    0    0 -0.15840280757E+02 -0.18370206609E+02 -0.16587372987E+02  0.29385709586E+02  0.00000000000E+00 0.  1.
</event>
<event>
 5    1  0.6622912E-004  0.9118800E+02  0.7818608E-02  0.1130116E+00
         25   -1    0    0    0    0  0.00000000000E+00  0.00000000000E+00  0.99999998245E-14  0.12500000000E+03  0.12500000000E+03 0.  0.
        -11    1    3    3    0    0 -0.92734574199E+01 -0.22576799356E+02  0.24188678868E+02  0.34362786082E+02  0.51100000000E-03 0. -1.
         23    2    1    0    0    0 -0.61740696981E+01  0.28762329375E+02 -0.73277273097E+01  0.94683563612E+02  0.89698890200E+02 0.  0.
         11    1    3    3    0    0  0.30993877218E+01  0.51339128732E+02 -0.31516406178E+02  0.60320777530E+02  0.51100000000E-03 0.  1.
         22    1    1    0    0    0  0.61740696981E+01 -0.28762329375E+02  0.73277273097E+01  0.30316436388E+02  0.00000000000E+00 0.  1.
</event>
<event>
 5    1  0.6622912E-004  0.9118800E+02  0.7818608E-02  0.1130116E+00
         25   -1    0    0    0    0  0.00000000000E+00  0.00000000000E+00  0.99999998245E-14  0.12500000000E+03  0.12500000000E+03 0.  0.
        -11    1    3    3    0    0  0.79509094623E+01 -0.29006094326E+02  0.25140225026E+02  0.39199507445E+02  0.51100000000E-03 0.  1.
         23    2    1    0    0    0 -0.24952666582E+02  0.13215143845E+02  0.53969104085E+01  0.96252787294E+02  0.91859658303E+02 0.  0.
         11    1    3    3    0    0 -0.32903576045E+02  0.42221238170E+02 -0.19743314618E+02  0.57053279849E+02  0.51100000000E-03 0. -1.
         22    1    1    0    0    0  0.24952666582E+02 -0.13215143845E+02 -0.53969104085E+01  0.28747212706E+02  0.00000000000E+00 0. -1.
</event>
<event>
 5    1  0.6622912E-004  0.9118800E+02  0.7818608E-02  0.1130116E+00
         25   -1    0    0    0    0  0.00000000000E+00  0.00000000000E+00  0.99999998245E-14  0.12500000000E+03  0.12500000000E+03 0.  0.
        -11    1    3    3    0    0  0.16928207273E+02 -0.20853494847E+02  0.49602677101E+02  0.56407960649E+02  0.51100000000E-03 0. -1.
         23    2    1    0    0    0 -0.60897783533E-02  0.70709859916E+01  0.29291953067E+02  0.94866673027E+02  0.89953700629E+02 0.  0.
         11    1    3    3    0    0 -0.16934297052E+02  0.27924480838E+02 -0.20310724034E+02  0.38458712378E+02  0.51100000000E-03 0.  1.
         22    1    1    0    0    0  0.60897783533E-02 -0.70709859916E+01 -0.29291953067E+02  0.30133326973E+02  0.00000000000E+00 0. -1.
</event>
<event>
 5    1  0.6622912E-004  0.9118800E+02  0.7818608E-02  0.1130116E+00
         25   -1    0    0    0    0  0.00000000000E+00  0.00000000000E+00  0.99999998245E-14  0.12500000000E+03  0.12500000000E+03 0.  0.
        -11    1    3    3    0    0 -0.27856525357E+02 -0.62887540801E+01 -0.19443724384E+02  0.34548413148E+02  0.51100000000E-03 0.  1.
         23    2    1    0    0    0  0.12442818757E+02  0.59318163078E-01  0.26338585356E+02  0.95870147000E+02  0.91337488196E+02 0.  0.
         11    1    3    3    0    0  0.40299344114E+02  0.63480722432E+01  0.45782309740E+02  0.61321733852E+02  0.51100000000E-03 0. -1.
         22    1    1    0    0    0 -0.12442818757E+02 -0.59318163078E-01 -0.26338585356E+02  0.29129853000E+02  0.00000000000E+00 0. -1.
</event>
<event>
 5    1  0.6622912E-004  0.9118800E+02  0.7818608E-02  0.1130116E+00
         25   -1    0    0    0    0  0.00000000000E+00  0.00000000000E+00  0.99999998245E-14  0.12500000000E+03  0.12500000000E+03 0.  0.
        -11    1    3    3    0    0 -0.37624078525E+02  0.44174488110E+01 -0.12159690823E+02  0.39786218971E+02  0.51100000000E-03 0.  1.
         23    2    1    0    0    0  0.73474186221E+01  0.22894767367E+02  0.16138500422E+02  0.96041303050E+02  0.91571424377E+02 0.  0.
         11    1    3    3    0    0  0.44971497147E+02  0.18477318556E+02  0.28298191245E+02  0.56255084078E+02  0.51100000000E-03 0. -1.
         22    1    1    0    0    0 -0.73474186221E+01 -0.22894767367E+02 -0.16138500422E+02  0.28958696950E+02  0.00000000000E+00 0. -1.
</event>
<event>
 5    1  0.6622912E-004  0.9118800E+02  0.7818608E-02  0.1130116E+00
         25   -1    0    0    0    0  0.00000000000E+00  0.00000000000E+00  0.99999998245E-14  0.12500000000E+03  0.12500000000E+03 0.  0.
        -11    1    3    3    0    0 -0.34948603761E+02 -0.30722232087E+02 -0.13967664375E+02  0.48583496144E+02  0.51100000000E-03 0. -1.
         23    2    1    0    0    0 -0.13850505628E+02 -0.12968745037E+02  0.23305415289E+02  0.94947259097E+02  0.90065613717E+02 0.  0.
         11    1    3    3    0    0  0.21098098132E+02  0.17753487050E+02  0.37273079664E+02  0.46363762953E+02  0.51100000000E-03 0.  1.
         22    1    1    0    0    0  0.13850505628E+02  0.12968745037E+02 -0.23305415289E+02  0.30052740903E+02  0.00000000000E+00 0. -1.
</event>
<event>
 5    1  0.6622912E-004  0.9118800E+02  0.7818608E-02  0.1130116E+00
         25   -1    0    0    0    0  0.00000000000E+00  0.00000000000E+00  0.99999998245E-14  0.12500000000E+03  0.12500000000E+03 0.  0.
        -11    1    3    3    0    0  0.15032126387E+02  0.30827408873E+02 -0.21630141141E+02  0.40548205479E+02  0.51100000000E-03 0. -1.
         23    2    1    0    0    0 -0.78552443765E+01 -0.19467605317E+02 -0.20263584381E+02  0.95822862153E+02  0.91272753537E+02 0.  0.
         11    1    3    3    0    0 -0.22887370764E+02 -0.50295014189E+02  0.13665567599E+01  0.55274656674E+02  0.51100000000E-03 0.  1.
         22    1    1    0    0    0  0.78552443765E+01  0.19467605317E+02  0.20263584381E+02  0.29177137847E+02  0.00000000000E+00 0.  1.
</event>
<event>
 5    1  0.6622912E-004  0.9118800E+02  0.7818608E-02  0.1130116E+00
         25   -1    0    0    0    0  0.00000000000E+00  0.00000000000E+00  0.99999998245E-14  0.12500000000E+03  0.12500000000E+03 0.  0.
        -11    1    3    3    0    0 -0.23524263117E+02 -0.49023117589E+01  0.18013579705E+02  0.30031860912E+02  0.51100000000E-03 0.  1.
         23    2    1    0    0    0  0.33732023882E+02  0.66911620585E+01  0.22620231264E+01  0.90536427442E+02  0.83720408865E+02 0.  0.
         11    1    3    3    0    0  0.57256286999E+02  0.11593473817E+02 -0.15751556578E+02  0.60504566530E+02  0.51100000000E-03 0. -1.
         22    1    1    0    0    0 -0.33732023882E+02 -0.66911620585E+01 -0.22620231264E+01  0.34463572558E+02  0.00000000000E+00 0. -1.
</event>
<event>
 5    1  0.6622912E-004  0.9118800E+02  0.7818608E-02  0.1130116E+00
         25   -1    0    0    0    0  0.00000000000E+00  0.00000000000E+00  0.99999998245E-14  0.12500000000E+03  0.12500000000E+03 0.  0.
        -11    1    3    3    0    0 -0.11465203356E+01  0.43836473921E+02  0.78118609864E+01  0.44541846920E+02  0.51100000000E-03 0.  1.
         23    2    1    0    0    0  0.79692373422E+01  0.10044986237E+01  0.30218199228E+02  0.93732487693E+02  0.88363578035E+02 0.  0.
         11    1    3    3    0    0  0.91157576777E+01 -0.42831975298E+02  0.22406338242E+02  0.49190640772E+02  0.51100000000E-03 0. -1.
         22    1    1    0    0    0 -0.79692373422E+01 -0.10044986237E+01 -0.30218199228E+02  0.31267512307E+02  0.00000000000E+00 0.  1.
</event>
<event>
 5    1  0.6622912E-004  0.9118800E+02  0.7818608E-02  0.1130116E+00
         25   -1    0    0    0    0  0.00000000000E+00  0.00000000000E+00  0.99999998245E-14  0.12500000000E+03  0.12500000000E+03 0.  0.
        -11    1    3    3    0    0  0.18762254224E+01 -0.34235299454E+02  0.28354541622E+01  0.34403717111E+02  0.51100000000E-03 0.  1.
         23    2    1    0    0    0  0.12089641916E+02  0.25956738335E+02 -0.49185097568E+01  0.95946541602E+02  0.91441978328E+02 0.  0.
         11    1    3    3    0    0  0.10213416494E+02  0.60192037788E+02 -0.77539639190E+01  0.61542824491E+02  0.51100000000E-03 0. -1.
         22    1    1    0    0    0 -0.12089641916E+02 -0.25956738335E+02  0.49185097568E+01  0.29053458398E+02  0.00000000000E+00 0. -1.
</event>
<event>
 5    1  0.6622912E-004  0.9118800E+02  0.7818608E-02  0.1130116E+00
         25   -1    0    0    0    0  0.00000000000E+00  0.00000000000E+00  0.99999998245E-14  0.12500000000E+03  0.12500000000E+03 0.  0.
        -11    1    3    3    0    0  0.30455960293E+02  0.44784498404E+02  0.27103463463E+02  0.60562484647E+02  0.51100000000E-03 0. -1.
         23    2    1    0    0    0  0.12270711271E+02  0.18245886427E+02  0.23308157402E+02  0.92957014370E+02  0.87259690536E+02 0.  0.
         11    1    3    3    0    0 -0.18185249022E+02 -0.26538611977E+02 -0.37953060604E+01  0.32394529723E+02  0.51100000000E-03 0.  1.
         22    1    1    0    0    0 -0.12270711271E+02 -0.18245886427E+02 -0.23308157402E+02  0.32042985630E+02  0.00000000000E+00 0. -1.
</event>
<event>
 5    1  0.6622912E-004  0.9118800E+02  0.7818608E-02  0.1130116E+00
         25   -1    0    0    0    0  0.00000000000E+00  0.00000000000E+00  0.99999998245E-14  0.12500000000E+03  0.12500000000E+03 0.  0.
        -11    1    3    3    0    0  0.11178937869E+02  0.20056423248E+02 -0.42034475413E+02  0.47897034239E+02  0.51100000000E-03 0. -1.
         23    2    1    0    0    0 -0.24359153550E+02  0.12982098843E+01 -0.14295890810E+02  0.96725873937E+02  0.92501180989E+02 0.  0.
         11    1    3    3    0    0 -0.35538091418E+02 -0.18758213364E+02  0.27738584603E+02  0.48828839699E+02  0.51100000000E-03 0.  1.
         22    1    1    0    0    0  0.24359153550E+02 -0.12982098843E+01  0.14295890810E+02  0.28274126063E+02  0.00000000000E+00 0.  1.
</event>
<event>
 5    1  0.6622912E-004  0.9118800E+02  0.7818608E-02  0.1130116E+00
         25   -1    0    0    0    0  0.00000000000E+00  0.00000000000E+00  0.99999998245E-14  0.12500000000E+03  0.12500000000E+03 0.  0.
        -11    1    3    3    0    0 -0.29375450520E+02 -0.16434697123E+02  0.49844543970E+02  0.60145614359E+02  0.51100000000E-03 0. -1.
         23    2    1    0    0    0 -0.24071160731E+02 -0.15797665291E+02  0.21300718300E+02  0.89185092383E+02  0.81677861723E+02 0.  0.
         11    1    3    3    0    0  0.53042897891E+01  0.63703183195E+00 -0.28543825671E+02  0.29039478024E+02  0.51100000000E-03 0.  1.
         22    1    1    0    0    0  0.24071160731E+02  0.15797665291E+02 -0.21300718300E+02  0.35814907617E+02  0.00000000000E+00 0. -1.
</event>
<event>
 5    1  0.6622912E-004  0.9118800E+02  0.7818608E-02  0.1130116E+00
         25   -1    0    0    0    0  0.00000000000E+00  0.00000000000E+00  0.99999998245E-14  0.12500000000E+03  0.12500000000E+03 0.  0.
        -11    1    3    3    0    0 -0.52016123456E+00  0.25681177540E+02 -0.27478455286E+02  0.37614610894E+02  0.51100000000E-03 0. -1.
         23    2    1    0    0    0 -0.16914421249E+02  0.39912675234E+01  0.23726101796E+02  0.95589869619E+02  0.90953105525E+02 0.  0.
         11    1    3    3    0    0 -0.16394260014E+02 -0.21689910017E+02  0.51204557082E+02  0.57975258724E+02  0.51100000000E-03 0.  1.
         22    1    1    0    0    0  0.16914421249E+02 -0.39912675234E+01 -0.23726101796E+02  0.29410130381E+02  0.00000000000E+00 0.  1.
</event>
<event>
 5    1  0.6622912E-004  0.9118800E+02  0.7818608E-02  0.1130116E+00
         25   -1    0    0    0    0  0.00000000000E+00  0.00000000000E+00  0.99999998245E-14  0.12500000000E+03  0.12500000000E+03 0.  0.
        -11    1    3    3    0    0 -0.30374974183E+01  0.41814326987E+02 -0.39524882815E+02  0.57618405859E+02  0.51100000000E-03 0.  1.
         23    2    1    0    0    0  0.13234177550E+02  0.11216670663E+02 -0.23476556551E+02  0.95809147603E+02  0.91253969233E+02 0.  0.
         11    1    3    3    0    0  0.16271674968E+02 -0.30597656325E+02  0.16048326264E+02  0.38190741744E+02  0.51100000000E-03 0. -1.
         22    1    1    0    0    0 -0.13234177550E+02 -0.11216670663E+02  0.23476556551E+02  0.29190852397E+02  0.00000000000E+00 0.  1.
</event>
<event>
 5    1  0.6622912E-004  0.9118800E+02  0.7818608E-02  0.1130116E+00
         25   -1    0    0    0    0  0.00000000000E+00  0.00000000000E+00  0.99999998245E-14  0.12500000000E+03  0.12500000000E+03 0.  0.
        -11    1    3    3    0    0  0.39896073191E+02  0.18229602034E+01  0.98200275101E+01  0.41127275384E+02  0.51100000000E-03 0.  1.
         23    2    1    0    0    0 -0.12883873458E+02 -0.84124001962E+01  0.23782396879E+02  0.96673950617E+02  0.92430988604E+02 0.  0.
         11    1    3    3    0    0 -0.52779946649E+02 -0.10235360400E+02  0.13962369369E+02  0.55546675233E+02  0.51100000000E-03 0. -1.
         22    1    1    0    0    0  0.12883873458E+02  0.84124001962E+01 -0.23782396879E+02  0.28326049383E+02  0.00000000000E+00 0. -1.
</event>
<event>
 5    1  0.6622912E-004  0.9118800E+02  0.7818608E-02  0.1130116E+00
         25   -1    0    0    0    0  0.00000000000E+00  0.00000000000E+00  0.99999998245E-14  0.12500000000E+03  0.12500000000E+03 0.  0.
        -11    1    3    3    0    0 -0.41908110197E+02 -0.32084879331E+02 -0.25249813257E+02  0.58508821999E+02  0.51100000000E-03 0. -1.
         23    2    1    0    0    0 -0.23652530751E+02 -0.16069403429E+01 -0.19082102875E+02  0.94567268963E+02  0.89536680980E+02 0.  0.
         11    1    3    3    0    0  0.18255579446E+02  0.30477938988E+02  0.61677103814E+01  0.36058446964E+02  0.51100000000E-03 0.  1.
         22    1    1    0    0    0  0.23652530751E+02  0.16069403429E+01  0.19082102875E+02  0.30432731037E+02  0.00000000000E+00 0. -1.
</event>
<event>
 5    1  0.6622912E-004  0.9118800E+02  0.7818608E-02  0.1130116E+00
         25   -1    0    0    0    0  0.00000000000E+00  0.00000000000E+00  0.99999998245E-14  0.12500000000E+03  0.12500000000E+03 0.  0.
        -11    1    3    3    0    0  0.17191820529E+02  0.40962043467E+02  0.80062885774E+01  0.45139210839E+02  0.51100000000E-03 0. -1.
         23    2    1    0    0    0 -0.20487265882E+02  0.11250573279E+02  0.19591257985E+02  0.94502117256E+02  0.89445678006E+02 0.  0.
         11    1    3    3    0    0 -0.37679086411E+02 -0.29711470188E+02  0.11584969407E+02  0.49362906417E+02  0.51100000000E-03 0.  1.
         22    1    1    0    0    0  0.20487265882E+02 -0.11250573279E+02 -0.19591257985E+02  0.30497882744E+02  0.00000000000E+00 0.  1.
</event>
<event>
 5    1  0.6622912E-004  0.9118800E+02  0.7818608E-02  0.1130116E+00
         25   -1    0    0    0    0  0.00000000000E+00  0.00000000000E+00  0.99999998245E-14  0.12500000000E+03  0.12500000000E+03 0.  0.
        -11    1    3    3    0    0 -0.40458176759E+02 -0.28148140158E+02  0.36607859349E+02  0.61394765473E+02  0.51100000000E-03 0. -1.
         23    2    1    0    0    0 -0.24359536624E+02 -0.85774760371E+01  0.12754146640E+02  0.96196729765E+02  0.91783345119E+02 0.  0.
         11    1    3    3    0    0  0.16098640135E+02  0.19570664121E+02 -0.23853712709E+02  0.34801964292E+02  0.51100000000E-03 0.  1.
         22    1    1    0    0    0  0.24359536624E+02  0.85774760371E+01 -0.12754146640E+02  0.28803270235E+02  0.00000000000E+00 0. -1.
</event>
<event>
 5    1  0.6622912E-004  0.9118800E+02  0.7818608E-02  0.1130116E+00
         25   -1    0    0    0    0  0.00000000000E+00  0.00000000000E+00  0.99999998245E-14  0.12500000000E+03  0.12500000000E+03 0.  0.
        -11    1    3    3    0    0 -0.34250708653E+02 -0.35150040889E+02 -0.28270637609E+02  0.56638020524E+02  0.51100000000E-03 0.  1.
         23    2    1    0    0    0 -0.64213176802E+01 -0.91729274114E+01 -0.28146888391E+02  0.94707703221E+02  0.89732523676E+02 0.  0.
         11    1    3    3    0    0  0.27829390973E+02  0.25977113478E+02  0.12374921817E+00  0.38069682697E+02  0.51100000000E-03 0. -1.
         22    1    1    0    0    0  0.64213176802E+01  0.91729274114E+01  0.28146888391E+02  0.30292296779E+02  0.00000000000E+00 0.  1.
</event>
<event>
 5    1  0.6622912E-004  0.9118800E+02  0.7818608E-02  0.1130116E+00
         25   -1    0    0    0    0  0.00000000000E+00  0.00000000000E+00  0.99999998245E-14  0.12500000000E+03  0.12500000000E+03 0.  0.
        -11    1    3    3    0    0 -0.96280225131E+01  0.36304594511E+02 -0.35926998623E+01  0.37731020297E+02  0.51100000000E-03 0.  1.
         23    2    1    0    0    0 -0.20158632254E+01 -0.14256284411E+02 -0.27334791998E+02  0.94105078033E+02  0.88889085429E+02 0.  0.
         11    1    3    3    0    0  0.76121592878E+01 -0.50560878922E+02 -0.23742092136E+02  0.56374057736E+02  0.51100000000E-03 0. -1.
         22    1    1    0    0    0  0.20158632254E+01  0.14256284411E+02  0.27334791998E+02  0.30894921967E+02  0.00000000000E+00 0. -1.
</event>
<event>
 5    1  0.6622912E-004  0.9118800E+02  0.7818608E-02  0.1130116E+00
         25   -1    0    0    0    0  0.00000000000E+00  0.00000000000E+00  0.99999998245E-14  0.12500000000E+03  0.12500000000E+03 0.  0.
        -11    1    3    3    0    0  0.48538053120E+00 -0.18673196656E+02  0.22598375935E+02  0.29319114291E+02  0.51100000000E-03 0. -1.
         23    2    1    0    0    0 -0.19640796174E+02  0.32356457453E+02  0.56720503358E+01  0.86726335839E+02  0.77824057719E+02 0.  0.
         11    1    3    3    0    0 -0.20126176705E+02  0.51029654110E+02 -0.16926325600E+02  0.57407221548E+02  0.51100000000E-03 0.  1.
         22    1    1    0    0    0  0.19640796174E+02 -0.32356457453E+02 -0.56720503358E+01  0.38273664161E+02  0.00000000000E+00 0.  1.
</event>
<event>
 5    1  0.6622912E-004  0.9118800E+02  0.7818608E-02  0.1130116E+00
         25   -1    0    0    0    0  0.00000000000E+00  0.00000000000E+00  0.99999998245E-14  0.12500000000E+03  0.12500000000E+03 0.  0.
        -11    1    3    3    0    0 -0.32752113029E+01 -0.21240451587E+02 -0.36817170502E+02  0.42630831997E+02  0.51100000000E-03 0.  1.
         23    2    1    0    0    0  0.29017348441E+02 -0.77253564636E+01  0.20045610810E+01  0.94905051784E+02  0.90007016093E+02 0.  0.
         11    1    3    3    0    0  0.32292559744E+02  0.13515095123E+02  0.38821731583E+02  0.52274219787E+02  0.51100000000E-03 0. -1.
         22    1    1    0    0    0 -0.29017348441E+02  0.77253564636E+01 -0.20045610810E+01  0.30094948216E+02  0.00000000000E+00 0. -1.
</event>
<event>
 5    1  0.6622912E-004  0.9118800E+02  0.7818608E-02  0.1130116E+00
         25   -1    0    0    0    0  0.00000000000E+00  0.00000000000E+00  0.99999998245E-14  0.12500000000E+03  0.12500000000E+03 0.  0.
        -11    1    3    3    0    0 -0.21712658389E+02  0.17736827310E+01  0.34233729217E+02  0.40577502402E+02  0.51100000000E-03 0.  1.
         23    2    1    0    0    0 -0.23078197608E+02 -0.51437993039E+01 -0.19241525903E+02  0.94515607351E+02  0.89464528377E+02 0.  0.
         11    1    3    3    0    0 -0.13655392192E+01 -0.69174820348E+01 -0.53475255120E+02  0.53938104949E+02  0.51100000000E-03 0. -1.
         22    1    1    0    0    0  0.23078197608E+02  0.51437993039E+01  0.19241525903E+02  0.30484392649E+02  0.00000000000E+00 0. -1.
</event>
<event>
 5    1  0.6622912E-004  0.9118800E+02  0.7818608E-02  0.1130116E+00
         25   -1    0    0    0    0  0.00000000000E+00  0.00000000000E+00  0.99999998245E-14  0.12500000000E+03  0.12500000000E+03 0.  0.
        -11    1    3    3    0    0 -0.36595494862E+02 -0.13148581741E+02 -0.13725800279E+02  0.41237277306E+02  0.51100000000E-03 0.  1.
         23    2    1    0    0    0  0.90912685504E+01 -0.19805884271E+02  0.17563912374E+02  0.97010444207E+02  0.92884934472E+02 0.  0.
         11    1    3    3    0    0  0.45686763413E+02 -0.66573025296E+01  0.31289712652E+02  0.55773166902E+02  0.51100000000E-03 0. -1.
         22    1    1    0    0    0 -0.90912685504E+01  0.19805884271E+02 -0.17563912374E+02  0.27989555793E+02  0.00000000000E+00 0.  1.
</event>
<event>
 5    1  0.6622912E-004  0.9118800E+02  0.7818608E-02  0.1130116E+00
         25   -1    0    0    0    0  0.00000000000E+00  0.00000000000E+00  0.99999998245E-14  0.12500000000E+03  0.12500000000E+03 0.  0.
        -11    1    3    3    0    0 -0.11538158145E+02 -0.10058778537E+02  0.39236848658E+02  0.42116961095E+02  0.51100000000E-03 0. -1.
         23    2    1    0    0    0 -0.83066514498E+01  0.29169867743E+02  0.50483179910E+01  0.94253176473E+02  0.89097104994E+02 0.  0.
         11    1    3    3    0    0  0.32315066951E+01  0.39228646280E+02 -0.34188530667E+02  0.52136215378E+02  0.51100000000E-03 0.  1.
         22    1    1    0    0    0  0.83066514498E+01 -0.29169867743E+02 -0.50483179910E+01  0.30746823527E+02  0.00000000000E+00 0.  1.
</event>
<event>
 5    1  0.6622912E-004  0.9118800E+02  0.7818608E-02  0.1130116E+00
         25   -1    0    0    0    0  0.00000000000E+00  0.00000000000E+00  0.99999998245E-14  0.12500000000E+03  0.12500000000E+03 0.  0.
        -11    1    3    3    0    0 -0.13886653775E+02 -0.41350798500E+02 -0.10797546286E+01  0.43633628774E+02  0.51100000000E-03 0.  1.
         23    2    1    0    0    0  0.20434466468E+02 -0.89601733131E+01  0.19734881457E+02  0.95212122067E+02  0.90432463843E+02 0.  0.
         11    1    3    3    0    0  0.34321120243E+02  0.32390625187E+02  0.20814636086E+02  0.51578493293E+02  0.51100000000E-03 0. -1.
         22    1    1    0    0    0 -0.20434466468E+02  0.89601733131E+01 -0.19734881457E+02  0.29787877933E+02  0.00000000000E+00 0. -1.
</event>
<event>
 5    1  0.6622912E-004  0.9118800E+02  0.7818608E-02  0.1130116E+00
         25   -1    0    0    0    0  0.00000000000E+00  0.00000000000E+00  0.99999998245E-14  0.12500000000E+03  0.12500000000E+03 0.  0.
        -11    1    3    3    0    0 -0.30756781615E+02  0.17474616993E+02 -0.51336271272E+02  0.62343841738E+02  0.51100000000E-03 0.  1.
         23    2    1    0    0    0 -0.11472836386E+02  0.97684515697E+01 -0.23758188583E+02  0.96866387620E+02  0.92690867430E+02 0.  0.
         11    1    3    3    0    0  0.19283945228E+02 -0.77061654230E+01  0.27578082688E+02  0.34522545881E+02  0.51100000000E-03 0. -1.
         22    1    1    0    0    0  0.11472836386E+02 -0.97684515697E+01  0.23758188583E+02  0.28133612380E+02  0.00000000000E+00 0.  1.
</event>
<event>
 5    1  0.6622912E-004  0.9118800E+02  0.7818608E-02  0.1130116E+00
         25   -1    0    0    0    0  0.00000000000E+00  0.00000000000E+00  0.99999998245E-14  0.12500000000E+03  0.12500000000E+03 0.  0.
        -11    1    3    3    0    0 -0.80392210492E+01  0.48473073124E+02  0.24105896783E+02  0.54729901819E+02  0.51100000000E-03 0.  1.
         23    2    1    0    0    0  0.13004870101E+02  0.24508110934E+02 -0.36584521269E+01  0.97015032252E+02  0.92891108633E+02 0.  0.
         11    1    3    3    0    0  0.21044091150E+02 -0.23964962190E+02 -0.27764348910E+02  0.42285130433E+02  0.51100000000E-03 0. -1.
         22    1    1    0    0    0 -0.13004870101E+02 -0.24508110934E+02  0.36584521269E+01  0.27984967748E+02  0.00000000000E+00 0. -1.
</event>
<event>
 5    1  0.6622912E-004  0.9118800E+02  0.7818608E-02  0.1130116E+00
         25   -1    0    0    0    0  0.00000000000E+00  0.00000000000E+00  0.99999998245E-14  0.12500000000E+03  0.12500000000E+03 0.  0.
        -11    1    3    3    0    0  0.24435434721E+02 -0.22440586316E+02  0.14240098490E+02  0.36103334880E+02  0.51100000000E-03 0.  1.
         23    2    1    0    0    0 -0.22341670661E+02 -0.32643114521E+01 -0.18052115839E+02  0.96091785537E+02  0.91640309822E+02 0.  0.
         11    1    3    3    0    0 -0.46777105382E+02  0.19176274864E+02 -0.32292214329E+02  0.59988450656E+02  0.51100000000E-03 0. -1.
         22    1    1    0    0    0  0.22341670661E+02  0.32643114521E+01  0.18052115839E+02  0.28908214463E+02  0.00000000000E+00 0. -1.
</event>
<event>
 5    1  0.6622912E-004  0.9118800E+02  0.7818608E-02  0.1130116E+00
         25   -1    0    0    0    0  0.00000000000E+00  0.00000000000E+00  0.99999998245E-14  0.12500000000E+03  0.12500000000E+03 0.  0.
        -11    1    3    3    0    0  0.33619930459E+02  0.36420056846E+01 -0.14648352204E+01  0.33848333371E+02  0.51100000000E-03 0. -1.
         23    2    1    0    0    0 -0.26895494606E+02  0.73135471577E+01 -0.10641297173E+02  0.95165576800E+02  0.90368103887E+02 0.  0.
         11    1    3    3    0    0 -0.60515425065E+02  0.36715414731E+01 -0.91764619522E+01  0.61317243430E+02  0.51100000000E-03 0.  1.
         22    1    1    0    0    0  0.26895494606E+02 -0.73135471577E+01  0.10641297173E+02  0.29834423200E+02  0.00000000000E+00 0.  1.
</event>
<event>
 5    1  0.6622912E-004  0.9118800E+02  0.7818608E-02  0.1130116E+00
         25   -1    0    0    0    0  0.00000000000E+00  0.00000000000E+00  0.99999998245E-14  0.12500000000E+03  0.12500000000E+03 0.  0.
        -11    1    3    3    0    0 -0.89244164482E+01 -0.56485860459E+02  0.22914534702E+02  0.61606603068E+02  0.51100000000E-03 0. -1.
         23    2    1    0    0    0 -0.62018795499E+01 -0.27529747286E+02  0.35253953361E+01  0.96560965068E+02  0.92278064928E+02 0.  0.
         11    1    3    3    0    0  0.27225368983E+01  0.28956113172E+02 -0.19389139365E+02  0.34954362000E+02  0.51100000000E-03 0.  1.
         22    1    1    0    0    0  0.62018795499E+01  0.27529747286E+02 -0.35253953361E+01  0.28439034932E+02  0.00000000000E+00 0. -1.
</event>
<event>
 5    1  0.6622912E-004  0.9118800E+02  0.7818608E-02  0.1130116E+00
         25   -1    0    0    0    0  0.00000000000E+00  0.00000000000E+00  0.99999998245E-14  0.12500000000E+03  0.12500000000E+03 0.  0.
        -11    1    3    3    0    0 -0.27426958991E+02 -0.50527542203E+02 -0.93966815052E+01  0.58254340817E+02  0.51100000000E-03 0. -1.
         23    2    1    0    0    0 -0.28174081373E+01 -0.16816879647E+02 -0.17272815770E+02  0.10072871255E+03  0.97760821081E+02 0.  0.
         11    1    3    3    0    0  0.24609550853E+02  0.33710662556E+02 -0.78761342653E+01  0.42474371736E+02  0.51100000000E-03 0.  1.
         22    1    1    0    0    0  0.28174081373E+01  0.16816879647E+02  0.17272815770E+02  0.24271287447E+02  0.00000000000E+00 0. -1.
</event>
<event>
 5    1  0.6622912E-004  0.9118800E+02  0.7818608E-02  0.1130116E+00
         25   -1    0    0    0    0  0.00000000000E+00  0.00000000000E+00  0.99999998245E-14  0.12500000000E+03  0.12500000000E+03 0.  0.
        -11    1    3    3    0    0 -0.32018644749E+02 -0.12163900951E+02 -0.16763795650E+02  0.38133698258E+02  0.51100000000E-03 0. -1.
         23    2    1    0    0    0 -0.88629534235E+01  0.28276143098E+02  0.12147809891E+02  0.92974049631E+02  0.87284090232E+02 0.  0.
         11    1    3    3    0    0  0.23155691326E+02  0.40440044049E+02  0.28911605541E+02  0.54840351373E+02  0.51100000000E-03 0.  1.
         22    1    1    0    0    0  0.88629534235E+01 -0.28276143098E+02 -0.12147809891E+02  0.32025950369E+02  0.00000000000E+00 0.  1.
</event>
<event>
 5    1  0.6622912E-004  0.9118800E+02  0.7818608E-02  0.1130116E+00
         25   -1    0    0    0    0  0.00000000000E+00  0.00000000000E+00  0.99999998245E-14  0.12500000000E+03  0.12500000000E+03 0.  0.
        -11    1    3    3    0    0 -0.21170520843E+02 -0.24358565649E+02 -0.42829873008E+02  0.53627685903E+02  0.51100000000E-03 0.  1.
         23    2    1    0    0    0 -0.83659674860E+01  0.14054440818E+02 -0.15400878372E+02  0.10253438687E+03  0.10004297435E+03 0.  0.
         11    1    3    3    0    0  0.12804553357E+02  0.38413006466E+02  0.27428994636E+02  0.48906700967E+02  0.51100000000E-03 0. -1.
         22    1    1    0    0    0  0.83659674860E+01 -0.14054440818E+02  0.15400878372E+02  0.22465613130E+02  0.00000000000E+00 0.  1.
</event>
<event>
 5    1  0.6622912E-004  0.9118800E+02  0.7818608E-02  0.1130116E+00
         25   -1    0    0    0    0  0.00000000000E+00  0.00000000000E+00  0.99999998245E-14  0.12500000000E+03  0.12500000000E+03 0.  0.
        -11    1    3    3    0    0  0.58235585399E+02  0.15431881838E+02 -0.40437204178E+01  0.60381106804E+02  0.51100000000E-03 0.  1.
         23    2    1    0    0    0  0.26754046958E+02  0.17200240038E+02 -0.81176011881E+01  0.92174358573E+02  0.86131235004E+02 0.  0.
         11    1    3    3    0    0 -0.31481538440E+02  0.17683582003E+01 -0.40738807703E+01  0.31793251770E+02  0.51100000000E-03 0. -1.
         22    1    1    0    0    0 -0.26754046958E+02 -0.17200240038E+02  0.81176011881E+01  0.32825641427E+02  0.00000000000E+00 0.  1.
</event>
<event>
 5    1  0.6622912E-004  0.9118800E+02  0.7818608E-02  0.1130116E+00
         25   -1    0    0    0    0  0.00000000000E+00  0.00000000000E+00  0.99999998245E-14  0.12500000000E+03  0.12500000000E+03 0.  0.
        -11    1    3    3    0    0 -0.10741539468E+02  0.52154006438E+02  0.25365435794E+02  0.58981576708E+02  0.51100000000E-03 0.  1.
         23    2    1    0    0    0  0.80011258264E+01  0.23308226068E+02  0.18804152386E+02  0.94001813539E+02  0.88743751244E+02 0.  0.
         11    1    3    3    0    0  0.18742665295E+02 -0.28845780370E+02 -0.65612834079E+01  0.35020236831E+02  0.51100000000E-03 0. -1.
         22    1    1    0    0    0 -0.80011258264E+01 -0.23308226068E+02 -0.18804152386E+02  0.30998186461E+02  0.00000000000E+00 0.  1.
</event>
<event>
 5    1  0.6622912E-004  0.9118800E+02  0.7818608E-02  0.1130116E+00
         25   -1    0    0    0    0  0.00000000000E+00  0.00000000000E+00  0.99999998245E-14  0.12500000000E+03  0.12500000000E+03 0.  0.
        -11    1    3    3    0    0  0.35409351528E+01  0.14435068031E+02  0.50125223377E+02  0.52282381637E+02  0.51100000000E-03 0.  1.
         23    2    1    0    0    0  0.23873248084E+02 -0.37142913803E+01  0.15715579686E+02  0.96178005284E+02  0.91757840651E+02 0.  0.
         11    1    3    3    0    0  0.20332312931E+02 -0.18149359412E+02 -0.34409643690E+02  0.43895623647E+02  0.51100000000E-03 0. -1.
         22    1    1    0    0    0 -0.23873248084E+02  0.37142913803E+01 -0.15715579686E+02  0.28821994716E+02  0.00000000000E+00 0.  1.
</event>
<event>
 5    1  0.6622912E-004  0.9118800E+02  0.7818608E-02  0.1130116E+00
         25   -1    0    0    0    0  0.00000000000E+00  0.00000000000E+00  0.99999998245E-14  0.12500000000E+03  0.12500000000E+03 0.  0.
        -11    1    3    3    0    0 -0.24975470583E+02  0.35547171029E+02  0.55081444800E+01  0.43791724731E+02  0.51100000000E-03 0. -1.
         23    2    1    0    0    0  0.11627002134E+02  0.56914514994E+01  0.26520154364E+02  0.95489012448E+02  0.90814388244E+02 0.  0.
         11    1    3    3    0    0  0.36602472718E+02 -0.29855719530E+02  0.21012009884E+02  0.51697287717E+02  0.51100000000E-03 0.  1.
         22    1    1    0    0    0 -0.11627002134E+02 -0.56914514994E+01 -0.26520154364E+02  0.29510987552E+02  0.00000000000E+00 0.  1.
</event>
<event>
 5    1  0.6622912E-004  0.9118800E+02  0.7818608E-02  0.1130116E+00
         25   -1    0    0    0    0  0.00000000000E+00  0.00000000000E+00  0.99999998245E-14  0.12500000000E+03  0.12500000000E+03 0.  0.
        -11    1    3    3    0    0  0.40361489089E+02  0.22620478785E+01  0.10801200571E+02  0.41842951570E+02  0.51100000000E-03 0.  1.
         23    2    1    0    0    0 -0.90850354542E+01 -0.18906716199E+02  0.19536643664E+02  0.96334999873E+02  0.91971462793E+02 0.  0.
         11    1    3    3    0    0 -0.49446524543E+02 -0.21168764077E+02  0.87354430931E+01  0.54492048303E+02  0.51100000000E-03 0. -1.
         22    1    1    0    0    0  0.90850354542E+01  0.18906716199E+02 -0.19536643664E+02  0.28665000127E+02  0.00000000000E+00 0. -1.
</event>
<event>
 5    1  0.6622912E-004  0.9118800E+02  0.7818608E-02  0.1130116E+00
         25   -1    0    0    0    0  0.00000000000E+00  0.00000000000E+00  0.99999998245E-14  0.12500000000E+03  0.12500000000E+03 0.  0.
        -11    1    3    3    0    0  0.11098099823E+02 -0.10665865567E+02  0.41386929949E+02  0.44156613082E+02  0.51100000000E-03 0.  1.
         23    2    1    0    0    0  0.28969833835E+02 -0.59061976929E+00 -0.56548140915E+01  0.95477516592E+02  0.90798563579E+02 0.  0.
         11    1    3    3    0    0  0.17871734013E+02  0.10075245798E+02 -0.47041744041E+02  0.51320903511E+02  0.51100000000E-03 0. -1.
         22    1    1    0    0    0 -0.28969833835E+02  0.59061976929E+00  0.56548140915E+01  0.29522483408E+02  0.00000000000E+00 0. -1.
</event>
<event>
 5    1  0.6622912E-004  0.9118800E+02  0.7818608E-02  0.1130116E+00
         25   -1    0    0    0    0  0.00000000000E+00  0.00000000000E+00  0.99999998245E-14  0.12500000000E+03  0.12500000000E+03 0.  0.
        -11    1    3    3    0    0 -0.22644729723E+02  0.13003512112E+02 -0.36785297596E+02  0.45111342597E+02  0.51100000000E-03 0.  1.
         23    2    1    0    0    0  0.11476239973E+02 -0.20035818887E+02 -0.15707631804E+02  0.97073886428E+02  0.92970272705E+02 0.  0.
         11    1    3    3    0    0  0.34120969696E+02 -0.33039330999E+02  0.21077665792E+02  0.51962543830E+02  0.51100000000E-03 0. -1.
         22    1    1    0    0    0 -0.11476239973E+02  0.20035818887E+02  0.15707631804E+02  0.27926113572E+02  0.00000000000E+00 0. -1.
</event>
<event>
 5    1  0.6622912E-004  0.9118800E+02  0.7818608E-02  0.1130116E+00
         25   -1    0    0    0    0  0.00000000000E+00  0.00000000000E+00  0.99999998245E-14  0.12500000000E+03  0.12500000000E+03 0.  0.
        -11    1    3    3    0    0  0.39964290992E+02 -0.56716208572E+01 -0.17048923487E+02  0.43817549337E+02  0.51100000000E-03 0.  1.
         23    2    1    0    0    0 -0.20549039825E+01  0.18274756935E+02 -0.26151015164E+02  0.93030249211E+02  0.87364536871E+02 0.  0.
         11    1    3    3    0    0 -0.42019194974E+02  0.23946377792E+02 -0.91020916774E+01  0.49212699873E+02  0.51100000000E-03 0. -1.
         22    1    1    0    0    0  0.20549039825E+01 -0.18274756935E+02  0.26151015164E+02  0.31969750789E+02  0.00000000000E+00 0. -1.
</event>
<event>
 5    1  0.6622912E-004  0.9118800E+02  0.7818608E-02  0.1130116E+00
         25   -1    0    0    0    0  0.00000000000E+00  0.00000000000E+00  0.99999998245E-14  0.12500000000E+03  0.12500000000E+03 0.  0.
        -11    1    3    3    0    0  0.26890921479E+02 -0.36517224605E+02  0.16285910358E+02  0.48185684880E+02  0.51100000000E-03 0.  1.
         23    2    1    0    0    0  0.16421069371E+02 -0.14123736205E+02 -0.22236926806E+02  0.93957893798E+02  0.88681866521E+02 0.  0.
         11    1    3    3    0    0 -0.10469852108E+02  0.22393488400E+02 -0.38522837164E+02  0.45772208919E+02  0.51100000000E-03 0. -1.
         22    1    1    0    0    0 -0.16421069371E+02  0.14123736205E+02  0.22236926806E+02  0.31042106202E+02  0.00000000000E+00 0.  1.
</event>
<event>
 5    1  0.6622912E-004  0.9118800E+02  0.7818608E-02  0.1130116E+00
         25   -1    0    0    0    0  0.00000000000E+00  0.00000000000E+00  0.99999998245E-14  0.12500000000E+03  0.12500000000E+03 0.  0.
        -11    1    3    3    0    0 -0.17015746234E+02  0.24635193114E+02 -0.20509747830E+02  0.36291570867E+02  0.51100000000E-03 0.  1.
         23    2    1    0    0    0  0.48805082631E+01 -0.28456497565E+02 -0.72213292121E+01  0.95238628893E+02  0.90469095404E+02 0.  0.
         11    1    3    3    0    0  0.21896254497E+02 -0.53091690680E+02  0.13288418618E+02  0.58947058026E+02  0.51100000000E-03 0. -1.
         22    1    1    0    0    0 -0.48805082631E+01  0.28456497565E+02  0.72213292121E+01  0.29761371107E+02  0.00000000000E+00 0. -1.
</event>
<event>
 5    1  0.6622912E-004  0.9118800E+02  0.7818608E-02  0.1130116E+00
         25   -1    0    0    0    0  0.00000000000E+00  0.00000000000E+00  0.99999998245E-14  0.12500000000E+03  0.12500000000E+03 0.  0.
        -11    1    3    3    0    0 -0.15049661518E+02 -0.13586086120E+02 -0.50182247558E+02  0.54123303836E+02  0.51100000000E-03 0.  1.
         23    2    1    0    0    0 -0.24379937710E+02  0.82622428212E+01 -0.20824142792E+02  0.91889715462E+02  0.85717144524E+02 0.  0.
         11    1    3    3    0    0 -0.93302761927E+01  0.21848328942E+02  0.29358104766E+02  0.37766411626E+02  0.51100000000E-03 0. -1.
         22    1    1    0    0    0  0.24379937710E+02 -0.82622428212E+01  0.20824142792E+02  0.33110284538E+02  0.00000000000E+00 0.  1.
</event>
<event>
 5    1  0.6622912E-004  0.9118800E+02  0.7818608E-02  0.1130116E+00
         25   -1    0    0    0    0  0.00000000000E+00  0.00000000000E+00  0.99999998245E-14  0.12500000000E+03  0.12500000000E+03 0.  0.
        -11    1    3    3    0    0 -0.43980907081E+02 -0.56883509967E+01  0.52475672264E+01  0.44656628699E+02  0.51100000000E-03 0.  1.
         23    2    1    0    0    0 -0.64736903625E+01  0.27395285156E+02  0.10523833931E+02  0.94947356251E+02  0.90065748555E+02 0.  0.
         11    1    3    3    0    0  0.37507216719E+02  0.33083636153E+02  0.52762667042E+01  0.50290727552E+02  0.51100000000E-03 0. -1.
         22    1    1    0    0    0  0.64736903625E+01 -0.27395285156E+02 -0.10523833931E+02  0.30052643749E+02  0.00000000000E+00 0. -1.
</event>
<event>
 5    1  0.6622912E-004  0.9118800E+02  0.7818608E-02  0.1130116E+00
         25   -1    0    0    0    0  0.00000000000E+00  0.00000000000E+00  0.99999998245E-14  0.12500000000E+03  0.12500000000E+03 0.  0.
        -11    1    3    3    0    0  0.24327966385E+01  0.44341326500E+01  0.51213988916E+02  0.51463119735E+02  0.51100000000E-03 0.  1.
         23    2    1    0    0    0 -0.28423621428E+01 -0.22578016311E+02  0.12282402213E+02  0.99140702886E+02  0.95708806918E+02 0.  0.
         11    1    3    3    0    0 -0.52751587812E+01 -0.27012148961E+02 -0.38931586703E+02  0.47677583152E+02  0.51100000000E-03 0. -1.
         22    1    1    0    0    0  0.28423621428E+01  0.22578016311E+02 -0.12282402213E+02  0.25859297114E+02  0.00000000000E+00 0.  1.
</event>
<event>
 5    1  0.6622912E-004  0.9118800E+02  0.7818608E-02  0.1130116E+00
         25   -1    0    0    0    0  0.00000000000E+00  0.00000000000E+00  0.99999998245E-14  0.12500000000E+03  0.12500000000E+03 0.  0.
        -11    1    3    3    0    0  0.21675526560E+02 -0.16955819438E+02  0.19589598624E+02  0.33779885124E+02  0.51100000000E-03 0.  1.
         23    2    1    0    0    0 -0.11380186698E+02  0.12712971872E+02 -0.23695776771E+02  0.95800374320E+02  0.91241950768E+02 0.  0.
         11    1    3    3    0    0 -0.33055713258E+02  0.29668791310E+02 -0.43285375395E+02  0.62020489196E+02  0.51100000000E-03 0. -1.
         22    1    1    0    0    0  0.11380186698E+02 -0.12712971872E+02  0.23695776771E+02  0.29199625680E+02  0.00000000000E+00 0. -1.
</event>
<event>
 5    1  0.6622912E-004  0.9118800E+02  0.7818608E-02  0.1130116E+00
         25   -1    0    0    0    0  0.00000000000E+00  0.00000000000E+00  0.99999998245E-14  0.12500000000E+03  0.12500000000E+03 0.  0.
        -11    1    3    3    0    0  0.10704094003E+02 -0.42867051839E+02 -0.15461034515E+02  0.46810312436E+02  0.51100000000E-03 0.  1.
         23    2    1    0    0    0  0.18847220370E+02 -0.89254348716E+01  0.19669819299E+02  0.96333244087E+02  0.91969076443E+02 0.  0.
         11    1    3    3    0    0  0.81431263668E+01  0.33941616967E+02  0.35130853814E+02  0.49522931651E+02  0.51100000000E-03 0. -1.
         22    1    1    0    0    0 -0.18847220370E+02  0.89254348716E+01 -0.19669819299E+02  0.28666755913E+02  0.00000000000E+00 0.  1.
</event>
<event>
 5    1  0.6622912E-004  0.9118800E+02  0.7818608E-02  0.1130116E+00
         25   -1    0    0    0    0  0.00000000000E+00  0.00000000000E+00  0.99999998245E-14  0.12500000000E+03  0.12500000000E+03 0.  0.
        -11    1    3    3    0    0 -0.13263669522E+02 -0.27190911516E+02  0.53475277164E+02  0.61440018443E+02  0.51100000000E-03 0.  1.
         23    2    1    0    0    0 -0.12755952849E+02 -0.77944652409E+01  0.23692071617E+02  0.96986034215E+02  0.92852078888E+02 0.  0.
         11    1    3    3    0    0  0.50771667233E+00  0.19396446275E+02 -0.29783205548E+02  0.35546015772E+02  0.51100000000E-03 0. -1.
         22    1    1    0    0    0  0.12755952849E+02  0.77944652409E+01 -0.23692071617E+02  0.28013965785E+02  0.00000000000E+00 0.  1.
</event>
<event>
 5    1  0.6622912E-004  0.9118800E+02  0.7818608E-02  0.1130116E+00
         25   -1    0    0    0    0  0.00000000000E+00  0.00000000000E+00  0.99999998245E-14  0.12500000000E+03  0.12500000000E+03 0.  0.
        -11    1    3    3    0    0 -0.20249648960E+02  0.34646389573E+02  0.17012707693E+02  0.43587301096E+02  0.51100000000E-03 0.  1.
         23    2    1    0    0    0  0.24196996427E+02  0.14170478802E+02 -0.36795645252E+01  0.96718622723E+02  0.92491381657E+02 0.  0.
         11    1    3    3    0    0  0.44446645387E+02 -0.20475910771E+02 -0.20692272218E+02  0.53131321628E+02  0.51100000000E-03 0. -1.
         22    1    1    0    0    0 -0.24196996427E+02 -0.14170478802E+02  0.36795645252E+01  0.28281377277E+02  0.00000000000E+00 0. -1.
</event>
<event>
 5    1  0.6622912E-004  0.9118800E+02  0.7818608E-02  0.1130116E+00
         25   -1    0    0    0    0  0.00000000000E+00  0.00000000000E+00  0.99999998245E-14  0.12500000000E+03  0.12500000000E+03 0.  0.
        -11    1    3    3    0    0  0.39233714289E+02  0.44588263618E+02 -0.18367570060E+02  0.62167235901E+02  0.51100000000E-03 0. -1.
         23    2    1    0    0    0  0.15689132269E+02  0.23434632698E+02 -0.58875425376E+01  0.96190382887E+02  0.91774700881E+02 0.  0.
         11    1    3    3    0    0 -0.23544582020E+02 -0.21153630920E+02  0.12480027523E+02  0.34023146986E+02  0.51100000000E-03 0.  1.
         22    1    1    0    0    0 -0.15689132269E+02 -0.23434632698E+02  0.58875425376E+01  0.28809617113E+02  0.00000000000E+00 0. -1.
</event>
<event>
 5    1  0.6622912E-004  0.9118800E+02  0.7818608E-02  0.1130116E+00
         25   -1    0    0    0    0  0.00000000000E+00  0.00000000000E+00  0.99999998245E-14  0.12500000000E+03  0.12500000000E+03 0.  0.
        -11    1    3    3    0    0 -0.87857861655E+01 -0.34609040880E+02  0.36121479048E+02  0.50791111408E+02  0.51100000000E-03 0.  1.
         23    2    1    0    0    0 -0.95988931740E+01  0.92437719663E+01  0.25969371148E+02  0.95811058461E+02  0.91256586696E+02 0.  0.
         11    1    3    3    0    0 -0.81310700856E+00  0.43852812847E+02 -0.10152107900E+02  0.45019947053E+02  0.51100000000E-03 0. -1.
         22    1    1    0    0    0  0.95988931740E+01 -0.92437719663E+01 -0.25969371148E+02  0.29188941539E+02  0.00000000000E+00 0.  1.
</event>
<event>
 5    1  0.6622912E-004  0.9118800E+02  0.7818608E-02  0.1130116E+00
         25   -1    0    0    0    0  0.00000000000E+00  0.00000000000E+00  0.99999998245E-14  0.12500000000E+03  0.12500000000E+03 0.  0.
        -11    1    3    3    0    0 -0.55526788347E+01 -0.32890890321E+02 -0.30940475366E+00  0.33357737332E+02  0.51100000000E-03 0.  1.
         23    2    1    0    0    0  0.12806839127E+02  0.26155067492E+02  0.51240992547E+01  0.95430436643E+02  0.90733726700E+02 0.  0.
         11    1    3    3    0    0  0.18359517961E+02  0.59045957813E+02  0.54335040083E+01  0.62072699312E+02  0.51100000000E-03 0. -1.
         22    1    1    0    0    0 -0.12806839127E+02 -0.26155067492E+02 -0.51240992547E+01  0.29569563357E+02  0.00000000000E+00 0. -1.
</event>
<event>
 5    1  0.6622912E-004  0.9118800E+02  0.7818608E-02  0.1130116E+00
         25   -1    0    0    0    0  0.00000000000E+00  0.00000000000E+00  0.99999998245E-14  0.12500000000E+03  0.12500000000E+03 0.  0.
        -11    1    3    3    0    0  0.45277852000E+02  0.18388841549E+02 -0.16856900437E+02  0.51695149365E+02  0.51100000000E-03 0. -1.
         23    2    1    0    0    0  0.57850568291E+01  0.15668662306E+01 -0.28261052496E+02  0.96110399094E+02  0.91665695729E+02 0.  0.
         11    1    3    3    0    0 -0.39492795171E+02 -0.16821975319E+02 -0.11404152059E+02  0.44415249729E+02  0.51100000000E-03 0.  1.
         22    1    1    0    0    0 -0.57850568291E+01 -0.15668662306E+01  0.28261052496E+02  0.28889600906E+02  0.00000000000E+00 0. -1.
</event>
<event>
 5    1  0.6622912E-004  0.9118800E+02  0.7818608E-02  0.1130116E+00
         25   -1    0    0    0    0  0.00000000000E+00  0.00000000000E+00  0.99999998245E-14  0.12500000000E+03  0.12500000000E+03 0.  0.
        -11    1    3    3    0    0  0.25893661139E+02  0.21429334233E+02  0.18652001119E+02  0.38439500502E+02  0.51100000000E-03 0.  1.
         23    2    1    0    0    0 -0.79998024044E+01 -0.24623886822E+02 -0.14953322612E+01  0.99066071271E+02  0.95611284991E+02 0.  0.
         11    1    3    3    0    0 -0.33893463544E+02 -0.46053221055E+02 -0.20147333381E+02  0.60626570769E+02  0.51100000000E-03 0. -1.
         22    1    1    0    0    0  0.79998024044E+01  0.24623886822E+02  0.14953322612E+01  0.25933928729E+02  0.00000000000E+00 0. -1.
</event>
<event>
 5    1  0.6622912E-004  0.9118800E+02  0.7818608E-02  0.1130116E+00
         25   -1    0    0    0    0  0.00000000000E+00  0.00000000000E+00  0.99999998245E-14  0.12500000000E+03  0.12500000000E+03 0.  0.
        -11    1    3    3    0    0  0.19686413918E+02  0.11893503773E+02 -0.22098794129E+02  0.31896191421E+02  0.51100000000E-03 0.  1.
         23    2    1    0    0    0 -0.37869469055E+01 -0.16788749806E+02  0.26736397679E+02  0.93203175509E+02  0.87611608119E+02 0.  0.
         11    1    3    3    0    0 -0.23473360824E+02 -0.28682253578E+02  0.48835191808E+02  0.61306984087E+02  0.51100000000E-03 0. -1.
         22    1    1    0    0    0  0.37869469055E+01  0.16788749806E+02 -0.26736397679E+02  0.31796824491E+02  0.00000000000E+00 0. -1.
</event>
<event>
 5    1  0.6622912E-004  0.9118800E+02  0.7818608E-02  0.1130116E+00
         25   -1    0    0    0    0  0.00000000000E+00  0.00000000000E+00  0.99999998245E-14  0.12500000000E+03  0.12500000000E+03 0.  0.
        -11    1    3    3    0    0  0.63751860833E+01  0.18014183071E+02 -0.30152718987E+02  0.35697902626E+02  0.51100000000E-03 0. -1.
         23    2    1    0    0    0 -0.33192961347E+01  0.98327809832E+01  0.27958479550E+02  0.95177560672E+02  0.90384678835E+02 0.  0.
         11    1    3    3    0    0 -0.96944822180E+01 -0.81814020874E+01  0.58111198538E+02  0.59479658046E+02  0.51100000000E-03 0.  1.
         22    1    1    0    0    0  0.33192961347E+01 -0.98327809832E+01 -0.27958479550E+02  0.29822439328E+02  0.00000000000E+00 0.  1.
</event>
<event>
 5    1  0.6622912E-004  0.9118800E+02  0.7818608E-02  0.1130116E+00
         25   -1    0    0    0    0  0.00000000000E+00  0.00000000000E+00  0.99999998245E-14  0.12500000000E+03  0.12500000000E+03 0.  0.
        -11    1    3    3    0    0 -0.33606714854E+02 -0.37377875504E+02 -0.14644696266E+02  0.52354407546E+02  0.51100000000E-03 0.  1.
         23    2    1    0    0    0  0.36270366730E+01 -0.13059138576E+02 -0.23661891473E+02  0.97731307266E+02  0.93850022997E+02 0.  0.
         11    1    3    3    0    0  0.37233751527E+02  0.24318736928E+02 -0.90171952070E+01  0.45376899720E+02  0.51100000000E-03 0. -1.
         22    1    1    0    0    0 -0.36270366730E+01  0.13059138576E+02  0.23661891473E+02  0.27268692734E+02  0.00000000000E+00 0.  1.
</event>
<event>
 5    1  0.6622912E-004  0.9118800E+02  0.7818608E-02  0.1130116E+00
         25   -1    0    0    0    0  0.00000000000E+00  0.00000000000E+00  0.99999998245E-14  0.12500000000E+03  0.12500000000E+03 0.  0.
        -11    1    3    3    0    0 -0.97209121904E+01  0.20103042062E+02  0.50163677066E+02  0.54909224462E+02  0.51100000000E-03 0. -1.
         23    2    1    0    0    0  0.17276130817E+02  0.10714316959E+02  0.22259334633E+02  0.94854697510E+02  0.89937057866E+02 0.  0.
         11    1    3    3    0    0  0.26997043007E+02 -0.93887251025E+01 -0.27904342433E+02  0.39945473049E+02  0.51100000000E-03 0.  1.
         22    1    1    0    0    0 -0.17276130817E+02 -0.10714316959E+02 -0.22259334633E+02  0.30145302490E+02  0.00000000000E+00 0. -1.
</event>
<event>
 5    1  0.6622912E-004  0.9118800E+02  0.7818608E-02  0.1130116E+00
         25   -1    0    0    0    0  0.00000000000E+00  0.00000000000E+00  0.99999998245E-14  0.12500000000E+03  0.12500000000E+03 0.  0.
        -11    1    3    3    0    0  0.13980832241E+02 -0.70864519888E+01  0.34711589416E+02  0.38086426873E+02  0.51100000000E-03 0. -1.
         23    2    1    0    0    0 -0.11369271181E+02 -0.20509735820E+02 -0.16182990473E+02  0.96507917394E+02  0.92206178472E+02 0.  0.
         11    1    3    3    0    0 -0.25350103422E+02 -0.13423283831E+02 -0.50894579889E+02  0.58421490521E+02  0.51100000000E-03 0.  1.
         22    1    1    0    0    0  0.11369271181E+02  0.20509735820E+02  0.16182990473E+02  0.28492082606E+02  0.00000000000E+00 0.  1.
</event>
<event>
 5    1  0.6622912E-004  0.9118800E+02  0.7818608E-02  0.1130116E+00
         25   -1    0    0    0    0  0.00000000000E+00  0.00000000000E+00  0.99999998245E-14  0.12500000000E+03  0.12500000000E+03 0.  0.
        -11    1    3    3    0    0  0.29718125069E+01  0.35249994571E+02  0.29789789289E+02  0.46247435961E+02  0.51100000000E-03 0. -1.
         23    2    1    0    0    0  0.13467321883E+02 -0.13185694322E+02  0.21350494027E+02  0.96520623450E+02  0.92223401925E+02 0.  0.
         11    1    3    3    0    0  0.10495509376E+02 -0.48435688893E+02 -0.84392952623E+01  0.50273187490E+02  0.51100000000E-03 0.  1.
         22    1    1    0    0    0 -0.13467321883E+02  0.13185694322E+02 -0.21350494027E+02  0.28479376550E+02  0.00000000000E+00 0.  1.
</event>
<event>
 5    1  0.6622912E-004  0.9118800E+02  0.7818608E-02  0.1130116E+00
         25   -1    0    0    0    0  0.00000000000E+00  0.00000000000E+00  0.99999998245E-14  0.12500000000E+03  0.12500000000E+03 0.  0.
        -11    1    3    3    0    0  0.11764409969E+02 -0.19848956524E+02 -0.56243103060E+02  0.60792014764E+02  0.51100000000E-03 0.  1.
         23    2    1    0    0    0  0.13793847080E+02 -0.31465307096E+01 -0.25529328119E+02  0.95812374763E+02  0.91258389701E+02 0.  0.
         11    1    3    3    0    0  0.20294371104E+01  0.16702425814E+02  0.30713774941E+02  0.35020359999E+02  0.51100000000E-03 0. -1.
         22    1    1    0    0    0 -0.13793847080E+02  0.31465307096E+01  0.25529328119E+02  0.29187625237E+02  0.00000000000E+00 0.  1.
</event>
<event>
 5    1  0.6622912E-004  0.9118800E+02  0.7818608E-02  0.1130116E+00
         25   -1    0    0    0    0  0.00000000000E+00  0.00000000000E+00  0.99999998245E-14  0.12500000000E+03  0.12500000000E+03 0.  0.
        -11    1    3    3    0    0  0.28206355552E+02 -0.51013772278E+02 -0.16471319877E+02  0.60574811880E+02  0.51100000000E-03 0.  1.
         23    2    1    0    0    0  0.28115911366E+02 -0.36854946338E+02 -0.58450138488E+01  0.78277888228E+02  0.62805032100E+02 0.  0.
         11    1    3    3    0    0 -0.90444186760E-01  0.14158825939E+02  0.10626306028E+02  0.17703076348E+02  0.51100000000E-03 0. -1.
         22    1    1    0    0    0 -0.28115911366E+02  0.36854946338E+02  0.58450138488E+01  0.46722111772E+02  0.00000000000E+00 0.  1.
</event>
<event>
 5    1  0.6622912E-004  0.9118800E+02  0.7818608E-02  0.1130116E+00
         25   -1    0    0    0    0  0.00000000000E+00  0.00000000000E+00  0.99999998245E-14  0.12500000000E+03  0.12500000000E+03 0.  0.
        -11    1    3    3    0    0 -0.27667164356E+02 -0.29104393363E+02 -0.39126215912E+02  0.56066018838E+02  0.51100000000E-03 0.  1.
         23    2    1    0    0    0  0.36313131995E+01 -0.24910701362E+02 -0.17641456097E+02  0.94259953625E+02  0.89106612585E+02 0.  0.
         11    1    3    3    0    0  0.31298477556E+02  0.41936920004E+01  0.21484759815E+02  0.38193934787E+02  0.51100000000E-03 0. -1.
         22    1    1    0    0    0 -0.36313131995E+01  0.24910701362E+02  0.17641456097E+02  0.30740046375E+02  0.00000000000E+00 0.  1.
</event>
<event>
 5    1  0.6622912E-004  0.9118800E+02  0.7818608E-02  0.1130116E+00
         25   -1    0    0    0    0  0.00000000000E+00  0.00000000000E+00  0.99999998245E-14  0.12500000000E+03  0.12500000000E+03 0.  0.
        -11    1    3    3    0    0  0.35808581869E+02  0.91340677478E+01 -0.11719850172E+02  0.38769067792E+02  0.51100000000E-03 0. -1.
         23    2    1    0    0    0 -0.19472885185E+02  0.22625003733E-02 -0.21875870764E+02  0.95712682195E+02  0.91121734776E+02 0.  0.
         11    1    3    3    0    0 -0.55281467054E+02 -0.91318052475E+01 -0.10156020592E+02  0.56943614403E+02  0.51100000000E-03 0.  1.
         22    1    1    0    0    0  0.19472885185E+02 -0.22625003733E-02  0.21875870764E+02  0.29287317805E+02  0.00000000000E+00 0.  1.
</event>
<event>
 5    1  0.6622912E-004  0.9118800E+02  0.7818608E-02  0.1130116E+00
         25   -1    0    0    0    0  0.00000000000E+00  0.00000000000E+00  0.99999998245E-14  0.12500000000E+03  0.12500000000E+03 0.  0.
        -11    1    3    3    0    0  0.27139114858E+02  0.28613498546E+02  0.17787334228E+02  0.43262606412E+02  0.51100000000E-03 0. -1.
         23    2    1    0    0    0 -0.27695577924E+01 -0.15304534436E+02  0.23622626086E+02  0.96717007092E+02  0.92489198142E+02 0.  0.
         11    1    3    3    0    0 -0.29908672650E+02 -0.43918032982E+02  0.58352918572E+01  0.53454400680E+02  0.51100000000E-03 0.  1.
         22    1    1    0    0    0  0.27695577924E+01  0.15304534436E+02 -0.23622626086E+02  0.28282992908E+02  0.00000000000E+00 0. -1.
</event>
<event>
 5    1  0.6622912E-004  0.9118800E+02  0.7818608E-02  0.1130116E+00
         25   -1    0    0    0    0  0.00000000000E+00  0.00000000000E+00  0.99999998245E-14  0.12500000000E+03  0.12500000000E+03 0.  0.
        -11    1    3    3    0    0 -0.32516171979E+02  0.36535494162E+02 -0.95870547791E+01  0.49840298890E+02  0.51100000000E-03 0. -1.
         23    2    1    0    0    0  0.10932715872E+02  0.22299590451E+02 -0.15164560118E+02  0.95900860937E+02  0.91379512114E+02 0.  0.
         11    1    3    3    0    0  0.43448887851E+02 -0.14235903711E+02 -0.55775053393E+01  0.46060562047E+02  0.51100000000E-03 0.  1.
         22    1    1    0    0    0 -0.10932715872E+02 -0.22299590451E+02  0.15164560118E+02  0.29099139063E+02  0.00000000000E+00 0. -1.
</event>
<event>
 5    1  0.6622912E-004  0.9118800E+02  0.7818608E-02  0.1130116E+00
         25   -1    0    0    0    0  0.00000000000E+00  0.00000000000E+00  0.99999998245E-14  0.12500000000E+03  0.12500000000E+03 0.  0.
        -11    1    3    3    0    0  0.20933041022E+02  0.91316696446E+01 -0.24961195236E+02  0.33832541506E+02  0.51100000000E-03 0. -1.
         23    2    1    0    0    0 -0.68622807584E+01 -0.36427419999E+01  0.28518070620E+02  0.95442584376E+02  0.90750460572E+02 0.  0.
         11    1    3    3    0    0 -0.27795321780E+02 -0.12774411644E+02  0.53479265856E+02  0.61610042870E+02  0.51100000000E-03 0.  1.
         22    1    1    0    0    0  0.68622807584E+01  0.36427419999E+01 -0.28518070620E+02  0.29557415624E+02  0.00000000000E+00 0.  1.
</event>
<event>
 5    1  0.6622912E-004  0.9118800E+02  0.7818608E-02  0.1130116E+00
         25   -1    0    0    0    0  0.00000000000E+00  0.00000000000E+00  0.99999998245E-14  0.12500000000E+03  0.12500000000E+03 0.  0.
        -11    1    3    3    0    0 -0.37430074936E+02 -0.40439639168E+02 -0.22386564022E+02  0.59477165154E+02  0.51100000000E-03 0. -1.
         23    2    1    0    0    0 -0.29715759041E+01 -0.20998332188E+02 -0.12948980936E+02  0.10015173396E+03  0.97020273600E+02 0.  0.
         11    1    3    3    0    0  0.34458499032E+02  0.19441306980E+02  0.94375830861E+01  0.40674568804E+02  0.51100000000E-03 0.  1.
         22    1    1    0    0    0  0.29715759041E+01  0.20998332188E+02  0.12948980936E+02  0.24848266042E+02  0.00000000000E+00 0. -1.
</event>
<event>
 5    1  0.6622912E-004  0.9118800E+02  0.7818608E-02  0.1130116E+00
         25   -1    0    0    0    0  0.00000000000E+00  0.00000000000E+00  0.99999998245E-14  0.12500000000E+03  0.12500000000E+03 0.  0.
        -11    1    3    3    0    0 -0.66045742451E+01 -0.29202953455E+02 -0.14361079252E+02  0.33206527807E+02  0.51100000000E-03 0.  1.
         23    2    1    0    0    0  0.15230651381E+02  0.23032333475E+02  0.11043889756E+02  0.95260655223E+02  0.90499523788E+02 0.  0.
         11    1    3    3    0    0  0.21835225626E+02  0.52235286930E+02  0.25404969008E+02  0.62054127416E+02  0.51100000000E-03 0. -1.
         22    1    1    0    0    0 -0.15230651381E+02 -0.23032333475E+02 -0.11043889756E+02  0.29739344777E+02  0.00000000000E+00 0. -1.
</event>
<event>
 5    1  0.6622912E-004  0.9118800E+02  0.7818608E-02  0.1130116E+00
         25   -1    0    0    0    0  0.00000000000E+00  0.00000000000E+00  0.99999998245E-14  0.12500000000E+03  0.12500000000E+03 0.  0.
        -11    1    3    3    0    0 -0.40560465513E+02 -0.21278540852E+01  0.25915250450E+02  0.48179656825E+02  0.51100000000E-03 0.  1.
         23    2    1    0    0    0 -0.52269644219E+01 -0.28022974428E+02  0.98077904060E+01  0.94853673432E+02  0.89935634529E+02 0.  0.
         11    1    3    3    0    0  0.35333501091E+02 -0.25895120343E+02 -0.16107460044E+02  0.46674016607E+02  0.51100000000E-03 0. -1.
         22    1    1    0    0    0  0.52269644219E+01  0.28022974428E+02 -0.98077904060E+01  0.30146326568E+02  0.00000000000E+00 0.  1.
</event>
<event>
 5    1  0.6622912E-004  0.9118800E+02  0.7818608E-02  0.1130116E+00
         25   -1    0    0    0    0  0.00000000000E+00  0.00000000000E+00  0.99999998245E-14  0.12500000000E+03  0.12500000000E+03 0.  0.
        -11    1    3    3    0    0 -0.98569616093E+01  0.29943262589E+02 -0.17904421749E+02  0.36253647886E+02  0.51100000000E-03 0. -1.
         23    2    1    0    0    0  0.18608977872E+02 -0.20387942423E+02  0.17885586625E+01  0.97338452759E+02  0.93325308409E+02 0.  0.
         11    1    3    3    0    0  0.28465939482E+02 -0.50331205012E+02  0.19692980412E+02  0.61084804872E+02  0.51100000000E-03 0.  1.
         22    1    1    0    0    0 -0.18608977872E+02  0.20387942423E+02 -0.17885586625E+01  0.27661547241E+02  0.00000000000E+00 0.  1.
</event>
<event>
 5    1  0.6622912E-004  0.9118800E+02  0.7818608E-02  0.1130116E+00
         25   -1    0    0    0    0  0.00000000000E+00  0.00000000000E+00  0.99999998245E-14  0.12500000000E+03  0.12500000000E+03 0.  0.
        -11    1    3    3    0    0  0.17823312163E+02  0.37914359716E+02 -0.51981407352E+01  0.42215989820E+02  0.51100000000E-03 0.  1.
         23    2    1    0    0    0 -0.12965163105E+02 -0.26885516434E+01 -0.24859803259E+02  0.96833822014E+02  0.92646940065E+02 0.  0.
         11    1    3    3    0    0 -0.30788475268E+02 -0.40602911359E+02 -0.19661662524E+02  0.54617832194E+02  0.51100000000E-03 0. -1.
         22    1    1    0    0    0  0.12965163105E+02  0.26885516434E+01  0.24859803259E+02  0.28166177986E+02  0.00000000000E+00 0.  1.
</event>
<event>
 5    1  0.6622912E-004  0.9118800E+02  0.7818608E-02  0.1130116E+00
         25   -1    0    0    0    0  0.00000000000E+00  0.00000000000E+00  0.99999998245E-14  0.12500000000E+03  0.12500000000E+03 0.  0.
        -11    1    3    3    0    0 -0.13897683684E+02  0.23869396664E+01 -0.41269963239E+02  0.43612532129E+02  0.51100000000E-03 0. -1.
         23    2    1    0    0    0  0.26840563404E+02  0.70267749206E+01 -0.88666218723E+01  0.95872549150E+02  0.91340775601E+02 0.  0.
         11    1    3    3    0    0  0.40738247088E+02  0.46398352542E+01  0.32403341367E+02  0.52260017020E+02  0.51100000000E-03 0.  1.
         22    1    1    0    0    0 -0.26840563404E+02 -0.70267749206E+01  0.88666218723E+01  0.29127450850E+02  0.00000000000E+00 0.  1.
</event>
<event>
 5    1  0.6622912E-004  0.9118800E+02  0.7818608E-02  0.1130116E+00
         25   -1    0    0    0    0  0.00000000000E+00  0.00000000000E+00  0.99999998245E-14  0.12500000000E+03  0.12500000000E+03 0.  0.
        -11    1    3    3    0    0 -0.30592855313E+02 -0.11620759397E+02 -0.27500612293E+02  0.42746327584E+02  0.51100000000E-03 0.  1.
         23    2    1    0    0    0  0.13318284182E+02 -0.26593645754E+02 -0.32925585687E+01  0.95076102694E+02  0.90244255626E+02 0.  0.
         11    1    3    3    0    0  0.43911139496E+02 -0.14972886357E+02  0.24208053724E+02  0.52329775110E+02  0.51100000000E-03 0. -1.
         22    1    1    0    0    0 -0.13318284182E+02  0.26593645754E+02  0.32925585687E+01  0.29923897306E+02  0.00000000000E+00 0. -1.
</event>
<event>
 5    1  0.6622912E-004  0.9118800E+02  0.7818608E-02  0.1130116E+00
         25   -1    0    0    0    0  0.00000000000E+00  0.00000000000E+00  0.99999998245E-14  0.12500000000E+03  0.12500000000E+03 0.  0.
        -11    1    3    3    0    0  0.27696877488E+02 -0.76818493792E+01 -0.37914331103E+02  0.47577561263E+02  0.51100000000E-03 0. -1.
         23    2    1    0    0    0  0.15292436489E+02  0.25557250521E+02 -0.75516603941E+01  0.94274452932E+02  0.89126950093E+02 0.  0.
         11    1    3    3    0    0 -0.12404440999E+02  0.33239099900E+02  0.30362670709E+02  0.46696891669E+02  0.51100000000E-03 0.  1.
         22    1    1    0    0    0 -0.15292436489E+02 -0.25557250521E+02  0.75516603941E+01  0.30725547068E+02  0.00000000000E+00 0. -1.
</event>
<event>
 5    1  0.6622912E-004  0.9118800E+02  0.7818608E-02  0.1130116E+00
         25   -1    0    0    0    0  0.00000000000E+00  0.00000000000E+00  0.99999998245E-14  0.12500000000E+03  0.12500000000E+03 0.  0.
        -11    1    3    3    0    0  0.13838443828E+02  0.28144728765E+02  0.27816465746E+02  0.41921164723E+02  0.51100000000E-03 0.  1.
         23    2    1    0    0    0  0.18550880196E+02 -0.21486588288E+02  0.87817759282E+01  0.95285891890E+02  0.90534374536E+02 0.  0.
         11    1    3    3    0    0  0.47124363681E+01 -0.49631317053E+02 -0.19034689818E+02  0.53364727168E+02  0.51100000000E-03 0. -1.
         22    1    1    0    0    0 -0.18550880196E+02  0.21486588288E+02 -0.87817759282E+01  0.29714108110E+02  0.00000000000E+00 0. -1.
</event>
<event>
 5    1  0.6622912E-004  0.9118800E+02  0.7818608E-02  0.1130116E+00
         25   -1    0    0    0    0  0.00000000000E+00  0.00000000000E+00  0.99999998245E-14  0.12500000000E+03  0.12500000000E+03 0.  0.
        -11    1    3    3    0    0  0.45585047915E+02 -0.17531584181E+02 -0.14880653220E+02  0.51056702575E+02  0.51100000000E-03 0.  1.
         23    2    1    0    0    0  0.25192210543E+02  0.15677489590E+01  0.17845653075E+02  0.94087661969E+02  0.88864590768E+02 0.  0.
         11    1    3    3    0    0 -0.20392837372E+02  0.19099333140E+02  0.32726306295E+02  0.43030959395E+02  0.51100000000E-03 0. -1.
         22    1    1    0    0    0 -0.25192210543E+02 -0.15677489590E+01 -0.17845653075E+02  0.30912338031E+02  0.00000000000E+00 0.  1.
</event>
<event>
 5    1  0.6622912E-004  0.9118800E+02  0.7818608E-02  0.1130116E+00
         25   -1    0    0    0    0  0.00000000000E+00  0.00000000000E+00  0.99999998245E-14  0.12500000000E+03  0.12500000000E+03 0.  0.
        -11    1    3    3    0    0 -0.48445554867E+01 -0.15704442342E+01 -0.62061435736E+02  0.62270039496E+02  0.51100000000E-03 0. -1.
         23    2    1    0    0    0 -0.48487248860E+01 -0.34597160555E+01 -0.28520919865E+02  0.95863722988E+02  0.91328696185E+02 0.  0.
         11    1    3    3    0    0 -0.41693993044E-02 -0.18892718214E+01  0.33540515871E+02  0.33593683492E+02  0.51100000000E-03 0.  1.
         22    1    1    0    0    0  0.48487248860E+01  0.34597160555E+01  0.28520919865E+02  0.29136277012E+02  0.00000000000E+00 0. -1.
</event>
<event>
 5    1  0.6622912E-004  0.9118800E+02  0.7818608E-02  0.1130116E+00
         25   -1    0    0    0    0  0.00000000000E+00  0.00000000000E+00  0.99999998245E-14  0.12500000000E+03  0.12500000000E+03 0.  0.
        -11    1    3    3    0    0  0.20496302758E+02 -0.20757055863E+02  0.16278048173E+02  0.33405518218E+02  0.51100000000E-03 0.  1.
         23    2    1    0    0    0 -0.27718572829E+02  0.11496455722E+02 -0.37155325268E+01  0.94762722415E+02  0.89809134300E+02 0.  0.
         11    1    3    3    0    0 -0.48214875586E+02  0.32253511585E+02 -0.19993580699E+02  0.61357204197E+02  0.51100000000E-03 0. -1.
         22    1    1    0    0    0  0.27718572829E+02 -0.11496455722E+02  0.37155325268E+01  0.30237277585E+02  0.00000000000E+00 0. -1.
</event>
<event>
 5    1  0.6622912E-004  0.9118800E+02  0.7818608E-02  0.1130116E+00
         25   -1    0    0    0    0  0.00000000000E+00  0.00000000000E+00  0.99999998245E-14  0.12500000000E+03  0.12500000000E+03 0.  0.
        -11    1    3    3    0    0 -0.28189076659E+01  0.47528581304E+02  0.26697037411E+01  0.47686891276E+02  0.51100000000E-03 0. -1.
         23    2    1    0    0    0 -0.14593599761E+02  0.80393468389E+01  0.25305437815E+02  0.94701989594E+02  0.89724564075E+02 0.  0.
         11    1    3    3    0    0 -0.11774692095E+02 -0.39489234465E+02  0.22635734074E+02  0.47015098318E+02  0.51100000000E-03 0.  1.
         22    1    1    0    0    0  0.14593599761E+02 -0.80393468389E+01 -0.25305437815E+02  0.30298010406E+02  0.00000000000E+00 0.  1.
</event>
<event>
 5    1  0.6622912E-004  0.9118800E+02  0.7818608E-02  0.1130116E+00
         25   -1    0    0    0    0  0.00000000000E+00  0.00000000000E+00  0.99999998245E-14  0.12500000000E+03  0.12500000000E+03 0.  0.
        -11    1    3    3    0    0  0.58964499678E+02 -0.11422882400E+02  0.84072814723E+01  0.60646325912E+02  0.51100000000E-03 0.  1.
         23    2    1    0    0    0  0.28793845631E+02  0.52934348791E+01  0.49021444042E+01  0.95316047790E+02  0.90576000947E+02 0.  0.
         11    1    3    3    0    0 -0.30170654047E+02  0.16716317279E+02 -0.35051370681E+01  0.34669721878E+02  0.51100000000E-03 0. -1.
         22    1    1    0    0    0 -0.28793845631E+02 -0.52934348791E+01 -0.49021444042E+01  0.29683952210E+02  0.00000000000E+00 0.  1.
</event>
<event>
 5    1  0.6622912E-004  0.9118800E+02  0.7818608E-02  0.1130116E+00
         25   -1    0    0    0    0  0.00000000000E+00  0.00000000000E+00  0.99999998245E-14  0.12500000000E+03  0.12500000000E+03 0.  0.
        -11    1    3    3    0    0 -0.25931473538E+02  0.25768988397E+02  0.48585878166E+02  0.60803533123E+02  0.51100000000E-03 0.  1.
         23    2    1    0    0    0 -0.10179268329E+02  0.20490035666E+02  0.16985017471E+02  0.96505265683E+02  0.92202583591E+02 0.  0.
         11    1    3    3    0    0  0.15752205209E+02 -0.52789527318E+01 -0.31600860695E+02  0.35701732560E+02  0.51100000000E-03 0. -1.
         22    1    1    0    0    0  0.10179268329E+02 -0.20490035666E+02 -0.16985017471E+02  0.28494734317E+02  0.00000000000E+00 0.  1.
</event>
<event>
 5    1  0.6622912E-004  0.9118800E+02  0.7818608E-02  0.1130116E+00
         25   -1    0    0    0    0  0.00000000000E+00  0.00000000000E+00  0.99999998245E-14  0.12500000000E+03  0.12500000000E+03 0.  0.
        -11    1    3    3    0    0  0.41906130885E+00 -0.24082250114E+02 -0.22890069037E+02  0.33227784213E+02  0.51100000000E-03 0. -1.
         23    2    1    0    0    0  0.54819599568E+01  0.20982877373E+02  0.19891764858E+02  0.95571861476E+02  0.90928352944E+02 0.  0.
         11    1    3    3    0    0  0.50628986480E+01  0.45065127487E+02  0.42781833895E+02  0.62344077263E+02  0.51100000000E-03 0.  1.
         22    1    1    0    0    0 -0.54819599568E+01 -0.20982877373E+02 -0.19891764858E+02  0.29428138524E+02  0.00000000000E+00 0.  1.
</event>
<event>
 5    1  0.6622912E-004  0.9118800E+02  0.7818608E-02  0.1130116E+00
         25   -1    0    0    0    0  0.00000000000E+00  0.00000000000E+00  0.99999998245E-14  0.12500000000E+03  0.12500000000E+03 0.  0.
        -11    1    3    3    0    0 -0.49080905706E+02  0.13492285282E+02 -0.35702082962E+02  0.62174076552E+02  0.51100000000E-03 0. -1.
         23    2    1    0    0    0 -0.20633561339E+02  0.54995799949E+01 -0.20476584357E+02  0.95414872984E+02  0.90712282774E+02 0.  0.
         11    1    3    3    0    0  0.28447344367E+02 -0.79927052869E+01  0.15225498606E+02  0.33240796432E+02  0.51100000000E-03 0.  1.
         22    1    1    0    0    0  0.20633561339E+02 -0.54995799949E+01  0.20476584357E+02  0.29585127016E+02  0.00000000000E+00 0. -1.
</event>
<event>
 5    1  0.6622912E-004  0.9118800E+02  0.7818608E-02  0.1130116E+00
         25   -1    0    0    0    0  0.00000000000E+00  0.00000000000E+00  0.99999998245E-14  0.12500000000E+03  0.12500000000E+03 0.  0.
        -11    1    3    3    0    0  0.48554226677E+01  0.25012947905E+02 -0.19265350441E+02  0.31943331387E+02  0.51100000000E-03 0.  1.
         23    2    1    0    0    0 -0.12251474453E+02 -0.14352451808E+02  0.25050341580E+02  0.93637424971E+02  0.88228998877E+02 0.  0.
         11    1    3    3    0    0 -0.17106897120E+02 -0.39365399713E+02  0.44315692021E+02  0.61694093585E+02  0.51100000000E-03 0. -1.
         22    1    1    0    0    0  0.12251474453E+02  0.14352451808E+02 -0.25050341580E+02  0.31362575029E+02  0.00000000000E+00 0. -1.
</event>
<event>
 5    1  0.6622912E-004  0.9118800E+02  0.7818608E-02  0.1130116E+00
         25   -1    0    0    0    0  0.00000000000E+00  0.00000000000E+00  0.99999998245E-14  0.12500000000E+03  0.12500000000E+03 0.  0.
        -11    1    3    3    0    0 -0.36348665505E+02  0.48404726499E+02  0.15645048315E+01  0.60553205589E+02  0.51100000000E-03 0. -1.
         23    2    1    0    0    0 -0.25785317878E+02  0.17318668275E+02  0.49013380361E+01  0.93554141712E+02  0.88110926837E+02 0.  0.
         11    1    3    3    0    0  0.10563347627E+02 -0.31086058223E+02  0.33368332046E+01  0.33000936124E+02  0.51100000000E-03 0.  1.
         22    1    1    0    0    0  0.25785317878E+02 -0.17318668275E+02 -0.49013380361E+01  0.31445858288E+02  0.00000000000E+00 0. -1.
</event>
<event>
 5    1  0.6622912E-004  0.9118800E+02  0.7818608E-02  0.1130116E+00
         25   -1    0    0    0    0  0.00000000000E+00  0.00000000000E+00  0.99999998245E-14  0.12500000000E+03  0.12500000000E+03 0.  0.
        -11    1    3    3    0    0 -0.80613785287E+01  0.39568349976E+02  0.25620179032E+02  0.47822941330E+02  0.51100000000E-03 0.  1.
         23    2    1    0    0    0  0.16064732529E+02 -0.23815244258E+01  0.23720078579E+02  0.96253010286E+02  0.91859961744E+02 0.  0.
         11    1    3    3    0    0  0.24126111058E+02 -0.41949874402E+02 -0.19001004532E+01  0.48430068956E+02  0.51100000000E-03 0. -1.
         22    1    1    0    0    0 -0.16064732529E+02  0.23815244258E+01 -0.23720078579E+02  0.28746989714E+02  0.00000000000E+00 0. -1.
</event>
<event>
 5    1  0.6622912E-004  0.9118800E+02  0.7818608E-02  0.1130116E+00
         25   -1    0    0    0    0  0.00000000000E+00  0.00000000000E+00  0.99999998245E-14  0.12500000000E+03  0.12500000000E+03 0.  0.
        -11    1    3    3    0    0 -0.27732784435E+02 -0.30561764202E+02 -0.14628951853E+02  0.43785100162E+02  0.51100000000E-03 0. -1.
         23    2    1    0    0    0 -0.25093330500E+02  0.17999292912E+02 -0.18775070260E+01  0.94061758072E+02  0.88828145979E+02 0.  0.
         11    1    3    3    0    0  0.26394539345E+01  0.48561057115E+02  0.12751444827E+02  0.50276657910E+02  0.51100000000E-03 0.  1.
         22    1    1    0    0    0  0.25093330500E+02 -0.17999292912E+02  0.18775070260E+01  0.30938241928E+02  0.00000000000E+00 0.  1.
</event>
<event>
 5    1  0.6622912E-004  0.9118800E+02  0.7818608E-02  0.1130116E+00
         25   -1    0    0    0    0  0.00000000000E+00  0.00000000000E+00  0.99999998245E-14  0.12500000000E+03  0.12500000000E+03 0.  0.
        -11    1    3    3    0    0 -0.49559125329E+01 -0.14472128718E+02  0.32028358955E+02  0.35493934077E+02  0.51100000000E-03 0. -1.
         23    2    1    0    0    0  0.19431157878E+02 -0.22709672409E+01 -0.21722686121E+02  0.95766418608E+02  0.91195420127E+02 0.  0.
         11    1    3    3    0    0  0.24387070411E+02  0.12201161477E+02 -0.53751045076E+02  0.60272484531E+02  0.51100000000E-03 0.  1.
         22    1    1    0    0    0 -0.19431157878E+02  0.22709672409E+01  0.21722686121E+02  0.29233581392E+02  0.00000000000E+00 0.  1.
</event>
<event>
 5    1  0.6622912E-004  0.9118800E+02  0.7818608E-02  0.1130116E+00
         25   -1    0    0    0    0  0.00000000000E+00  0.00000000000E+00  0.99999998245E-14  0.12500000000E+03  0.12500000000E+03 0.  0.
        -11    1    3    3    0    0  0.48609024790E+02  0.23865136830E+02 -0.29977044576E+02  0.61895114902E+02  0.51100000000E-03 0.  1.
         23    2    1    0    0    0  0.24408503739E+02  0.53280272796E+01 -0.12013828191E+02  0.97278257679E+02  0.93244648210E+02 0.  0.
         11    1    3    3    0    0 -0.24200521051E+02 -0.18537109551E+02  0.17963216385E+02  0.35383142777E+02  0.51100000000E-03 0. -1.
         22    1    1    0    0    0 -0.24408503739E+02 -0.53280272796E+01  0.12013828191E+02  0.27721742321E+02  0.00000000000E+00 0.  1.
</event>
<event>
 5    1  0.6622912E-004  0.9118800E+02  0.7818608E-02  0.1130116E+00
         25   -1    0    0    0    0  0.00000000000E+00  0.00000000000E+00  0.99999998245E-14  0.12500000000E+03  0.12500000000E+03 0.  0.
        -11    1    3    3    0    0 -0.19147105293E+02  0.23229593857E+02 -0.44530556441E+02  0.53751243047E+02  0.51100000000E-03 0.  1.
         23    2    1    0    0    0  0.94147965630E+01  0.23810961799E+02 -0.13051059703E+02  0.96260994181E+02  0.91870825321E+02 0.  0.
         11    1    3    3    0    0  0.28561901856E+02  0.58136794198E+00  0.31479496738E+02  0.42509751134E+02  0.51100000000E-03 0. -1.
         22    1    1    0    0    0 -0.94147965630E+01 -0.23810961799E+02  0.13051059703E+02  0.28739005819E+02  0.00000000000E+00 0.  1.
</event>
<event>
 5    1  0.6622912E-004  0.9118800E+02  0.7818608E-02  0.1130116E+00
         25   -1    0    0    0    0  0.00000000000E+00  0.00000000000E+00  0.99999998245E-14  0.12500000000E+03  0.12500000000E+03 0.  0.
        -11    1    3    3    0    0 -0.53934152260E+02 -0.79026450289E+01  0.10050771950E+02  0.55428896755E+02  0.51100000000E-03 0. -1.
         23    2    1    0    0    0 -0.18746000834E+02 -0.23178379487E+02 -0.39731072311E+00  0.95187122266E+02  0.90397901340E+02 0.  0.
         11    1    3    3    0    0  0.35188151425E+02 -0.15275734459E+02 -0.10448082674E+02  0.39758225511E+02  0.51100000000E-03 0.  1.
         22    1    1    0    0    0  0.18746000834E+02  0.23178379487E+02  0.39731072311E+00  0.29812877734E+02  0.00000000000E+00 0. -1.
</event>
<event>
 5    1  0.6622912E-004  0.9118800E+02  0.7818608E-02  0.1130116E+00
         25   -1    0    0    0    0  0.00000000000E+00  0.00000000000E+00  0.99999998245E-14  0.12500000000E+03  0.12500000000E+03 0.  0.
        -11    1    3    3    0    0  0.18636478349E+02 -0.45298564664E+02  0.23199706118E+02  0.54198751370E+02  0.51100000000E-03 0.  1.
         23    2    1    0    0    0 -0.24684717904E+01 -0.10428384440E+02  0.27789272741E+02  0.95215973501E+02  0.90437787320E+02 0.  0.
         11    1    3    3    0    0 -0.21104950139E+02  0.34870180224E+02  0.45895666230E+01  0.41017222131E+02  0.51100000000E-03 0. -1.
         22    1    1    0    0    0  0.24684717904E+01  0.10428384440E+02 -0.27789272741E+02  0.29784026499E+02  0.00000000000E+00 0. -1.
</event>
<event>
 5    1  0.6622912E-004  0.9118800E+02  0.7818608E-02  0.1130116E+00
         25   -1    0    0    0    0  0.00000000000E+00  0.00000000000E+00  0.99999998245E-14  0.12500000000E+03  0.12500000000E+03 0.  0.
        -11    1    3    3    0    0 -0.48951793768E+02 -0.12323599519E+02 -0.13834185887E+02  0.52340557100E+02  0.51100000000E-03 0. -1.
         23    2    1    0    0    0 -0.12034986144E+02 -0.22849090722E+02  0.97517305179E+01  0.97395324918E+02  0.93401451967E+02 0.  0.
         11    1    3    3    0    0  0.36916807624E+02 -0.10525491203E+02  0.23585916405E+02  0.45054767818E+02  0.51100000000E-03 0.  1.
         22    1    1    0    0    0  0.12034986144E+02  0.22849090722E+02 -0.97517305179E+01  0.27604675082E+02  0.00000000000E+00 0. -1.
</event>
<event>
 5    1  0.6622912E-004  0.9118800E+02  0.7818608E-02  0.1130116E+00
         25   -1    0    0    0    0  0.00000000000E+00  0.00000000000E+00  0.99999998245E-14  0.12500000000E+03  0.12500000000E+03 0.  0.
        -11    1    3    3    0    0 -0.44795072780E+02  0.31696793047E+02  0.25394150209E+02  0.60466090496E+02  0.51100000000E-03 0. -1.
         23    2    1    0    0    0 -0.19302900243E+02  0.23145914481E+02  0.44800992491E+01  0.94530234588E+02  0.89484963245E+02 0.  0.
         11    1    3    3    0    0  0.25492172536E+02 -0.85508785659E+01 -0.20914050960E+02  0.34064144091E+02  0.51100000000E-03 0.  1.
         22    1    1    0    0    0  0.19302900243E+02 -0.23145914481E+02 -0.44800992491E+01  0.30469765412E+02  0.00000000000E+00 0. -1.
</event>
<event>
 5    1  0.6622912E-004  0.9118800E+02  0.7818608E-02  0.1130116E+00
         25   -1    0    0    0    0  0.00000000000E+00  0.00000000000E+00  0.99999998245E-14  0.12500000000E+03  0.12500000000E+03 0.  0.
        -11    1    3    3    0    0  0.17505610996E+02 -0.55154470301E+02 -0.22408212223E+02  0.62053122289E+02  0.51100000000E-03 0. -1.
         23    2    1    0    0    0  0.43131635372E+01 -0.28136471963E+02 -0.77730533307E+01  0.95492631559E+02  0.90819369573E+02 0.  0.
         11    1    3    3    0    0 -0.13192447459E+02  0.27017998338E+02  0.14635158893E+02  0.33439509270E+02  0.51100000000E-03 0.  1.
         22    1    1    0    0    0 -0.43131635372E+01  0.28136471963E+02  0.77730533307E+01  0.29507368441E+02  0.00000000000E+00 0. -1.
</event>
<event>
 5    1  0.6622912E-004  0.9118800E+02  0.7818608E-02  0.1130116E+00
         25   -1    0    0    0    0  0.00000000000E+00  0.00000000000E+00  0.99999998245E-14  0.12500000000E+03  0.12500000000E+03 0.  0.
        -11    1    3    3    0    0 -0.33761404604E+02 -0.97854568951E+01  0.99482756217E+01  0.36531572586E+02  0.51100000000E-03 0. -1.
         23    2    1    0    0    0  0.10604029285E+02  0.27594190247E+02  0.70075302355E+01  0.94619245360E+02  0.89609214593E+02 0.  0.
         11    1    3    3    0    0  0.44365433889E+02  0.37379647143E+02 -0.29407453862E+01  0.58087672774E+02  0.51100000000E-03 0.  1.
         22    1    1    0    0    0 -0.10604029285E+02 -0.27594190247E+02 -0.70075302355E+01  0.30380754640E+02  0.00000000000E+00 0.  1.
</event>
<event>
 5    1  0.6622912E-004  0.9118800E+02  0.7818608E-02  0.1130116E+00
         25   -1    0    0    0    0  0.00000000000E+00  0.00000000000E+00  0.99999998245E-14  0.12500000000E+03  0.12500000000E+03 0.  0.
        -11    1    3    3    0    0  0.19807087366E+01  0.36729248068E+02 -0.14136184686E+02  0.39405489319E+02  0.51100000000E-03 0.  1.
         23    2    1    0    0    0 -0.18516450982E+02 -0.15221912414E+02  0.83589975351E+01  0.99614208417E+02  0.96325241262E+02 0.  0.
         11    1    3    3    0    0 -0.20497159719E+02 -0.51951160482E+02  0.22495182221E+02  0.60208719098E+02  0.51100000000E-03 0. -1.
         22    1    1    0    0    0  0.18516450982E+02  0.15221912414E+02 -0.83589975351E+01  0.25385791583E+02  0.00000000000E+00 0. -1.
</event>
<event>
 5    1  0.6622912E-004  0.9118800E+02  0.7818608E-02  0.1130116E+00
         25   -1    0    0    0    0  0.00000000000E+00  0.00000000000E+00  0.99999998245E-14  0.12500000000E+03  0.12500000000E+03 0.  0.
        -11    1    3    3    0    0  0.42627398137E+02 -0.14000950206E+02 -0.46528178408E+01  0.45108429287E+02  0.51100000000E-03 0.  1.
         23    2    1    0    0    0  0.34619690725E+02  0.22576325717E+02  0.38028770669E+01  0.83494875705E+02  0.72448042942E+02 0.  0.
         11    1    3    3    0    0 -0.80077074122E+01  0.36577275923E+02  0.84556949077E+01  0.38386446417E+02  0.51100000000E-03 0. -1.
         22    1    1    0    0    0 -0.34619690725E+02 -0.22576325717E+02 -0.38028770669E+01  0.41505124295E+02  0.00000000000E+00 0. -1.
</event>
<event>
 5    1  0.6622912E-004  0.9118800E+02  0.7818608E-02  0.1130116E+00
         25   -1    0    0    0    0  0.00000000000E+00  0.00000000000E+00  0.99999998245E-14  0.12500000000E+03  0.12500000000E+03 0.  0.
        -11    1    3    3    0    0  0.34852430458E+02 -0.37691098461E+02  0.32336988030E+01  0.51437025771E+02  0.51100000000E-03 0. -1.
         23    2    1    0    0    0 -0.76994162969E+01 -0.29048896633E+02  0.49323530649E+00  0.94944007453E+02  0.90061100722E+02 0.  0.
         11    1    3    3    0    0 -0.42551846754E+02  0.86422018274E+01 -0.27404634965E+01  0.43506981682E+02  0.51100000000E-03 0.  1.
         22    1    1    0    0    0  0.76994162969E+01  0.29048896633E+02 -0.49323530649E+00  0.30055992547E+02  0.00000000000E+00 0. -1.
</event>
<event>
 5    1  0.6622912E-004  0.9118800E+02  0.7818608E-02  0.1130116E+00
         25   -1    0    0    0    0  0.00000000000E+00  0.00000000000E+00  0.99999998245E-14  0.12500000000E+03  0.12500000000E+03 0.  0.
        -11    1    3    3    0    0 -0.26966011302E+02 -0.36588661214E+02  0.13843121803E+02  0.47513449848E+02  0.51100000000E-03 0.  1.
         23    2    1    0    0    0  0.26770540786E+01  0.49724682447E+01  0.24664556840E+02  0.99697185471E+02  0.96432859378E+02 0.  0.
         11    1    3    3    0    0  0.29643065380E+02  0.41561129459E+02  0.10821435037E+02  0.52183735623E+02  0.51100000000E-03 0. -1.
         22    1    1    0    0    0 -0.26770540786E+01 -0.49724682447E+01 -0.24664556840E+02  0.25302814529E+02  0.00000000000E+00 0. -1.
</event>
<event>
 5    1  0.6622912E-004  0.9118800E+02  0.7818608E-02  0.1130116E+00
         25   -1    0    0    0    0  0.00000000000E+00  0.00000000000E+00  0.99999998245E-14  0.12500000000E+03  0.12500000000E+03 0.  0.
        -11    1    3    3    0    0 -0.16242399699E+02 -0.40445523410E+02 -0.32120557182E+02  0.54142276511E+02  0.51100000000E-03 0. -1.
         23    2    1    0    0    0 -0.14479649604E+02  0.11571415687E+01 -0.24564175208E+02  0.96462341846E+02  0.92144372924E+02 0.  0.
         11    1    3    3    0    0  0.17627500952E+01  0.41602664978E+02  0.75563819744E+01  0.42320065335E+02  0.51100000000E-03 0.  1.
         22    1    1    0    0    0  0.14479649604E+02 -0.11571415687E+01  0.24564175208E+02  0.28537658154E+02  0.00000000000E+00 0.  1.
</event>
<event>
 5    1  0.6622912E-004  0.9118800E+02  0.7818608E-02  0.1130116E+00
         25   -1    0    0    0    0  0.00000000000E+00  0.00000000000E+00  0.99999998245E-14  0.12500000000E+03  0.12500000000E+03 0.  0.
        -11    1    3    3    0    0  0.19678344771E+02  0.20690072801E+02  0.21721981772E+02  0.35877024094E+02  0.51100000000E-03 0. -1.
         23    2    1    0    0    0 -0.11044247813E+02 -0.20270565193E+02 -0.13717798970E+02  0.98147640112E+02  0.94402913239E+02 0.  0.
         11    1    3    3    0    0 -0.30722592584E+02 -0.40960637994E+02 -0.35439780742E+02  0.62270616018E+02  0.51100000000E-03 0.  1.
         22    1    1    0    0    0  0.11044247813E+02  0.20270565193E+02  0.13717798970E+02  0.26852359888E+02  0.00000000000E+00 0.  1.
</event>
<event>
 5    1  0.6622912E-004  0.9118800E+02  0.7818608E-02  0.1130116E+00
         25   -1    0    0    0    0  0.00000000000E+00  0.00000000000E+00  0.99999998245E-14  0.12500000000E+03  0.12500000000E+03 0.  0.
        -11    1    3    3    0    0 -0.29885156566E+02 -0.33834291506E+00  0.51381102579E+02  0.59441187416E+02  0.51100000000E-03 0.  1.
         23    2    1    0    0    0 -0.11139147451E+02  0.13406816832E+02  0.23499121983E+02  0.95741974136E+02  0.91161908350E+02 0.  0.
         11    1    3    3    0    0  0.18746009115E+02  0.13745159747E+02 -0.27881980597E+02  0.36300786720E+02  0.51100000000E-03 0. -1.
         22    1    1    0    0    0  0.11139147451E+02 -0.13406816832E+02 -0.23499121983E+02  0.29258025864E+02  0.00000000000E+00 0.  1.
</event>
<event>
 5    1  0.6622912E-004  0.9118800E+02  0.7818608E-02  0.1130116E+00
         25   -1    0    0    0    0  0.00000000000E+00  0.00000000000E+00  0.99999998245E-14  0.12500000000E+03  0.12500000000E+03 0.  0.
        -11    1    3    3    0    0 -0.30102401778E+02 -0.13568489397E+02  0.43985252694E+02  0.54999645018E+02  0.51100000000E-03 0.  1.
         23    2    1    0    0    0 -0.14115743667E+01  0.11109898460E+02  0.25566748675E+02  0.97087977074E+02  0.92989215873E+02 0.  0.
         11    1    3    3    0    0  0.28690827411E+02  0.24678387856E+02 -0.18418504019E+02  0.42088332056E+02  0.51100000000E-03 0. -1.
         22    1    1    0    0    0  0.14115743667E+01 -0.11109898460E+02 -0.25566748675E+02  0.27912022926E+02  0.00000000000E+00 0. -1.
</event>
<event>
 5    1  0.6622912E-004  0.9118800E+02  0.7818608E-02  0.1130116E+00
         25   -1    0    0    0    0  0.00000000000E+00  0.00000000000E+00  0.99999998245E-14  0.12500000000E+03  0.12500000000E+03 0.  0.
        -11    1    3    3    0    0 -0.26050520682E+02 -0.27273880802E+02 -0.44242035930E+02  0.58136494092E+02  0.51100000000E-03 0.  1.
         23    2    1    0    0    0 -0.95250874792E+00 -0.24332258120E+02 -0.16950920027E+02  0.95330154231E+02  0.90595466541E+02 0.  0.
         11    1    3    3    0    0  0.25098011934E+02  0.29416226813E+01  0.27291115903E+02  0.37193660139E+02  0.51100000000E-03 0. -1.
         22    1    1    0    0    0  0.95250874792E+00  0.24332258120E+02  0.16950920027E+02  0.29669845769E+02  0.00000000000E+00 0.  1.
</event>
<event>
 5    1  0.6622912E-004  0.9118800E+02  0.7818608E-02  0.1130116E+00
         25   -1    0    0    0    0  0.00000000000E+00  0.00000000000E+00  0.99999998245E-14  0.12500000000E+03  0.12500000000E+03 0.  0.
        -11    1    3    3    0    0 -0.21103060382E+02 -0.22853551315E+02  0.44044574241E+02  0.53921688452E+02  0.51100000000E-03 0. -1.
         23    2    1    0    0    0 -0.14882670187E+02 -0.14398687826E-01  0.44990662712E+02  0.77611670102E+02  0.61464766537E+02 0.  0.
         11    1    3    3    0    0  0.62203901947E+01  0.22839152627E+02  0.94608847171E+00  0.23689981650E+02  0.51100000000E-03 0.  1.
         22    1    1    0    0    0  0.14882670187E+02  0.14398687826E-01 -0.44990662712E+02  0.47388329898E+02  0.00000000000E+00 0. -1.
</event>
<event>
 5    1  0.6622912E-004  0.9118800E+02  0.7818608E-02  0.1130116E+00
         25   -1    0    0    0    0  0.00000000000E+00  0.00000000000E+00  0.99999998245E-14  0.12500000000E+03  0.12500000000E+03 0.  0.
        -11    1    3    3    0    0  0.37686632308E+02 -0.16499690903E+02  0.98845282151E+01  0.42311061827E+02  0.51100000000E-03 0. -1.
         23    2    1    0    0    0 -0.87730536853E+01  0.15502031182E+01  0.28210587911E+02  0.95416104534E+02  0.90713979813E+02 0.  0.
         11    1    3    3    0    0 -0.46459685993E+02  0.18049894021E+02  0.18326059695E+02  0.53105042708E+02  0.51100000000E-03 0.  1.
         22    1    1    0    0    0  0.87730536853E+01 -0.15502031182E+01 -0.28210587911E+02  0.29583895466E+02  0.00000000000E+00 0.  1.
</event>
<event>
 5    1  0.6622912E-004  0.9118800E+02  0.7818608E-02  0.1130116E+00
         25   -1    0    0    0    0  0.00000000000E+00  0.00000000000E+00  0.99999998245E-14  0.12500000000E+03  0.12500000000E+03 0.  0.
        -11    1    3    3    0    0 -0.25515673688E+02  0.32200822870E+02 -0.38165587817E+02  0.56076329150E+02  0.51100000000E-03 0. -1.
         23    2    1    0    0    0 -0.23805554855E+02 -0.13049445973E+01 -0.16099457809E+02  0.96231964542E+02  0.91831318925E+02 0.  0.
         11    1    3    3    0    0  0.17101188328E+01 -0.33505767467E+02  0.22066130008E+02  0.40155635393E+02  0.51100000000E-03 0.  1.
         22    1    1    0    0    0  0.23805554855E+02  0.13049445973E+01  0.16099457809E+02  0.28768035458E+02  0.00000000000E+00 0. -1.
</event>
<event>
 5    1  0.6622912E-004  0.9118800E+02  0.7818608E-02  0.1130116E+00
         25   -1    0    0    0    0  0.00000000000E+00  0.00000000000E+00  0.99999998245E-14  0.12500000000E+03  0.12500000000E+03 0.  0.
        -11    1    3    3    0    0  0.48258183125E+02  0.35985422551E+02 -0.11233150785E+02  0.61237133763E+02  0.51100000000E-03 0.  1.
         23    2    1    0    0    0  0.22174731186E+02  0.71724668884E+01  0.23591373510E-02  0.10169414258E+03  0.98987552982E+02 0.  0.
         11    1    3    3    0    0 -0.26083451938E+02 -0.28812955663E+02  0.11235509922E+02  0.40457008818E+02  0.51100000000E-03 0. -1.
         22    1    1    0    0    0 -0.22174731186E+02 -0.71724668884E+01 -0.23591373510E-02  0.23305857419E+02  0.00000000000E+00 0.  1.
</event>
<event>
 5    1  0.6622912E-004  0.9118800E+02  0.7818608E-02  0.1130116E+00
         25   -1    0    0    0    0  0.00000000000E+00  0.00000000000E+00  0.99999998245E-14  0.12500000000E+03  0.12500000000E+03 0.  0.
        -11    1    3    3    0    0  0.44449449253E+02 -0.12648838569E+02 -0.36839527703E+02  0.59100739908E+02  0.51100000000E-03 0. -1.
         23    2    1    0    0    0  0.22464901441E+02  0.84375922993E+01 -0.13588727803E+02  0.97422504032E+02  0.93437818939E+02 0.  0.
         11    1    3    3    0    0 -0.21984547812E+02  0.21086430868E+02  0.23250799901E+02  0.38321764124E+02  0.51100000000E-03 0.  1.
         22    1    1    0    0    0 -0.22464901441E+02 -0.84375922993E+01  0.13588727803E+02  0.27577495968E+02  0.00000000000E+00 0. -1.
</event>
<event>
 5    1  0.6622912E-004  0.9118800E+02  0.7818608E-02  0.1130116E+00
         25   -1    0    0    0    0  0.00000000000E+00  0.00000000000E+00  0.99999998245E-14  0.12500000000E+03  0.12500000000E+03 0.  0.
        -11    1    3    3    0    0  0.40038552261E+02  0.22161132863E+01 -0.39681842925E+02  0.56414940250E+02  0.51100000000E-03 0.  1.
         23    2    1    0    0    0  0.28961404944E+01  0.11715787138E+02 -0.24574265061E+02  0.97622238928E+02  0.93704640930E+02 0.  0.
         11    1    3    3    0    0 -0.37142411766E+02  0.94996738522E+01  0.15107577864E+02  0.41207298677E+02  0.51100000000E-03 0. -1.
         22    1    1    0    0    0 -0.28961404944E+01 -0.11715787138E+02  0.24574265061E+02  0.27377761072E+02  0.00000000000E+00 0.  1.
</event>
<event>
 5    1  0.6622912E-004  0.9118800E+02  0.7818608E-02  0.1130116E+00
         25   -1    0    0    0    0  0.00000000000E+00  0.00000000000E+00  0.99999998245E-14  0.12500000000E+03  0.12500000000E+03 0.  0.
        -11    1    3    3    0    0  0.76526979351E+01  0.49144925115E+02  0.80818427001E+01  0.50389519068E+02  0.51100000000E-03 0. -1.
         23    2    1    0    0    0  0.16486118611E+02  0.25677296509E+02 -0.20368016583E+02  0.88312512182E+02  0.80331364021E+02 0.  0.
         11    1    3    3    0    0  0.88334206760E+01 -0.23467628606E+02 -0.28449859283E+02  0.37922993114E+02  0.51100000000E-03 0.  1.
         22    1    1    0    0    0 -0.16486118611E+02 -0.25677296509E+02  0.20368016583E+02  0.36687487818E+02  0.00000000000E+00 0. -1.
</event>
<event>
 5    1  0.6622912E-004  0.9118800E+02  0.7818608E-02  0.1130116E+00
         25   -1    0    0    0    0  0.00000000000E+00  0.00000000000E+00  0.99999998245E-14  0.12500000000E+03  0.12500000000E+03 0.  0.
        -11    1    3    3    0    0 -0.13081806682E+02 -0.57507402895E+02  0.15717918984E+02  0.61035137677E+02  0.51100000000E-03 0. -1.
         23    2    1    0    0    0 -0.14064285923E+01 -0.31895948250E+02  0.42120931110E+00  0.93070280717E+02  0.87421794647E+02 0.  0.
         11    1    3    3    0    0  0.11675378089E+02  0.25611454645E+02 -0.15296709673E+02  0.32035143040E+02  0.51100000000E-03 0.  1.
         22    1    1    0    0    0  0.14064285923E+01  0.31895948250E+02 -0.42120931110E+00  0.31929719283E+02  0.00000000000E+00 0. -1.
</event>
<event>
 5    1  0.6622912E-004  0.9118800E+02  0.7818608E-02  0.1130116E+00
         25   -1    0    0    0    0  0.00000000000E+00  0.00000000000E+00  0.99999998245E-14  0.12500000000E+03  0.12500000000E+03 0.  0.
        -11    1    3    3    0    0 -0.16961610247E+02  0.31283408887E+02 -0.60885464900E+01  0.36102884820E+02  0.51100000000E-03 0. -1.
         23    2    1    0    0    0  0.13524954058E+01 -0.19098172727E+02  0.21348843335E+02  0.96323484223E+02  0.91955810343E+02 0.  0.
         11    1    3    3    0    0  0.18314105653E+02 -0.50381581614E+02  0.27437389825E+02  0.60220599403E+02  0.51100000000E-03 0.  1.
         22    1    1    0    0    0 -0.13524954058E+01  0.19098172727E+02 -0.21348843335E+02  0.28676515777E+02  0.00000000000E+00 0.  1.
</event>
<event>
 5    1  0.6622912E-004  0.9118800E+02  0.7818608E-02  0.1130116E+00
         25   -1    0    0    0    0  0.00000000000E+00  0.00000000000E+00  0.99999998245E-14  0.12500000000E+03  0.12500000000E+03 0.  0.
        -11    1    3    3    0    0 -0.42460871710E+02 -0.35946099836E+02  0.19066603092E+02  0.58809719210E+02  0.51100000000E-03 0.  1.
         23    2    1    0    0    0 -0.28432988500E+02 -0.15723048430E+02 -0.36524130748E+01  0.92304599586E+02  0.86320043422E+02 0.  0.
         11    1    3    3    0    0  0.14027883209E+02  0.20223051407E+02 -0.22719016167E+02  0.33494880376E+02  0.51100000000E-03 0. -1.
         22    1    1    0    0    0  0.28432988500E+02  0.15723048430E+02  0.36524130748E+01  0.32695400414E+02  0.00000000000E+00 0.  1.
</event>
<event>
 5    1  0.6622912E-004  0.9118800E+02  0.7818608E-02  0.1130116E+00
         25   -1    0    0    0    0  0.00000000000E+00  0.00000000000E+00  0.99999998245E-14  0.12500000000E+03  0.12500000000E+03 0.  0.
        -11    1    3    3    0    0  0.29803008030E+02  0.18168813773E+02  0.62681303947E+01  0.35462861426E+02  0.51100000000E-03 0. -1.
         23    2    1    0    0    0 -0.22807890117E+02 -0.27222534826E+01 -0.16750866306E+02  0.96571105586E+02  0.92291800266E+02 0.  0.
         11    1    3    3    0    0 -0.52610898147E+02 -0.20891067256E+02 -0.23018996701E+02  0.61108244160E+02  0.51100000000E-03 0.  1.
         22    1    1    0    0    0  0.22807890117E+02  0.27222534826E+01  0.16750866306E+02  0.28428894414E+02  0.00000000000E+00 0.  1.
</event>
<event>
 5    1  0.6622912E-004  0.9118800E+02  0.7818608E-02  0.1130116E+00
         25   -1    0    0    0    0  0.00000000000E+00  0.00000000000E+00  0.99999998245E-14  0.12500000000E+03  0.12500000000E+03 0.  0.
        -11    1    3    3    0    0 -0.33313140704E+02  0.61777908567E+01 -0.41671179615E+01  0.34136422130E+02  0.51100000000E-03 0.  1.
         23    2    1    0    0    0  0.25318747799E+02 -0.10349321329E+02  0.85024537373E+01  0.96356690805E+02  0.92000938589E+02 0.  0.
         11    1    3    3    0    0  0.58631888504E+02 -0.16527112185E+02  0.12669571699E+02  0.62220268675E+02  0.51100000000E-03 0. -1.
         22    1    1    0    0    0 -0.25318747799E+02  0.10349321329E+02 -0.85024537373E+01  0.28643309195E+02  0.00000000000E+00 0. -1.
</event>
<event>
 5    1  0.6622912E-004  0.9118800E+02  0.7818608E-02  0.1130116E+00
         25   -1    0    0    0    0  0.00000000000E+00  0.00000000000E+00  0.99999998245E-14  0.12500000000E+03  0.12500000000E+03 0.  0.
        -11    1    3    3    0    0 -0.10063835484E+02 -0.23607253276E+02 -0.21395002009E+02  0.33411514529E+02  0.51100000000E-03 0. -1.
         23    2    1    0    0    0  0.62170780616E+01  0.27020590495E+02  0.10416826388E+02  0.95381177567E+02  0.90665839166E+02 0.  0.
         11    1    3    3    0    0  0.16280913546E+02  0.50627843772E+02  0.31811828396E+02  0.61969663038E+02  0.51100000000E-03 0.  1.
         22    1    1    0    0    0 -0.62170780616E+01 -0.27020590495E+02 -0.10416826388E+02  0.29618822433E+02  0.00000000000E+00 0.  1.
</event>
<event>
 5    1  0.6622912E-004  0.9118800E+02  0.7818608E-02  0.1130116E+00
         25   -1    0    0    0    0  0.00000000000E+00  0.00000000000E+00  0.99999998245E-14  0.12500000000E+03  0.12500000000E+03 0.  0.
        -11    1    3    3    0    0  0.24286290335E+02 -0.14658084633E+02 -0.19779928121E+02  0.34582204963E+02  0.51100000000E-03 0.  1.
         23    2    1    0    0    0 -0.21529931835E+02 -0.59802548968E+01  0.19338807462E+02  0.95448504479E+02  0.90758614576E+02 0.  0.
         11    1    3    3    0    0 -0.45816222170E+02  0.86778297362E+01  0.39118735583E+02  0.60866299516E+02  0.51100000000E-03 0. -1.
         22    1    1    0    0    0  0.21529931835E+02  0.59802548968E+01 -0.19338807462E+02  0.29551495521E+02  0.00000000000E+00 0. -1.
</event>
<event>
 5    1  0.6622912E-004  0.9118800E+02  0.7818608E-02  0.1130116E+00
         25   -1    0    0    0    0  0.00000000000E+00  0.00000000000E+00  0.99999998245E-14  0.12500000000E+03  0.12500000000E+03 0.  0.
        -11    1    3    3    0    0 -0.16474992025E+02  0.26884334370E+02 -0.47771643228E+02  0.57239170973E+02  0.51100000000E-03 0.  1.
         23    2    1    0    0    0 -0.15131570558E+02  0.22546076892E+02 -0.88263185104E+01  0.96448399183E+02  0.92125456828E+02 0.  0.
         11    1    3    3    0    0  0.13434214664E+01 -0.43382574784E+01  0.38945324718E+02  0.39209228210E+02  0.51100000000E-03 0. -1.
         22    1    1    0    0    0  0.15131570558E+02 -0.22546076892E+02  0.88263185104E+01  0.28551600817E+02  0.00000000000E+00 0.  1.
</event>
<event>
 5    1  0.6622912E-004  0.9118800E+02  0.7818608E-02  0.1130116E+00
         25   -1    0    0    0    0  0.00000000000E+00  0.00000000000E+00  0.99999998245E-14  0.12500000000E+03  0.12500000000E+03 0.  0.
        -11    1    3    3    0    0 -0.23263352499E+02 -0.22295543174E+02 -0.17378085432E+02  0.36609734614E+02  0.51100000000E-03 0. -1.
         23    2    1    0    0    0  0.14322719111E+02  0.23361585857E+02 -0.77165424967E+01  0.96531613945E+02  0.92238297286E+02 0.  0.
         11    1    3    3    0    0  0.37586071610E+02  0.45657129031E+02  0.96615429357E+01  0.59921879331E+02  0.51100000000E-03 0.  1.
         22    1    1    0    0    0 -0.14322719111E+02 -0.23361585857E+02  0.77165424967E+01  0.28468386055E+02  0.00000000000E+00 0.  1.
</event>
<event>
 5    1  0.6622912E-004  0.9118800E+02  0.7818608E-02  0.1130116E+00
         25   -1    0    0    0    0  0.00000000000E+00  0.00000000000E+00  0.99999998245E-14  0.12500000000E+03  0.12500000000E+03 0.  0.
        -11    1    3    3    0    0  0.16267553366E+02  0.38192404017E+02  0.33950562962E+02  0.53627732964E+02  0.51100000000E-03 0. -1.
         23    2    1    0    0    0 -0.15270409423E+02  0.14235949443E+02  0.21228559714E+02  0.95225860079E+02  0.90451451176E+02 0.  0.
         11    1    3    3    0    0 -0.31537962789E+02 -0.23956454574E+02 -0.12722003248E+02  0.41598127116E+02  0.51100000000E-03 0.  1.
         22    1    1    0    0    0  0.15270409423E+02 -0.14235949443E+02 -0.21228559714E+02  0.29774139921E+02  0.00000000000E+00 0. -1.
</event>
<event>
 5    1  0.6622912E-004  0.9118800E+02  0.7818608E-02  0.1130116E+00
         25   -1    0    0    0    0  0.00000000000E+00  0.00000000000E+00  0.99999998245E-14  0.12500000000E+03  0.12500000000E+03 0.  0.
        -11    1    3    3    0    0 -0.70855395782E+01  0.16996086043E+02 -0.19674642660E+02  0.26947418725E+02  0.51100000000E-03 0.  1.
         23    2    1    0    0    0  0.30128715190E+02 -0.16492706347E+02  0.14661011770E+02  0.87654396406E+02  0.79300687900E+02 0.  0.
         11    1    3    3    0    0  0.37214254769E+02 -0.33488792390E+02  0.34335654430E+02  0.60706977681E+02  0.51100000000E-03 0. -1.
         22    1    1    0    0    0 -0.30128715190E+02  0.16492706347E+02 -0.14661011770E+02  0.37345603594E+02  0.00000000000E+00 0. -1.
</event>
<event>
 5    1  0.6622912E-004  0.9118800E+02  0.7818608E-02  0.1130116E+00
         25   -1    0    0    0    0  0.00000000000E+00  0.00000000000E+00  0.99999998245E-14  0.12500000000E+03  0.12500000000E+03 0.  0.
        -11    1    3    3    0    0  0.87195249632E+01 -0.14832214175E+02  0.57487767838E+02  0.60007234099E+02  0.51100000000E-03 0. -1.
         23    2    1    0    0    0  0.89881594957E+01 -0.18716476288E+02  0.26037126012E+02  0.91697966627E+02  0.85437062548E+02 0.  0.
         11    1    3    3    0    0  0.26863453251E+00 -0.38842621133E+01 -0.31450641826E+02  0.31690732529E+02  0.51100000000E-03 0.  1.
         22    1    1    0    0    0 -0.89881594957E+01  0.18716476288E+02 -0.26037126012E+02  0.33302033373E+02  0.00000000000E+00 0. -1.
</event>
<event>
 5    1  0.6622912E-004  0.9118800E+02  0.7818608E-02  0.1130116E+00
         25   -1    0    0    0    0  0.00000000000E+00  0.00000000000E+00  0.99999998245E-14  0.12500000000E+03  0.12500000000E+03 0.  0.
        -11    1    3    3    0    0 -0.49335281158E+02  0.13622128241E+02 -0.27682206977E+02  0.58187944869E+02  0.51100000000E-03 0.  1.
         23    2    1    0    0    0 -0.12538772410E+02  0.14714266566E+02 -0.22454561759E+02  0.95369984847E+02  0.90650406573E+02 0.  0.
         11    1    3    3    0    0  0.36796508748E+02  0.10921383251E+01  0.52276452176E+01  0.37182039978E+02  0.51100000000E-03 0. -1.
         22    1    1    0    0    0  0.12538772410E+02 -0.14714266566E+02  0.22454561759E+02  0.29630015153E+02  0.00000000000E+00 0.  1.
</event>
<event>
 5    1  0.6622912E-004  0.9118800E+02  0.7818608E-02  0.1130116E+00
         25   -1    0    0    0    0  0.00000000000E+00  0.00000000000E+00  0.99999998245E-14  0.12500000000E+03  0.12500000000E+03 0.  0.
        -11    1    3    3    0    0  0.18916638560E+02  0.38975974178E+02 -0.38209953386E+01  0.43492134728E+02  0.51100000000E-03 0. -1.
         23    2    1    0    0    0  0.39417469567E+01 -0.12187088843E+02 -0.21769322236E+02  0.99742013260E+02  0.96490949394E+02 0.  0.
         11    1    3    3    0    0 -0.14974891603E+02 -0.51163063021E+02 -0.17948326898E+02  0.56249878532E+02  0.51100000000E-03 0.  1.
         22    1    1    0    0    0 -0.39417469567E+01  0.12187088843E+02  0.21769322236E+02  0.25257986740E+02  0.00000000000E+00 0.  1.
</event>
<event>
 5    1  0.6622912E-004  0.9118800E+02  0.7818608E-02  0.1130116E+00
         25   -1    0    0    0    0  0.00000000000E+00  0.00000000000E+00  0.99999998245E-14  0.12500000000E+03  0.12500000000E+03 0.  0.
        -11    1    3    3    0    0  0.76739095522E+01  0.33417779087E+02  0.67431821186E+01  0.34944346499E+02  0.51100000000E-03 0.  1.
         23    2    1    0    0    0  0.41593221373E+01 -0.21761641442E+02 -0.18886509315E+02  0.95886957682E+02  0.91360491574E+02 0.  0.
         11    1    3    3    0    0 -0.35145874149E+01 -0.55179420529E+02 -0.25629691434E+02  0.60942611183E+02  0.51100000000E-03 0. -1.
         22    1    1    0    0    0 -0.41593221373E+01  0.21761641442E+02  0.18886509315E+02  0.29113042318E+02  0.00000000000E+00 0. -1.
</event>
<event>
 5    1  0.6622912E-004  0.9118800E+02  0.7818608E-02  0.1130116E+00
         25   -1    0    0    0    0  0.00000000000E+00  0.00000000000E+00  0.99999998245E-14  0.12500000000E+03  0.12500000000E+03 0.  0.
        -11    1    3    3    0    0 -0.11157846418E+02  0.25006084426E+02 -0.18570306339E+02  0.33085617310E+02  0.51100000000E-03 0. -1.
         23    2    1    0    0    0  0.96939736390E+01 -0.22200996003E+02  0.16684435194E+02  0.95585246454E+02  0.90946751528E+02 0.  0.
         11    1    3    3    0    0  0.20851820057E+02 -0.47207080429E+02  0.35254741532E+02  0.62499629144E+02  0.51100000000E-03 0.  1.
         22    1    1    0    0    0 -0.96939736390E+01  0.22200996003E+02 -0.16684435194E+02  0.29414753546E+02  0.00000000000E+00 0.  1.
</event>
<event>
 5    1  0.6622912E-004  0.9118800E+02  0.7818608E-02  0.1130116E+00
         25   -1    0    0    0    0  0.00000000000E+00  0.00000000000E+00  0.99999998245E-14  0.12500000000E+03  0.12500000000E+03 0.  0.
        -11    1    3    3    0    0  0.27650684446E+02 -0.22217792056E+02  0.42715556154E+02  0.55523052617E+02  0.51100000000E-03 0.  1.
         23    2    1    0    0    0  0.26609707803E+02  0.44104526121E+01  0.14331878916E+02  0.94456074338E+02  0.89381310040E+02 0.  0.
         11    1    3    3    0    0 -0.10409766428E+01  0.26628244668E+02 -0.28383677238E+02  0.38933021720E+02  0.51100000000E-03 0. -1.
         22    1    1    0    0    0 -0.26609707803E+02 -0.44104526121E+01 -0.14331878916E+02  0.30543925662E+02  0.00000000000E+00 0. -1.
</event>
<event>
 5    1  0.6622912E-004  0.9118800E+02  0.7818608E-02  0.1130116E+00
         25   -1    0    0    0    0  0.00000000000E+00  0.00000000000E+00  0.99999998245E-14  0.12500000000E+03  0.12500000000E+03 0.  0.
        -11    1    3    3    0    0 -0.33003449043E+02  0.75137022646E+01 -0.29363437983E+02  0.44809539842E+02  0.51100000000E-03 0.  1.
         23    2    1    0    0    0  0.21826753671E+01  0.29441226344E+02 -0.23760926713E+00  0.95477020161E+02  0.90797880153E+02 0.  0.
         11    1    3    3    0    0  0.35186124410E+02  0.21927524079E+02  0.29125828716E+02  0.50667480319E+02  0.51100000000E-03 0. -1.
         22    1    1    0    0    0 -0.21826753671E+01 -0.29441226344E+02  0.23760926713E+00  0.29522979839E+02  0.00000000000E+00 0.  1.
</event>
<event>
 5    1  0.6622912E-004  0.9118800E+02  0.7818608E-02  0.1130116E+00
         25   -1    0    0    0    0  0.00000000000E+00  0.00000000000E+00  0.99999998245E-14  0.12500000000E+03  0.12500000000E+03 0.  0.
        -11    1    3    3    0    0  0.30529792497E+01 -0.35172578457E+02  0.43103822930E+02  0.55716878134E+02  0.51100000000E-03 0. -1.
         23    2    1    0    0    0  0.99183091081E+01  0.63905797076E+00  0.28183934304E+02  0.95114963552E+02  0.90298066911E+02 0.  0.
         11    1    3    3    0    0  0.68653298584E+01  0.35811636427E+02 -0.14919888626E+02  0.39398085417E+02  0.51100000000E-03 0.  1.
         22    1    1    0    0    0 -0.99183091081E+01 -0.63905797076E+00 -0.28183934304E+02  0.29885036448E+02  0.00000000000E+00 0. -1.
</event>
<event>
 5    1  0.6622912E-004  0.9118800E+02  0.7818608E-02  0.1130116E+00
         25   -1    0    0    0    0  0.00000000000E+00  0.00000000000E+00  0.99999998245E-14  0.12500000000E+03  0.12500000000E+03 0.  0.
        -11    1    3    3    0    0 -0.13047969950E+02 -0.55166746584E+01  0.37785873444E+02  0.40354125580E+02  0.51100000000E-03 0. -1.
         23    2    1    0    0    0  0.15669508195E+02  0.21850398771E+02 -0.38213885799E+01  0.97841641725E+02  0.93996863943E+02 0.  0.
         11    1    3    3    0    0  0.28717478144E+02  0.27367073430E+02 -0.41607262024E+02  0.57487516145E+02  0.51100000000E-03 0.  1.
         22    1    1    0    0    0 -0.15669508195E+02 -0.21850398771E+02  0.38213885799E+01  0.27158358275E+02  0.00000000000E+00 0.  1.
</event>
<event>
 5    1  0.6622912E-004  0.9118800E+02  0.7818608E-02  0.1130116E+00
         25   -1    0    0    0    0  0.00000000000E+00  0.00000000000E+00  0.99999998245E-14  0.12500000000E+03  0.12500000000E+03 0.  0.
        -11    1    3    3    0    0  0.47796740717E+02  0.28772977580E+02  0.25225583230E+02  0.61226976992E+02  0.51100000000E-03 0.  1.
         23    2    1    0    0    0  0.25087348375E+02  0.11274391957E+02  0.33426177731E+01  0.97293321092E+02  0.93264839426E+02 0.  0.
         11    1    3    3    0    0 -0.22709392342E+02 -0.17498585623E+02 -0.21882965456E+02  0.36066344101E+02  0.51100000000E-03 0. -1.
         22    1    1    0    0    0 -0.25087348375E+02 -0.11274391957E+02 -0.33426177731E+01  0.27706678908E+02  0.00000000000E+00 0.  1.
</event>
<event>
 5    1  0.6622912E-004  0.9118800E+02  0.7818608E-02  0.1130116E+00
         25   -1    0    0    0    0  0.00000000000E+00  0.00000000000E+00  0.99999998245E-14  0.12500000000E+03  0.12500000000E+03 0.  0.
        -11    1    3    3    0    0  0.75068154290E+01 -0.12266415223E+02 -0.46889155758E+02  0.49044980867E+02  0.51100000000E-03 0.  1.
         23    2    1    0    0    0  0.14429113658E+02 -0.30539722381E+02 -0.11775816514E+02  0.89229288256E+02  0.81745471215E+02 0.  0.
         11    1    3    3    0    0  0.69222982286E+01 -0.18273307158E+02  0.35113339244E+02  0.40184307389E+02  0.51100000000E-03 0. -1.
         22    1    1    0    0    0 -0.14429113658E+02  0.30539722381E+02  0.11775816514E+02  0.35770711744E+02  0.00000000000E+00 0.  1.
</event>
<event>
 5    1  0.6622912E-004  0.9118800E+02  0.7818608E-02  0.1130116E+00
         25   -1    0    0    0    0  0.00000000000E+00  0.00000000000E+00  0.99999998245E-14  0.12500000000E+03  0.12500000000E+03 0.  0.
        -11    1    3    3    0    0 -0.11366198799E+02  0.21088079527E+02 -0.46337979006E+02  0.52164220227E+02  0.51100000000E-03 0. -1.
         23    2    1    0    0    0 -0.34128608425E+00  0.27162541695E+02 -0.25611380291E+01  0.97714846977E+02  0.93828096773E+02 0.  0.
         11    1    3    3    0    0  0.11024912715E+02  0.60744621680E+01  0.43776840977E+02  0.45550626749E+02  0.51100000000E-03 0.  1.
         22    1    1    0    0    0  0.34128608425E+00 -0.27162541695E+02  0.25611380291E+01  0.27285153023E+02  0.00000000000E+00 0. -1.
</event>
<event>
 5    1  0.6622912E-004  0.9118800E+02  0.7818608E-02  0.1130116E+00
         25   -1    0    0    0    0  0.00000000000E+00  0.00000000000E+00  0.99999998245E-14  0.12500000000E+03  0.12500000000E+03 0.  0.
        -11    1    3    3    0    0 -0.29153584098E+00 -0.48119601001E+01  0.36003889351E+02  0.36325197891E+02  0.51100000000E-03 0.  1.
         23    2    1    0    0    0  0.23420716479E+02 -0.32276847420E+01 -0.17972815837E+02  0.95302019963E+02  0.90556639683E+02 0.  0.
         11    1    3    3    0    0  0.23712252320E+02  0.15842753581E+01 -0.53976705188E+02  0.58976822072E+02  0.51100000000E-03 0. -1.
         22    1    1    0    0    0 -0.23420716479E+02  0.32276847420E+01  0.17972815837E+02  0.29697980037E+02  0.00000000000E+00 0. -1.
</event>
<event>
 5    1  0.6622912E-004  0.9118800E+02  0.7818608E-02  0.1130116E+00
         25   -1    0    0    0    0  0.00000000000E+00  0.00000000000E+00  0.99999998245E-14  0.12500000000E+03  0.12500000000E+03 0.  0.
        -11    1    3    3    0    0 -0.12398599797E+02  0.41423658362E+02 -0.18331146498E+02  0.46964621592E+02  0.51100000000E-03 0.  1.
         23    2    1    0    0    0 -0.29808012349E+02  0.99009527761E+00  0.12589669856E+01  0.95148988514E+02  0.90345155534E+02 0.  0.
         11    1    3    3    0    0 -0.17409412552E+02 -0.40433563085E+02  0.19590113484E+02  0.48184366923E+02  0.51100000000E-03 0. -1.
         22    1    1    0    0    0  0.29808012349E+02 -0.99009527761E+00 -0.12589669856E+01  0.29851011486E+02  0.00000000000E+00 0.  1.
</event>
<event>
 5    1  0.6622912E-004  0.9118800E+02  0.7818608E-02  0.1130116E+00
         25   -1    0    0    0    0  0.00000000000E+00  0.00000000000E+00  0.99999998245E-14  0.12500000000E+03  0.12500000000E+03 0.  0.
        -11    1    3    3    0    0  0.31140569127E+02  0.48711348366E+02 -0.12473108087E+02  0.59144813220E+02  0.51100000000E-03 0. -1.
         23    2    1    0    0    0  0.16412332840E+02  0.22845621810E+02  0.85660567904E+01  0.95594823006E+02  0.90959912882E+02 0.  0.
         11    1    3    3    0    0 -0.14728236288E+02 -0.25865726556E+02  0.21039164877E+02  0.36450009786E+02  0.51100000000E-03 0.  1.
         22    1    1    0    0    0 -0.16412332840E+02 -0.22845621810E+02 -0.85660567904E+01  0.29405176994E+02  0.00000000000E+00 0. -1.
</event>
<event>
 5    1  0.6622912E-004  0.9118800E+02  0.7818608E-02  0.1130116E+00
         25   -1    0    0    0    0  0.00000000000E+00  0.00000000000E+00  0.99999998245E-14  0.12500000000E+03  0.12500000000E+03 0.  0.
        -11    1    3    3    0    0  0.85189347335E+01  0.99307867542E+01 -0.28134571602E+02  0.31028162918E+02  0.51100000000E-03 0. -1.
         23    2    1    0    0    0 -0.17764218469E+02  0.68345531615E+00  0.26924702486E+02  0.92735868631E+02  0.86942320868E+02 0.  0.
         11    1    3    3    0    0 -0.26283153202E+02 -0.92473314381E+01  0.55059274089E+02  0.61707705714E+02  0.51100000000E-03 0.  1.
         22    1    1    0    0    0  0.17764218469E+02 -0.68345531615E+00 -0.26924702486E+02  0.32264131369E+02  0.00000000000E+00 0.  1.
</event>
<event>
 5    1  0.6622912E-004  0.9118800E+02  0.7818608E-02  0.1130116E+00
         25   -1    0    0    0    0  0.00000000000E+00  0.00000000000E+00  0.99999998245E-14  0.12500000000E+03  0.12500000000E+03 0.  0.
        -11    1    3    3    0    0  0.26506402535E+02  0.18268025418E+02 -0.30954189233E+02  0.44659511410E+02  0.51100000000E-03 0.  1.
         23    2    1    0    0    0 -0.20475128265E+02 -0.42372883041E+01 -0.15419856114E+02  0.99020056732E+02  0.95551107702E+02 0.  0.
         11    1    3    3    0    0 -0.46981530800E+02 -0.22505313722E+02  0.15534333119E+02  0.54360545322E+02  0.51100000000E-03 0. -1.
         22    1    1    0    0    0  0.20475128265E+02  0.42372883041E+01  0.15419856114E+02  0.25979943268E+02  0.00000000000E+00 0. -1.
</event>
<event>
 5    1  0.6622912E-004  0.9118800E+02  0.7818608E-02  0.1130116E+00
         25   -1    0    0    0    0  0.00000000000E+00  0.00000000000E+00  0.99999998245E-14  0.12500000000E+03  0.12500000000E+03 0.  0.
        -11    1    3    3    0    0 -0.41350265443E+02  0.99069899243E+01 -0.44961990665E+02  0.61883547946E+02  0.51100000000E-03 0.  1.
         23    2    1    0    0    0 -0.19646075410E+02  0.10970841564E+02 -0.21180490054E+02  0.94097883526E+02  0.88878967599E+02 0.  0.
         11    1    3    3    0    0  0.21704190033E+02  0.10638516401E+01  0.23781500611E+02  0.32214335580E+02  0.51100000000E-03 0. -1.
         22    1    1    0    0    0  0.19646075410E+02 -0.10970841564E+02  0.21180490054E+02  0.30902116474E+02  0.00000000000E+00 0.  1.
</event>
<event>
 5    1  0.6622912E-004  0.9118800E+02  0.7818608E-02  0.1130116E+00
         25   -1    0    0    0    0  0.00000000000E+00  0.00000000000E+00  0.99999998245E-14  0.12500000000E+03  0.12500000000E+03 0.  0.
        -11    1    3    3    0    0  0.86162062637E+01  0.35086703634E+02 -0.14018227593E+02  0.38753406139E+02  0.51100000000E-03 0.  1.
         23    2    1    0    0    0 -0.12252045848E+02 -0.19226078982E+02 -0.16287456035E+02  0.96981506740E+02  0.92845983677E+02 0.  0.
         11    1    3    3    0    0 -0.20868252112E+02 -0.54312782615E+02 -0.22692284420E+01  0.58228100601E+02  0.51100000000E-03 0. -1.
         22    1    1    0    0    0  0.12252045848E+02  0.19226078982E+02  0.16287456035E+02  0.28018493260E+02  0.00000000000E+00 0. -1.
</event>
<event>
 5    1  0.6622912E-004  0.9118800E+02  0.7818608E-02  0.1130116E+00
         25   -1    0    0    0    0  0.00000000000E+00  0.00000000000E+00  0.99999998245E-14  0.12500000000E+03  0.12500000000E+03 0.  0.
        -11    1    3    3    0    0  0.30125817790E+02 -0.12709270298E+02  0.58302859051E+01  0.33212688584E+02  0.51100000000E-03 0.  1.
         23    2    1    0    0    0 -0.28605418101E+02  0.71462461464E+01  0.40830784661E+01  0.95234074708E+02  0.90462802726E+02 0.  0.
         11    1    3    3    0    0 -0.58731235891E+02  0.19855516445E+02 -0.17472074390E+01  0.62021386123E+02  0.51100000000E-03 0. -1.
         22    1    1    0    0    0  0.28605418101E+02 -0.71462461464E+01 -0.40830784661E+01  0.29765925292E+02  0.00000000000E+00 0. -1.
</event>
<event>
 5    1  0.6622912E-004  0.9118800E+02  0.7818608E-02  0.1130116E+00
         25   -1    0    0    0    0  0.00000000000E+00  0.00000000000E+00  0.99999998245E-14  0.12500000000E+03  0.12500000000E+03 0.  0.
        -11    1    3    3    0    0 -0.24881692319E+02  0.37068728098E+02  0.32503742447E+02  0.55223930400E+02  0.51100000000E-03 0.  1.
         23    2    1    0    0    0 -0.97016343861E+01  0.28174404425E+01  0.30643096060E+02  0.92734553830E+02  0.86940430512E+02 0.  0.
         11    1    3    3    0    0  0.15180057933E+02 -0.34251287655E+02 -0.18606463869E+01  0.37510623431E+02  0.51100000000E-03 0. -1.
         22    1    1    0    0    0  0.97016343861E+01 -0.28174404425E+01 -0.30643096060E+02  0.32265446170E+02  0.00000000000E+00 0. -1.
</event>
<event>
 5    1  0.6622912E-004  0.9118800E+02  0.7818608E-02  0.1130116E+00
         25   -1    0    0    0    0  0.00000000000E+00  0.00000000000E+00  0.99999998245E-14  0.12500000000E+03  0.12500000000E+03 0.  0.
        -11    1    3    3    0    0  0.46782439850E+01  0.43870425408E+02 -0.33280382089E+02  0.55263767737E+02  0.51100000000E-03 0. -1.
         23    2    1    0    0    0  0.15246106086E+02  0.26137279838E+02  0.36690349971E+00  0.94738873677E+02  0.89775934522E+02 0.  0.
         11    1    3    3    0    0  0.10567862101E+02 -0.17733145569E+02  0.33647285589E+02  0.39475105940E+02  0.51100000000E-03 0.  1.
         22    1    1    0    0    0 -0.15246106086E+02 -0.26137279838E+02 -0.36690349971E+00  0.30261126323E+02  0.00000000000E+00 0. -1.
</event>
<event>
 5    1  0.6622912E-004  0.9118800E+02  0.7818608E-02  0.1130116E+00
         25   -1    0    0    0    0  0.00000000000E+00  0.00000000000E+00  0.99999998245E-14  0.12500000000E+03  0.12500000000E+03 0.  0.
        -11    1    3    3    0    0  0.65620859730E+01 -0.31323598441E+02 -0.97925632494E+01  0.33468239972E+02  0.51100000000E-03 0. -1.
         23    2    1    0    0    0  0.34966056189E+00  0.27576069047E+02  0.96154995415E+01  0.95793499388E+02  0.91232531736E+02 0.  0.
         11    1    3    3    0    0 -0.62124254111E+01  0.58899667488E+02  0.19408062791E+02  0.62325259415E+02  0.51100000000E-03 0.  1.
         22    1    1    0    0    0 -0.34966056189E+00 -0.27576069047E+02 -0.96154995415E+01  0.29206500612E+02  0.00000000000E+00 0.  1.
</event>
<event>
 5    1  0.6622912E-004  0.9118800E+02  0.7818608E-02  0.1130116E+00
         25   -1    0    0    0    0  0.00000000000E+00  0.00000000000E+00  0.99999998245E-14  0.12500000000E+03  0.12500000000E+03 0.  0.
        -11    1    3    3    0    0 -0.37765611999E+01  0.29295221054E+02  0.13464391497E+02  0.32461704049E+02  0.51100000000E-03 0.  1.
         23    2    1    0    0    0 -0.25848426157E+01 -0.30371280868E+02  0.12241457789E+02  0.92152634783E+02  0.86099702066E+02 0.  0.
         11    1    3    3    0    0  0.11917185842E+01 -0.59666501922E+02 -0.12229337077E+01  0.59690930734E+02  0.51100000000E-03 0. -1.
         22    1    1    0    0    0  0.25848426157E+01  0.30371280868E+02 -0.12241457789E+02  0.32847365217E+02  0.00000000000E+00 0. -1.
</event>
<event>
 5    1  0.6622912E-004  0.9118800E+02  0.7818608E-02  0.1130116E+00
         25   -1    0    0    0    0  0.00000000000E+00  0.00000000000E+00  0.99999998245E-14  0.12500000000E+03  0.12500000000E+03 0.  0.
        -11    1    3    3    0    0  0.32828033548E+02 -0.21177109714E+02  0.15482381467E+02  0.42022064426E+02  0.51100000000E-03 0. -1.
         23    2    1    0    0    0  0.67390321907E+00 -0.16363606073E+02 -0.25720684419E+02  0.94507782038E+02  0.89453594168E+02 0.  0.
         11    1    3    3    0    0 -0.32154130329E+02  0.48135036417E+01 -0.41203065887E+02  0.52485717612E+02  0.51100000000E-03 0.  1.
         22    1    1    0    0    0 -0.67390321907E+00  0.16363606073E+02  0.25720684419E+02  0.30492217962E+02  0.00000000000E+00 0. -1.
</event>
<event>
 5    1  0.6622912E-004  0.9118800E+02  0.7818608E-02  0.1130116E+00
         25   -1    0    0    0    0  0.00000000000E+00  0.00000000000E+00  0.99999998245E-14  0.12500000000E+03  0.12500000000E+03 0.  0.
        -11    1    3    3    0    0  0.26040851435E+02 -0.12778045750E+02  0.21688484240E+02  0.36218707121E+02  0.51100000000E-03 0.  1.
         23    2    1    0    0    0 -0.25833254551E+02 -0.19696522993E+02  0.98213113509E+00  0.92499620922E+02  0.86601993224E+02 0.  0.
         11    1    3    3    0    0 -0.51874105985E+02 -0.69184772421E+01 -0.20706353104E+02  0.56280913801E+02  0.51100000000E-03 0. -1.
         22    1    1    0    0    0  0.25833254551E+02  0.19696522993E+02 -0.98213113509E+00  0.32500379078E+02  0.00000000000E+00 0. -1.
</event>
<event>
 4    1  0.6622912E-004  0.9118800E+02  0.7818608E-02  0.1130116E+00
         25   -1    0    0    0    0  0.00000000000E+00  0.00000000000E+00  0.99999998245E-14  0.12500000000E+03  0.12500000000E+03 0.  0.
        -11    1    1    0    0    0  0.21872885218E+02 -0.56170907314E+01  0.67833745985E+01  0.23579418722E+02  0.51100000000E-03 0. -1.
         11    1    1    0    0    0  0.92449117303E+01  0.45981723357E+02 -0.16141388240E+02  0.49601730719E+02  0.51100000000E-03 0.  1.
         22    1    1    0    0    0 -0.31117796949E+02 -0.40364632626E+02  0.93580136415E+01  0.51818850559E+02  0.00000000000E+00 0.  1.
</event>
<event>
 5    1  0.6622912E-004  0.9118800E+02  0.7818608E-02  0.1130116E+00
         25   -1    0    0    0    0  0.00000000000E+00  0.00000000000E+00  0.99999998245E-14  0.12500000000E+03  0.12500000000E+03 0.  0.
        -11    1    3    3    0    0  0.21852991913E+01 -0.31929025436E+02  0.15671987058E+01  0.32042070936E+02  0.51100000000E-03 0.  1.
         23    2    1    0    0    0 -0.60479715787E+01  0.27168841849E+02  0.15253983663E+02  0.93260309623E+02  0.87693086420E+02 0.  0.
         11    1    3    3    0    0 -0.82332707700E+01  0.59097867285E+02  0.13686784957E+02  0.61218238687E+02  0.51100000000E-03 0. -1.
         22    1    1    0    0    0  0.60479715787E+01 -0.27168841849E+02 -0.15253983663E+02  0.31739690377E+02  0.00000000000E+00 0. -1.
</event>
<event>
 5    1  0.6622912E-004  0.9118800E+02  0.7818608E-02  0.1130116E+00
         25   -1    0    0    0    0  0.00000000000E+00  0.00000000000E+00  0.99999998245E-14  0.12500000000E+03  0.12500000000E+03 0.  0.
        -11    1    3    3    0    0 -0.23123075652E+02  0.41686929186E+02 -0.29296357017E+02  0.55953134205E+02  0.51100000000E-03 0. -1.
         23    2    1    0    0    0 -0.21980630583E+02  0.35275523157E+01 -0.19594323242E+02  0.95343141612E+02  0.90613384237E+02 0.  0.
         11    1    3    3    0    0  0.11424450691E+01 -0.38159376870E+02  0.97020337758E+01  0.39390007407E+02  0.51100000000E-03 0.  1.
         22    1    1    0    0    0  0.21980630583E+02 -0.35275523157E+01  0.19594323242E+02  0.29656858388E+02  0.00000000000E+00 0. -1.
</event>
<event>
 5    1  0.6622912E-004  0.9118800E+02  0.7818608E-02  0.1130116E+00
         25   -1    0    0    0    0  0.00000000000E+00  0.00000000000E+00  0.99999998245E-14  0.12500000000E+03  0.12500000000E+03 0.  0.
        -11    1    3    3    0    0 -0.55378065631E+02 -0.16385413945E+02 -0.21078219815E+02  0.61477665001E+02  0.51100000000E-03 0.  1.
         23    2    1    0    0    0 -0.21430649593E+02 -0.14579809945E+02 -0.96300835344E+01  0.97348922102E+02  0.93339330004E+02 0.  0.
         11    1    3    3    0    0  0.33947416038E+02  0.18056039997E+01  0.11448136280E+02  0.35871257101E+02  0.51100000000E-03 0. -1.
         22    1    1    0    0    0  0.21430649593E+02  0.14579809945E+02  0.96300835344E+01  0.27651077898E+02  0.00000000000E+00 0.  1.
</event>
<event>
 5    1  0.6622912E-004  0.9118800E+02  0.7818608E-02  0.1130116E+00
         25   -1    0    0    0    0  0.00000000000E+00  0.00000000000E+00  0.99999998245E-14  0.12500000000E+03  0.12500000000E+03 0.  0.
        -11    1    3    3    0    0  0.23791496370E+02  0.18953624254E+02  0.76847297677E+01  0.31374037734E+02  0.51100000000E-03 0. -1.
         23    2    1    0    0    0 -0.27887302446E+02 -0.85942587461E+01 -0.12411268969E+02  0.93288763529E+02  0.87733635980E+02 0.  0.
         11    1    3    3    0    0 -0.51678798816E+02 -0.27547883000E+02 -0.20095998736E+02  0.61914725795E+02  0.51100000000E-03 0.  1.
         22    1    1    0    0    0  0.27887302446E+02  0.85942587461E+01  0.12411268969E+02  0.31711236471E+02  0.00000000000E+00 0.  1.
</event>
<event>
 5    1  0.6622912E-004  0.9118800E+02  0.7818608E-02  0.1130116E+00
         25   -1    0    0    0    0  0.00000000000E+00  0.00000000000E+00  0.99999998245E-14  0.12500000000E+03  0.12500000000E+03 0.  0.
        -11    1    3    3    0    0  0.25812826001E+02 -0.19976104049E+02  0.18686717637E+02  0.37610372711E+02  0.51100000000E-03 0. -1.
         23    2    1    0    0    0 -0.20795894601E+02  0.15183776230E+02  0.12669436630E+02  0.96302771608E+02  0.91927650367E+02 0.  0.
         11    1    3    3    0    0 -0.46608720602E+02  0.35159880279E+02 -0.60172810065E+01  0.58692398897E+02  0.51100000000E-03 0.  1.
         22    1    1    0    0    0  0.20795894601E+02 -0.15183776230E+02 -0.12669436630E+02  0.28697228392E+02  0.00000000000E+00 0.  1.
</event>
<event>
 5    1  0.6622912E-004  0.9118800E+02  0.7818608E-02  0.1130116E+00
         25   -1    0    0    0    0  0.00000000000E+00  0.00000000000E+00  0.99999998245E-14  0.12500000000E+03  0.12500000000E+03 0.  0.
        -11    1    3    3    0    0  0.35531585127E+02 -0.40295599526E+02 -0.23966247231E+01  0.53777064750E+02  0.51100000000E-03 0.  1.
         23    2    1    0    0    0  0.27949818397E+02  0.73771843311E+00 -0.80948414438E+01  0.95892216935E+02  0.91367687033E+02 0.  0.
         11    1    3    3    0    0 -0.75817667296E+01  0.41033317960E+02 -0.56982167208E+01  0.42115152185E+02  0.51100000000E-03 0. -1.
         22    1    1    0    0    0 -0.27949818397E+02 -0.73771843311E+00  0.80948414438E+01  0.29107783065E+02  0.00000000000E+00 0.  1.
</event>
<event>
 5    1  0.6622912E-004  0.9118800E+02  0.7818608E-02  0.1130116E+00
         25   -1    0    0    0    0  0.00000000000E+00  0.00000000000E+00  0.99999998245E-14  0.12500000000E+03  0.12500000000E+03 0.  0.
        -11    1    3    3    0    0 -0.38502311136E+02  0.25627057558E+01 -0.14854007916E+02  0.41347756590E+02  0.51100000000E-03 0.  1.
         23    2    1    0    0    0 -0.63997229363E+00 -0.27339172549E+02  0.10325237526E+02  0.95769015580E+02  0.91198979682E+02 0.  0.
         11    1    3    3    0    0  0.37862338843E+02 -0.29901878304E+02  0.25179245442E+02  0.54421258990E+02  0.51100000000E-03 0. -1.
         22    1    1    0    0    0  0.63997229363E+00  0.27339172549E+02 -0.10325237526E+02  0.29230984420E+02  0.00000000000E+00 0. -1.
</event>
<event>
 5    1  0.6622912E-004  0.9118800E+02  0.7818608E-02  0.1130116E+00
         25   -1    0    0    0    0  0.00000000000E+00  0.00000000000E+00  0.99999998245E-14  0.12500000000E+03  0.12500000000E+03 0.  0.
        -11    1    3    3    0    0  0.16853351156E+02 -0.26554884646E+02  0.51268387926E+02  0.60146861468E+02  0.51100000000E-03 0. -1.
         23    2    1    0    0    0 -0.41947686098E+01 -0.13130052459E+02  0.25423911117E+02  0.96079944368E+02  0.91624156706E+02 0.  0.
         11    1    3    3    0    0 -0.21048119766E+02  0.13424832186E+02 -0.25844476809E+02  0.35933082900E+02  0.51100000000E-03 0.  1.
         22    1    1    0    0    0  0.41947686098E+01  0.13130052459E+02 -0.25423911117E+02  0.28920055632E+02  0.00000000000E+00 0. -1.
</event>
<event>
 5    1  0.6622912E-004  0.9118800E+02  0.7818608E-02  0.1130116E+00
         25   -1    0    0    0    0  0.00000000000E+00  0.00000000000E+00  0.99999998245E-14  0.12500000000E+03  0.12500000000E+03 0.  0.
        -11    1    3    3    0    0 -0.24576031374E+02  0.28581670109E+02  0.31196551176E+02  0.48929725013E+02  0.51100000000E-03 0.  1.
         23    2    1    0    0    0 -0.28755113843E+02 -0.54314176118E+01 -0.67481544632E+00  0.95728644628E+02  0.91143629273E+02 0.  0.
         11    1    3    3    0    0 -0.41790824688E+01 -0.34013087720E+02 -0.31871366622E+02  0.46798919615E+02  0.51100000000E-03 0. -1.
         22    1    1    0    0    0  0.28755113843E+02  0.54314176118E+01  0.67481544632E+00  0.29271355372E+02  0.00000000000E+00 0.  1.
</event>
<event>
 5    1  0.6622912E-004  0.9118800E+02  0.7818608E-02  0.1130116E+00
         25   -1    0    0    0    0  0.00000000000E+00  0.00000000000E+00  0.99999998245E-14  0.12500000000E+03  0.12500000000E+03 0.  0.
        -11    1    3    3    0    0  0.51686733915E+01  0.28109720149E+02  0.31224236745E+02  0.42329948169E+02  0.51100000000E-03 0. -1.
         23    2    1    0    0    0 -0.32966704028E+02  0.15014390028E+02  0.14950789115E+02  0.85811205970E+02  0.76340038594E+02 0.  0.
         11    1    3    3    0    0 -0.38135377419E+02 -0.13095330121E+02 -0.16273447630E+02  0.43481257801E+02  0.51100000000E-03 0.  1.
         22    1    1    0    0    0  0.32966704028E+02 -0.15014390028E+02 -0.14950789115E+02  0.39188794030E+02  0.00000000000E+00 0.  1.
</event>
<event>
 5    1  0.6622912E-004  0.9118800E+02  0.7818608E-02  0.1130116E+00
         25   -1    0    0    0    0  0.00000000000E+00  0.00000000000E+00  0.99999998245E-14  0.12500000000E+03  0.12500000000E+03 0.  0.
        -11    1    3    3    0    0  0.25462634594E+02  0.21172144377E+02  0.57732887966E+01  0.33614525458E+02  0.51100000000E-03 0. -1.
         23    2    1    0    0    0 -0.25839694825E+02  0.52281796452E+01 -0.18729055445E+02  0.92661150161E+02  0.86834829074E+02 0.  0.
         11    1    3    3    0    0 -0.51302329419E+02 -0.15943964732E+02 -0.24502344242E+02  0.59046624703E+02  0.51100000000E-03 0.  1.
         22    1    1    0    0    0  0.25839694825E+02 -0.52281796452E+01  0.18729055445E+02  0.32338849839E+02  0.00000000000E+00 0.  1.
</event>
<event>
 4    1  0.6622912E-004  0.9118800E+02  0.7818608E-02  0.1130116E+00
         25   -1    0    0    0    0  0.00000000000E+00  0.00000000000E+00  0.99999998245E-14  0.12500000000E+03  0.12500000000E+03 0.  0.
        -11    1    1    0    0    0 -0.97491309734E+01 -0.65304331436E+01  0.36398360396E+01  0.12285785219E+02  0.51100000000E-03 0.  1.
         11    1    1    0    0    0 -0.30075286320E+02  0.39115749818E+02 -0.26952637176E+02  0.56222854624E+02  0.51100000000E-03 0. -1.
         22    1    1    0    0    0  0.39824417294E+02 -0.32585316675E+02  0.23312801137E+02  0.56491360157E+02  0.00000000000E+00 0. -1.
</event>
<event>
 5    1  0.6622912E-004  0.9118800E+02  0.7818608E-02  0.1130116E+00
         25   -1    0    0    0    0  0.00000000000E+00  0.00000000000E+00  0.99999998245E-14  0.12500000000E+03  0.12500000000E+03 0.  0.
        -11    1    3    3    0    0  0.33201433481E+02 -0.31279651086E+02 -0.13986390044E+02  0.47711328466E+02  0.51100000000E-03 0. -1.
         23    2    1    0    0    0  0.55637709668E+00  0.78185064442E+00 -0.29088642411E+02  0.95895533621E+02  0.91372224473E+02 0.  0.
         11    1    3    3    0    0 -0.32645056385E+02  0.32061501730E+02 -0.15102252367E+02  0.48184205155E+02  0.51100000000E-03 0.  1.
         22    1    1    0    0    0 -0.55637709668E+00 -0.78185064442E+00  0.29088642411E+02  0.29104466379E+02  0.00000000000E+00 0. -1.
</event>
<event>
 5    1  0.6622912E-004  0.9118800E+02  0.7818608E-02  0.1130116E+00
         25   -1    0    0    0    0  0.00000000000E+00  0.00000000000E+00  0.99999998245E-14  0.12500000000E+03  0.12500000000E+03 0.  0.
        -11    1    3    3    0    0  0.10392639426E+02 -0.41039176427E+02  0.37250416860E+02  0.56389844055E+02  0.51100000000E-03 0.  1.
         23    2    1    0    0    0  0.22428145114E+02 -0.10445904793E+02  0.16118273043E+02  0.95471414764E+02  0.90790162963E+02 0.  0.
         11    1    3    3    0    0  0.12035505688E+02  0.30593271634E+02 -0.21132143817E+02  0.39081570709E+02  0.51100000000E-03 0. -1.
         22    1    1    0    0    0 -0.22428145114E+02  0.10445904793E+02 -0.16118273043E+02  0.29528585236E+02  0.00000000000E+00 0.  1.
</event>
<event>
 5    1  0.6622912E-004  0.9118800E+02  0.7818608E-02  0.1130116E+00
         25   -1    0    0    0    0  0.00000000000E+00  0.00000000000E+00  0.99999998245E-14  0.12500000000E+03  0.12500000000E+03 0.  0.
        -11    1    3    3    0    0 -0.43037563559E+02 -0.14862280919E+01 -0.98571124858E+00  0.43074498001E+02  0.51100000000E-03 0.  1.
         23    2    1    0    0    0  0.67208871485E+01 -0.87094536368E+01 -0.24171409247E+02  0.98442855355E+02  0.94793005220E+02 0.  0.
         11    1    3    3    0    0  0.49758450708E+02 -0.72232255448E+01 -0.23185697999E+02  0.55368357354E+02  0.51100000000E-03 0. -1.
         22    1    1    0    0    0 -0.67208871485E+01  0.87094536368E+01  0.24171409247E+02  0.26557144645E+02  0.00000000000E+00 0. -1.
</event>
<event>
 5    1  0.6622912E-004  0.9118800E+02  0.7818608E-02  0.1130116E+00
         25   -1    0    0    0    0  0.00000000000E+00  0.00000000000E+00  0.99999998245E-14  0.12500000000E+03  0.12500000000E+03 0.  0.
        -11    1    3    3    0    0 -0.22105250418E+01  0.38717591394E+02  0.61772569411E+01  0.39269540459E+02  0.51100000000E-03 0.  1.
         23    2    1    0    0    0 -0.31735595522E+01 -0.15151134010E+02  0.24364513462E+02  0.96133793836E+02  0.91697592439E+02 0.  0.
         11    1    3    3    0    0 -0.96303451048E+00 -0.53868725404E+02  0.18187256521E+02  0.56864253377E+02  0.51100000000E-03 0. -1.
         22    1    1    0    0    0  0.31735595522E+01  0.15151134010E+02 -0.24364513462E+02  0.28866206164E+02  0.00000000000E+00 0. -1.
</event>
<event>
 5    1  0.6622912E-004  0.9118800E+02  0.7818608E-02  0.1130116E+00
         25   -1    0    0    0    0  0.00000000000E+00  0.00000000000E+00  0.99999998245E-14  0.12500000000E+03  0.12500000000E+03 0.  0.
        -11    1    3    3    0    0 -0.89432446752E+01  0.51794957118E+02 -0.32891794173E+02  0.62004591220E+02  0.51100000000E-03 0. -1.
         23    2    1    0    0    0 -0.63944105068E+01  0.20428860115E+02 -0.18899091989E+02  0.96444746729E+02  0.92120500880E+02 0.  0.
         11    1    3    3    0    0  0.25488341683E+01 -0.31366097003E+02  0.13992702183E+02  0.34440155509E+02  0.51100000000E-03 0.  1.
         22    1    1    0    0    0  0.63944105068E+01 -0.20428860115E+02  0.18899091989E+02  0.28555253271E+02  0.00000000000E+00 0. -1.
</event>
<event>
 5    1  0.6622912E-004  0.9118800E+02  0.7818608E-02  0.1130116E+00
         25   -1    0    0    0    0  0.00000000000E+00  0.00000000000E+00  0.99999998245E-14  0.12500000000E+03  0.12500000000E+03 0.  0.
        -11    1    3    3    0    0 -0.40758950749E+02  0.16892712850E+02 -0.41115888394E+02  0.60308971905E+02  0.51100000000E-03 0.  1.
         23    2    1    0    0    0 -0.27831886124E+02  0.48333417583E+01 -0.12137327193E+02  0.94254434643E+02  0.89098870142E+02 0.  0.
         11    1    3    3    0    0  0.12927064625E+02 -0.12059371091E+02  0.28978561201E+02  0.33945462738E+02  0.51100000000E-03 0. -1.
         22    1    1    0    0    0  0.27831886124E+02 -0.48333417583E+01  0.12137327193E+02  0.30745565357E+02  0.00000000000E+00 0.  1.
</event>
<event>
 5    1  0.6622912E-004  0.9118800E+02  0.7818608E-02  0.1130116E+00
         25   -1    0    0    0    0  0.00000000000E+00  0.00000000000E+00  0.99999998245E-14  0.12500000000E+03  0.12500000000E+03 0.  0.
        -11    1    3    3    0    0 -0.21881786084E+02 -0.22489700792E+02 -0.15153398396E+02  0.34845726957E+02  0.51100000000E-03 0.  1.
         23    2    1    0    0    0  0.25729767279E+01  0.17727293115E+02  0.23289617282E+02  0.95618315167E+02  0.90992190829E+02 0.  0.
         11    1    3    3    0    0  0.24454762812E+02  0.40216993908E+02  0.38443015678E+02  0.60772588211E+02  0.51100000000E-03 0. -1.
         22    1    1    0    0    0 -0.25729767279E+01 -0.17727293115E+02 -0.23289617282E+02  0.29381684833E+02  0.00000000000E+00 0. -1.
</event>
<event>
 5    1  0.6622912E-004  0.9118800E+02  0.7818608E-02  0.1130116E+00
         25   -1    0    0    0    0  0.00000000000E+00  0.00000000000E+00  0.99999998245E-14  0.12500000000E+03  0.12500000000E+03 0.  0.
        -11    1    3    3    0    0 -0.34019295314E+02 -0.51684510316E+01 -0.18728167281E+02  0.39176135461E+02  0.51100000000E-03 0.  1.
         23    2    1    0    0    0  0.18994204879E+02  0.15268972065E+02 -0.15569927334E+02  0.96080387898E+02  0.91624761798E+02 0.  0.
         11    1    3    3    0    0  0.53013500194E+02  0.20437423097E+02  0.31582399471E+01  0.56904252437E+02  0.51100000000E-03 0. -1.
         22    1    1    0    0    0 -0.18994204879E+02 -0.15268972065E+02  0.15569927334E+02  0.28919612102E+02  0.00000000000E+00 0. -1.
</event>
<event>
 5    1  0.6622912E-004  0.9118800E+02  0.7818608E-02  0.1130116E+00
         25   -1    0    0    0    0  0.00000000000E+00  0.00000000000E+00  0.99999998245E-14  0.12500000000E+03  0.12500000000E+03 0.  0.
        -11    1    3    3    0    0  0.12101885622E+02  0.84843384273E+01  0.16824521357E+02  0.22394288408E+02  0.51100000000E-03 0.  1.
         23    2    1    0    0    0 -0.10435408310E+02  0.11177228877E+02 -0.39243607698E+02  0.82882439089E+02  0.71383539925E+02 0.  0.
         11    1    3    3    0    0 -0.22537293933E+02  0.26928904499E+01 -0.56068129055E+02  0.60488150680E+02  0.51100000000E-03 0. -1.
         22    1    1    0    0    0  0.10435408310E+02 -0.11177228877E+02  0.39243607698E+02  0.42117560911E+02  0.00000000000E+00 0. -1.
</event>
<event>
 5    1  0.6622912E-004  0.9118800E+02  0.7818608E-02  0.1130116E+00
         25   -1    0    0    0    0  0.00000000000E+00  0.00000000000E+00  0.99999998245E-14  0.12500000000E+03  0.12500000000E+03 0.  0.
        -11    1    3    3    0    0  0.18551614582E+02  0.53425507029E+02 -0.79564715933E+01  0.57111755754E+02  0.51100000000E-03 0. -1.
         23    2    1    0    0    0  0.47566041861E+01  0.25515615272E+02  0.14285110071E+02  0.95373385684E+02  0.90655095946E+02 0.  0.
         11    1    3    3    0    0 -0.13795010395E+02 -0.27909891757E+02  0.22241581664E+02  0.38261629930E+02  0.51100000000E-03 0.  1.
         22    1    1    0    0    0 -0.47566041861E+01 -0.25515615272E+02 -0.14285110071E+02  0.29626614316E+02  0.00000000000E+00 0. -1.
</event>
<event>
 5    1  0.6622912E-004  0.9118800E+02  0.7818608E-02  0.1130116E+00
         25   -1    0    0    0    0  0.00000000000E+00  0.00000000000E+00  0.99999998245E-14  0.12500000000E+03  0.12500000000E+03 0.  0.
        -11    1    3    3    0    0 -0.34033930843E+02  0.18575734988E+02 -0.63181857358E+01  0.39284677041E+02  0.51100000000E-03 0. -1.
         23    2    1    0    0    0  0.22756995844E+02  0.35713249082E+01 -0.13239827556E+02  0.98430689600E+02  0.94776961335E+02 0.  0.
         11    1    3    3    0    0  0.56790926687E+02 -0.15004410080E+02 -0.69216418198E+01  0.59146012558E+02  0.51100000000E-03 0.  1.
         22    1    1    0    0    0 -0.22756995844E+02 -0.35713249082E+01  0.13239827556E+02  0.26569310400E+02  0.00000000000E+00 0.  1.
</event>
<event>
 5    1  0.6622912E-004  0.9118800E+02  0.7818608E-02  0.1130116E+00
         25   -1    0    0    0    0  0.00000000000E+00  0.00000000000E+00  0.99999998245E-14  0.12500000000E+03  0.12500000000E+03 0.  0.
        -11    1    3    3    0    0  0.59165283582E+02 -0.10998637473E+02 -0.94964571012E+01  0.60923587430E+02  0.51100000000E-03 0.  1.
         23    2    1    0    0    0  0.28404195113E+02 -0.14117071491E+02  0.44819412037E-01  0.93281046419E+02  0.87722640206E+02 0.  0.
         11    1    3    3    0    0 -0.30761088468E+02 -0.31184340179E+01  0.95412765133E+01  0.32357458989E+02  0.51100000000E-03 0. -1.
         22    1    1    0    0    0 -0.28404195113E+02  0.14117071491E+02 -0.44819412037E-01  0.31718953581E+02  0.00000000000E+00 0.  1.
</event>
<event>
 5    1  0.6622912E-004  0.9118800E+02  0.7818608E-02  0.1130116E+00
         25   -1    0    0    0    0  0.00000000000E+00  0.00000000000E+00  0.99999998245E-14  0.12500000000E+03  0.12500000000E+03 0.  0.
        -11    1    3    3    0    0  0.56674290101E+02 -0.19501700483E+02 -0.63588332459E+01  0.60272101678E+02  0.51100000000E-03 0.  1.
         23    2    1    0    0    0  0.29190855175E+02 -0.77998467365E+00  0.49203739592E+01  0.95387089271E+02  0.90673989202E+02 0.  0.
         11    1    3    3    0    0 -0.27483434926E+02  0.18721715809E+02  0.11279207205E+02  0.35114987592E+02  0.51100000000E-03 0. -1.
         22    1    1    0    0    0 -0.29190855175E+02  0.77998467365E+00 -0.49203739592E+01  0.29612910729E+02  0.00000000000E+00 0.  1.
</event>
<event>
 5    1  0.6622912E-004  0.9118800E+02  0.7818608E-02  0.1130116E+00
         25   -1    0    0    0    0  0.00000000000E+00  0.00000000000E+00  0.99999998245E-14  0.12500000000E+03  0.12500000000E+03 0.  0.
        -11    1    3    3    0    0 -0.20271232794E+02  0.24092533627E+02  0.16632262496E+02  0.35609060807E+02  0.51100000000E-03 0.  1.
         23    2    1    0    0    0 -0.10406768081E+02 -0.27812367699E+02 -0.84941507769E+01  0.94113446026E+02  0.88900852114E+02 0.  0.
         11    1    3    3    0    0  0.98644647128E+01 -0.51904901326E+02 -0.25126413273E+02  0.58504385220E+02  0.51100000000E-03 0. -1.
         22    1    1    0    0    0  0.10406768081E+02  0.27812367699E+02  0.84941507769E+01  0.30886553974E+02  0.00000000000E+00 0. -1.
</event>
<event>
 5    1  0.6622912E-004  0.9118800E+02  0.7818608E-02  0.1130116E+00
         25   -1    0    0    0    0  0.00000000000E+00  0.00000000000E+00  0.99999998245E-14  0.12500000000E+03  0.12500000000E+03 0.  0.
        -11    1    3    3    0    0 -0.14481599852E+02  0.26583421130E+02 -0.15833950116E+02  0.34162976887E+02  0.51100000000E-03 0. -1.
         23    2    1    0    0    0 -0.68248754140E+01 -0.17177348873E+02  0.24597163498E+02  0.94232148420E+02  0.89067598514E+02 0.  0.
         11    1    3    3    0    0  0.76567244383E+01 -0.43760770003E+02  0.40431113614E+02  0.60069171533E+02  0.51100000000E-03 0.  1.
         22    1    1    0    0    0  0.68248754140E+01  0.17177348873E+02 -0.24597163498E+02  0.30767851580E+02  0.00000000000E+00 0.  1.
</event>
<event>
 5    1  0.6622912E-004  0.9118800E+02  0.7818608E-02  0.1130116E+00
         25   -1    0    0    0    0  0.00000000000E+00  0.00000000000E+00  0.99999998245E-14  0.12500000000E+03  0.12500000000E+03 0.  0.
        -11    1    3    3    0    0 -0.37271864576E+02 -0.66959194725E+01 -0.18195074134E+02  0.42012949784E+02  0.51100000000E-03 0.  1.
         23    2    1    0    0    0  0.41834493789E+01 -0.13992681292E+02  0.20928260951E+02  0.99479645675E+02  0.96150462395E+02 0.  0.
         11    1    3    3    0    0  0.41455313955E+02 -0.72967618194E+01  0.39123335085E+02  0.57466695891E+02  0.51100000000E-03 0. -1.
         22    1    1    0    0    0 -0.41834493789E+01  0.13992681292E+02 -0.20928260951E+02  0.25520354325E+02  0.00000000000E+00 0. -1.
</event>
<event>
 5    1  0.6622912E-004  0.9118800E+02  0.7818608E-02  0.1130116E+00
         25   -1    0    0    0    0  0.00000000000E+00  0.00000000000E+00  0.99999998245E-14  0.12500000000E+03  0.12500000000E+03 0.  0.
        -11    1    3    3    0    0  0.38239356021E+02  0.43254073056E+02 -0.15660948697E+02  0.59819967395E+02  0.51100000000E-03 0.  1.
         23    2    1    0    0    0  0.25069662869E+02  0.12314557383E+02  0.35873582541E+00  0.97066775852E+02  0.92960711933E+02 0.  0.
         11    1    3    3    0    0 -0.13169693152E+02 -0.30939515673E+02  0.16019684522E+02  0.37246808457E+02  0.51100000000E-03 0. -1.
         22    1    1    0    0    0 -0.25069662869E+02 -0.12314557383E+02 -0.35873582541E+00  0.27933224148E+02  0.00000000000E+00 0.  1.
</event>
<event>
 5    1  0.6622912E-004  0.9118800E+02  0.7818608E-02  0.1130116E+00
         25   -1    0    0    0    0  0.00000000000E+00  0.00000000000E+00  0.99999998245E-14  0.12500000000E+03  0.12500000000E+03 0.  0.
        -11    1    3    3    0    0  0.92780118465E+01 -0.33455516532E+02  0.41481663786E+02  0.54093266873E+02  0.51100000000E-03 0.  1.
         23    2    1    0    0    0 -0.18747445321E+02 -0.13557729048E+02  0.16690007086E+02  0.96472205492E+02  0.92157752647E+02 0.  0.
         11    1    3    3    0    0 -0.28025457167E+02  0.19897787484E+02 -0.24791656701E+02  0.42378938619E+02  0.51100000000E-03 0. -1.
         22    1    1    0    0    0  0.18747445321E+02  0.13557729048E+02 -0.16690007086E+02  0.28527794508E+02  0.00000000000E+00 0.  1.
</event>
<event>
 5    1  0.6622912E-004  0.9118800E+02  0.7818608E-02  0.1130116E+00
         25   -1    0    0    0    0  0.00000000000E+00  0.00000000000E+00  0.99999998245E-14  0.12500000000E+03  0.12500000000E+03 0.  0.
        -11    1    3    3    0    0 -0.26097275041E+01 -0.19829029931E+02  0.26062786918E+02  0.32852244487E+02  0.51100000000E-03 0.  1.
         23    2    1    0    0    0 -0.50174854010E+01  0.11563746098E+02 -0.27367419194E+02  0.94869101957E+02  0.89957075815E+02 0.  0.
         11    1    3    3    0    0 -0.24077578969E+01  0.31392776028E+02 -0.53430206113E+02  0.62016857469E+02  0.51100000000E-03 0. -1.
         22    1    1    0    0    0  0.50174854010E+01 -0.11563746098E+02  0.27367419194E+02  0.30130898043E+02  0.00000000000E+00 0. -1.
</event>
<event>
 5    1  0.6622912E-004  0.9118800E+02  0.7818608E-02  0.1130116E+00
         25   -1    0    0    0    0  0.00000000000E+00  0.00000000000E+00  0.99999998245E-14  0.12500000000E+03  0.12500000000E+03 0.  0.
        -11    1    3    3    0    0 -0.42447088160E+02 -0.29041098686E+02  0.31858349666E+02  0.60498720233E+02  0.51100000000E-03 0.  1.
         23    2    1    0    0    0 -0.10156263571E+02 -0.11137423824E+02  0.21310180318E+02  0.98897975475E+02  0.95391267256E+02 0.  0.
         11    1    3    3    0    0  0.32290824589E+02  0.17903674862E+02 -0.10548169348E+02  0.38399255241E+02  0.51100000000E-03 0. -1.
         22    1    1    0    0    0  0.10156263571E+02  0.11137423824E+02 -0.21310180318E+02  0.26102024525E+02  0.00000000000E+00 0.  1.
</event>
<event>
 5    1  0.6622912E-004  0.9118800E+02  0.7818608E-02  0.1130116E+00
         25   -1    0    0    0    0  0.00000000000E+00  0.00000000000E+00  0.99999998245E-14  0.12500000000E+03  0.12500000000E+03 0.  0.
        -11    1    3    3    0    0 -0.11049779924E+02 -0.44407958689E+02 -0.42361935226E+02  0.62359425812E+02  0.51100000000E-03 0.  1.
         23    2    1    0    0    0 -0.21463852035E+01 -0.20699720942E+02 -0.18500125869E+02  0.97155070952E+02  0.93079362579E+02 0.  0.
         11    1    3    3    0    0  0.89033947210E+01  0.23708237747E+02  0.23861809358E+02  0.34795645140E+02  0.51100000000E-03 0. -1.
         22    1    1    0    0    0  0.21463852035E+01  0.20699720942E+02  0.18500125869E+02  0.27844929048E+02  0.00000000000E+00 0.  1.
</event>
<event>
 5    1  0.6622912E-004  0.9118800E+02  0.7818608E-02  0.1130116E+00
         25   -1    0    0    0    0  0.00000000000E+00  0.00000000000E+00  0.99999998245E-14  0.12500000000E+03  0.12500000000E+03 0.  0.
        -11    1    3    3    0    0 -0.25028999094E+02  0.35910027069E+02 -0.24525990184E+02  0.50174744987E+02  0.51100000000E-03 0.  1.
         23    2    1    0    0    0  0.11630599043E+02  0.30560960558E+02 -0.54350610161E+01  0.91852103647E+02  0.85662278232E+02 0.  0.
         11    1    3    3    0    0  0.36659598137E+02 -0.53490665111E+01  0.19090929168E+02  0.41677358660E+02  0.51100000000E-03 0. -1.
         22    1    1    0    0    0 -0.11630599043E+02 -0.30560960558E+02  0.54350610161E+01  0.33147896353E+02  0.00000000000E+00 0.  1.
</event>
<event>
 5    1  0.6622912E-004  0.9118800E+02  0.7818608E-02  0.1130116E+00
         25   -1    0    0    0    0  0.00000000000E+00  0.00000000000E+00  0.99999998245E-14  0.12500000000E+03  0.12500000000E+03 0.  0.
        -11    1    3    3    0    0  0.21910567686E+02  0.21377656416E+02  0.36108248161E+02  0.47337963156E+02  0.51100000000E-03 0. -1.
         23    2    1    0    0    0  0.12374220712E+02  0.22405355182E+02 -0.12240081069E+02  0.96628520243E+02  0.92369529936E+02 0.  0.
         11    1    3    3    0    0 -0.95363469748E+01  0.10276987659E+01 -0.48348329230E+02  0.49290557087E+02  0.51100000000E-03 0.  1.
         22    1    1    0    0    0 -0.12374220712E+02 -0.22405355182E+02  0.12240081069E+02  0.28371479757E+02  0.00000000000E+00 0.  1.
</event>
<event>
 5    1  0.6622912E-004  0.9118800E+02  0.7818608E-02  0.1130116E+00
         25   -1    0    0    0    0  0.00000000000E+00  0.00000000000E+00  0.99999998245E-14  0.12500000000E+03  0.12500000000E+03 0.  0.
        -11    1    3    3    0    0 -0.33731089104E+02 -0.14349063175E+01  0.11847295035E+02  0.35779934715E+02  0.51100000000E-03 0.  1.
         23    2    1    0    0    0  0.15359159542E+01  0.13302987713E+02 -0.29812747668E+02  0.92317765630E+02  0.86339107057E+02 0.  0.
         11    1    3    3    0    0  0.35267005059E+02  0.14737894031E+02 -0.41660042703E+02  0.56537830915E+02  0.51100000000E-03 0. -1.
         22    1    1    0    0    0 -0.15359159542E+01 -0.13302987713E+02  0.29812747668E+02  0.32682234370E+02  0.00000000000E+00 0. -1.
</event>
<event>
 5    1  0.6622912E-004  0.9118800E+02  0.7818608E-02  0.1130116E+00
         25   -1    0    0    0    0  0.00000000000E+00  0.00000000000E+00  0.99999998245E-14  0.12500000000E+03  0.12500000000E+03 0.  0.
        -11    1    3    3    0    0  0.43287672966E+02 -0.20024662250E+02 -0.10729716248E+02  0.48886977203E+02  0.51100000000E-03 0.  1.
         23    2    1    0    0    0  0.19795335891E+02 -0.20314027877E+01  0.23547572275E+02  0.94170305217E+02  0.88980763676E+02 0.  0.
         11    1    3    3    0    0 -0.23492337075E+02  0.17993259462E+02  0.34277288523E+02  0.45283328014E+02  0.51100000000E-03 0. -1.
         22    1    1    0    0    0 -0.19795335891E+02  0.20314027877E+01 -0.23547572275E+02  0.30829694783E+02  0.00000000000E+00 0.  1.
</event>
<event>
 5    1  0.6622912E-004  0.9118800E+02  0.7818608E-02  0.1130116E+00
         25   -1    0    0    0    0  0.00000000000E+00  0.00000000000E+00  0.99999998245E-14  0.12500000000E+03  0.12500000000E+03 0.  0.
        -11    1    3    3    0    0  0.22473236382E+02 -0.49602390786E+02  0.24636227227E+02  0.59769450536E+02  0.51100000000E-03 0.  1.
         23    2    1    0    0    0  0.10188429013E+02 -0.27933543909E+02 -0.64386766784E+00  0.95259429618E+02  0.90497830938E+02 0.  0.
         11    1    3    3    0    0 -0.12284807369E+02  0.21668846877E+02 -0.25280094894E+02  0.35489979081E+02  0.51100000000E-03 0. -1.
         22    1    1    0    0    0 -0.10188429013E+02  0.27933543909E+02  0.64386766784E+00  0.29740570382E+02  0.00000000000E+00 0.  1.
</event>
<event>
 5    1  0.6622912E-004  0.9118800E+02  0.7818608E-02  0.1130116E+00
         25   -1    0    0    0    0  0.00000000000E+00  0.00000000000E+00  0.99999998245E-14  0.12500000000E+03  0.12500000000E+03 0.  0.
        -11    1    3    3    0    0 -0.56721615708E+01  0.38302345363E+01  0.45178029287E+02  0.45693527375E+02  0.51100000000E-03 0.  1.
         23    2    1    0    0    0 -0.27408347577E+02 -0.10538833329E+02  0.27196534511E+01  0.95509644971E+02  0.90842783107E+02 0.  0.
         11    1    3    3    0    0 -0.21736186006E+02 -0.14369067865E+02 -0.42458375836E+02  0.49816117596E+02  0.51100000000E-03 0. -1.
         22    1    1    0    0    0  0.27408347577E+02  0.10538833329E+02 -0.27196534511E+01  0.29490355029E+02  0.00000000000E+00 0.  1.
</event>
<event>
 5    1  0.6622912E-004  0.9118800E+02  0.7818608E-02  0.1130116E+00
         25   -1    0    0    0    0  0.00000000000E+00  0.00000000000E+00  0.99999998245E-14  0.12500000000E+03  0.12500000000E+03 0.  0.
        -11    1    3    3    0    0  0.16277863091E+02 -0.24377136956E+02  0.44456811396E+02  0.53250555985E+02  0.51100000000E-03 0. -1.
         23    2    1    0    0    0 -0.15536668987E+02 -0.80870595198E+01  0.26459318156E+02  0.93268562400E+02  0.87704849352E+02 0.  0.
         11    1    3    3    0    0 -0.31814532078E+02  0.16290077436E+02 -0.17997493240E+02  0.40018006414E+02  0.51100000000E-03 0.  1.
         22    1    1    0    0    0  0.15536668987E+02  0.80870595198E+01 -0.26459318156E+02  0.31731437600E+02  0.00000000000E+00 0. -1.
</event>
<event>
 5    1  0.6622912E-004  0.9118800E+02  0.7818608E-02  0.1130116E+00
         25   -1    0    0    0    0  0.00000000000E+00  0.00000000000E+00  0.99999998245E-14  0.12500000000E+03  0.12500000000E+03 0.  0.
        -11    1    3    3    0    0  0.23558889938E+02 -0.37058337499E+02  0.38722464163E+02  0.58547168201E+02  0.51100000000E-03 0.  1.
         23    2    1    0    0    0  0.21584819261E+02 -0.55560288811E+01  0.18503885497E+02  0.96031609331E+02  0.91558190965E+02 0.  0.
         11    1    3    3    0    0 -0.19740706768E+01  0.31502308618E+02 -0.20218578666E+02  0.37484441130E+02  0.51100000000E-03 0. -1.
         22    1    1    0    0    0 -0.21584819261E+02  0.55560288811E+01 -0.18503885497E+02  0.28968390669E+02  0.00000000000E+00 0. -1.
</event>
<event>
 5    1  0.6622912E-004  0.9118800E+02  0.7818608E-02  0.1130116E+00
         25   -1    0    0    0    0  0.00000000000E+00  0.00000000000E+00  0.99999998245E-14  0.12500000000E+03  0.12500000000E+03 0.  0.
        -11    1    3    3    0    0 -0.55329001752E+02  0.14590949244E+02  0.18434125445E+02  0.60116646745E+02  0.51100000000E-03 0. -1.
         23    2    1    0    0    0 -0.20330819610E+02  0.17081619914E+02  0.12299737521E+02  0.95735558984E+02  0.91153111554E+02 0.  0.
         11    1    3    3    0    0  0.34998182142E+02  0.24906706706E+01 -0.61343879236E+01  0.35618912239E+02  0.51100000000E-03 0.  1.
         22    1    1    0    0    0  0.20330819610E+02 -0.17081619914E+02 -0.12299737521E+02  0.29264441016E+02  0.00000000000E+00 0. -1.
</event>
<event>
 5    1  0.6622912E-004  0.9118800E+02  0.7818608E-02  0.1130116E+00
         25   -1    0    0    0    0  0.00000000000E+00  0.00000000000E+00  0.99999998245E-14  0.12500000000E+03  0.12500000000E+03 0.  0.
        -11    1    3    3    0    0  0.38220739594E+02  0.38978342702E+02 -0.20182455550E+02  0.58201955699E+02  0.51100000000E-03 0.  1.
         23    2    1    0    0    0  0.24033597408E+02  0.16900635988E+02  0.57111917716E+01  0.95069029207E+02  0.90234457397E+02 0.  0.
         11    1    3    3    0    0 -0.14187142185E+02 -0.22077706714E+02  0.25893647322E+02  0.36867073508E+02  0.51100000000E-03 0. -1.
         22    1    1    0    0    0 -0.24033597408E+02 -0.16900635988E+02 -0.57111917716E+01  0.29930970793E+02  0.00000000000E+00 0.  1.
</event>
<event>
 5    1  0.6622912E-004  0.9118800E+02  0.7818608E-02  0.1130116E+00
         25   -1    0    0    0    0  0.00000000000E+00  0.00000000000E+00  0.99999998245E-14  0.12500000000E+03  0.12500000000E+03 0.  0.
        -11    1    3    3    0    0  0.57959939105E+01  0.35465167335E+02 -0.54014271766E+01  0.36339332070E+02  0.51100000000E-03 0. -1.
         23    2    1    0    0    0  0.14544678948E+02 -0.22115653157E+02 -0.13742786505E+02  0.95175279026E+02  0.90381523313E+02 0.  0.
         11    1    3    3    0    0  0.87486850372E+01 -0.57580820492E+02 -0.83413593282E+01  0.58835946956E+02  0.51100000000E-03 0.  1.
         22    1    1    0    0    0 -0.14544678948E+02  0.22115653157E+02  0.13742786505E+02  0.29824720974E+02  0.00000000000E+00 0.  1.
</event>
<event>
 5    1  0.6622912E-004  0.9118800E+02  0.7818608E-02  0.1130116E+00
         25   -1    0    0    0    0  0.00000000000E+00  0.00000000000E+00  0.99999998245E-14  0.12500000000E+03  0.12500000000E+03 0.  0.
        -11    1    3    3    0    0  0.22379306126E+02 -0.39297033825E+02  0.19492221666E+02  0.49244663831E+02  0.51100000000E-03 0. -1.
         23    2    1    0    0    0  0.27877807745E+02  0.46447533964E+01  0.26874392077E+01  0.96610420428E+02  0.92345032931E+02 0.  0.
         11    1    3    3    0    0  0.54985016191E+01  0.43941787221E+02 -0.16804782458E+02  0.47365756597E+02  0.51100000000E-03 0.  1.
         22    1    1    0    0    0 -0.27877807745E+02 -0.46447533964E+01 -0.26874392077E+01  0.28389579572E+02  0.00000000000E+00 0. -1.
</event>
<event>
 5    1  0.6622912E-004  0.9118800E+02  0.7818608E-02  0.1130116E+00
         25   -1    0    0    0    0  0.00000000000E+00  0.00000000000E+00  0.99999998245E-14  0.12500000000E+03  0.12500000000E+03 0.  0.
        -11    1    3    3    0    0  0.70466380698E+01 -0.57463142983E+02  0.16676268371E+02  0.60247538013E+02  0.51100000000E-03 0.  1.
         23    2    1    0    0    0 -0.42562342187E+00 -0.28503754682E+02 -0.34327221238E+01  0.96287132372E+02  0.91906382221E+02 0.  0.
         11    1    3    3    0    0 -0.74722614917E+01  0.28959388301E+02 -0.20108990495E+02  0.36039594359E+02  0.51100000000E-03 0. -1.
         22    1    1    0    0    0  0.42562342187E+00  0.28503754682E+02  0.34327221238E+01  0.28712867628E+02  0.00000000000E+00 0.  1.
</event>
<event>
 5    1  0.6622912E-004  0.9118800E+02  0.7818608E-02  0.1130116E+00
         25   -1    0    0    0    0  0.00000000000E+00  0.00000000000E+00  0.99999998245E-14  0.12500000000E+03  0.12500000000E+03 0.  0.
        -11    1    3    3    0    0  0.16032536798E+02  0.15408676989E+02 -0.28576592919E+02  0.36208993715E+02  0.51100000000E-03 0.  1.
         23    2    1    0    0    0 -0.70684974978E+01  0.11263866155E+02  0.26098652156E+02  0.95708738812E+02  0.91116325118E+02 0.  0.
         11    1    3    3    0    0 -0.23101034296E+02 -0.41448108333E+01  0.54675245075E+02  0.59499745097E+02  0.51100000000E-03 0. -1.
         22    1    1    0    0    0  0.70684974978E+01 -0.11263866155E+02 -0.26098652156E+02  0.29291261188E+02  0.00000000000E+00 0. -1.
</event>
<event>
 5    1  0.6622912E-004  0.9118800E+02  0.7818608E-02  0.1130116E+00
         25   -1    0    0    0    0  0.00000000000E+00  0.00000000000E+00  0.99999998245E-14  0.12500000000E+03  0.12500000000E+03 0.  0.
        -11    1    3    3    0    0 -0.28032338269E+02  0.67523904685E+01 -0.20402791202E+02  0.35322523338E+02  0.51100000000E-03 0.  1.
         23    2    1    0    0    0  0.28246056457E+02  0.60461391514E+01 -0.16484094999E+02  0.91741604189E+02  0.85500883312E+02 0.  0.
         11    1    3    3    0    0  0.56278394726E+02 -0.70625131714E+00  0.39186962035E+01  0.56419080851E+02  0.51100000000E-03 0. -1.
         22    1    1    0    0    0 -0.28246056457E+02 -0.60461391514E+01  0.16484094999E+02  0.33258395811E+02  0.00000000000E+00 0. -1.
</event>
<event>
 5    1  0.6622912E-004  0.9118800E+02  0.7818608E-02  0.1130116E+00
         25   -1    0    0    0    0  0.00000000000E+00  0.00000000000E+00  0.99999998245E-14  0.12500000000E+03  0.12500000000E+03 0.  0.
        -11    1    3    3    0    0  0.33593818811E+01  0.90409763014E+01 -0.28763226158E+02  0.30337235839E+02  0.51100000000E-03 0.  1.
         23    2    1    0    0    0 -0.95406364473E+01 -0.13459083339E+02  0.27862310690E+02  0.92619774165E+02  0.86775247284E+02 0.  0.
         11    1    3    3    0    0 -0.12900018328E+02 -0.22500059641E+02  0.56625536848E+02  0.62282538325E+02  0.51100000000E-03 0. -1.
         22    1    1    0    0    0  0.95406364473E+01  0.13459083339E+02 -0.27862310690E+02  0.32380225835E+02  0.00000000000E+00 0. -1.
</event>
<event>
 5    1  0.6622912E-004  0.9118800E+02  0.7818608E-02  0.1130116E+00
         25   -1    0    0    0    0  0.00000000000E+00  0.00000000000E+00  0.99999998245E-14  0.12500000000E+03  0.12500000000E+03 0.  0.
        -11    1    3    3    0    0  0.14062776139E+02 -0.32114771258E+02 -0.49838117701E+02  0.60934047805E+02  0.51100000000E-03 0. -1.
         23    2    1    0    0    0  0.10767752406E+02 -0.21216188265E+02 -0.16813125437E+02  0.95866645862E+02  0.91332696585E+02 0.  0.
         11    1    3    3    0    0 -0.32950237329E+01  0.10898582993E+02  0.33024992265E+02  0.34932598057E+02  0.51100000000E-03 0.  1.
         22    1    1    0    0    0 -0.10767752406E+02  0.21216188265E+02  0.16813125437E+02  0.29133354138E+02  0.00000000000E+00 0. -1.
</event>
<event>
 5    1  0.6622912E-004  0.9118800E+02  0.7818608E-02  0.1130116E+00
         25   -1    0    0    0    0  0.00000000000E+00  0.00000000000E+00  0.99999998245E-14  0.12500000000E+03  0.12500000000E+03 0.  0.
        -11    1    3    3    0    0  0.10802648156E+02  0.23587238028E+02  0.28254541942E+02  0.38358495091E+02  0.51100000000E-03 0. -1.
         23    2    1    0    0    0  0.75802853532E+01  0.45745779895E+01 -0.26843737063E+02  0.96733877002E+02  0.92511995172E+02 0.  0.
         11    1    3    3    0    0 -0.32223628029E+01 -0.19012660038E+02 -0.55098279005E+02  0.58375381912E+02  0.51100000000E-03 0.  1.
         22    1    1    0    0    0 -0.75802853532E+01 -0.45745779895E+01  0.26843737063E+02  0.28266122998E+02  0.00000000000E+00 0.  1.
</event>
<event>
 5    1  0.6622912E-004  0.9118800E+02  0.7818608E-02  0.1130116E+00
         25   -1    0    0    0    0  0.00000000000E+00  0.00000000000E+00  0.99999998245E-14  0.12500000000E+03  0.12500000000E+03 0.  0.
        -11    1    3    3    0    0 -0.23459461774E+02 -0.24713149138E+02 -0.27312137133E+02  0.43669656766E+02  0.51100000000E-03 0. -1.
         23    2    1    0    0    0  0.13400381487E+02  0.11364849586E+02 -0.23867548450E+02  0.95362356721E+02  0.90639887358E+02 0.  0.
         11    1    3    3    0    0  0.36859843261E+02  0.36077998724E+02  0.34445886827E+01  0.51692699955E+02  0.51100000000E-03 0.  1.
         22    1    1    0    0    0 -0.13400381487E+02 -0.11364849586E+02  0.23867548450E+02  0.29637643279E+02  0.00000000000E+00 0.  1.
</event>
<event>
 5    1  0.6622912E-004  0.9118800E+02  0.7818608E-02  0.1130116E+00
         25   -1    0    0    0    0  0.00000000000E+00  0.00000000000E+00  0.99999998245E-14  0.12500000000E+03  0.12500000000E+03 0.  0.
        -11    1    3    3    0    0  0.34200092411E+02  0.42833231346E+02 -0.14782516861E+02  0.56770193178E+02  0.51100000000E-03 0.  1.
         23    2    1    0    0    0 -0.26371655117E+01  0.24050070225E+02  0.35398574326E+00  0.10080318563E+03  0.97855998321E+02 0.  0.
         11    1    3    3    0    0 -0.36837257922E+02 -0.18783161121E+02  0.15136502604E+02  0.44032992452E+02  0.51100000000E-03 0. -1.
         22    1    1    0    0    0  0.26371655117E+01 -0.24050070225E+02 -0.35398574326E+00  0.24196814370E+02  0.00000000000E+00 0.  1.
</event>
<event>
 5    1  0.6622912E-004  0.9118800E+02  0.7818608E-02  0.1130116E+00
         25   -1    0    0    0    0  0.00000000000E+00  0.00000000000E+00  0.99999998245E-14  0.12500000000E+03  0.12500000000E+03 0.  0.
        -11    1    3    3    0    0 -0.19119464115E+02  0.56813330092E+02  0.14721842196E+02  0.61725529744E+02  0.51100000000E-03 0.  1.
         23    2    1    0    0    0 -0.27442644544E+01  0.28840574199E+02  0.47178901980E+01  0.95647518070E+02  0.91032299309E+02 0.  0.
         11    1    3    3    0    0  0.16375199661E+02 -0.27972755893E+02 -0.10003951998E+02  0.33921988327E+02  0.51100000000E-03 0. -1.
         22    1    1    0    0    0  0.27442644544E+01 -0.28840574199E+02 -0.47178901980E+01  0.29352481930E+02  0.00000000000E+00 0.  1.
</event>
<event>
 5    1  0.6622912E-004  0.9118800E+02  0.7818608E-02  0.1130116E+00
         25   -1    0    0    0    0  0.00000000000E+00  0.00000000000E+00  0.99999998245E-14  0.12500000000E+03  0.12500000000E+03 0.  0.
        -11    1    3    3    0    0  0.21924331012E+02  0.18692240798E+01 -0.47357981378E+02  0.52220194269E+02  0.51100000000E-03 0.  1.
         23    2    1    0    0    0  0.14065310969E+02  0.23926045401E+02 -0.11696058198E+02  0.94882124933E+02  0.89975170093E+02 0.  0.
         11    1    3    3    0    0 -0.78590200429E+01  0.22056821321E+02  0.35661923180E+02  0.42661930664E+02  0.51100000000E-03 0. -1.
         22    1    1    0    0    0 -0.14065310969E+02 -0.23926045401E+02  0.11696058198E+02  0.30117875067E+02  0.00000000000E+00 0.  1.
</event>
<event>
 5    1  0.6622912E-004  0.9118800E+02  0.7818608E-02  0.1130116E+00
         25   -1    0    0    0    0  0.00000000000E+00  0.00000000000E+00  0.99999998245E-14  0.12500000000E+03  0.12500000000E+03 0.  0.
        -11    1    3    3    0    0 -0.18286576767E+02 -0.36310855916E+02  0.30782558847E+02  0.50994539674E+02  0.51100000000E-03 0.  1.
         23    2    1    0    0    0 -0.55526257633E+01 -0.25176562908E+02 -0.11675380528E+02  0.96697959734E+02  0.92463451880E+02 0.  0.
         11    1    3    3    0    0  0.12733951004E+02  0.11134293008E+02 -0.42457939375E+02  0.45703420060E+02  0.51100000000E-03 0. -1.
         22    1    1    0    0    0  0.55526257633E+01  0.25176562908E+02  0.11675380528E+02  0.28302040266E+02  0.00000000000E+00 0.  1.
</event>
<event>
 5    1  0.6622912E-004  0.9118800E+02  0.7818608E-02  0.1130116E+00
         25   -1    0    0    0    0  0.00000000000E+00  0.00000000000E+00  0.99999998245E-14  0.12500000000E+03  0.12500000000E+03 0.  0.
        -11    1    3    3    0    0 -0.48356875454E+01  0.42124870646E+02  0.10344448592E+02  0.43645116770E+02  0.51100000000E-03 0.  1.
         23    2    1    0    0    0  0.14798349864E+01  0.79608097671E+01 -0.28272616418E+02  0.95590728624E+02  0.90954286078E+02 0.  0.
         11    1    3    3    0    0  0.63155225318E+01 -0.34164060879E+02 -0.38617065011E+02  0.51945611854E+02  0.51100000000E-03 0. -1.
         22    1    1    0    0    0 -0.14798349864E+01 -0.79608097671E+01  0.28272616418E+02  0.29409271376E+02  0.00000000000E+00 0. -1.
</event>
<event>
 5    1  0.6622912E-004  0.9118800E+02  0.7818608E-02  0.1130116E+00
         25   -1    0    0    0    0  0.00000000000E+00  0.00000000000E+00  0.99999998245E-14  0.12500000000E+03  0.12500000000E+03 0.  0.
        -11    1    3    3    0    0  0.46823300741E+02  0.18136967126E+02 -0.14998874474E+02  0.52405508342E+02  0.51100000000E-03 0.  1.
         23    2    1    0    0    0  0.29308901251E+02  0.34623938249E+02 -0.23651232470E+01  0.79575088328E+02  0.65335840716E+02 0.  0.
         11    1    3    3    0    0 -0.17514399490E+02  0.16486971124E+02  0.12633751227E+02  0.27169579987E+02  0.51100000000E-03 0. -1.
         22    1    1    0    0    0 -0.29308901251E+02 -0.34623938249E+02  0.23651232470E+01  0.45424911672E+02  0.00000000000E+00 0.  1.
</event>
<event>
 5    1  0.6622912E-004  0.9118800E+02  0.7818608E-02  0.1130116E+00
         25   -1    0    0    0    0  0.00000000000E+00  0.00000000000E+00  0.99999998245E-14  0.12500000000E+03  0.12500000000E+03 0.  0.
        -11    1    3    3    0    0  0.40380721247E+02  0.46304539586E+02 -0.28203480603E+01  0.61503393387E+02  0.51100000000E-03 0. -1.
         23    2    1    0    0    0  0.22732323684E+02  0.16080365519E+02 -0.55434432034E+01  0.96608690452E+02  0.92342691172E+02 0.  0.
         11    1    3    3    0    0 -0.17648397562E+02 -0.30224174067E+02 -0.27230951431E+01  0.35105297065E+02  0.51100000000E-03 0.  1.
         22    1    1    0    0    0 -0.22732323684E+02 -0.16080365519E+02  0.55434432034E+01  0.28391309548E+02  0.00000000000E+00 0. -1.
</event>
<event>
 5    1  0.6622912E-004  0.9118800E+02  0.7818608E-02  0.1130116E+00
         25   -1    0    0    0    0  0.00000000000E+00  0.00000000000E+00  0.99999998245E-14  0.12500000000E+03  0.12500000000E+03 0.  0.
        -11    1    3    3    0    0 -0.28705699362E+02 -0.16866725512E+02  0.21051902711E+02  0.39391448480E+02  0.51100000000E-03 0. -1.
         23    2    1    0    0    0  0.21034019066E+02  0.48453473020E+00 -0.11205605414E+02  0.10116241781E+03  0.98313806011E+02 0.  0.
         11    1    3    3    0    0  0.49739718428E+02  0.17351260242E+02 -0.32257508125E+02  0.61770969330E+02  0.51100000000E-03 0.  1.
         22    1    1    0    0    0 -0.21034019066E+02 -0.48453473020E+00  0.11205605414E+02  0.23837582190E+02  0.00000000000E+00 0.  1.
</event>
<event>
 5    1  0.6622912E-004  0.9118800E+02  0.7818608E-02  0.1130116E+00
         25   -1    0    0    0    0  0.00000000000E+00  0.00000000000E+00  0.99999998245E-14  0.12500000000E+03  0.12500000000E+03 0.  0.
        -11    1    3    3    0    0 -0.34414787955E+02  0.14083906921E+02  0.54483485694E+01  0.37582157555E+02  0.51100000000E-03 0.  1.
         23    2    1    0    0    0  0.10791582794E+02 -0.18517609195E+02  0.20528608337E+02  0.95321996871E+02  0.90584210643E+02 0.  0.
         11    1    3    3    0    0  0.45206370748E+02 -0.32601516116E+02  0.15080259768E+02  0.57739839316E+02  0.51100000000E-03 0. -1.
         22    1    1    0    0    0 -0.10791582794E+02  0.18517609195E+02 -0.20528608337E+02  0.29678003129E+02  0.00000000000E+00 0. -1.
</event>
<event>
 5    1  0.6622912E-004  0.9118800E+02  0.7818608E-02  0.1130116E+00
         25   -1    0    0    0    0  0.00000000000E+00  0.00000000000E+00  0.99999998245E-14  0.12500000000E+03  0.12500000000E+03 0.  0.
        -11    1    3    3    0    0 -0.16822738836E+02  0.85537609754E+01  0.53040060129E+02  0.56297596285E+02  0.51100000000E-03 0. -1.
         23    2    1    0    0    0 -0.11407050347E+01 -0.14743015108E+02  0.24812457743E+02  0.96115475394E+02  0.91672617768E+02 0.  0.
         11    1    3    3    0    0  0.15682033802E+02 -0.23296776084E+02 -0.28227602385E+02  0.39817879109E+02  0.51100000000E-03 0.  1.
         22    1    1    0    0    0  0.11407050347E+01  0.14743015108E+02 -0.24812457743E+02  0.28884524606E+02  0.00000000000E+00 0. -1.
</event>
<event>
 5    1  0.6622912E-004  0.9118800E+02  0.7818608E-02  0.1130116E+00
         25   -1    0    0    0    0  0.00000000000E+00  0.00000000000E+00  0.99999998245E-14  0.12500000000E+03  0.12500000000E+03 0.  0.
        -11    1    3    3    0    0  0.52741428621E+02 -0.22148416586E+02  0.14339621453E+02  0.58973175206E+02  0.51100000000E-03 0. -1.
         23    2    1    0    0    0  0.28676148934E+02 -0.64881614241E+01 -0.70365238876E+01  0.94768717778E+02  0.89817478503E+02 0.  0.
         11    1    3    3    0    0 -0.24065279687E+02  0.15660255162E+02 -0.21376145341E+02  0.35795542572E+02  0.51100000000E-03 0.  1.
         22    1    1    0    0    0 -0.28676148934E+02  0.64881614241E+01  0.70365238876E+01  0.30231282222E+02  0.00000000000E+00 0. -1.
</event>
<event>
 5    1  0.6622912E-004  0.9118800E+02  0.7818608E-02  0.1130116E+00
         25   -1    0    0    0    0  0.00000000000E+00  0.00000000000E+00  0.99999998245E-14  0.12500000000E+03  0.12500000000E+03 0.  0.
        -11    1    3    3    0    0  0.34008834281E+01  0.27006051199E+02  0.34040151543E+02  0.43584684544E+02  0.51100000000E-03 0. -1.
         23    2    1    0    0    0  0.10839038474E+02 -0.10559406141E+02 -0.13562843853E+02  0.10467915980E+03  0.10268782766E+03 0.  0.
         11    1    3    3    0    0  0.74381550463E+01 -0.37565457340E+02 -0.47602995397E+02  0.61094475255E+02  0.51100000000E-03 0.  1.
         22    1    1    0    0    0 -0.10839038474E+02  0.10559406141E+02  0.13562843853E+02  0.20320840201E+02  0.00000000000E+00 0.  1.
</event>
<event>
 5    1  0.6622912E-004  0.9118800E+02  0.7818608E-02  0.1130116E+00
         25   -1    0    0    0    0  0.00000000000E+00  0.00000000000E+00  0.99999998245E-14  0.12500000000E+03  0.12500000000E+03 0.  0.
        -11    1    3    3    0    0  0.47644331354E+01  0.28414823130E+02 -0.29099965500E+02  0.40950091440E+02  0.51100000000E-03 0.  1.
         23    2    1    0    0    0 -0.10720251213E+02 -0.22585485363E+02 -0.13997358053E+02  0.96347705718E+02  0.91988729905E+02 0.  0.
         11    1    3    3    0    0 -0.15484684348E+02 -0.51000308493E+02  0.15102607447E+02  0.55397614278E+02  0.51100000000E-03 0. -1.
         22    1    1    0    0    0  0.10720251213E+02  0.22585485363E+02  0.13997358053E+02  0.28652294282E+02  0.00000000000E+00 0. -1.
</event>
<event>
 5    1  0.6622912E-004  0.9118800E+02  0.7818608E-02  0.1130116E+00
         25   -1    0    0    0    0  0.00000000000E+00  0.00000000000E+00  0.99999998245E-14  0.12500000000E+03  0.12500000000E+03 0.  0.
        -11    1    3    3    0    0  0.39759969332E+02  0.90607187384E+01 -0.18102978725E+02  0.44616920830E+02  0.51100000000E-03 0.  1.
         23    2    1    0    0    0 -0.44736599494E+01  0.27597675584E+02  0.27343801041E+01  0.96908681670E+02  0.92747886323E+02 0.  0.
         11    1    3    3    0    0 -0.44233629282E+02  0.18536956845E+02  0.20837358829E+02  0.52291760840E+02  0.51100000000E-03 0. -1.
         22    1    1    0    0    0  0.44736599494E+01 -0.27597675584E+02 -0.27343801041E+01  0.28091318330E+02  0.00000000000E+00 0. -1.
</event>
<event>
 5    1  0.6622912E-004  0.9118800E+02  0.7818608E-02  0.1130116E+00
         25   -1    0    0    0    0  0.00000000000E+00  0.00000000000E+00  0.99999998245E-14  0.12500000000E+03  0.12500000000E+03 0.  0.
        -11    1    3    3    0    0 -0.35686695016E+02 -0.90444735956E+01 -0.75273489911E+01  0.37576637514E+02  0.51100000000E-03 0. -1.
         23    2    1    0    0    0  0.21205600046E+02 -0.99640211439E+01 -0.18027835430E+02  0.95437151001E+02  0.90742976313E+02 0.  0.
         11    1    3    3    0    0  0.56892295062E+02 -0.91954754834E+00 -0.10500486439E+02  0.57860513486E+02  0.51100000000E-03 0.  1.
         22    1    1    0    0    0 -0.21205600046E+02  0.99640211439E+01  0.18027835430E+02  0.29562848999E+02  0.00000000000E+00 0.  1.
</event>
<event>
 5    1  0.6622912E-004  0.9118800E+02  0.7818608E-02  0.1130116E+00
         25   -1    0    0    0    0  0.00000000000E+00  0.00000000000E+00  0.99999998245E-14  0.12500000000E+03  0.12500000000E+03 0.  0.
        -11    1    3    3    0    0  0.30797209074E+02 -0.20909313291E+02  0.60217818898E+01  0.37708478177E+02  0.51100000000E-03 0.  1.
         23    2    1    0    0    0  0.46922946367E+01  0.10295086321E+02 -0.30555245362E+02  0.92417344331E+02  0.86483154907E+02 0.  0.
         11    1    3    3    0    0 -0.26104914438E+02  0.31204399612E+02 -0.36577027252E+02  0.54708866153E+02  0.51100000000E-03 0. -1.
         22    1    1    0    0    0 -0.46922946367E+01 -0.10295086321E+02  0.30555245362E+02  0.32582655669E+02  0.00000000000E+00 0. -1.
</event>
<event>
 5    1  0.6622912E-004  0.9118800E+02  0.7818608E-02  0.1130116E+00
         25   -1    0    0    0    0  0.00000000000E+00  0.00000000000E+00  0.99999998245E-14  0.12500000000E+03  0.12500000000E+03 0.  0.
        -11    1    3    3    0    0 -0.29397018572E+02 -0.15968911335E+02 -0.88801839712E+01  0.34612837182E+02  0.51100000000E-03 0. -1.
         23    2    1    0    0    0  0.10957385875E+02  0.22364915249E+02  0.15807942134E+02  0.95501783549E+02  0.90831965118E+02 0.  0.
         11    1    3    3    0    0  0.40354404447E+02  0.38333826583E+02  0.24688126105E+02  0.60888946367E+02  0.51100000000E-03 0.  1.
         22    1    1    0    0    0 -0.10957385875E+02 -0.22364915249E+02 -0.15807942134E+02  0.29498216451E+02  0.00000000000E+00 0.  1.
</event>
<event>
 5    1  0.6622912E-004  0.9118800E+02  0.7818608E-02  0.1130116E+00
         25   -1    0    0    0    0  0.00000000000E+00  0.00000000000E+00  0.99999998245E-14  0.12500000000E+03  0.12500000000E+03 0.  0.
        -11    1    3    3    0    0  0.36127358539E+02 -0.13428708773E+01  0.11954638992E+02  0.38077588301E+02  0.51100000000E-03 0. -1.
         23    2    1    0    0    0 -0.99770585346E+01 -0.64361055253E+01 -0.24960893105E+02  0.97359245018E+02  0.93353153426E+02 0.  0.
         11    1    3    3    0    0 -0.46104417073E+02 -0.50932346480E+01 -0.36915532097E+02  0.59281656717E+02  0.51100000000E-03 0.  1.
         22    1    1    0    0    0  0.99770585346E+01  0.64361055253E+01  0.24960893105E+02  0.27640754982E+02  0.00000000000E+00 0.  1.
</event>
<event>
 5    1  0.6622912E-004  0.9118800E+02  0.7818608E-02  0.1130116E+00
         25   -1    0    0    0    0  0.00000000000E+00  0.00000000000E+00  0.99999998245E-14  0.12500000000E+03  0.12500000000E+03 0.  0.
        -11    1    3    3    0    0 -0.22503086984E+02 -0.11653564827E+02  0.50641421156E+02  0.56628155841E+02  0.51100000000E-03 0.  1.
         23    2    1    0    0    0 -0.72472665319E+01 -0.22706725599E+02  0.15301498500E+02  0.96675909266E+02  0.92433637364E+02 0.  0.
         11    1    3    3    0    0  0.15255820453E+02 -0.11053160771E+02 -0.35339922656E+02  0.40047753424E+02  0.51100000000E-03 0. -1.
         22    1    1    0    0    0  0.72472665319E+01  0.22706725599E+02 -0.15301498500E+02  0.28324090734E+02  0.00000000000E+00 0.  1.
</event>
<event>
 5    1  0.6622912E-004  0.9118800E+02  0.7818608E-02  0.1130116E+00
         25   -1    0    0    0    0  0.00000000000E+00  0.00000000000E+00  0.99999998245E-14  0.12500000000E+03  0.12500000000E+03 0.  0.
        -11    1    3    3    0    0 -0.51015786786E+02 -0.17830686828E+02 -0.22839426627E+02  0.58670122746E+02  0.51100000000E-03 0.  1.
         23    2    1    0    0    0 -0.29253709089E+02  0.36553771299E+00  0.10039321969E+01  0.95726787106E+02  0.91141081716E+02 0.  0.
         11    1    3    3    0    0  0.21762077697E+02  0.18196224541E+02  0.23843358824E+02  0.37056664360E+02  0.51100000000E-03 0. -1.
         22    1    1    0    0    0  0.29253709089E+02 -0.36553771299E+00 -0.10039321969E+01  0.29273212894E+02  0.00000000000E+00 0.  1.
</event>
<event>
 5    1  0.6622912E-004  0.9118800E+02  0.7818608E-02  0.1130116E+00
         25   -1    0    0    0    0  0.00000000000E+00  0.00000000000E+00  0.99999998245E-14  0.12500000000E+03  0.12500000000E+03 0.  0.
        -11    1    3    3    0    0  0.92397981844E+01  0.29114491433E+02 -0.18865144287E+02  0.35901548032E+02  0.51100000000E-03 0. -1.
         23    2    1    0    0    0 -0.13769776928E+01 -0.28478594445E+02 -0.58286913583E+01  0.95898452754E+02  0.91376217850E+02 0.  0.
         11    1    3    3    0    0 -0.10616775877E+02 -0.57593085878E+02  0.13036452929E+02  0.59996904722E+02  0.51100000000E-03 0.  1.
         22    1    1    0    0    0  0.13769776928E+01  0.28478594445E+02  0.58286913583E+01  0.29101547246E+02  0.00000000000E+00 0.  1.
</event>
<event>
 5    1  0.6622912E-004  0.9118800E+02  0.7818608E-02  0.1130116E+00
         25   -1    0    0    0    0  0.00000000000E+00  0.00000000000E+00  0.99999998245E-14  0.12500000000E+03  0.12500000000E+03 0.  0.
        -11    1    3    3    0    0 -0.70239417913E+01 -0.29836392278E+02 -0.35047815269E+02  0.46560663847E+02  0.51100000000E-03 0.  1.
         23    2    1    0    0    0  0.14361766591E+02 -0.23137449548E+02  0.92787621308E+01  0.96230270459E+02  0.91829012925E+02 0.  0.
         11    1    3    3    0    0  0.21385708382E+02  0.66989427305E+01  0.44326577400E+02  0.49669606612E+02  0.51100000000E-03 0. -1.
         22    1    1    0    0    0 -0.14361766591E+02  0.23137449548E+02 -0.92787621308E+01  0.28769729541E+02  0.00000000000E+00 0. -1.
</event>
<event>
 5    1  0.6622912E-004  0.9118800E+02  0.7818608E-02  0.1130116E+00
         25   -1    0    0    0    0  0.00000000000E+00  0.00000000000E+00  0.99999998245E-14  0.12500000000E+03  0.12500000000E+03 0.  0.
        -11    1    3    3    0    0 -0.59789190875E+02 -0.11415420136E+02 -0.10960417808E+01  0.60879064302E+02  0.51100000000E-03 0.  1.
         23    2    1    0    0    0 -0.25777228592E+02 -0.74017501571E+01 -0.10184539340E+02  0.96312437175E+02  0.91940792327E+02 0.  0.
         11    1    3    3    0    0  0.34011962283E+02  0.40136699790E+01 -0.90884975588E+01  0.35433372873E+02  0.51100000000E-03 0. -1.
         22    1    1    0    0    0  0.25777228592E+02  0.74017501571E+01  0.10184539340E+02  0.28687562825E+02  0.00000000000E+00 0.  1.
</event>
<event>
 5    1  0.6622912E-004  0.9118800E+02  0.7818608E-02  0.1130116E+00
         25   -1    0    0    0    0  0.00000000000E+00  0.00000000000E+00  0.99999998245E-14  0.12500000000E+03  0.12500000000E+03 0.  0.
        -11    1    3    3    0    0  0.30985437253E+02 -0.30539459535E+02 -0.11172652789E+01  0.43520158461E+02  0.51100000000E-03 0. -1.
         23    2    1    0    0    0 -0.11302995718E+02 -0.21522010490E+02 -0.22605273508E+02  0.91804321997E+02  0.85592525954E+02 0.  0.
         11    1    3    3    0    0 -0.42288432972E+02  0.90174490449E+01 -0.21488008229E+02  0.48284163536E+02  0.51100000000E-03 0.  1.
         22    1    1    0    0    0  0.11302995718E+02  0.21522010490E+02  0.22605273508E+02  0.33195678003E+02  0.00000000000E+00 0. -1.
</event>
<event>
 5    1  0.6622912E-004  0.9118800E+02  0.7818608E-02  0.1130116E+00
         25   -1    0    0    0    0  0.00000000000E+00  0.00000000000E+00  0.99999998245E-14  0.12500000000E+03  0.12500000000E+03 0.  0.
        -11    1    3    3    0    0  0.21637825004E+02 -0.13173605093E+02 -0.49964736893E+02  0.56019766824E+02  0.51100000000E-03 0.  1.
         23    2    1    0    0    0  0.43211363614E+01 -0.24648496985E+02 -0.17872838834E+02  0.94248431080E+02  0.89090447130E+02 0.  0.
         11    1    3    3    0    0 -0.17316688643E+02 -0.11474891892E+02  0.32091898058E+02  0.38228664255E+02  0.51100000000E-03 0. -1.
         22    1    1    0    0    0 -0.43211363614E+01  0.24648496985E+02  0.17872838834E+02  0.30751568920E+02  0.00000000000E+00 0.  1.
</event>
<event>
 5    1  0.6622912E-004  0.9118800E+02  0.7818608E-02  0.1130116E+00
         25   -1    0    0    0    0  0.00000000000E+00  0.00000000000E+00  0.99999998245E-14  0.12500000000E+03  0.12500000000E+03 0.  0.
        -11    1    3    3    0    0 -0.16008053081E+02 -0.29994712869E+01 -0.56412116052E+02  0.58716108771E+02  0.51100000000E-03 0.  1.
         23    2    1    0    0    0 -0.17459633111E+02  0.89913238293E+01 -0.20473141912E+02  0.96630434753E+02  0.92372120730E+02 0.  0.
         11    1    3    3    0    0 -0.14515800295E+01  0.11990795116E+02  0.35938974141E+02  0.37914325982E+02  0.51100000000E-03 0. -1.
         22    1    1    0    0    0  0.17459633111E+02 -0.89913238293E+01  0.20473141912E+02  0.28369565247E+02  0.00000000000E+00 0.  1.
</event>
<event>
 5    1  0.6622912E-004  0.9118800E+02  0.7818608E-02  0.1130116E+00
         25   -1    0    0    0    0  0.00000000000E+00  0.00000000000E+00  0.99999998245E-14  0.12500000000E+03  0.12500000000E+03 0.  0.
        -11    1    3    3    0    0  0.23782598321E+02  0.96200547810E+01 -0.28387436274E+02  0.38262304888E+02  0.51100000000E-03 0.  1.
         23    2    1    0    0    0 -0.18090095599E+02  0.17820193506E+02  0.11910749518E+02  0.96952240563E+02  0.92806573802E+02 0.  0.
         11    1    3    3    0    0 -0.41872693920E+02  0.82001387246E+01  0.40298185792E+02  0.58689935675E+02  0.51100000000E-03 0. -1.
         22    1    1    0    0    0  0.18090095599E+02 -0.17820193506E+02 -0.11910749518E+02  0.28047759437E+02  0.00000000000E+00 0. -1.
</event>
<event>
 5    1  0.6622912E-004  0.9118800E+02  0.7818608E-02  0.1130116E+00
         25   -1    0    0    0    0  0.00000000000E+00  0.00000000000E+00  0.99999998245E-14  0.12500000000E+03  0.12500000000E+03 0.  0.
        -11    1    3    3    0    0 -0.48936322350E+02 -0.30917660455E+02 -0.56625469082E+01  0.58161239765E+02  0.51100000000E-03 0. -1.
         23    2    1    0    0    0 -0.18010754210E+02 -0.28472487171E+02  0.49481633605E+01  0.90947773736E+02  0.84332339195E+02 0.  0.
         11    1    3    3    0    0  0.30925568140E+02  0.24451732848E+01  0.10610710269E+02  0.32786533972E+02  0.51100000000E-03 0.  1.
         22    1    1    0    0    0  0.18010754210E+02  0.28472487171E+02 -0.49481633605E+01  0.34052226264E+02  0.00000000000E+00 0. -1.
</event>
<event>
 5    1  0.6622912E-004  0.9118800E+02  0.7818608E-02  0.1130116E+00
         25   -1    0    0    0    0  0.00000000000E+00  0.00000000000E+00  0.99999998245E-14  0.12500000000E+03  0.12500000000E+03 0.  0.
        -11    1    3    3    0    0  0.12165890718E+02 -0.54881004237E+01  0.34422491936E+02  0.36919318717E+02  0.51100000000E-03 0.  1.
         23    2    1    0    0    0 -0.18005220839E+02 -0.14545163758E+02 -0.16343854415E+02  0.96665015557E+02  0.92418904394E+02 0.  0.
         11    1    3    3    0    0 -0.30171111557E+02 -0.90570633341E+01 -0.50766346351E+02  0.59745696840E+02  0.51100000000E-03 0. -1.
         22    1    1    0    0    0  0.18005220839E+02  0.14545163758E+02  0.16343854415E+02  0.28334984443E+02  0.00000000000E+00 0. -1.
</event>
<event>
 5    1  0.6622912E-004  0.9118800E+02  0.7818608E-02  0.1130116E+00
         25   -1    0    0    0    0  0.00000000000E+00  0.00000000000E+00  0.99999998245E-14  0.12500000000E+03  0.12500000000E+03 0.  0.
        -11    1    3    3    0    0 -0.18887560551E+02  0.44853934926E+02  0.15322274101E+02  0.51023401551E+02  0.51100000000E-03 0.  1.
         23    2    1    0    0    0 -0.28899051512E+02  0.12130991641E+02 -0.82667804681E+01  0.92586178939E+02  0.86726839760E+02 0.  0.
         11    1    3    3    0    0 -0.10011490961E+02 -0.32722943285E+02 -0.23589054569E+02  0.41562777388E+02  0.51100000000E-03 0. -1.
         22    1    1    0    0    0  0.28899051512E+02 -0.12130991641E+02  0.82667804681E+01  0.32413821061E+02  0.00000000000E+00 0.  1.
</event>
<event>
 5    1  0.6622912E-004  0.9118800E+02  0.7818608E-02  0.1130116E+00
         25   -1    0    0    0    0  0.00000000000E+00  0.00000000000E+00  0.99999998245E-14  0.12500000000E+03  0.12500000000E+03 0.  0.
        -11    1    3    3    0    0 -0.18373693784E+01  0.23510221500E+02 -0.29099142223E+02  0.37454859760E+02  0.51100000000E-03 0.  1.
         23    2    1    0    0    0 -0.16134626105E+02  0.18988383643E+02  0.22646117974E+02  0.91329069923E+02  0.84895626983E+02 0.  0.
         11    1    3    3    0    0 -0.14297256726E+02 -0.45218378572E+01  0.51745260198E+02  0.53874210163E+02  0.51100000000E-03 0. -1.
         22    1    1    0    0    0  0.16134626105E+02 -0.18988383643E+02 -0.22646117974E+02  0.33670930077E+02  0.00000000000E+00 0. -1.
</event>
<event>
 5    1  0.6622912E-004  0.9118800E+02  0.7818608E-02  0.1130116E+00
         25   -1    0    0    0    0  0.00000000000E+00  0.00000000000E+00  0.99999998245E-14  0.12500000000E+03  0.12500000000E+03 0.  0.
        -11    1    3    3    0    0 -0.56979225285E+01 -0.50522114966E+02  0.45630290044E+01  0.51046759503E+02  0.51100000000E-03 0. -1.
         23    2    1    0    0    0  0.22791503512E+02 -0.12843141581E+02  0.53822632288E+01  0.98291056265E+02  0.94592621627E+02 0.  0.
         11    1    3    3    0    0  0.28489426040E+02  0.37678973386E+02  0.81923422439E+00  0.47244296761E+02  0.51100000000E-03 0.  1.
         22    1    1    0    0    0 -0.22791503512E+02  0.12843141581E+02 -0.53822632288E+01  0.26708943735E+02  0.00000000000E+00 0. -1.
</event>
<event>
 5    1  0.6622912E-004  0.9118800E+02  0.7818608E-02  0.1130116E+00
         25   -1    0    0    0    0  0.00000000000E+00  0.00000000000E+00  0.99999998245E-14  0.12500000000E+03  0.12500000000E+03 0.  0.
        -11    1    3    3    0    0  0.44912417449E+02  0.29215221076E+02  0.27997961038E+02  0.60452793205E+02  0.51100000000E-03 0.  1.
         23    2    1    0    0    0  0.14446952877E+02  0.22704567228E+02  0.14811951880E+02  0.94281833731E+02  0.89137301017E+02 0.  0.
         11    1    3    3    0    0 -0.30465464572E+02 -0.65106538478E+01 -0.13186009159E+02  0.33829040526E+02  0.51100000000E-03 0. -1.
         22    1    1    0    0    0 -0.14446952877E+02 -0.22704567228E+02 -0.14811951880E+02  0.30718166269E+02  0.00000000000E+00 0.  1.
</event>
<event>
 5    1  0.6622912E-004  0.9118800E+02  0.7818608E-02  0.1130116E+00
         25   -1    0    0    0    0  0.00000000000E+00  0.00000000000E+00  0.99999998245E-14  0.12500000000E+03  0.12500000000E+03 0.  0.
        -11    1    3    3    0    0  0.50396346121E+01 -0.37747598663E+02 -0.26011749019E+02  0.46118219926E+02  0.51100000000E-03 0.  1.
         23    2    1    0    0    0 -0.25904100001E+02 -0.11470964939E+02 -0.25752432295E+02  0.86714321181E+02  0.77804757536E+02 0.  0.
         11    1    3    3    0    0 -0.30943734613E+02  0.26276633724E+02  0.25931672399E+00  0.40596101255E+02  0.51100000000E-03 0. -1.
         22    1    1    0    0    0  0.25904100001E+02  0.11470964939E+02  0.25752432295E+02  0.38285678819E+02  0.00000000000E+00 0. -1.
</event>
<event>
 5    1  0.6622912E-004  0.9118800E+02  0.7818608E-02  0.1130116E+00
         25   -1    0    0    0    0  0.00000000000E+00  0.00000000000E+00  0.99999998245E-14  0.12500000000E+03  0.12500000000E+03 0.  0.
        -11    1    3    3    0    0 -0.50649345188E+02  0.28086406263E+02 -0.17099276962E+01  0.57940713128E+02  0.51100000000E-03 0. -1.
         23    2    1    0    0    0 -0.24165958523E+02  0.66025703402E+01  0.14878621276E+02  0.95863067122E+02  0.91327798510E+02 0.  0.
         11    1    3    3    0    0  0.26483386665E+02 -0.21483835923E+02  0.16588548973E+02  0.37922353995E+02  0.51100000000E-03 0.  1.
         22    1    1    0    0    0  0.24165958523E+02 -0.66025703402E+01 -0.14878621276E+02  0.29136932878E+02  0.00000000000E+00 0. -1.
</event>
<event>
 5    1  0.6622912E-004  0.9118800E+02  0.7818608E-02  0.1130116E+00
         25   -1    0    0    0    0  0.00000000000E+00  0.00000000000E+00  0.99999998245E-14  0.12500000000E+03  0.12500000000E+03 0.  0.
        -11    1    3    3    0    0 -0.15805116150E+02  0.21300164517E+02  0.25970280541E+02  0.37120805172E+02  0.51100000000E-03 0. -1.
         23    2    1    0    0    0 -0.15022597293E+02 -0.23039978739E+02 -0.11509100197E+02  0.95184258569E+02  0.90393941403E+02 0.  0.
         11    1    3    3    0    0  0.78251885658E+00 -0.44340143255E+02 -0.37479380739E+02  0.58063453398E+02  0.51100000000E-03 0.  1.
         22    1    1    0    0    0  0.15022597293E+02  0.23039978739E+02  0.11509100197E+02  0.29815741431E+02  0.00000000000E+00 0.  1.
</event>
<event>
 5    1  0.6622912E-004  0.9118800E+02  0.7818608E-02  0.1130116E+00
         25   -1    0    0    0    0  0.00000000000E+00  0.00000000000E+00  0.99999998245E-14  0.12500000000E+03  0.12500000000E+03 0.  0.
        -11    1    3    3    0    0  0.35893342459E+02  0.18770687240E+02 -0.18652959403E+02  0.44593762200E+02  0.51100000000E-03 0. -1.
         23    2    1    0    0    0  0.13632492619E+02 -0.25340887571E+02 -0.78921933139E+01  0.95162236123E+02  0.90363482839E+02 0.  0.
         11    1    3    3    0    0 -0.22260849840E+02 -0.44111574810E+02  0.10760766090E+02  0.50568473923E+02  0.51100000000E-03 0.  1.
         22    1    1    0    0    0 -0.13632492619E+02  0.25340887571E+02  0.78921933139E+01  0.29837763877E+02  0.00000000000E+00 0. -1.
</event>
<event>
 5    1  0.6622912E-004  0.9118800E+02  0.7818608E-02  0.1130116E+00
         25   -1    0    0    0    0  0.00000000000E+00  0.00000000000E+00  0.99999998245E-14  0.12500000000E+03  0.12500000000E+03 0.  0.
        -11    1    3    3    0    0 -0.19356883655E+02 -0.17242787488E+02 -0.20975598892E+02  0.33346340344E+02  0.51100000000E-03 0.  1.
         23    2    1    0    0    0  0.42924411276E+01  0.15776969790E+02  0.25274113662E+02  0.94898195271E+02  0.89997493397E+02 0.  0.
         11    1    3    3    0    0  0.23649324783E+02  0.33019757277E+02  0.46249712554E+02  0.61551854927E+02  0.51100000000E-03 0. -1.
         22    1    1    0    0    0 -0.42924411276E+01 -0.15776969790E+02 -0.25274113662E+02  0.30101804729E+02  0.00000000000E+00 0. -1.
</event>
<event>
 5    1  0.6622912E-004  0.9118800E+02  0.7818608E-02  0.1130116E+00
         25   -1    0    0    0    0  0.00000000000E+00  0.00000000000E+00  0.99999998245E-14  0.12500000000E+03  0.12500000000E+03 0.  0.
        -11    1    3    3    0    0 -0.84723443233E+01  0.51354236070E+02 -0.28833467028E+02  0.59501319328E+02  0.51100000000E-03 0.  1.
         23    2    1    0    0    0  0.93486380530E+01  0.26212054455E+02 -0.16127362844E+02  0.92835412881E+02  0.87085321497E+02 0.  0.
         11    1    3    3    0    0  0.17820982376E+02 -0.25142181615E+02  0.12706104183E+02  0.33334093553E+02  0.51100000000E-03 0. -1.
         22    1    1    0    0    0 -0.93486380530E+01 -0.26212054455E+02  0.16127362844E+02  0.32164587119E+02  0.00000000000E+00 0.  1.
</event>
<event>
 5    1  0.6622912E-004  0.9118800E+02  0.7818608E-02  0.1130116E+00
         25   -1    0    0    0    0  0.00000000000E+00  0.00000000000E+00  0.99999998245E-14  0.12500000000E+03  0.12500000000E+03 0.  0.
        -11    1    3    3    0    0 -0.72329269033E+01  0.20973996846E+02  0.29415315679E+02  0.36844057486E+02  0.51100000000E-03 0. -1.
         23    2    1    0    0    0 -0.23277811562E+02 -0.14398668546E+02 -0.13291642711E+02  0.94572283475E+02  0.89543681344E+02 0.  0.
         11    1    3    3    0    0 -0.16044884659E+02 -0.35372665391E+02 -0.42706958390E+02  0.57728225988E+02  0.51100000000E-03 0.  1.
         22    1    1    0    0    0  0.23277811562E+02  0.14398668546E+02  0.13291642711E+02  0.30427716525E+02  0.00000000000E+00 0.  1.
</event>
<event>
 5    1  0.6622912E-004  0.9118800E+02  0.7818608E-02  0.1130116E+00
         25   -1    0    0    0    0  0.00000000000E+00  0.00000000000E+00  0.99999998245E-14  0.12500000000E+03  0.12500000000E+03 0.  0.
        -11    1    3    3    0    0  0.59758305777E+02  0.63752451483E+01  0.96110976173E+01  0.60861088207E+02  0.51100000000E-03 0.  1.
         23    2    1    0    0    0  0.28202934557E+02  0.10427210485E+02 -0.23262020715E+01  0.94841361898E+02  0.89918521309E+02 0.  0.
         11    1    3    3    0    0 -0.31555371221E+02  0.40519653370E+01 -0.11937299689E+02  0.33980273691E+02  0.51100000000E-03 0. -1.
         22    1    1    0    0    0 -0.28202934557E+02 -0.10427210485E+02  0.23262020715E+01  0.30158638102E+02  0.00000000000E+00 0.  1.
</event>
<event>
 5    1  0.6622912E-004  0.9118800E+02  0.7818608E-02  0.1130116E+00
         25   -1    0    0    0    0  0.00000000000E+00  0.00000000000E+00  0.99999998245E-14  0.12500000000E+03  0.12500000000E+03 0.  0.
        -11    1    3    3    0    0  0.27184980815E+02 -0.26348739312E+02 -0.40505237125E+02  0.55443245577E+02  0.51100000000E-03 0. -1.
         23    2    1    0    0    0 -0.72867471852E+01 -0.18344446215E+02 -0.22226987657E+02  0.95273675441E+02  0.90517505822E+02 0.  0.
         11    1    3    3    0    0 -0.34471728000E+02  0.80042930974E+01  0.18278249467E+02  0.39830429864E+02  0.51100000000E-03 0.  1.
         22    1    1    0    0    0  0.72867471852E+01  0.18344446215E+02  0.22226987657E+02  0.29726324559E+02  0.00000000000E+00 0. -1.
</event>
<event>
 5    1  0.6622912E-004  0.9118800E+02  0.7818608E-02  0.1130116E+00
         25   -1    0    0    0    0  0.00000000000E+00  0.00000000000E+00  0.99999998245E-14  0.12500000000E+03  0.12500000000E+03 0.  0.
        -11    1    3    3    0    0  0.95852362952E+01  0.52680731123E+02  0.28282864446E+02  0.60556226831E+02  0.51100000000E-03 0. -1.
         23    2    1    0    0    0  0.13321838398E+01  0.28363332963E+02  0.32471881582E+01  0.96420328877E+02  0.92087361887E+02 0.  0.
         11    1    3    3    0    0 -0.82530524554E+01 -0.24317398160E+02 -0.25035676287E+02  0.35864102046E+02  0.51100000000E-03 0.  1.
         22    1    1    0    0    0 -0.13321838398E+01 -0.28363332963E+02 -0.32471881582E+01  0.28579671123E+02  0.00000000000E+00 0. -1.
</event>
<event>
 5    1  0.6622912E-004  0.9118800E+02  0.7818608E-02  0.1130116E+00
         25   -1    0    0    0    0  0.00000000000E+00  0.00000000000E+00  0.99999998245E-14  0.12500000000E+03  0.12500000000E+03 0.  0.
        -11    1    3    3    0    0 -0.29783266842E+02  0.33258863452E+02  0.35072378994E+02  0.56773820996E+02  0.51100000000E-03 0.  1.
         23    2    1    0    0    0 -0.13655334085E+02  0.26454590785E+02  0.84566988538E+00  0.95216973288E+02  0.90439169180E+02 0.  0.
         11    1    3    3    0    0  0.16127932757E+02 -0.68042726672E+01 -0.34226709109E+02  0.38443152293E+02  0.51100000000E-03 0. -1.
         22    1    1    0    0    0  0.13655334085E+02 -0.26454590785E+02 -0.84566988538E+00  0.29783026712E+02  0.00000000000E+00 0.  1.
</event>
<event>
 5    1  0.6622912E-004  0.9118800E+02  0.7818608E-02  0.1130116E+00
         25   -1    0    0    0    0  0.00000000000E+00  0.00000000000E+00  0.99999998245E-14  0.12500000000E+03  0.12500000000E+03 0.  0.
        -11    1    3    3    0    0 -0.52984082226E+02  0.80925641696E+01  0.18396261626E+02  0.56667671615E+02  0.51100000000E-03 0.  1.
         23    2    1    0    0    0 -0.20148607567E+02 -0.12729756913E+02  0.17274578710E+02  0.95564916043E+02  0.90918804494E+02 0.  0.
         11    1    3    3    0    0  0.32835474658E+02 -0.20822321082E+02 -0.11216829166E+01  0.38897244428E+02  0.51100000000E-03 0. -1.
         22    1    1    0    0    0  0.20148607567E+02  0.12729756913E+02 -0.17274578710E+02  0.29435083957E+02  0.00000000000E+00 0.  1.
</event>
<event>
 5    1  0.6622912E-004  0.9118800E+02  0.7818608E-02  0.1130116E+00
         25   -1    0    0    0    0  0.00000000000E+00  0.00000000000E+00  0.99999998245E-14  0.12500000000E+03  0.12500000000E+03 0.  0.
        -11    1    3    3    0    0 -0.45445689382E+02  0.22865197377E+02  0.17423545383E+02  0.53774602448E+02  0.51100000000E-03 0.  1.
         23    2    1    0    0    0 -0.43659480059E+01  0.14514428965E+02  0.24404466933E+02  0.96271822953E+02  0.91885557832E+02 0.  0.
         11    1    3    3    0    0  0.41079741377E+02 -0.83507684114E+01  0.69809215502E+01  0.42497220504E+02  0.51100000000E-03 0. -1.
         22    1    1    0    0    0  0.43659480059E+01 -0.14514428965E+02 -0.24404466933E+02  0.28728177047E+02  0.00000000000E+00 0.  1.
</event>
<event>
 5    1  0.6622912E-004  0.9118800E+02  0.7818608E-02  0.1130116E+00
         25   -1    0    0    0    0  0.00000000000E+00  0.00000000000E+00  0.99999998245E-14  0.12500000000E+03  0.12500000000E+03 0.  0.
        -11    1    3    3    0    0 -0.20358686823E+02  0.88015983125E+01  0.28519896981E+02  0.36129334149E+02  0.51100000000E-03 0.  1.
         23    2    1    0    0    0  0.23860499052E+02 -0.16124752319E+02 -0.32603411293E+01  0.96017921458E+02  0.91539501661E+02 0.  0.
         11    1    3    3    0    0  0.44219185874E+02 -0.24926350632E+02 -0.31780238110E+02  0.59888587309E+02  0.51100000000E-03 0. -1.
         22    1    1    0    0    0 -0.23860499052E+02  0.16124752319E+02  0.32603411293E+01  0.28982078542E+02  0.00000000000E+00 0. -1.
</event>
<event>
 5    1  0.6622912E-004  0.9118800E+02  0.7818608E-02  0.1130116E+00
         25   -1    0    0    0    0  0.00000000000E+00  0.00000000000E+00  0.99999998245E-14  0.12500000000E+03  0.12500000000E+03 0.  0.
        -11    1    3    3    0    0  0.29792997912E+02 -0.21924929964E+02 -0.43006794492E+00  0.36993380992E+02  0.51100000000E-03 0. -1.
         23    2    1    0    0    0 -0.26327647173E+02 -0.37348821135E+01  0.93889439511E+01  0.96799882649E+02  0.92601137478E+02 0.  0.
         11    1    3    3    0    0 -0.56120645085E+02  0.18190047851E+02  0.98190118960E+01  0.59806501657E+02  0.51100000000E-03 0.  1.
         22    1    1    0    0    0  0.26327647173E+02  0.37348821135E+01 -0.93889439511E+01  0.28200117351E+02  0.00000000000E+00 0.  1.
</event>
<event>
 5    1  0.6622912E-004  0.9118800E+02  0.7818608E-02  0.1130116E+00
         25   -1    0    0    0    0  0.00000000000E+00  0.00000000000E+00  0.99999998245E-14  0.12500000000E+03  0.12500000000E+03 0.  0.
        -11    1    3    3    0    0  0.60453184390E+01 -0.30564677998E+02 -0.19228640841E+02  0.36612648702E+02  0.51100000000E-03 0. -1.
         23    2    1    0    0    0 -0.16619838012E+02  0.54098036704E+01  0.22715495730E+02  0.96338549626E+02  0.91976287197E+02 0.  0.
         11    1    3    3    0    0 -0.22665156451E+02  0.35974481668E+02  0.41944136571E+02  0.59725900924E+02  0.51100000000E-03 0.  1.
         22    1    1    0    0    0  0.16619838012E+02 -0.54098036704E+01 -0.22715495730E+02  0.28661450374E+02  0.00000000000E+00 0.  1.
</event>
<event>
 5    1  0.6622912E-004  0.9118800E+02  0.7818608E-02  0.1130116E+00
         25   -1    0    0    0    0  0.00000000000E+00  0.00000000000E+00  0.99999998245E-14  0.12500000000E+03  0.12500000000E+03 0.  0.
        -11    1    3    3    0    0  0.44291893658E+02 -0.24524981496E+02 -0.29672277381E+01  0.50715392160E+02  0.51100000000E-03 0.  1.
         23    2    1    0    0    0  0.22527747509E+02  0.15471991813E+02  0.57378554050E+01  0.97075012567E+02  0.92971786805E+02 0.  0.
         11    1    3    3    0    0 -0.21764146149E+02  0.39996973309E+02  0.87050831431E+01  0.46359620407E+02  0.51100000000E-03 0. -1.
         22    1    1    0    0    0 -0.22527747509E+02 -0.15471991813E+02 -0.57378554050E+01  0.27924987433E+02  0.00000000000E+00 0. -1.
</event>
<event>
 5    1  0.6622912E-004  0.9118800E+02  0.7818608E-02  0.1130116E+00
         25   -1    0    0    0    0  0.00000000000E+00  0.00000000000E+00  0.99999998245E-14  0.12500000000E+03  0.12500000000E+03 0.  0.
        -11    1    3    3    0    0  0.32446023782E+02  0.19951781816E+02 -0.42902675010E+02  0.57371226065E+02  0.51100000000E-03 0.  1.
         23    2    1    0    0    0  0.89652232416E+00  0.20699647450E+02 -0.17186224876E+02  0.98080759998E+02  0.94314314923E+02 0.  0.
         11    1    3    3    0    0 -0.31549501458E+02  0.74786563382E+00  0.25716450135E+02  0.40709533933E+02  0.51100000000E-03 0. -1.
         22    1    1    0    0    0 -0.89652232416E+00 -0.20699647450E+02  0.17186224876E+02  0.26919240002E+02  0.00000000000E+00 0.  1.
</event>
<event>
 5    1  0.6622912E-004  0.9118800E+02  0.7818608E-02  0.1130116E+00
         25   -1    0    0    0    0  0.00000000000E+00  0.00000000000E+00  0.99999998245E-14  0.12500000000E+03  0.12500000000E+03 0.  0.
        -11    1    3    3    0    0 -0.21998099081E+02  0.36337058076E+01 -0.48797731674E+02  0.53650151890E+02  0.51100000000E-03 0. -1.
         23    2    1    0    0    0 -0.27432426895E+02 -0.61350900663E+01 -0.82592543930E+01  0.95701661164E+02  0.91106614968E+02 0.  0.
         11    1    3    3    0    0 -0.54343278135E+01 -0.97687958738E+01  0.40538477281E+02  0.42051509273E+02  0.51100000000E-03 0.  1.
         22    1    1    0    0    0  0.27432426895E+02  0.61350900663E+01  0.82592543930E+01  0.29298338836E+02  0.00000000000E+00 0. -1.
</event>
<event>
 5    1  0.6622912E-004  0.9118800E+02  0.7818608E-02  0.1130116E+00
         25   -1    0    0    0    0  0.00000000000E+00  0.00000000000E+00  0.99999998245E-14  0.12500000000E+03  0.12500000000E+03 0.  0.
        -11    1    3    3    0    0  0.39684420378E+02  0.20448026419E+02 -0.34554972774E+02  0.56453708017E+02  0.51100000000E-03 0.  1.
         23    2    1    0    0    0  0.16867051886E+02  0.22597176358E+02 -0.13891567689E+01  0.96767756461E+02  0.92557760967E+02 0.  0.
         11    1    3    3    0    0 -0.22817368492E+02  0.21491499389E+01  0.33165816006E+02  0.40314048444E+02  0.51100000000E-03 0. -1.
         22    1    1    0    0    0 -0.16867051886E+02 -0.22597176358E+02  0.13891567689E+01  0.28232243539E+02  0.00000000000E+00 0.  1.
</event>
<event>
 5    1  0.6622912E-004  0.9118800E+02  0.7818608E-02  0.1130116E+00
         25   -1    0    0    0    0  0.00000000000E+00  0.00000000000E+00  0.99999998245E-14  0.12500000000E+03  0.12500000000E+03 0.  0.
        -11    1    3    3    0    0  0.13559468561E+01 -0.55913320970E+02 -0.83260598266E+01  0.56546099125E+02  0.51100000000E-03 0. -1.
         23    2    1    0    0    0 -0.93581479854E+00 -0.23735098763E+02  0.15487747415E+02  0.96643325607E+02  0.92389563273E+02 0.  0.
         11    1    3    3    0    0 -0.22917616546E+01  0.32178222207E+02  0.23813807242E+02  0.40097226482E+02  0.51100000000E-03 0.  1.
         22    1    1    0    0    0  0.93581479854E+00  0.23735098763E+02 -0.15487747415E+02  0.28356674393E+02  0.00000000000E+00 0.  1.
</event>
<event>
 5    1  0.6622912E-004  0.9118800E+02  0.7818608E-02  0.1130116E+00
         25   -1    0    0    0    0  0.00000000000E+00  0.00000000000E+00  0.99999998245E-14  0.12500000000E+03  0.12500000000E+03 0.  0.
        -11    1    3    3    0    0  0.56057402138E+02  0.81862991540E+01  0.16929509921E+01  0.56677278619E+02  0.51100000000E-03 0. -1.
         23    2    1    0    0    0  0.20500196221E+02  0.30850744367E+01  0.19294744479E+02  0.96679285075E+02  0.92438202431E+02 0.  0.
         11    1    3    3    0    0 -0.35557205918E+02 -0.51012247173E+01  0.17601793487E+02  0.40002006456E+02  0.51100000000E-03 0.  1.
         22    1    1    0    0    0 -0.20500196221E+02 -0.30850744367E+01 -0.19294744479E+02  0.28320714925E+02  0.00000000000E+00 0. -1.
</event>
<event>
 5    1  0.6622912E-004  0.9118800E+02  0.7818608E-02  0.1130116E+00
         25   -1    0    0    0    0  0.00000000000E+00  0.00000000000E+00  0.99999998245E-14  0.12500000000E+03  0.12500000000E+03 0.  0.
        -11    1    3    3    0    0  0.38063155852E+02 -0.45210557261E+02 -0.12727860356E+02  0.60454915026E+02  0.51100000000E-03 0. -1.
         23    2    1    0    0    0  0.25483253067E+02 -0.13516772133E+02 -0.25459211514E+01  0.96041736408E+02  0.91572015932E+02 0.  0.
         11    1    3    3    0    0 -0.12579902786E+02  0.31693785128E+02  0.10181939205E+02  0.35586821382E+02  0.51100000000E-03 0.  1.
         22    1    1    0    0    0 -0.25483253067E+02  0.13516772133E+02  0.25459211514E+01  0.28958263592E+02  0.00000000000E+00 0. -1.
</event>
<event>
 5    1  0.6622912E-004  0.9118800E+02  0.7818608E-02  0.1130116E+00
         25   -1    0    0    0    0  0.00000000000E+00  0.00000000000E+00  0.99999998245E-14  0.12500000000E+03  0.12500000000E+03 0.  0.
        -11    1    3    3    0    0 -0.77281406473E+01 -0.44129185739E+02 -0.29715617600E+02  0.53759902543E+02  0.51100000000E-03 0. -1.
         23    2    1    0    0    0  0.19248895294E+02 -0.21034059956E+02 -0.79966041619E+01  0.95387547781E+02  0.90674621286E+02 0.  0.
         11    1    3    3    0    0  0.26977035941E+02  0.23095125783E+02  0.21719013438E+02  0.41627645238E+02  0.51100000000E-03 0.  1.
         22    1    1    0    0    0 -0.19248895294E+02  0.21034059956E+02  0.79966041619E+01  0.29612452219E+02  0.00000000000E+00 0.  1.
</event>
<event>
 5    1  0.6622912E-004  0.9118800E+02  0.7818608E-02  0.1130116E+00
         25   -1    0    0    0    0  0.00000000000E+00  0.00000000000E+00  0.99999998245E-14  0.12500000000E+03  0.12500000000E+03 0.  0.
        -11    1    3    3    0    0  0.29912271781E+02  0.36508076556E+02  0.35968232419E+02  0.59340520730E+02  0.51100000000E-03 0. -1.
         23    2    1    0    0    0  0.39483990840E+01  0.26284606333E+02  0.13372346621E+02  0.95246176051E+02  0.90479522616E+02 0.  0.
         11    1    3    3    0    0 -0.25963872697E+02 -0.10223470223E+02 -0.22595885797E+02  0.35905655322E+02  0.51100000000E-03 0.  1.
         22    1    1    0    0    0 -0.39483990840E+01 -0.26284606333E+02 -0.13372346621E+02  0.29753823949E+02  0.00000000000E+00 0. -1.
</event>
<event>
 5    1  0.6622912E-004  0.9118800E+02  0.7818608E-02  0.1130116E+00
         25   -1    0    0    0    0  0.00000000000E+00  0.00000000000E+00  0.99999998245E-14  0.12500000000E+03  0.12500000000E+03 0.  0.
        -11    1    3    3    0    0  0.55068381643E+02 -0.19742972597E+02  0.12607596930E+02  0.59843655674E+02  0.51100000000E-03 0. -1.
         23    2    1    0    0    0  0.20647932684E+02 -0.18034748578E+02 -0.24973324917E+01  0.97471361277E+02  0.93503156734E+02 0.  0.
         11    1    3    3    0    0 -0.34420448959E+02  0.17082240192E+01 -0.15104929422E+02  0.37627705603E+02  0.51100000000E-03 0.  1.
         22    1    1    0    0    0 -0.20647932684E+02  0.18034748578E+02  0.24973324917E+01  0.27528638723E+02  0.00000000000E+00 0. -1.
</event>
<event>
 5    1  0.6622912E-004  0.9118800E+02  0.7818608E-02  0.1130116E+00
         25   -1    0    0    0    0  0.00000000000E+00  0.00000000000E+00  0.99999998245E-14  0.12500000000E+03  0.12500000000E+03 0.  0.
        -11    1    3    3    0    0  0.11806460818E+02 -0.17607954713E+02 -0.29678867956E+02  0.36472836326E+02  0.51100000000E-03 0.  1.
         23    2    1    0    0    0  0.17543791986E+02  0.73341850919E+01  0.23070439412E+02  0.95103176040E+02  0.90281747934E+02 0.  0.
         11    1    3    3    0    0  0.57373311681E+01  0.24942139805E+02  0.52749307368E+02  0.58630339715E+02  0.51100000000E-03 0. -1.
         22    1    1    0    0    0 -0.17543791986E+02 -0.73341850919E+01 -0.23070439412E+02  0.29896823960E+02  0.00000000000E+00 0. -1.
</event>
<event>
 5    1  0.6622912E-004  0.9118800E+02  0.7818608E-02  0.1130116E+00
         25   -1    0    0    0    0  0.00000000000E+00  0.00000000000E+00  0.99999998245E-14  0.12500000000E+03  0.12500000000E+03 0.  0.
        -11    1    3    3    0    0 -0.23138237067E+02 -0.91420454593E+01 -0.51922106156E+02  0.57574821908E+02  0.51100000000E-03 0.  1.
         23    2    1    0    0    0 -0.13947324857E+02 -0.18555312252E+02 -0.13590014414E+02  0.98101747729E+02  0.94342127029E+02 0.  0.
         11    1    3    3    0    0  0.91909122096E+01 -0.94132667928E+01  0.38332091742E+02  0.40526925821E+02  0.51100000000E-03 0. -1.
         22    1    1    0    0    0  0.13947324857E+02  0.18555312252E+02  0.13590014414E+02  0.26898252271E+02  0.00000000000E+00 0.  1.
</event>
<event>
 5    1  0.6622912E-004  0.9118800E+02  0.7818608E-02  0.1130116E+00
         25   -1    0    0    0    0  0.00000000000E+00  0.00000000000E+00  0.99999998245E-14  0.12500000000E+03  0.12500000000E+03 0.  0.
        -11    1    3    3    0    0 -0.47224526801E+02 -0.33240944483E+02  0.36796836700E+00  0.57751638268E+02  0.51100000000E-03 0.  1.
         23    2    1    0    0    0 -0.90037456263E+01 -0.27073653297E+02  0.12100662457E-01  0.96468433541E+02  0.92152636345E+02 0.  0.
         11    1    3    3    0    0  0.38220781174E+02  0.61672911861E+01 -0.35586770454E+00  0.38716795273E+02  0.51100000000E-03 0. -1.
         22    1    1    0    0    0  0.90037456263E+01  0.27073653297E+02 -0.12100662457E-01  0.28531566459E+02  0.00000000000E+00 0.  1.
</event>
<event>
 5    1  0.6622912E-004  0.9118800E+02  0.7818608E-02  0.1130116E+00
         25   -1    0    0    0    0  0.00000000000E+00  0.00000000000E+00  0.99999998245E-14  0.12500000000E+03  0.12500000000E+03 0.  0.
        -11    1    3    3    0    0  0.32722932893E+02  0.74694834063E+00  0.84641724635E+01  0.33808142284E+02  0.51100000000E-03 0.  1.
         23    2    1    0    0    0 -0.27384811624E+02  0.11010950099E+02 -0.73128487612E+00  0.95475371174E+02  0.90795609990E+02 0.  0.
         11    1    3    3    0    0 -0.60107744517E+02  0.10264001758E+02 -0.91954573397E+01  0.61667228890E+02  0.51100000000E-03 0. -1.
         22    1    1    0    0    0  0.27384811624E+02 -0.11010950099E+02  0.73128487612E+00  0.29524628826E+02  0.00000000000E+00 0. -1.
</event>
<event>
 5    1  0.6622912E-004  0.9118800E+02  0.7818608E-02  0.1130116E+00
         25   -1    0    0    0    0  0.00000000000E+00  0.00000000000E+00  0.99999998245E-14  0.12500000000E+03  0.12500000000E+03 0.  0.
        -11    1    3    3    0    0 -0.54379184807E+02  0.14055234041E+02  0.27168302869E+02  0.62392002895E+02  0.51100000000E-03 0.  1.
         23    2    1    0    0    0 -0.25839328173E+02  0.82654979190E+01  0.10782538093E+02  0.95806636645E+02  0.91250529649E+02 0.  0.
         11    1    3    3    0    0  0.28539856634E+02 -0.57897361215E+01 -0.16385764776E+02  0.33414633750E+02  0.51100000000E-03 0. -1.
         22    1    1    0    0    0  0.25839328173E+02 -0.82654979190E+01 -0.10782538093E+02  0.29193363355E+02  0.00000000000E+00 0.  1.
</event>
<event>
 5    1  0.6622912E-004  0.9118800E+02  0.7818608E-02  0.1130116E+00
         25   -1    0    0    0    0  0.00000000000E+00  0.00000000000E+00  0.99999998245E-14  0.12500000000E+03  0.12500000000E+03 0.  0.
        -11    1    3    3    0    0  0.50677022902E+02  0.14937359117E+02 -0.15478687539E+01  0.52855285881E+02  0.51100000000E-03 0. -1.
         23    2    1    0    0    0  0.16753499622E+02  0.12531933994E+01  0.22712903632E+02  0.96748871975E+02  0.92532253802E+02 0.  0.
         11    1    3    3    0    0 -0.33923523280E+02 -0.13684165717E+02  0.24260772386E+02  0.43893586094E+02  0.51100000000E-03 0.  1.
         22    1    1    0    0    0 -0.16753499622E+02 -0.12531933994E+01 -0.22712903632E+02  0.28251128025E+02  0.00000000000E+00 0.  1.
</event>
<event>
 5    1  0.6622912E-004  0.9118800E+02  0.7818608E-02  0.1130116E+00
         25   -1    0    0    0    0  0.00000000000E+00  0.00000000000E+00  0.99999998245E-14  0.12500000000E+03  0.12500000000E+03 0.  0.
        -11    1    3    3    0    0  0.35270383057E+02 -0.47703814668E+02 -0.17324476830E+02  0.61804460620E+02  0.51100000000E-03 0.  1.
         23    2    1    0    0    0  0.11770966454E+02 -0.22817494838E+02 -0.21809389803E+01  0.99232768546E+02  0.95828973367E+02 0.  0.
         11    1    3    3    0    0 -0.23499416602E+02  0.24886319830E+02  0.15143537849E+02  0.37428307926E+02  0.51100000000E-03 0. -1.
         22    1    1    0    0    0 -0.11770966454E+02  0.22817494838E+02  0.21809389803E+01  0.25767231454E+02  0.00000000000E+00 0.  1.
</event>
<event>
 5    1  0.6622912E-004  0.9118800E+02  0.7818608E-02  0.1130116E+00
         25   -1    0    0    0    0  0.00000000000E+00  0.00000000000E+00  0.99999998245E-14  0.12500000000E+03  0.12500000000E+03 0.  0.
        -11    1    3    3    0    0 -0.14792850855E+02 -0.15013904907E+02 -0.30088847238E+02  0.36736691541E+02  0.51100000000E-03 0.  1.
         23    2    1    0    0    0 -0.24402005754E+02 -0.75164828811E+00  0.22336160575E+02  0.91910319899E+02  0.85747186396E+02 0.  0.
         11    1    3    3    0    0 -0.96091548993E+01  0.14262256619E+02  0.52425007813E+02  0.55173628358E+02  0.51100000000E-03 0. -1.
         22    1    1    0    0    0  0.24402005754E+02  0.75164828811E+00 -0.22336160575E+02  0.33089680101E+02  0.00000000000E+00 0. -1.
</event>
<event>
 5    1  0.6622912E-004  0.9118800E+02  0.7818608E-02  0.1130116E+00
         25   -1    0    0    0    0  0.00000000000E+00  0.00000000000E+00  0.99999998245E-14  0.12500000000E+03  0.12500000000E+03 0.  0.
        -11    1    3    3    0    0 -0.29659509834E+01 -0.20557055747E+02 -0.18770586821E+02  0.27995076997E+02  0.51100000000E-03 0. -1.
         23    2    1    0    0    0 -0.28945250419E+00  0.36058898915E+02  0.32326242347E+01  0.88795334097E+02  0.81079180584E+02 0.  0.
         11    1    3    3    0    0  0.26764984792E+01  0.56615954662E+02  0.22003211056E+02  0.60800257100E+02  0.51100000000E-03 0.  1.
         22    1    1    0    0    0  0.28945250419E+00 -0.36058898915E+02 -0.32326242347E+01  0.36204665903E+02  0.00000000000E+00 0.  1.
</event>
<event>
 5    1  0.6622912E-004  0.9118800E+02  0.7818608E-02  0.1130116E+00
         25   -1    0    0    0    0  0.00000000000E+00  0.00000000000E+00  0.99999998245E-14  0.12500000000E+03  0.12500000000E+03 0.  0.
        -11    1    3    3    0    0 -0.33878389306E+02  0.30418780369E+02  0.37537427206E+02  0.59009371312E+02  0.51100000000E-03 0.  1.
         23    2    1    0    0    0 -0.15988161065E+02  0.22980849583E+01  0.26213217456E+02  0.94209818803E+02  0.89036254980E+02 0.  0.
         11    1    3    3    0    0  0.17890228241E+02 -0.28120695411E+02 -0.11324209749E+02  0.35200447492E+02  0.51100000000E-03 0. -1.
         22    1    1    0    0    0  0.15988161065E+02 -0.22980849583E+01 -0.26213217456E+02  0.30790181197E+02  0.00000000000E+00 0.  1.
</event>
<event>
 5    1  0.6622912E-004  0.9118800E+02  0.7818608E-02  0.1130116E+00
         25   -1    0    0    0    0  0.00000000000E+00  0.00000000000E+00  0.99999998245E-14  0.12500000000E+03  0.12500000000E+03 0.  0.
        -11    1    3    3    0    0 -0.33096472376E+01 -0.29631022228E+01 -0.32422643360E+02  0.32725548771E+02  0.51100000000E-03 0.  1.
         23    2    1    0    0    0 -0.73195091588E+01  0.15124186036E+02  0.26015621242E+02  0.94030195897E+02  0.88783720209E+02 0.  0.
         11    1    3    3    0    0 -0.40098619212E+01  0.18087288259E+02  0.58438264603E+02  0.61304647126E+02  0.51100000000E-03 0. -1.
         22    1    1    0    0    0  0.73195091588E+01 -0.15124186036E+02 -0.26015621242E+02  0.30969804103E+02  0.00000000000E+00 0. -1.
</event>
<event>
 5    1  0.6622912E-004  0.9118800E+02  0.7818608E-02  0.1130116E+00
         25   -1    0    0    0    0  0.00000000000E+00  0.00000000000E+00  0.99999998245E-14  0.12500000000E+03  0.12500000000E+03 0.  0.
        -11    1    3    3    0    0 -0.94380699284E+01 -0.38162890457E+00 -0.60172677094E+02  0.60909554862E+02  0.51100000000E-03 0.  1.
         23    2    1    0    0    0  0.40913121617E+01  0.50287270605E+01 -0.28481543123E+02  0.95789980662E+02  0.91227710513E+02 0.  0.
         11    1    3    3    0    0  0.13529382090E+02  0.54103559651E+01  0.31691133970E+02  0.34880425800E+02  0.51100000000E-03 0. -1.
         22    1    1    0    0    0 -0.40913121617E+01 -0.50287270605E+01  0.28481543123E+02  0.29210019338E+02  0.00000000000E+00 0.  1.
</event>
<event>
 5    1  0.6622912E-004  0.9118800E+02  0.7818608E-02  0.1130116E+00
         25   -1    0    0    0    0  0.00000000000E+00  0.00000000000E+00  0.99999998245E-14  0.12500000000E+03  0.12500000000E+03 0.  0.
        -11    1    3    3    0    0 -0.21705991838E+02  0.36238668585E+02  0.17175265592E+02  0.45600229505E+02  0.51100000000E-03 0.  1.
         23    2    1    0    0    0  0.93224884586E+00  0.17302030446E+02 -0.23467494065E+02  0.95828907748E+02  0.91281032734E+02 0.  0.
         11    1    3    3    0    0  0.22638240684E+02 -0.18936638139E+02 -0.40642759657E+02  0.50228678243E+02  0.51100000000E-03 0. -1.
         22    1    1    0    0    0 -0.93224884586E+00 -0.17302030446E+02  0.23467494065E+02  0.29171092252E+02  0.00000000000E+00 0. -1.
</event>
<event>
 5    1  0.6622912E-004  0.9118800E+02  0.7818608E-02  0.1130116E+00
         25   -1    0    0    0    0  0.00000000000E+00  0.00000000000E+00  0.99999998245E-14  0.12500000000E+03  0.12500000000E+03 0.  0.
        -11    1    3    3    0    0 -0.24552927303E+02 -0.49538715015E+02 -0.99540368912E+01  0.56178406663E+02  0.51100000000E-03 0.  1.
         23    2    1    0    0    0 -0.24497910860E+02 -0.10723535848E+02  0.50364468613E+01  0.97787729705E+02  0.93925142674E+02 0.  0.
         11    1    3    3    0    0  0.55016442227E-01  0.38815179168E+02  0.14990483752E+02  0.41609323042E+02  0.51100000000E-03 0. -1.
         22    1    1    0    0    0  0.24497910860E+02  0.10723535848E+02 -0.50364468613E+01  0.27212270295E+02  0.00000000000E+00 0.  1.
</event>
<event>
 5    1  0.6622912E-004  0.9118800E+02  0.7818608E-02  0.1130116E+00
         25   -1    0    0    0    0  0.00000000000E+00  0.00000000000E+00  0.99999998245E-14  0.12500000000E+03  0.12500000000E+03 0.  0.
        -11    1    3    3    0    0 -0.23179344366E+02 -0.46905331622E+01  0.29739596215E+02  0.37996403644E+02  0.51100000000E-03 0.  1.
         23    2    1    0    0    0  0.22510056706E+02 -0.18121148967E+02 -0.32365264448E+01  0.95921592268E+02  0.91407866549E+02 0.  0.
         11    1    3    3    0    0  0.45689401072E+02 -0.13430615805E+02 -0.32976122660E+02  0.57925188624E+02  0.51100000000E-03 0. -1.
         22    1    1    0    0    0 -0.22510056706E+02  0.18121148967E+02  0.32365264448E+01  0.29078407732E+02  0.00000000000E+00 0. -1.
</event>
<event>
 5    1  0.6622912E-004  0.9118800E+02  0.7818608E-02  0.1130116E+00
         25   -1    0    0    0    0  0.00000000000E+00  0.00000000000E+00  0.99999998245E-14  0.12500000000E+03  0.12500000000E+03 0.  0.
        -11    1    3    3    0    0 -0.29017260093E+02  0.43719853714E+02  0.93042855112E+01  0.53291619615E+02  0.51100000000E-03 0.  1.
         23    2    1    0    0    0 -0.25597049176E+02  0.22306492833E+01  0.14903598563E+02  0.95296431648E+02  0.90548925515E+02 0.  0.
         11    1    3    3    0    0  0.34202109171E+01 -0.41489204430E+02  0.55993130517E+01  0.42004812033E+02  0.51100000000E-03 0. -1.
         22    1    1    0    0    0  0.25597049176E+02 -0.22306492833E+01 -0.14903598563E+02  0.29703568352E+02  0.00000000000E+00 0.  1.
</event>
<event>
 5    1  0.6622912E-004  0.9118800E+02  0.7818608E-02  0.1130116E+00
         25   -1    0    0    0    0  0.00000000000E+00  0.00000000000E+00  0.99999998245E-14  0.12500000000E+03  0.12500000000E+03 0.  0.
        -11    1    3    3    0    0  0.85078714879E+01 -0.33606033874E+02 -0.40611218611E+01  0.34903325072E+02  0.51100000000E-03 0. -1.
         23    2    1    0    0    0 -0.13034126314E+02  0.81876694711E+01  0.28853214852E+02  0.92297792315E+02  0.86310185255E+02 0.  0.
         11    1    3    3    0    0 -0.21541997802E+02  0.41793703345E+02  0.32914336713E+02  0.57394467244E+02  0.51100000000E-03 0.  1.
         22    1    1    0    0    0  0.13034126314E+02 -0.81876694711E+01 -0.28853214852E+02  0.32702207685E+02  0.00000000000E+00 0.  1.
</event>
<event>
 5    1  0.6622912E-004  0.9118800E+02  0.7818608E-02  0.1130116E+00
         25   -1    0    0    0    0  0.00000000000E+00  0.00000000000E+00  0.99999998245E-14  0.12500000000E+03  0.12500000000E+03 0.  0.
        -11    1    3    3    0    0  0.82921292273E+01  0.15706866985E+02  0.46318083695E+02  0.49606753119E+02  0.51100000000E-03 0.  1.
         23    2    1    0    0    0 -0.13407355456E+01  0.28909254035E+02  0.30007944063E+01  0.95904513963E+02  0.91384509030E+02 0.  0.
         11    1    3    3    0    0 -0.96328647729E+01  0.13202387050E+02 -0.43317289289E+02  0.46297760843E+02  0.51100000000E-03 0. -1.
         22    1    1    0    0    0  0.13407355456E+01 -0.28909254035E+02 -0.30007944063E+01  0.29095486037E+02  0.00000000000E+00 0.  1.
</event>
<event>
 5    1  0.6622912E-004  0.9118800E+02  0.7818608E-02  0.1130116E+00
         25   -1    0    0    0    0  0.00000000000E+00  0.00000000000E+00  0.99999998245E-14  0.12500000000E+03  0.12500000000E+03 0.  0.
        -11    1    3    3    0    0  0.22873151133E+02 -0.54272771137E+02 -0.66772598662E+01  0.59273101228E+02  0.51100000000E-03 0. -1.
         23    2    1    0    0    0 -0.19830497818E+00 -0.29290072831E+02  0.51151076845E+01  0.95265978780E+02  0.90506876506E+02 0.  0.
         11    1    3    3    0    0 -0.23071456111E+02  0.24982698306E+02  0.11792367551E+02  0.35992877551E+02  0.51100000000E-03 0.  1.
         22    1    1    0    0    0  0.19830497818E+00  0.29290072831E+02 -0.51151076845E+01  0.29734021220E+02  0.00000000000E+00 0. -1.
</event>
<event>
 5    1  0.6622912E-004  0.9118800E+02  0.7818608E-02  0.1130116E+00
         25   -1    0    0    0    0  0.00000000000E+00  0.00000000000E+00  0.99999998245E-14  0.12500000000E+03  0.12500000000E+03 0.  0.
        -11    1    3    3    0    0 -0.33733617880E+02 -0.11408744379E+02  0.24240852285E+02  0.43078246753E+02  0.51100000000E-03 0.  1.
         23    2    1    0    0    0 -0.20361753599E+02 -0.63186478641E+01 -0.23707758438E+02  0.93116083512E+02  0.87487261233E+02 0.  0.
         11    1    3    3    0    0  0.13371864281E+02  0.50900965144E+01 -0.47948610724E+02  0.50037836758E+02  0.51100000000E-03 0. -1.
         22    1    1    0    0    0  0.20361753599E+02  0.63186478641E+01  0.23707758438E+02  0.31883916488E+02  0.00000000000E+00 0. -1.
</event>
<event>
 5    1  0.6622912E-004  0.9118800E+02  0.7818608E-02  0.1130116E+00
         25   -1    0    0    0    0  0.00000000000E+00  0.00000000000E+00  0.99999998245E-14  0.12500000000E+03  0.12500000000E+03 0.  0.
        -11    1    3    3    0    0 -0.16473449533E+02 -0.28380635824E+02 -0.80123322567E+01  0.33779172544E+02  0.51100000000E-03 0.  1.
         23    2    1    0    0    0  0.41419159710E+01 -0.13017686939E+02  0.36967924409E+02  0.85588795041E+02  0.75974987728E+02 0.  0.
         11    1    3    3    0    0  0.20615365504E+02  0.15362948885E+02  0.44980256666E+02  0.51809622497E+02  0.51100000000E-03 0. -1.
         22    1    1    0    0    0 -0.41419159710E+01  0.13017686939E+02 -0.36967924409E+02  0.39411204959E+02  0.00000000000E+00 0. -1.
</event>
<event>
 5    1  0.6622912E-004  0.9118800E+02  0.7818608E-02  0.1130116E+00
         25   -1    0    0    0    0  0.00000000000E+00  0.00000000000E+00  0.99999998245E-14  0.12500000000E+03  0.12500000000E+03 0.  0.
        -11    1    3    3    0    0 -0.18350728968E+02  0.40886898150E+02  0.41747164521E+02  0.61247966822E+02  0.51100000000E-03 0.  1.
         23    2    1    0    0    0 -0.95312800210E+00  0.23709846294E+02  0.20129231875E+02  0.93883264308E+02  0.88576611343E+02 0.  0.
         11    1    3    3    0    0  0.17397600966E+02 -0.17177051856E+02 -0.21617932646E+02  0.32635297486E+02  0.51100000000E-03 0. -1.
         22    1    1    0    0    0  0.95312800210E+00 -0.23709846294E+02 -0.20129231875E+02  0.31116735692E+02  0.00000000000E+00 0.  1.
</event>
<event>
 5    1  0.6622912E-004  0.9118800E+02  0.7818608E-02  0.1130116E+00
         25   -1    0    0    0    0  0.00000000000E+00  0.00000000000E+00  0.99999998245E-14  0.12500000000E+03  0.12500000000E+03 0.  0.
        -11    1    3    3    0    0 -0.19453561009E+01 -0.21280292158E+02 -0.45437724237E+02  0.50211771814E+02  0.51100000000E-03 0.  1.
         23    2    1    0    0    0 -0.25633177487E+02 -0.11090692224E+02 -0.75044760325E+01  0.96079757909E+02  0.91623902325E+02 0.  0.
         11    1    3    3    0    0 -0.23687821386E+02  0.10189599934E+02  0.37933248204E+02  0.45867986095E+02  0.51100000000E-03 0. -1.
         22    1    1    0    0    0  0.25633177487E+02  0.11090692224E+02  0.75044760325E+01  0.28920242091E+02  0.00000000000E+00 0.  1.
</event>
<event>
 5    1  0.6622912E-004  0.9118800E+02  0.7818608E-02  0.1130116E+00
         25   -1    0    0    0    0  0.00000000000E+00  0.00000000000E+00  0.99999998245E-14  0.12500000000E+03  0.12500000000E+03 0.  0.
        -11    1    3    3    0    0  0.28212743795E+02  0.87248662811E+01  0.25513555239E+02  0.39025936315E+02  0.51100000000E-03 0. -1.
         23    2    1    0    0    0  0.81272227345E+01  0.16776507407E+00 -0.27481220232E+02  0.96341713940E+02  0.91980587544E+02 0.  0.
         11    1    3    3    0    0 -0.20085521061E+02 -0.85571012070E+01 -0.52994775470E+02  0.57315777625E+02  0.51100000000E-03 0.  1.
         22    1    1    0    0    0 -0.81272227345E+01 -0.16776507407E+00  0.27481220232E+02  0.28658286060E+02  0.00000000000E+00 0. -1.
</event>
<event>
 5    1  0.6622912E-004  0.9118800E+02  0.7818608E-02  0.1130116E+00
         25   -1    0    0    0    0  0.00000000000E+00  0.00000000000E+00  0.99999998245E-14  0.12500000000E+03  0.12500000000E+03 0.  0.
        -11    1    3    3    0    0  0.33209450409E+02  0.59198609155E+01 -0.32105154970E+00  0.33734484198E+02  0.51100000000E-03 0. -1.
         23    2    1    0    0    0 -0.28725494551E+02 -0.19814535333E+01  0.10612380227E+01  0.96186697145E+02  0.91769680648E+02 0.  0.
         11    1    3    3    0    0 -0.61934944960E+02 -0.79013144488E+01  0.13822895724E+01  0.62452212947E+02  0.51100000000E-03 0.  1.
         22    1    1    0    0    0  0.28725494551E+02  0.19814535333E+01 -0.10612380227E+01  0.28813302855E+02  0.00000000000E+00 0.  1.
</event>
<event>
 5    1  0.6622912E-004  0.9118800E+02  0.7818608E-02  0.1130116E+00
         25   -1    0    0    0    0  0.00000000000E+00  0.00000000000E+00  0.99999998245E-14  0.12500000000E+03  0.12500000000E+03 0.  0.
        -11    1    3    3    0    0  0.25551023961E+02  0.32424474587E+02 -0.12158346059E+02  0.43035180455E+02  0.51100000000E-03 0.  1.
         23    2    1    0    0    0 -0.11718222357E+01 -0.11776399704E+02 -0.25935437409E+02  0.96492041972E+02  0.92184654325E+02 0.  0.
         11    1    3    3    0    0 -0.26722846197E+02 -0.44200874290E+02 -0.13777091350E+02  0.53456861517E+02  0.51100000000E-03 0. -1.
         22    1    1    0    0    0  0.11718222357E+01  0.11776399704E+02  0.25935437409E+02  0.28507958028E+02  0.00000000000E+00 0. -1.
</event>
<event>
 5    1  0.6622912E-004  0.9118800E+02  0.7818608E-02  0.1130116E+00
         25   -1    0    0    0    0  0.00000000000E+00  0.00000000000E+00  0.99999998245E-14  0.12500000000E+03  0.12500000000E+03 0.  0.
        -11    1    3    3    0    0  0.16490625698E+02 -0.14022297361E+02  0.38846216363E+02  0.44470148248E+02  0.51100000000E-03 0.  1.
         23    2    1    0    0    0 -0.12301511029E+02 -0.26316249416E+02 -0.19391740510E+01  0.95885870219E+02  0.91359003688E+02 0.  0.
         11    1    3    3    0    0 -0.28792136727E+02 -0.12293952054E+02 -0.40785390414E+02  0.51415721972E+02  0.51100000000E-03 0. -1.
         22    1    1    0    0    0  0.12301511029E+02  0.26316249416E+02  0.19391740510E+01  0.29114129781E+02  0.00000000000E+00 0.  1.
</event>
<event>
 5    1  0.6622912E-004  0.9118800E+02  0.7818608E-02  0.1130116E+00
         25   -1    0    0    0    0  0.00000000000E+00  0.00000000000E+00  0.99999998245E-14  0.12500000000E+03  0.12500000000E+03 0.  0.
        -11    1    3    3    0    0 -0.73049216749E+01 -0.23498769713E+02 -0.32415861814E+02  0.40698183695E+02  0.51100000000E-03 0.  1.
         23    2    1    0    0    0 -0.33210188098E+02 -0.76653522145E+01  0.67510496233E+01  0.90254483899E+02  0.83298385188E+02 0.  0.
         11    1    3    3    0    0 -0.25905266423E+02  0.15833417498E+02  0.39166911437E+02  0.49556300204E+02  0.51100000000E-03 0. -1.
         22    1    1    0    0    0  0.33210188098E+02  0.76653522145E+01 -0.67510496233E+01  0.34745516101E+02  0.00000000000E+00 0.  1.
</event>
<event>
 5    1  0.6622912E-004  0.9118800E+02  0.7818608E-02  0.1130116E+00
         25   -1    0    0    0    0  0.00000000000E+00  0.00000000000E+00  0.99999998245E-14  0.12500000000E+03  0.12500000000E+03 0.  0.
        -11    1    3    3    0    0 -0.77947475538E+01  0.50759199937E+02 -0.73383777404E+01  0.51875873542E+02  0.51100000000E-03 0.  1.
         23    2    1    0    0    0 -0.70925034196E+01  0.12786285782E+02  0.21104581313E+02  0.99325186247E+02  0.95949447950E+02 0.  0.
         11    1    3    3    0    0  0.70224413425E+00 -0.37972914155E+02  0.28442959053E+02  0.47449312705E+02  0.51100000000E-03 0. -1.
         22    1    1    0    0    0  0.70925034196E+01 -0.12786285782E+02 -0.21104581313E+02  0.25674813753E+02  0.00000000000E+00 0.  1.
</event>
<event>
 5    1  0.6622912E-004  0.9118800E+02  0.7818608E-02  0.1130116E+00
         25   -1    0    0    0    0  0.00000000000E+00  0.00000000000E+00  0.99999998245E-14  0.12500000000E+03  0.12500000000E+03 0.  0.
        -11    1    3    3    0    0  0.27832484939E+02  0.16329481924E+02  0.53334031708E+02  0.62336330789E+02  0.51100000000E-03 0.  1.
         23    2    1    0    0    0  0.15397088689E+02  0.85459680590E+01  0.22990189886E+02  0.96040498258E+02  0.91570325785E+02 0.  0.
         11    1    3    3    0    0 -0.12435396250E+02 -0.77835138646E+01 -0.30343841822E+02  0.33704167469E+02  0.51100000000E-03 0. -1.
         22    1    1    0    0    0 -0.15397088689E+02 -0.85459680590E+01 -0.22990189886E+02  0.28959501742E+02  0.00000000000E+00 0.  1.
</event>
<event>
 5    1  0.6622912E-004  0.9118800E+02  0.7818608E-02  0.1130116E+00
         25   -1    0    0    0    0  0.00000000000E+00  0.00000000000E+00  0.99999998245E-14  0.12500000000E+03  0.12500000000E+03 0.  0.
        -11    1    3    3    0    0 -0.43740190958E+02 -0.12870183436E+02  0.93785821564E+01  0.46548939088E+02  0.51100000000E-03 0. -1.
         23    2    1    0    0    0 -0.65394462116E+01  0.81248622194E+01 -0.22732770196E+02  0.99988870805E+02  0.96810214860E+02 0.  0.
         11    1    3    3    0    0  0.37200744746E+02  0.20995045656E+02 -0.32111352352E+02  0.53439931717E+02  0.51100000000E-03 0.  1.
         22    1    1    0    0    0  0.65394462116E+01 -0.81248622194E+01  0.22732770196E+02  0.25011129195E+02  0.00000000000E+00 0. -1.
</event>
<event>
 5    1  0.6622912E-004  0.9118800E+02  0.7818608E-02  0.1130116E+00
         25   -1    0    0    0    0  0.00000000000E+00  0.00000000000E+00  0.99999998245E-14  0.12500000000E+03  0.12500000000E+03 0.  0.
        -11    1    3    3    0    0 -0.13021106806E+02  0.27664532021E+02  0.17385083507E+02  0.35172669549E+02  0.51100000000E-03 0. -1.
         23    2    1    0    0    0  0.16720597625E+02 -0.21464647881E+02 -0.59256266871E+01  0.97153590084E+02  0.93077373840E+02 0.  0.
         11    1    3    3    0    0  0.29741704431E+02 -0.49129179902E+02 -0.23310710194E+02  0.61980920535E+02  0.51100000000E-03 0.  1.
         22    1    1    0    0    0 -0.16720597625E+02  0.21464647881E+02  0.59256266871E+01  0.27846409916E+02  0.00000000000E+00 0.  1.
</event>
<event>
 5    1  0.6622912E-004  0.9118800E+02  0.7818608E-02  0.1130116E+00
         25   -1    0    0    0    0  0.00000000000E+00  0.00000000000E+00  0.99999998245E-14  0.12500000000E+03  0.12500000000E+03 0.  0.
        -11    1    3    3    0    0  0.40677245370E+02 -0.50326477762E+01  0.19022721715E+02  0.45186610586E+02  0.51100000000E-03 0.  1.
         23    2    1    0    0    0  0.23000276173E+01  0.26894222680E+02  0.11452044017E+02  0.95678699675E+02  0.91075105922E+02 0.  0.
         11    1    3    3    0    0 -0.38377217752E+02  0.31926870456E+02 -0.75706776982E+01  0.50492089089E+02  0.51100000000E-03 0. -1.
         22    1    1    0    0    0 -0.23000276173E+01 -0.26894222680E+02 -0.11452044017E+02  0.29321300325E+02  0.00000000000E+00 0. -1.
</event>
<event>
 5    1  0.6622912E-004  0.9118800E+02  0.7818608E-02  0.1130116E+00
         25   -1    0    0    0    0  0.00000000000E+00  0.00000000000E+00  0.99999998245E-14  0.12500000000E+03  0.12500000000E+03 0.  0.
        -11    1    3    3    0    0  0.13694182407E+02  0.22677069820E+02 -0.25792350256E+02  0.36973307391E+02  0.51100000000E-03 0.  1.
         23    2    1    0    0    0  0.75255708072E+01 -0.38434759985E+01  0.27181537646E+02  0.96535240867E+02  0.92243212307E+02 0.  0.
         11    1    3    3    0    0 -0.61686116000E+01 -0.26520545819E+02  0.52973887902E+02  0.59561933475E+02  0.51100000000E-03 0. -1.
         22    1    1    0    0    0 -0.75255708072E+01  0.38434759985E+01 -0.27181537646E+02  0.28464759133E+02  0.00000000000E+00 0. -1.
</event>
<event>
 5    1  0.6622912E-004  0.9118800E+02  0.7818608E-02  0.1130116E+00
         25   -1    0    0    0    0  0.00000000000E+00  0.00000000000E+00  0.99999998245E-14  0.12500000000E+03  0.12500000000E+03 0.  0.
        -11    1    3    3    0    0 -0.30062333045E+01 -0.17349452915E+02  0.29148783804E+02  0.34054258950E+02  0.51100000000E-03 0. -1.
         23    2    1    0    0    0  0.77956334159E+01  0.16240458502E+02 -0.22233220244E+02  0.96384611218E+02  0.92038865729E+02 0.  0.
         11    1    3    3    0    0  0.10801866720E+02  0.33589911417E+02 -0.51382004048E+02  0.62330352268E+02  0.51100000000E-03 0.  1.
         22    1    1    0    0    0 -0.77956334159E+01 -0.16240458502E+02  0.22233220244E+02  0.28615388782E+02  0.00000000000E+00 0.  1.
</event>
<event>
 5    1  0.6622912E-004  0.9118800E+02  0.7818608E-02  0.1130116E+00
         25   -1    0    0    0    0  0.00000000000E+00  0.00000000000E+00  0.99999998245E-14  0.12500000000E+03  0.12500000000E+03 0.  0.
        -11    1    3    3    0    0  0.50543850297E+01  0.39822824964E+02 -0.39222532000E+02  0.56123178927E+02  0.51100000000E-03 0. -1.
         23    2    1    0    0    0  0.14955376834E+02  0.22100577046E+02 -0.23539296856E+01  0.98211200345E+02  0.94487036604E+02 0.  0.
         11    1    3    3    0    0  0.99009918039E+01 -0.17722247918E+02  0.36868602314E+02  0.42088021418E+02  0.51100000000E-03 0.  1.
         22    1    1    0    0    0 -0.14955376834E+02 -0.22100577046E+02  0.23539296856E+01  0.26788799655E+02  0.00000000000E+00 0. -1.
</event>
<event>
 5    1  0.6622912E-004  0.9118800E+02  0.7818608E-02  0.1130116E+00
         25   -1    0    0    0    0  0.00000000000E+00  0.00000000000E+00  0.99999998245E-14  0.12500000000E+03  0.12500000000E+03 0.  0.
        -11    1    3    3    0    0 -0.17632616978E+02  0.30474548273E+02 -0.32831508798E+02  0.48140577938E+02  0.51100000000E-03 0.  1.
         23    2    1    0    0    0 -0.17075050106E+02 -0.14700647576E+02 -0.19383372873E+02  0.95278265206E+02  0.90523843828E+02 0.  0.
         11    1    3    3    0    0  0.55756687247E+00 -0.45175195849E+02  0.13448135926E+02  0.47137687268E+02  0.51100000000E-03 0. -1.
         22    1    1    0    0    0  0.17075050106E+02  0.14700647576E+02  0.19383372873E+02  0.29721734794E+02  0.00000000000E+00 0. -1.
</event>
<event>
 5    1  0.6622912E-004  0.9118800E+02  0.7818608E-02  0.1130116E+00
         25   -1    0    0    0    0  0.00000000000E+00  0.00000000000E+00  0.99999998245E-14  0.12500000000E+03  0.12500000000E+03 0.  0.
        -11    1    3    3    0    0 -0.58297134550E+01 -0.35721163169E+02 -0.22956538126E+00  0.36194471368E+02  0.51100000000E-03 0.  1.
         23    2    1    0    0    0 -0.14900696665E+02  0.23380176091E+02  0.69500480407E+01  0.96417373058E+02  0.92083349551E+02 0.  0.
         11    1    3    3    0    0 -0.90709832096E+01  0.59101339260E+02  0.71796134220E+01  0.60222901689E+02  0.51100000000E-03 0. -1.
         22    1    1    0    0    0  0.14900696665E+02 -0.23380176091E+02 -0.69500480407E+01  0.28582626942E+02  0.00000000000E+00 0. -1.
</event>
<event>
 5    1  0.6622912E-004  0.9118800E+02  0.7818608E-02  0.1130116E+00
         25   -1    0    0    0    0  0.00000000000E+00  0.00000000000E+00  0.99999998245E-14  0.12500000000E+03  0.12500000000E+03 0.  0.
        -11    1    3    3    0    0  0.33462241256E+02 -0.22714705590E+02  0.81582180902E+01  0.41258162376E+02  0.51100000000E-03 0.  1.
         23    2    1    0    0    0  0.39621330906E+00  0.22121144802E+02  0.16244580288E+02  0.97552078019E+02  0.93611000981E+02 0.  0.
         11    1    3    3    0    0 -0.33066027947E+02  0.44835850392E+02  0.80863621979E+01  0.56293915643E+02  0.51100000000E-03 0. -1.
         22    1    1    0    0    0 -0.39621330906E+00 -0.22121144802E+02 -0.16244580288E+02  0.27447921981E+02  0.00000000000E+00 0. -1.
</event>
<event>
 5    1  0.6622912E-004  0.9118800E+02  0.7818608E-02  0.1130116E+00
         25   -1    0    0    0    0  0.00000000000E+00  0.00000000000E+00  0.99999998245E-14  0.12500000000E+03  0.12500000000E+03 0.  0.
        -11    1    3    3    0    0  0.28254775583E+02 -0.66238328744E+00 -0.21906457968E+02  0.35758411539E+02  0.51100000000E-03 0.  1.
         23    2    1    0    0    0 -0.72261904718E+01  0.16915233435E+02  0.22948074915E+02  0.95589847107E+02  0.90953074587E+02 0.  0.
         11    1    3    3    0    0 -0.35480966055E+02  0.17577616722E+02  0.44854532882E+02  0.59831435568E+02  0.51100000000E-03 0. -1.
         22    1    1    0    0    0  0.72261904718E+01 -0.16915233435E+02 -0.22948074915E+02  0.29410152893E+02  0.00000000000E+00 0. -1.
</event>
<event>
 5    1  0.6622912E-004  0.9118800E+02  0.7818608E-02  0.1130116E+00
         25   -1    0    0    0    0  0.00000000000E+00  0.00000000000E+00  0.99999998245E-14  0.12500000000E+03  0.12500000000E+03 0.  0.
        -11    1    3    3    0    0  0.41339652809E+02  0.21447372475E+02  0.39375037452E+02  0.60986476001E+02  0.51100000000E-03 0.  1.
         23    2    1    0    0    0  0.20134602684E+02  0.17847790437E+02  0.12715756249E+02  0.95240357769E+02  0.90471484139E+02 0.  0.
         11    1    3    3    0    0 -0.21205050126E+02 -0.35995820381E+01 -0.26659281202E+02  0.34253881768E+02  0.51100000000E-03 0. -1.
         22    1    1    0    0    0 -0.20134602684E+02 -0.17847790437E+02 -0.12715756249E+02  0.29759642231E+02  0.00000000000E+00 0.  1.
</event>
<event>
 5    1  0.6622912E-004  0.9118800E+02  0.7818608E-02  0.1130116E+00
         25   -1    0    0    0    0  0.00000000000E+00  0.00000000000E+00  0.99999998245E-14  0.12500000000E+03  0.12500000000E+03 0.  0.
        -11    1    3    3    0    0 -0.54048341580E+00  0.36688277279E+02  0.32855851139E+02  0.49252703138E+02  0.51100000000E-03 0.  1.
         23    2    1    0    0    0 -0.27059312715E+02  0.91452335770E+01  0.64539123792E+01  0.95716989793E+02  0.91127643711E+02 0.  0.
         11    1    3    3    0    0 -0.26518829299E+02 -0.27543043702E+02 -0.26401938760E+02  0.46464286655E+02  0.51100000000E-03 0. -1.
         22    1    1    0    0    0  0.27059312715E+02 -0.91452335770E+01 -0.64539123792E+01  0.29283010207E+02  0.00000000000E+00 0.  1.
</event>
<event>
 5    1  0.6622912E-004  0.9118800E+02  0.7818608E-02  0.1130116E+00
         25   -1    0    0    0    0  0.00000000000E+00  0.00000000000E+00  0.99999998245E-14  0.12500000000E+03  0.12500000000E+03 0.  0.
        -11    1    3    3    0    0  0.30110706944E+02  0.43930985071E+02 -0.31318223653E+02  0.61785251112E+02  0.51100000000E-03 0.  1.
         23    2    1    0    0    0  0.11513907065E+02  0.18002314698E+02 -0.20253639288E+02  0.95557457739E+02  0.90908549844E+02 0.  0.
         11    1    3    3    0    0 -0.18596799879E+02 -0.25928670373E+02  0.11064584365E+02  0.33772206627E+02  0.51100000000E-03 0. -1.
         22    1    1    0    0    0 -0.11513907065E+02 -0.18002314698E+02  0.20253639288E+02  0.29442542261E+02  0.00000000000E+00 0.  1.
</event>
<event>
 5    1  0.6622912E-004  0.9118800E+02  0.7818608E-02  0.1130116E+00
         25   -1    0    0    0    0  0.00000000000E+00  0.00000000000E+00  0.99999998245E-14  0.12500000000E+03  0.12500000000E+03 0.  0.
        -11    1    3    3    0    0  0.78316111786E+01 -0.34822538300E+02  0.16105709773E+02  0.39157849722E+02  0.51100000000E-03 0.  1.
         23    2    1    0    0    0  0.21248764576E+02  0.16264213983E+02 -0.77890865856E+01  0.97130580876E+02  0.93046468063E+02 0.  0.
         11    1    3    3    0    0  0.13417153397E+02  0.51086752283E+02 -0.23894796359E+02  0.57972731153E+02  0.51100000000E-03 0. -1.
         22    1    1    0    0    0 -0.21248764576E+02 -0.16264213983E+02  0.77890865856E+01  0.27869419124E+02  0.00000000000E+00 0. -1.
</event>
<event>
 5    1  0.6622912E-004  0.9118800E+02  0.7818608E-02  0.1130116E+00
         25   -1    0    0    0    0  0.00000000000E+00  0.00000000000E+00  0.99999998245E-14  0.12500000000E+03  0.12500000000E+03 0.  0.
        -11    1    3    3    0    0 -0.14305961696E+02 -0.33995545043E+02 -0.20456961470E+00  0.36883593532E+02  0.51100000000E-03 0. -1.
         23    2    1    0    0    0  0.13065738834E+01  0.17892528706E+02 -0.23137000992E+02  0.95722525148E+02  0.91135236254E+02 0.  0.
         11    1    3    3    0    0  0.15612535579E+02  0.51888073749E+02 -0.22932431377E+02  0.58838931616E+02  0.51100000000E-03 0.  1.
         22    1    1    0    0    0 -0.13065738834E+01 -0.17892528706E+02  0.23137000992E+02  0.29277474852E+02  0.00000000000E+00 0.  1.
</event>
<event>
 5    1  0.6622912E-004  0.9118800E+02  0.7818608E-02  0.1130116E+00
         25   -1    0    0    0    0  0.00000000000E+00  0.00000000000E+00  0.99999998245E-14  0.12500000000E+03  0.12500000000E+03 0.  0.
        -11    1    3    3    0    0  0.50548729160E+01  0.18258846575E+01  0.28151752743E+02  0.28660195005E+02  0.51100000000E-03 0. -1.
         23    2    1    0    0    0  0.14001754421E+02  0.82307602351E+01 -0.31628707710E+02  0.89444835927E+02  0.82074411248E+02 0.  0.
         11    1    3    3    0    0  0.89468815045E+01  0.64048755776E+01 -0.59780460452E+02  0.60784640922E+02  0.51100000000E-03 0.  1.
         22    1    1    0    0    0 -0.14001754421E+02 -0.82307602351E+01  0.31628707710E+02  0.35555164073E+02  0.00000000000E+00 0.  1.
</event>
<event>
 5    1  0.6622912E-004  0.9118800E+02  0.7818608E-02  0.1130116E+00
         25   -1    0    0    0    0  0.00000000000E+00  0.00000000000E+00  0.99999998245E-14  0.12500000000E+03  0.12500000000E+03 0.  0.
        -11    1    3    3    0    0 -0.26799176620E+02  0.19344676476E+02 -0.98228457153E+01  0.34480439001E+02  0.51100000000E-03 0.  1.
         23    2    1    0    0    0 -0.27862896132E+01 -0.16041640030E+02  0.28677697429E+02  0.92022614498E+02  0.85910730556E+02 0.  0.
         11    1    3    3    0    0  0.24012887007E+02 -0.35386316507E+02  0.38500543145E+02  0.57542175498E+02  0.51100000000E-03 0. -1.
         22    1    1    0    0    0  0.27862896132E+01  0.16041640030E+02 -0.28677697429E+02  0.32977385502E+02  0.00000000000E+00 0. -1.
</event>
<event>
 5    1  0.6622912E-004  0.9118800E+02  0.7818608E-02  0.1130116E+00
         25   -1    0    0    0    0  0.00000000000E+00  0.00000000000E+00  0.99999998245E-14  0.12500000000E+03  0.12500000000E+03 0.  0.
        -11    1    3    3    0    0 -0.40365215430E+02 -0.34579149637E+02  0.46572851093E+01  0.53355023298E+02  0.51100000000E-03 0.  1.
         23    2    1    0    0    0 -0.20490834136E+02  0.32078140074E+01  0.17417830359E+02  0.97915960997E+02  0.94095644156E+02 0.  0.
         11    1    3    3    0    0  0.19874381294E+02  0.37786963644E+02  0.12760545250E+02  0.44560937699E+02  0.51100000000E-03 0. -1.
         22    1    1    0    0    0  0.20490834136E+02 -0.32078140074E+01 -0.17417830359E+02  0.27084039003E+02  0.00000000000E+00 0.  1.
</event>
<event>
 5    1  0.6622912E-004  0.9118800E+02  0.7818608E-02  0.1130116E+00
         25   -1    0    0    0    0  0.00000000000E+00  0.00000000000E+00  0.99999998245E-14  0.12500000000E+03  0.12500000000E+03 0.  0.
        -11    1    3    3    0    0 -0.48032974814E+02 -0.18049160261E+02  0.76371802658E+00  0.51317853824E+02  0.51100000000E-03 0.  1.
         23    2    1    0    0    0 -0.90507642492E+01 -0.15465049699E+02 -0.22072073117E+02  0.96570077254E+02  0.92290407483E+02 0.  0.
         11    1    3    3    0    0  0.38982210565E+02  0.25841105616E+01 -0.22835791143E+02  0.45252223430E+02  0.51100000000E-03 0. -1.
         22    1    1    0    0    0  0.90507642492E+01  0.15465049699E+02  0.22072073117E+02  0.28429922746E+02  0.00000000000E+00 0.  1.
</event>
<event>
 5    1  0.6622912E-004  0.9118800E+02  0.7818608E-02  0.1130116E+00
         25   -1    0    0    0    0  0.00000000000E+00  0.00000000000E+00  0.99999998245E-14  0.12500000000E+03  0.12500000000E+03 0.  0.
        -11    1    3    3    0    0  0.35475395902E+01  0.43975659709E+02 -0.34740673695E+01  0.44255088163E+02  0.51100000000E-03 0.  1.
         23    2    1    0    0    0 -0.28301344168E+02  0.33144768635E+01 -0.56498427728E+01  0.95950515290E+02  0.91447410146E+02 0.  0.
         11    1    3    3    0    0 -0.31848883758E+02 -0.40661182845E+02 -0.21757754033E+01  0.51695427127E+02  0.51100000000E-03 0. -1.
         22    1    1    0    0    0  0.28301344168E+02 -0.33144768635E+01  0.56498427728E+01  0.29049484710E+02  0.00000000000E+00 0. -1.
</event>
<event>
 5    1  0.6622912E-004  0.9118800E+02  0.7818608E-02  0.1130116E+00
         25   -1    0    0    0    0  0.00000000000E+00  0.00000000000E+00  0.99999998245E-14  0.12500000000E+03  0.12500000000E+03 0.  0.
        -11    1    3    3    0    0  0.36455194003E+02 -0.20462640830E+01  0.29792220336E+02  0.47124778613E+02  0.51100000000E-03 0.  1.
         23    2    1    0    0    0  0.43237797235E+01 -0.28790833842E+02  0.58380911775E+01  0.95306726468E+02  0.90563136082E+02 0.  0.
         11    1    3    3    0    0 -0.32131414279E+02 -0.26744569759E+02 -0.23954129159E+02  0.48181947856E+02  0.51100000000E-03 0. -1.
         22    1    1    0    0    0 -0.43237797235E+01  0.28790833842E+02 -0.58380911775E+01  0.29693273532E+02  0.00000000000E+00 0. -1.
</event>
<event>
 5    1  0.6622912E-004  0.9118800E+02  0.7818608E-02  0.1130116E+00
         25   -1    0    0    0    0  0.00000000000E+00  0.00000000000E+00  0.99999998245E-14  0.12500000000E+03  0.12500000000E+03 0.  0.
        -11    1    3    3    0    0 -0.19727609805E+02 -0.29612096636E+02  0.19878507398E+02  0.40757942937E+02  0.51100000000E-03 0. -1.
         23    2    1    0    0    0 -0.18323263101E+02  0.13181219765E+02 -0.16579548974E+02  0.96993429890E+02  0.92862034613E+02 0.  0.
         11    1    3    3    0    0  0.14043467047E+01  0.42793316401E+02 -0.36458056371E+02  0.56235486954E+02  0.51100000000E-03 0.  1.
         22    1    1    0    0    0  0.18323263101E+02 -0.13181219765E+02  0.16579548974E+02  0.28006570110E+02  0.00000000000E+00 0.  1.
</event>
<event>
 5    1  0.6622912E-004  0.9118800E+02  0.7818608E-02  0.1130116E+00
         25   -1    0    0    0    0  0.00000000000E+00  0.00000000000E+00  0.99999998245E-14  0.12500000000E+03  0.12500000000E+03 0.  0.
        -11    1    3    3    0    0  0.35492276790E+02  0.28639745403E+02 -0.22046582963E+02  0.50655587541E+02  0.51100000000E-03 0. -1.
         23    2    1    0    0    0  0.18967443698E+02 -0.12628145144E+02 -0.19204658451E+02  0.95199783954E+02  0.90415407915E+02 0.  0.
         11    1    3    3    0    0 -0.16524833092E+02 -0.41267890547E+02  0.28419245115E+01  0.44544196413E+02  0.51100000000E-03 0.  1.
         22    1    1    0    0    0 -0.18967443698E+02  0.12628145144E+02  0.19204658451E+02  0.29800216046E+02  0.00000000000E+00 0. -1.
</event>
<event>
 5    1  0.6622912E-004  0.9118800E+02  0.7818608E-02  0.1130116E+00
         25   -1    0    0    0    0  0.00000000000E+00  0.00000000000E+00  0.99999998245E-14  0.12500000000E+03  0.12500000000E+03 0.  0.
        -11    1    3    3    0    0 -0.10629650091E+02  0.52093691120E+01 -0.52850190989E+02  0.54159668347E+02  0.51100000000E-03 0.  1.
         23    2    1    0    0    0 -0.24758439381E+02  0.84400417354E+01 -0.14644458993E+02  0.95022094731E+02  0.90169416560E+02 0.  0.
         11    1    3    3    0    0 -0.14128789290E+02  0.32306726234E+01  0.38205731996E+02  0.40862426384E+02  0.51100000000E-03 0. -1.
         22    1    1    0    0    0  0.24758439381E+02 -0.84400417354E+01  0.14644458993E+02  0.29977905269E+02  0.00000000000E+00 0.  1.
</event>
<event>
 5    1  0.6622912E-004  0.9118800E+02  0.7818608E-02  0.1130116E+00
         25   -1    0    0    0    0  0.00000000000E+00  0.00000000000E+00  0.99999998245E-14  0.12500000000E+03  0.12500000000E+03 0.  0.
        -11    1    3    3    0    0 -0.44242791947E+02 -0.18770942530E+02 -0.16478556652E+02  0.50806650670E+02  0.51100000000E-03 0.  1.
         23    2    1    0    0    0 -0.25788696403E+02 -0.70900986537E-01  0.17556508277E+02  0.93802357910E+02  0.88462361925E+02 0.  0.
         11    1    3    3    0    0  0.18454095544E+02  0.18700041544E+02  0.34035064929E+02  0.42995707240E+02  0.51100000000E-03 0. -1.
         22    1    1    0    0    0  0.25788696403E+02  0.70900986537E-01 -0.17556508277E+02  0.31197642090E+02  0.00000000000E+00 0.  1.
</event>
<event>
 5    1  0.6622912E-004  0.9118800E+02  0.7818608E-02  0.1130116E+00
         25   -1    0    0    0    0  0.00000000000E+00  0.00000000000E+00  0.99999998245E-14  0.12500000000E+03  0.12500000000E+03 0.  0.
        -11    1    3    3    0    0  0.47128678006E+01 -0.20857361499E+02 -0.52659836740E+02  0.56835719907E+02  0.51100000000E-03 0.  1.
         23    2    1    0    0    0 -0.11610717778E+02  0.28631213676E+01 -0.27261416273E+02  0.95231038841E+02  0.90458607717E+02 0.  0.
         11    1    3    3    0    0 -0.16323585578E+02  0.23720482867E+02  0.25398420466E+02  0.38395318934E+02  0.51100000000E-03 0. -1.
         22    1    1    0    0    0  0.11610717778E+02 -0.28631213676E+01  0.27261416273E+02  0.29768961159E+02  0.00000000000E+00 0.  1.
</event>
<event>
 5    1  0.6622912E-004  0.9118800E+02  0.7818608E-02  0.1130116E+00
         25   -1    0    0    0    0  0.00000000000E+00  0.00000000000E+00  0.99999998245E-14  0.12500000000E+03  0.12500000000E+03 0.  0.
        -11    1    3    3    0    0  0.18171621227E+02  0.22198904795E+02  0.30086915292E+02  0.41571885502E+02  0.51100000000E-03 0. -1.
         23    2    1    0    0    0  0.21448540142E+02 -0.77119228079E+01 -0.16381025687E+02  0.96931305158E+02  0.92778371884E+02 0.  0.
         11    1    3    3    0    0  0.32769189143E+01 -0.29910827603E+02 -0.46467940979E+02  0.55359419655E+02  0.51100000000E-03 0.  1.
         22    1    1    0    0    0 -0.21448540142E+02  0.77119228079E+01  0.16381025687E+02  0.28068694842E+02  0.00000000000E+00 0.  1.
</event>
<event>
 5    1  0.6622912E-004  0.9118800E+02  0.7818608E-02  0.1130116E+00
         25   -1    0    0    0    0  0.00000000000E+00  0.00000000000E+00  0.99999998245E-14  0.12500000000E+03  0.12500000000E+03 0.  0.
        -11    1    3    3    0    0 -0.28793117694E+02  0.13102398752E+01  0.48882400937E+02  0.56747242019E+02  0.51100000000E-03 0. -1.
         23    2    1    0    0    0  0.57609897060E+01 -0.13370102600E+00  0.26357262043E+02  0.98020153063E+02  0.94233954951E+02 0.  0.
         11    1    3    3    0    0  0.34554107400E+02 -0.14439409012E+01 -0.22525138895E+02  0.41272911044E+02  0.51100000000E-03 0.  1.
         22    1    1    0    0    0 -0.57609897060E+01  0.13370102600E+00 -0.26357262043E+02  0.26979846937E+02  0.00000000000E+00 0. -1.
</event>
<event>
 5    1  0.6622912E-004  0.9118800E+02  0.7818608E-02  0.1130116E+00
         25   -1    0    0    0    0  0.00000000000E+00  0.00000000000E+00  0.99999998245E-14  0.12500000000E+03  0.12500000000E+03 0.  0.
        -11    1    3    3    0    0  0.97276328441E+01  0.36979112454E+02  0.35926182238E+02  0.52466867346E+02  0.51100000000E-03 0.  1.
         23    2    1    0    0    0  0.30508606427E+01  0.28925500945E+02 -0.56770323181E+01  0.95365205391E+02  0.90643815827E+02 0.  0.
         11    1    3    3    0    0 -0.66767722015E+01 -0.80536115090E+01 -0.41603214556E+02  0.42898338045E+02  0.51100000000E-03 0. -1.
         22    1    1    0    0    0 -0.30508606427E+01 -0.28925500945E+02  0.56770323181E+01  0.29634794609E+02  0.00000000000E+00 0.  1.
</event>
<event>
 5    1  0.6622912E-004  0.9118800E+02  0.7818608E-02  0.1130116E+00
         25   -1    0    0    0    0  0.00000000000E+00  0.00000000000E+00  0.99999998245E-14  0.12500000000E+03  0.12500000000E+03 0.  0.
        -11    1    3    3    0    0 -0.94185364435E+01  0.44849892064E+02 -0.40245218224E+02  0.60990976686E+02  0.51100000000E-03 0. -1.
         23    2    1    0    0    0  0.18741174855E+01  0.25413716708E+02 -0.12749514209E+02  0.96505800137E+02  0.92203308152E+02 0.  0.
         11    1    3    3    0    0  0.11292653929E+02 -0.19436175356E+02  0.27495704015E+02  0.35514823451E+02  0.51100000000E-03 0.  1.
         22    1    1    0    0    0 -0.18741174855E+01 -0.25413716708E+02  0.12749514209E+02  0.28494199863E+02  0.00000000000E+00 0. -1.
</event>
<event>
 5    1  0.6622912E-004  0.9118800E+02  0.7818608E-02  0.1130116E+00
         25   -1    0    0    0    0  0.00000000000E+00  0.00000000000E+00  0.99999998245E-14  0.12500000000E+03  0.12500000000E+03 0.  0.
        -11    1    3    3    0    0  0.25112592094E+02 -0.44298758134E+02 -0.17801298468E+01  0.50952832271E+02  0.51100000000E-03 0.  1.
         23    2    1    0    0    0  0.32333837977E+02 -0.35571744167E+01  0.13104498962E+01  0.92444695561E+02  0.86522678474E+02 0.  0.
         11    1    3    3    0    0  0.72212458831E+01  0.40741583717E+02  0.30905797430E+01  0.41491863290E+02  0.51100000000E-03 0. -1.
         22    1    1    0    0    0 -0.32333837977E+02  0.35571744167E+01 -0.13104498962E+01  0.32555304439E+02  0.00000000000E+00 0.  1.
</event>
<event>
 5    1  0.6622912E-004  0.9118800E+02  0.7818608E-02  0.1130116E+00
         25   -1    0    0    0    0  0.00000000000E+00  0.00000000000E+00  0.99999998245E-14  0.12500000000E+03  0.12500000000E+03 0.  0.
        -11    1    3    3    0    0  0.40504127197E+02  0.26672418929E+02 -0.22969339815E+02  0.53661837681E+02  0.51100000000E-03 0.  1.
         23    2    1    0    0    0  0.22142272988E+02  0.14639350173E+02  0.12722196169E+02  0.95564560443E+02  0.90918315596E+02 0.  0.
         11    1    3    3    0    0 -0.18361854210E+02 -0.12033068755E+02  0.35691535984E+02  0.41902722762E+02  0.51100000000E-03 0. -1.
         22    1    1    0    0    0 -0.22142272988E+02 -0.14639350173E+02 -0.12722196169E+02  0.29435439557E+02  0.00000000000E+00 0.  1.
</event>
<event>
 5    1  0.6622912E-004  0.9118800E+02  0.7818608E-02  0.1130116E+00
         25   -1    0    0    0    0  0.00000000000E+00  0.00000000000E+00  0.99999998245E-14  0.12500000000E+03  0.12500000000E+03 0.  0.
        -11    1    3    3    0    0  0.24876929005E+02  0.46877231434E+02 -0.70834522700E+01  0.53539814344E+02  0.51100000000E-03 0.  1.
         23    2    1    0    0    0  0.21360557217E+02  0.12321642734E+02  0.16325763394E+02  0.95425909403E+02  0.90727489498E+02 0.  0.
         11    1    3    3    0    0 -0.35163717883E+01 -0.34555588701E+02  0.23409215664E+02  0.41886095059E+02  0.51100000000E-03 0. -1.
         22    1    1    0    0    0 -0.21360557217E+02 -0.12321642734E+02 -0.16325763394E+02  0.29574090597E+02  0.00000000000E+00 0.  1.
</event>
<event>
 5    1  0.6622912E-004  0.9118800E+02  0.7818608E-02  0.1130116E+00
         25   -1    0    0    0    0  0.00000000000E+00  0.00000000000E+00  0.99999998245E-14  0.12500000000E+03  0.12500000000E+03 0.  0.
        -11    1    3    3    0    0 -0.36723311108E+02 -0.30218102603E+02  0.16034655793E+02  0.50188101083E+02  0.51100000000E-03 0.  1.
         23    2    1    0    0    0  0.11003553135E+01 -0.24634805339E+02 -0.11977979234E+02  0.97585470960E+02  0.93655580400E+02 0.  0.
         11    1    3    3    0    0  0.37823666421E+02  0.55832972640E+01 -0.28012635027E+02  0.47397369877E+02  0.51100000000E-03 0. -1.
         22    1    1    0    0    0 -0.11003553135E+01  0.24634805339E+02  0.11977979234E+02  0.27414529040E+02  0.00000000000E+00 0.  1.
</event>
<event>
 5    1  0.6622912E-004  0.9118800E+02  0.7818608E-02  0.1130116E+00
         25   -1    0    0    0    0  0.00000000000E+00  0.00000000000E+00  0.99999998245E-14  0.12500000000E+03  0.12500000000E+03 0.  0.
        -11    1    3    3    0    0 -0.49398240164E+02  0.17753178877E+02 -0.14184838134E+02  0.54374360913E+02  0.51100000000E-03 0. -1.
         23    2    1    0    0    0 -0.72121844616E+01  0.16127274227E+02 -0.21449023853E+02  0.97212139288E+02  0.93155970404E+02 0.  0.
         11    1    3    3    0    0  0.42186055702E+02 -0.16259046502E+01 -0.72641857193E+01  0.42837778375E+02  0.51100000000E-03 0.  1.
         22    1    1    0    0    0  0.72121844616E+01 -0.16127274227E+02  0.21449023853E+02  0.27787860712E+02  0.00000000000E+00 0. -1.
</event>
<event>
 5    1  0.6622912E-004  0.9118800E+02  0.7818608E-02  0.1130116E+00
         25   -1    0    0    0    0  0.00000000000E+00  0.00000000000E+00  0.99999998245E-14  0.12500000000E+03  0.12500000000E+03 0.  0.
        -11    1    3    3    0    0  0.79729826885E+01  0.33471968745E+02  0.19387806107E+02  0.39494660026E+02  0.51100000000E-03 0. -1.
         23    2    1    0    0    0 -0.69742391252E+01  0.15982421852E+02 -0.27909559762E+02  0.92090710343E+02  0.86009752852E+02 0.  0.
         11    1    3    3    0    0 -0.14947221814E+02 -0.17489546893E+02 -0.47297365870E+02  0.52596050317E+02  0.51100000000E-03 0.  1.
         22    1    1    0    0    0  0.69742391252E+01 -0.15982421852E+02  0.27909559762E+02  0.32909289657E+02  0.00000000000E+00 0. -1.
</event>
<event>
 5    1  0.6622912E-004  0.9118800E+02  0.7818608E-02  0.1130116E+00
         25   -1    0    0    0    0  0.00000000000E+00  0.00000000000E+00  0.99999998245E-14  0.12500000000E+03  0.12500000000E+03 0.  0.
        -11    1    3    3    0    0 -0.40550970045E+02 -0.77910745402E+01 -0.97465764140E+01  0.42427323344E+02  0.51100000000E-03 0. -1.
         23    2    1    0    0    0  0.76290194772E+01 -0.23890826018E+02  0.11399335803E+02  0.97451527034E+02  0.93476637501E+02 0.  0.
         11    1    3    3    0    0  0.48179989522E+02 -0.16099751477E+02  0.21145912217E+02  0.55024203690E+02  0.51100000000E-03 0.  1.
         22    1    1    0    0    0 -0.76290194772E+01  0.23890826018E+02 -0.11399335803E+02  0.27548472966E+02  0.00000000000E+00 0.  1.
</event>
<event>
 5    1  0.6622912E-004  0.9118800E+02  0.7818608E-02  0.1130116E+00
         25   -1    0    0    0    0  0.00000000000E+00  0.00000000000E+00  0.99999998245E-14  0.12500000000E+03  0.12500000000E+03 0.  0.
        -11    1    3    3    0    0 -0.27829998738E+02  0.18120285732E+02  0.25331659054E+02  0.41767769099E+02  0.51100000000E-03 0.  1.
         23    2    1    0    0    0  0.14925377476E+02 -0.14343415895E+02  0.20820229553E+02  0.95640462691E+02  0.91022610778E+02 0.  0.
         11    1    3    3    0    0  0.42755376214E+02 -0.32463701627E+02 -0.45114295005E+01  0.53872693593E+02  0.51100000000E-03 0. -1.
         22    1    1    0    0    0 -0.14925377476E+02  0.14343415895E+02 -0.20820229553E+02  0.29359537309E+02  0.00000000000E+00 0. -1.
</event>
<event>
 5    1  0.6622912E-004  0.9118800E+02  0.7818608E-02  0.1130116E+00
         25   -1    0    0    0    0  0.00000000000E+00  0.00000000000E+00  0.99999998245E-14  0.12500000000E+03  0.12500000000E+03 0.  0.
        -11    1    3    3    0    0 -0.27608010751E+02  0.45613526468E+02  0.27712145228E+02  0.60089591843E+02  0.51100000000E-03 0.  1.
         23    2    1    0    0    0 -0.12616700528E+02  0.13128914175E+02  0.22198626424E+02  0.96288877857E+02  0.91908756189E+02 0.  0.
         11    1    3    3    0    0  0.14991310224E+02 -0.32484612293E+02 -0.55135188038E+01  0.36199286014E+02  0.51100000000E-03 0. -1.
         22    1    1    0    0    0  0.12616700528E+02 -0.13128914175E+02 -0.22198626424E+02  0.28711122143E+02  0.00000000000E+00 0.  1.
</event>
<event>
 5    1  0.6622912E-004  0.9118800E+02  0.7818608E-02  0.1130116E+00
         25   -1    0    0    0    0  0.00000000000E+00  0.00000000000E+00  0.99999998245E-14  0.12500000000E+03  0.12500000000E+03 0.  0.
        -11    1    3    3    0    0  0.83820178031E+01 -0.28653861506E+02 -0.17469408447E+02  0.34590204298E+02  0.51100000000E-03 0.  1.
         23    2    1    0    0    0  0.90701528961E+01  0.20401508693E+02  0.18969773085E+02  0.95702533874E+02  0.91107812335E+02 0.  0.
         11    1    3    3    0    0  0.68813509299E+00  0.49055370199E+02  0.36439181531E+02  0.61112329576E+02  0.51100000000E-03 0. -1.
         22    1    1    0    0    0 -0.90701528961E+01 -0.20401508693E+02 -0.18969773085E+02  0.29297466126E+02  0.00000000000E+00 0. -1.
</event>
<event>
 5    1  0.6622912E-004  0.9118800E+02  0.7818608E-02  0.1130116E+00
         25   -1    0    0    0    0  0.00000000000E+00  0.00000000000E+00  0.99999998245E-14  0.12500000000E+03  0.12500000000E+03 0.  0.
        -11    1    3    3    0    0 -0.14674565417E+01  0.10287785959E+02  0.21056912712E+02  0.23481600071E+02  0.51100000000E-03 0. -1.
         23    2    1    0    0    0  0.44124090621E+02 -0.15264800175E+02  0.56483224206E+01  0.77969658266E+02  0.62188540475E+02 0.  0.
         11    1    3    3    0    0  0.45591547162E+02 -0.25552586134E+02 -0.15408590292E+02  0.54488058195E+02  0.51100000000E-03 0.  1.
         22    1    1    0    0    0 -0.44124090621E+02  0.15264800175E+02 -0.56483224206E+01  0.47030341734E+02  0.00000000000E+00 0.  1.
</event>
<event>
 5    1  0.6622912E-004  0.9118800E+02  0.7818608E-02  0.1130116E+00
         25   -1    0    0    0    0  0.00000000000E+00  0.00000000000E+00  0.99999998245E-14  0.12500000000E+03  0.12500000000E+03 0.  0.
        -11    1    3    3    0    0  0.87408690182E+01 -0.66017570813E+01  0.45638305664E+02  0.46934432263E+02  0.51100000000E-03 0. -1.
         23    2    1    0    0    0  0.23812795956E+02 -0.17726122955E+02  0.10529701477E+01  0.95295228794E+02  0.90547264997E+02 0.  0.
         11    1    3    3    0    0  0.15071926938E+02 -0.11124365874E+02 -0.44585335516E+02  0.48360796531E+02  0.51100000000E-03 0.  1.
         22    1    1    0    0    0 -0.23812795956E+02  0.17726122955E+02 -0.10529701477E+01  0.29704771206E+02  0.00000000000E+00 0.  1.
</event>
<event>
 5    1  0.6622912E-004  0.9118800E+02  0.7818608E-02  0.1130116E+00
         25   -1    0    0    0    0  0.00000000000E+00  0.00000000000E+00  0.99999998245E-14  0.12500000000E+03  0.12500000000E+03 0.  0.
        -11    1    3    3    0    0 -0.29372687816E+02  0.26678069400E+02 -0.37951641997E+02  0.54907206330E+02  0.51100000000E-03 0.  1.
         23    2    1    0    0    0 -0.96318725609E+01 -0.66726005817E+01 -0.27591907787E+02  0.95023176571E+02  0.90170916280E+02 0.  0.
         11    1    3    3    0    0  0.19740815255E+02 -0.33350669982E+02  0.10359734210E+02  0.40115970241E+02  0.51100000000E-03 0. -1.
         22    1    1    0    0    0  0.96318725609E+01  0.66726005817E+01  0.27591907787E+02  0.29976823429E+02  0.00000000000E+00 0.  1.
</event>
<event>
 5    1  0.6622912E-004  0.9118800E+02  0.7818608E-02  0.1130116E+00
         25   -1    0    0    0    0  0.00000000000E+00  0.00000000000E+00  0.99999998245E-14  0.12500000000E+03  0.12500000000E+03 0.  0.
        -11    1    3    3    0    0  0.32355780435E+02  0.16143569988E+02  0.73954472741E+01  0.36908048176E+02  0.51100000000E-03 0. -1.
         23    2    1    0    0    0 -0.26496395688E+02  0.10405570991E+02  0.50747942655E+01  0.96084806262E+02  0.91630789396E+02 0.  0.
         11    1    3    3    0    0 -0.58852176123E+02 -0.57379989970E+01 -0.23206530086E+01  0.59176758086E+02  0.51100000000E-03 0.  1.
         22    1    1    0    0    0  0.26496395688E+02 -0.10405570991E+02 -0.50747942655E+01  0.28915193738E+02  0.00000000000E+00 0.  1.
</event>
<event>
 5    1  0.6622912E-004  0.9118800E+02  0.7818608E-02  0.1130116E+00
         25   -1    0    0    0    0  0.00000000000E+00  0.00000000000E+00  0.99999998245E-14  0.12500000000E+03  0.12500000000E+03 0.  0.
        -11    1    3    3    0    0  0.28211777118E+02 -0.43267960049E+02 -0.15052077822E+02  0.53801354835E+02  0.51100000000E-03 0.  1.
         23    2    1    0    0    0  0.20311429513E+02 -0.14954459345E+02  0.14848401535E+02  0.95731159037E+02  0.91147077623E+02 0.  0.
         11    1    3    3    0    0 -0.79003476054E+01  0.28313500704E+02  0.29900479357E+02  0.41929804202E+02  0.51100000000E-03 0. -1.
         22    1    1    0    0    0 -0.20311429513E+02  0.14954459345E+02 -0.14848401535E+02  0.29268840963E+02  0.00000000000E+00 0.  1.
</event>
<event>
 5    1  0.6622912E-004  0.9118800E+02  0.7818608E-02  0.1130116E+00
         25   -1    0    0    0    0  0.00000000000E+00  0.00000000000E+00  0.99999998245E-14  0.12500000000E+03  0.12500000000E+03 0.  0.
        -11    1    3    3    0    0  0.19477787137E+02  0.94658035645E+01 -0.31607790605E+02  0.38314984746E+02  0.51100000000E-03 0.  1.
         23    2    1    0    0    0 -0.10202344378E+02 -0.16409090131E+02  0.15869881242E+02  0.99996016310E+02  0.96819440597E+02 0.  0.
         11    1    3    3    0    0 -0.29680131515E+02 -0.25874893696E+02  0.47477671847E+02  0.61681031564E+02  0.51100000000E-03 0. -1.
         22    1    1    0    0    0  0.10202344378E+02  0.16409090131E+02 -0.15869881242E+02  0.25003983690E+02  0.00000000000E+00 0. -1.
</event>
<event>
 5    1  0.6622912E-004  0.9118800E+02  0.7818608E-02  0.1130116E+00
         25   -1    0    0    0    0  0.00000000000E+00  0.00000000000E+00  0.99999998245E-14  0.12500000000E+03  0.12500000000E+03 0.  0.
        -11    1    3    3    0    0 -0.31676021461E+02 -0.31398304078E+01 -0.34919770381E+02  0.47250600359E+02  0.51100000000E-03 0.  1.
         23    2    1    0    0    0 -0.63413437309E+01  0.24687064644E+02  0.12959581580E+01  0.99478571580E+02  0.96149066012E+02 0.  0.
         11    1    3    3    0    0  0.25334677730E+02  0.27826895052E+02  0.36215728539E+02  0.52227971220E+02  0.51100000000E-03 0. -1.
         22    1    1    0    0    0  0.63413437309E+01 -0.24687064644E+02 -0.12959581580E+01  0.25521428420E+02  0.00000000000E+00 0. -1.
</event>
<event>
 4    1  0.6622912E-004  0.9118800E+02  0.7818608E-02  0.1130116E+00
         25   -1    0    0    0    0  0.00000000000E+00  0.00000000000E+00  0.99999998245E-14  0.12500000000E+03  0.12500000000E+03 0.  0.
        -11    1    1    0    0    0  0.10671915304E+02  0.52350871962E+01 -0.58591977410E+01  0.13252400260E+02  0.51100000000E-03 0. -1.
         11    1    1    0    0    0 -0.34126715141E+02 -0.22243496734E+02 -0.40266011082E+02  0.57277896975E+02  0.51100000000E-03 0.  1.
         22    1    1    0    0    0  0.23454799836E+02  0.17008409538E+02  0.46125208823E+02  0.54469702765E+02  0.00000000000E+00 0.  1.
</event>
<event>
 5    1  0.6622912E-004  0.9118800E+02  0.7818608E-02  0.1130116E+00
         25   -1    0    0    0    0  0.00000000000E+00  0.00000000000E+00  0.99999998245E-14  0.12500000000E+03  0.12500000000E+03 0.  0.
        -11    1    3    3    0    0 -0.85458700040E+01 -0.32221023944E+02  0.55109196682E+01  0.33787520092E+02  0.51100000000E-03 0. -1.
         23    2    1    0    0    0 -0.52400759059E+01  0.28844465273E+02 -0.29937889458E+01  0.95530959557E+02  0.90872107322E+02 0.  0.
         11    1    3    3    0    0  0.33057940981E+01  0.61065489218E+02 -0.85047086139E+01  0.61743439464E+02  0.51100000000E-03 0.  1.
         22    1    1    0    0    0  0.52400759059E+01 -0.28844465273E+02  0.29937889458E+01  0.29469040443E+02  0.00000000000E+00 0.  1.
</event>
<event>
 5    1  0.6622912E-004  0.9118800E+02  0.7818608E-02  0.1130116E+00
         25   -1    0    0    0    0  0.00000000000E+00  0.00000000000E+00  0.99999998245E-14  0.12500000000E+03  0.12500000000E+03 0.  0.
        -11    1    3    3    0    0  0.29906313463E+02 -0.30714433780E+02  0.15764776150E+02  0.45675947661E+02  0.51100000000E-03 0.  1.
         23    2    1    0    0    0  0.29298668474E+02  0.14060195327E+02  0.10923008037E+02  0.90715700801E+02  0.83987649093E+02 0.  0.
         11    1    3    3    0    0 -0.60764498904E+00  0.44774629108E+02 -0.48417681135E+01  0.45039753140E+02  0.51100000000E-03 0. -1.
         22    1    1    0    0    0 -0.29298668474E+02 -0.14060195327E+02 -0.10923008037E+02  0.34284299199E+02  0.00000000000E+00 0.  1.
</event>
<event>
 5    1  0.6622912E-004  0.9118800E+02  0.7818608E-02  0.1130116E+00
         25   -1    0    0    0    0  0.00000000000E+00  0.00000000000E+00  0.99999998245E-14  0.12500000000E+03  0.12500000000E+03 0.  0.
        -11    1    3    3    0    0  0.13923946510E+02 -0.16060966201E+02  0.56227185918E+02  0.60110958720E+02  0.51100000000E-03 0.  1.
         23    2    1    0    0    0  0.53681547866E+01 -0.19967820033E+02  0.25925385483E+02  0.91838930428E+02  0.85643053467E+02 0.  0.
         11    1    3    3    0    0 -0.85557917230E+01 -0.39068538315E+01 -0.30301800435E+02  0.31727971708E+02  0.51100000000E-03 0. -1.
         22    1    1    0    0    0 -0.53681547866E+01  0.19967820033E+02 -0.25925385483E+02  0.33161069572E+02  0.00000000000E+00 0.  1.
</event>
<event>
 5    1  0.6622912E-004  0.9118800E+02  0.7818608E-02  0.1130116E+00
         25   -1    0    0    0    0  0.00000000000E+00  0.00000000000E+00  0.99999998245E-14  0.12500000000E+03  0.12500000000E+03 0.  0.
        -11    1    3    3    0    0 -0.26231736635E+01 -0.39569692126E+02 -0.90367255629E+01  0.40673135903E+02  0.51100000000E-03 0.  1.
         23    2    1    0    0    0 -0.21354259397E+02  0.42670555033E+01  0.19105022060E+02  0.96030809038E+02  0.91557098357E+02 0.  0.
         11    1    3    3    0    0 -0.18731085733E+02  0.43836747629E+02  0.28141747623E+02  0.55357673136E+02  0.51100000000E-03 0. -1.
         22    1    1    0    0    0  0.21354259397E+02 -0.42670555033E+01 -0.19105022060E+02  0.28969190962E+02  0.00000000000E+00 0. -1.
</event>
<event>
 5    1  0.6622912E-004  0.9118800E+02  0.7818608E-02  0.1130116E+00
         25   -1    0    0    0    0  0.00000000000E+00  0.00000000000E+00  0.99999998245E-14  0.12500000000E+03  0.12500000000E+03 0.  0.
        -11    1    3    3    0    0  0.16911357490E+02  0.26655728550E+02  0.53865854787E+02  0.62434383066E+02  0.51100000000E-03 0.  1.
         23    2    1    0    0    0  0.69837795750E+01  0.12195610941E+02  0.27758356788E+02  0.93886779740E+02  0.88581572209E+02 0.  0.
         11    1    3    3    0    0 -0.99275779148E+01 -0.14460117608E+02 -0.26107497999E+02  0.31452396674E+02  0.51100000000E-03 0. -1.
         22    1    1    0    0    0 -0.69837795750E+01 -0.12195610941E+02 -0.27758356788E+02  0.31113220260E+02  0.00000000000E+00 0.  1.
</event>
<event>
 5    1  0.6622912E-004  0.9118800E+02  0.7818608E-02  0.1130116E+00
         25   -1    0    0    0    0  0.00000000000E+00  0.00000000000E+00  0.99999998245E-14  0.12500000000E+03  0.12500000000E+03 0.  0.
        -11    1    3    3    0    0 -0.24327539767E+02 -0.26431819751E+02  0.14462349080E+02  0.38725054262E+02  0.51100000000E-03 0.  1.
         23    2    1    0    0    0  0.27346474320E+02 -0.12997603637E+02 -0.21610478031E+01  0.94644811224E+02  0.89644870494E+02 0.  0.
         11    1    3    3    0    0  0.51674014087E+02  0.13434216114E+02 -0.16623396883E+02  0.55919756961E+02  0.51100000000E-03 0. -1.
         22    1    1    0    0    0 -0.27346474320E+02  0.12997603637E+02  0.21610478031E+01  0.30355188776E+02  0.00000000000E+00 0. -1.
</event>
<event>
 5    1  0.6622912E-004  0.9118800E+02  0.7818608E-02  0.1130116E+00
         25   -1    0    0    0    0  0.00000000000E+00  0.00000000000E+00  0.99999998245E-14  0.12500000000E+03  0.12500000000E+03 0.  0.
        -11    1    3    3    0    0 -0.10562810362E+02 -0.96458041858E+01 -0.40053155696E+02  0.42530809804E+02  0.51100000000E-03 0. -1.
         23    2    1    0    0    0  0.15789101950E+02  0.23845578486E+02 -0.98977107858E+01  0.94736622255E+02  0.89772799688E+02 0.  0.
         11    1    3    3    0    0  0.26351912312E+02  0.33491382672E+02  0.30155444910E+02  0.52205812451E+02  0.51100000000E-03 0.  1.
         22    1    1    0    0    0 -0.15789101950E+02 -0.23845578486E+02  0.98977107858E+01  0.30263377745E+02  0.00000000000E+00 0.  1.
</event>
<event>
 5    1  0.6622912E-004  0.9118800E+02  0.7818608E-02  0.1130116E+00
         25   -1    0    0    0    0  0.00000000000E+00  0.00000000000E+00  0.99999998245E-14  0.12500000000E+03  0.12500000000E+03 0.  0.
        -11    1    3    3    0    0 -0.67889660592E+01 -0.53385922438E+02 -0.21705547549E+02  0.58028248030E+02  0.51100000000E-03 0.  1.
         23    2    1    0    0    0 -0.71575356029E+01 -0.26131483656E+02  0.63792495556E+01  0.97165137348E+02  0.93092880163E+02 0.  0.
         11    1    3    3    0    0 -0.36856954367E+00  0.27254438783E+02  0.28084797105E+02  0.39136889319E+02  0.51100000000E-03 0. -1.
         22    1    1    0    0    0  0.71575356029E+01  0.26131483656E+02 -0.63792495556E+01  0.27834862652E+02  0.00000000000E+00 0.  1.
</event>
<event>
 5    1  0.6622912E-004  0.9118800E+02  0.7818608E-02  0.1130116E+00
         25   -1    0    0    0    0  0.00000000000E+00  0.00000000000E+00  0.99999998245E-14  0.12500000000E+03  0.12500000000E+03 0.  0.
        -11    1    3    3    0    0 -0.32752440737E+02 -0.19730933692E+02 -0.22875655196E+02  0.44557016501E+02  0.51100000000E-03 0.  1.
         23    2    1    0    0    0 -0.21909399793E+02  0.59371711465E+01  0.19366473035E+02  0.95161567093E+02  0.90362557363E+02 0.  0.
         11    1    3    3    0    0  0.10843040944E+02  0.25668104838E+02  0.42242128231E+02  0.50604550592E+02  0.51100000000E-03 0. -1.
         22    1    1    0    0    0  0.21909399793E+02 -0.59371711465E+01 -0.19366473035E+02  0.29838432907E+02  0.00000000000E+00 0. -1.
</event>
<event>
 5    1  0.6622912E-004  0.9118800E+02  0.7818608E-02  0.1130116E+00
         25   -1    0    0    0    0  0.00000000000E+00  0.00000000000E+00  0.99999998245E-14  0.12500000000E+03  0.12500000000E+03 0.  0.
        -11    1    3    3    0    0 -0.14215618584E+02  0.50543701231E+01  0.43498555895E+02  0.46040795326E+02  0.51100000000E-03 0. -1.
         23    2    1    0    0    0 -0.70057944566E+01  0.28544860946E+02  0.45470102934E+00  0.95604473207E+02  0.90973173528E+02 0.  0.
         11    1    3    3    0    0  0.72098241273E+01  0.23490490823E+02 -0.43043854866E+02  0.49563677880E+02  0.51100000000E-03 0.  1.
         22    1    1    0    0    0  0.70057944566E+01 -0.28544860946E+02 -0.45470102934E+00  0.29395526793E+02  0.00000000000E+00 0.  1.
</event>
<event>
 5    1  0.6622912E-004  0.9118800E+02  0.7818608E-02  0.1130116E+00
         25   -1    0    0    0    0  0.00000000000E+00  0.00000000000E+00  0.99999998245E-14  0.12500000000E+03  0.12500000000E+03 0.  0.
        -11    1    3    3    0    0 -0.23767524982E+02  0.22350265707E+02 -0.27355187672E+02  0.42576236492E+02  0.51100000000E-03 0.  1.
         23    2    1    0    0    0  0.15105384200E+02 -0.13377758933E+02 -0.21201923293E+02  0.95731268951E+02  0.91147228361E+02 0.  0.
         11    1    3    3    0    0  0.38872909183E+02 -0.35728024640E+02  0.61532643796E+01  0.53155032459E+02  0.51100000000E-03 0. -1.
         22    1    1    0    0    0 -0.15105384200E+02  0.13377758933E+02  0.21201923293E+02  0.29268731049E+02  0.00000000000E+00 0. -1.
</event>
<event>
 5    1  0.6622912E-004  0.9118800E+02  0.7818608E-02  0.1130116E+00
         25   -1    0    0    0    0  0.00000000000E+00  0.00000000000E+00  0.99999998245E-14  0.12500000000E+03  0.12500000000E+03 0.  0.
        -11    1    3    3    0    0 -0.19607243836E+02 -0.28994672916E+02 -0.42160427984E+01  0.35254929946E+02  0.51100000000E-03 0. -1.
         23    2    1    0    0    0 -0.43966624998E+01  0.29140594489E+02  0.43000486757E+00  0.95526456058E+02  0.90865912281E+02 0.  0.
         11    1    3    3    0    0  0.15210581336E+02  0.58135267405E+02  0.46460476660E+01  0.60271526113E+02  0.51100000000E-03 0.  1.
         22    1    1    0    0    0  0.43966624998E+01 -0.29140594489E+02 -0.43000486757E+00  0.29473543942E+02  0.00000000000E+00 0.  1.
</event>
<event>
 5    1  0.6622912E-004  0.9118800E+02  0.7818608E-02  0.1130116E+00
         25   -1    0    0    0    0  0.00000000000E+00  0.00000000000E+00  0.99999998245E-14  0.12500000000E+03  0.12500000000E+03 0.  0.
        -11    1    3    3    0    0 -0.69126911456E+00 -0.13404893026E+02 -0.38951286489E+02  0.41199171466E+02  0.51100000000E-03 0. -1.
         23    2    1    0    0    0  0.13020228479E+02  0.25890107651E+02 -0.36145894725E+01  0.95795731804E+02  0.91235590374E+02 0.  0.
         11    1    3    3    0    0  0.13711497593E+02  0.39295000677E+02  0.35336697017E+02  0.54596560338E+02  0.51100000000E-03 0.  1.
         22    1    1    0    0    0 -0.13020228479E+02 -0.25890107651E+02  0.36145894725E+01  0.29204268196E+02  0.00000000000E+00 0.  1.
</event>
<event>
 5    1  0.6622912E-004  0.9118800E+02  0.7818608E-02  0.1130116E+00
         25   -1    0    0    0    0  0.00000000000E+00  0.00000000000E+00  0.99999998245E-14  0.12500000000E+03  0.12500000000E+03 0.  0.
        -11    1    3    3    0    0 -0.47925629131E+02 -0.78994787649E+01  0.19932753363E+02  0.52503165136E+02  0.51100000000E-03 0. -1.
         23    2    1    0    0    0 -0.75336864737E+01 -0.65461675901E+01  0.29349183502E+02  0.94000269126E+02  0.88741575834E+02 0.  0.
         11    1    3    3    0    0  0.40391942657E+02  0.13533111748E+01  0.94164301386E+01  0.41497103990E+02  0.51100000000E-03 0.  1.
         22    1    1    0    0    0  0.75336864737E+01  0.65461675901E+01 -0.29349183502E+02  0.30999730874E+02  0.00000000000E+00 0. -1.
</event>
<event>
 5    1  0.6622912E-004  0.9118800E+02  0.7818608E-02  0.1130116E+00
         25   -1    0    0    0    0  0.00000000000E+00  0.00000000000E+00  0.99999998245E-14  0.12500000000E+03  0.12500000000E+03 0.  0.
        -11    1    3    3    0    0 -0.21915875676E+02  0.16702806674E+02  0.30114672962E+02  0.40818903529E+02  0.51100000000E-03 0.  1.
         23    2    1    0    0    0  0.10860333901E+02  0.18501072352E+02 -0.16572788204E+02  0.97891074542E+02  0.94062578295E+02 0.  0.
         11    1    3    3    0    0  0.32776209577E+02  0.17982656781E+01 -0.46687461166E+02  0.57072171013E+02  0.51100000000E-03 0. -1.
         22    1    1    0    0    0 -0.10860333901E+02 -0.18501072352E+02  0.16572788204E+02  0.27108925458E+02  0.00000000000E+00 0. -1.
</event>
<event>
 5    1  0.6622912E-004  0.9118800E+02  0.7818608E-02  0.1130116E+00
         25   -1    0    0    0    0  0.00000000000E+00  0.00000000000E+00  0.99999998245E-14  0.12500000000E+03  0.12500000000E+03 0.  0.
        -11    1    3    3    0    0  0.12002071532E+02 -0.36250515884E+02 -0.17328513745E+02  0.41933602418E+02  0.51100000000E-03 0. -1.
         23    2    1    0    0    0  0.15848931718E+02  0.42051825781E+01  0.21379506800E+02  0.98056438466E+02  0.94282074736E+02 0.  0.
         11    1    3    3    0    0  0.38468601860E+01  0.40455698462E+02  0.38708020545E+02  0.56122836048E+02  0.51100000000E-03 0.  1.
         22    1    1    0    0    0 -0.15848931718E+02 -0.42051825781E+01 -0.21379506800E+02  0.26943561534E+02  0.00000000000E+00 0.  1.
</event>
<event>
 5    1  0.6622912E-004  0.9118800E+02  0.7818608E-02  0.1130116E+00
         25   -1    0    0    0    0  0.00000000000E+00  0.00000000000E+00  0.99999998245E-14  0.12500000000E+03  0.12500000000E+03 0.  0.
        -11    1    3    3    0    0 -0.10010536108E+02 -0.33330059131E+02  0.22602932956E+01  0.34874239790E+02  0.51100000000E-03 0.  1.
         23    2    1    0    0    0 -0.13385661998E+01  0.28022823019E+02 -0.10528379551E+01  0.96925477080E+02  0.92770519401E+02 0.  0.
         11    1    3    3    0    0  0.86719699085E+01  0.61352882151E+02 -0.33131312506E+01  0.62051237290E+02  0.51100000000E-03 0. -1.
         22    1    1    0    0    0  0.13385661998E+01 -0.28022823019E+02  0.10528379551E+01  0.28074522920E+02  0.00000000000E+00 0. -1.
</event>
<event>
 5    1  0.6622912E-004  0.9118800E+02  0.7818608E-02  0.1130116E+00
         25   -1    0    0    0    0  0.00000000000E+00  0.00000000000E+00  0.99999998245E-14  0.12500000000E+03  0.12500000000E+03 0.  0.
        -11    1    3    3    0    0  0.35769610291E+02  0.43128792049E+02 -0.18011400069E+02  0.58855486207E+02  0.51100000000E-03 0.  1.
         23    2    1    0    0    0  0.26734578135E+02  0.20299391850E+02  0.31713089951E+01  0.91282642774E+02  0.84827240280E+02 0.  0.
         11    1    3    3    0    0 -0.90350321551E+01 -0.22829400199E+02  0.21182709064E+02  0.32427156568E+02  0.51100000000E-03 0. -1.
         22    1    1    0    0    0 -0.26734578135E+02 -0.20299391850E+02 -0.31713089951E+01  0.33717357226E+02  0.00000000000E+00 0.  1.
</event>
<event>
 5    1  0.6622912E-004  0.9118800E+02  0.7818608E-02  0.1130116E+00
         25   -1    0    0    0    0  0.00000000000E+00  0.00000000000E+00  0.99999998245E-14  0.12500000000E+03  0.12500000000E+03 0.  0.
        -11    1    3    3    0    0 -0.25377767898E+02 -0.18375671768E+02  0.11921431238E+02  0.33523378998E+02  0.51100000000E-03 0. -1.
         23    2    1    0    0    0  0.23604155692E+02  0.17145158801E+02  0.10333741150E+02  0.94050059089E+02  0.88811681508E+02 0.  0.
         11    1    3    3    0    0  0.48981923589E+02  0.35520830569E+02 -0.15876900873E+01  0.60526680091E+02  0.51100000000E-03 0.  1.
         22    1    1    0    0    0 -0.23604155692E+02 -0.17145158801E+02 -0.10333741150E+02  0.30949940911E+02  0.00000000000E+00 0.  1.
</event>
<event>
 5    1  0.6622912E-004  0.9118800E+02  0.7818608E-02  0.1130116E+00
         25   -1    0    0    0    0  0.00000000000E+00  0.00000000000E+00  0.99999998245E-14  0.12500000000E+03  0.12500000000E+03 0.  0.
        -11    1    3    3    0    0  0.58433002884E+00 -0.26558860229E+02 -0.22635775080E+02  0.34901186398E+02  0.51100000000E-03 0.  1.
         23    2    1    0    0    0 -0.17201773700E+02  0.21234996645E+02  0.10507765538E+02  0.95721351850E+02  0.91133626957E+02 0.  0.
         11    1    3    3    0    0 -0.17786103729E+02  0.47793856873E+02  0.33143540617E+02  0.60820165452E+02  0.51100000000E-03 0. -1.
         22    1    1    0    0    0  0.17201773700E+02 -0.21234996645E+02 -0.10507765538E+02  0.29278648150E+02  0.00000000000E+00 0. -1.
</event>
<event>
 5    1  0.6622912E-004  0.9118800E+02  0.7818608E-02  0.1130116E+00
         25   -1    0    0    0    0  0.00000000000E+00  0.00000000000E+00  0.99999998245E-14  0.12500000000E+03  0.12500000000E+03 0.  0.
        -11    1    3    3    0    0  0.10352420910E+02 -0.43333838359E+02  0.33467164156E+02  0.55722932825E+02  0.51100000000E-03 0.  1.
         23    2    1    0    0    0  0.48860834182E+01 -0.34910567412E+01  0.28064489109E+02  0.96300229316E+02  0.91924193383E+02 0.  0.
         11    1    3    3    0    0 -0.54663374921E+01  0.39842781618E+02 -0.54026750471E+01  0.40577296492E+02  0.51100000000E-03 0. -1.
         22    1    1    0    0    0 -0.48860834182E+01  0.34910567412E+01 -0.28064489109E+02  0.28699770684E+02  0.00000000000E+00 0.  1.
</event>
<event>
 5    1  0.6622912E-004  0.9118800E+02  0.7818608E-02  0.1130116E+00
         25   -1    0    0    0    0  0.00000000000E+00  0.00000000000E+00  0.99999998245E-14  0.12500000000E+03  0.12500000000E+03 0.  0.
        -11    1    3    3    0    0 -0.88955530870E+00 -0.32517123281E+02 -0.93648978637E+01  0.33850493754E+02  0.51100000000E-03 0.  1.
         23    2    1    0    0    0  0.16290602674E+02  0.22966374933E+02  0.10066668069E+02  0.95097225563E+02  0.90273508798E+02 0.  0.
         11    1    3    3    0    0  0.17180157983E+02  0.55483498214E+02  0.19431565933E+02  0.61246731809E+02  0.51100000000E-03 0. -1.
         22    1    1    0    0    0 -0.16290602674E+02 -0.22966374933E+02 -0.10066668069E+02  0.29902774437E+02  0.00000000000E+00 0. -1.
</event>
<event>
 5    1  0.6622912E-004  0.9118800E+02  0.7818608E-02  0.1130116E+00
         25   -1    0    0    0    0  0.00000000000E+00  0.00000000000E+00  0.99999998245E-14  0.12500000000E+03  0.12500000000E+03 0.  0.
        -11    1    3    3    0    0  0.35467455646E+02 -0.11355211720E+02 -0.35086183069E+01  0.37405770222E+02  0.51100000000E-03 0. -1.
         23    2    1    0    0    0 -0.21226712789E+02 -0.13969891506E+02 -0.15252750971E+02  0.95362563932E+02  0.90640173119E+02 0.  0.
         11    1    3    3    0    0 -0.56694168435E+02 -0.26146797865E+01 -0.11744132664E+02  0.57956793710E+02  0.51100000000E-03 0.  1.
         22    1    1    0    0    0  0.21226712789E+02  0.13969891506E+02  0.15252750971E+02  0.29637436068E+02  0.00000000000E+00 0.  1.
</event>
<event>
 5    1  0.6622912E-004  0.9118800E+02  0.7818608E-02  0.1130116E+00
         25   -1    0    0    0    0  0.00000000000E+00  0.00000000000E+00  0.99999998245E-14  0.12500000000E+03  0.12500000000E+03 0.  0.
        -11    1    3    3    0    0 -0.20253745321E+02  0.10986566983E+02 -0.30689394832E+02  0.38376526797E+02  0.51100000000E-03 0.  1.
         23    2    1    0    0    0  0.15866193713E+02  0.20535674992E+02  0.13093296634E+02  0.95933103588E+02  0.91423606891E+02 0.  0.
         11    1    3    3    0    0  0.36119939034E+02  0.95491080094E+01  0.43782691466E+02  0.57556576790E+02  0.51100000000E-03 0. -1.
         22    1    1    0    0    0 -0.15866193713E+02 -0.20535674992E+02 -0.13093296634E+02  0.29066896412E+02  0.00000000000E+00 0. -1.
</event>
<event>
 5    1  0.6622912E-004  0.9118800E+02  0.7818608E-02  0.1130116E+00
         25   -1    0    0    0    0  0.00000000000E+00  0.00000000000E+00  0.99999998245E-14  0.12500000000E+03  0.12500000000E+03 0.  0.
        -11    1    3    3    0    0  0.26654536796E+02  0.14991582358E+02 -0.51847373506E+00  0.30585628794E+02  0.51100000000E-03 0.  1.
         23    2    1    0    0    0 -0.26879245135E+02 -0.11448463535E+02 -0.15193439557E+02  0.92069744278E+02  0.85979276977E+02 0.  0.
         11    1    3    3    0    0 -0.53533781931E+02 -0.26440045894E+02 -0.14674965822E+02  0.61484115484E+02  0.51100000000E-03 0. -1.
         22    1    1    0    0    0  0.26879245135E+02  0.11448463535E+02  0.15193439557E+02  0.32930255722E+02  0.00000000000E+00 0. -1.
</event>
<event>
 5    1  0.6622912E-004  0.9118800E+02  0.7818608E-02  0.1130116E+00
         25   -1    0    0    0    0  0.00000000000E+00  0.00000000000E+00  0.99999998245E-14  0.12500000000E+03  0.12500000000E+03 0.  0.
        -11    1    3    3    0    0 -0.33562179842E+02 -0.33903848302E+02  0.14303672445E+02  0.49804476617E+02  0.51100000000E-03 0. -1.
         23    2    1    0    0    0 -0.11063956896E+02  0.10885842329E+02  0.19365296411E+02  0.10018211511E+03  0.97059408493E+02 0.  0.
         11    1    3    3    0    0  0.22498222946E+02  0.44789690631E+02  0.50616239663E+01  0.50377638491E+02  0.51100000000E-03 0.  1.
         22    1    1    0    0    0  0.11063956896E+02 -0.10885842329E+02 -0.19365296411E+02  0.24817884892E+02  0.00000000000E+00 0.  1.
</event>
<event>
 5    1  0.6622912E-004  0.9118800E+02  0.7818608E-02  0.1130116E+00
         25   -1    0    0    0    0  0.00000000000E+00  0.00000000000E+00  0.99999998245E-14  0.12500000000E+03  0.12500000000E+03 0.  0.
        -11    1    3    3    0    0 -0.31766019490E+01  0.26901159256E+02 -0.29896114664E+02  0.40342791692E+02  0.51100000000E-03 0. -1.
         23    2    1    0    0    0  0.16366203855E+02 -0.21436939935E+02 -0.12150474657E+02  0.95419109939E+02  0.90718121039E+02 0.  0.
         11    1    3    3    0    0  0.19542805804E+02 -0.48338099191E+02  0.17745640007E+02  0.55076318247E+02  0.51100000000E-03 0.  1.
         22    1    1    0    0    0 -0.16366203855E+02  0.21436939935E+02  0.12150474657E+02  0.29580890061E+02  0.00000000000E+00 0.  1.
</event>
<event>
 5    1  0.6622912E-004  0.9118800E+02  0.7818608E-02  0.1130116E+00
         25   -1    0    0    0    0  0.00000000000E+00  0.00000000000E+00  0.99999998245E-14  0.12500000000E+03  0.12500000000E+03 0.  0.
        -11    1    3    3    0    0 -0.41616737031E+02 -0.31683169720E+02 -0.98719067934E+01  0.53228099615E+02  0.51100000000E-03 0.  1.
         23    2    1    0    0    0 -0.20348358043E+02 -0.24787816742E+02 -0.28320625282E+02  0.82215080341E+02  0.70205199844E+02 0.  0.
         11    1    3    3    0    0  0.21268378988E+02  0.68953529779E+01 -0.18448718489E+02  0.28986980726E+02  0.51100000000E-03 0. -1.
         22    1    1    0    0    0  0.20348358043E+02  0.24787816742E+02  0.28320625282E+02  0.42784919659E+02  0.00000000000E+00 0.  1.
</event>
<event>
 5    1  0.6622912E-004  0.9118800E+02  0.7818608E-02  0.1130116E+00
         25   -1    0    0    0    0  0.00000000000E+00  0.00000000000E+00  0.99999998245E-14  0.12500000000E+03  0.12500000000E+03 0.  0.
        -11    1    3    3    0    0 -0.28031418153E+02  0.10328730833E+01  0.52137561065E+02  0.59204328427E+02  0.51100000000E-03 0. -1.
         23    2    1    0    0    0  0.81591368963E+00 -0.33312022666E+01  0.27198163507E+02  0.97586450032E+02  0.93656887136E+02 0.  0.
         11    1    3    3    0    0  0.28847331842E+02 -0.43640753499E+01 -0.24939397558E+02  0.38382121605E+02  0.51100000000E-03 0.  1.
         22    1    1    0    0    0 -0.81591368963E+00  0.33312022666E+01 -0.27198163507E+02  0.27413549968E+02  0.00000000000E+00 0. -1.
</event>
<event>
 5    1  0.6622912E-004  0.9118800E+02  0.7818608E-02  0.1130116E+00
         25   -1    0    0    0    0  0.00000000000E+00  0.00000000000E+00  0.99999998245E-14  0.12500000000E+03  0.12500000000E+03 0.  0.
        -11    1    3    3    0    0  0.32364480789E+02 -0.88919384625E+01  0.20244212331E+01  0.33624759746E+02  0.51100000000E-03 0.  1.
         23    2    1    0    0    0 -0.29036919109E+02 -0.34279714654E+01 -0.36735083636E+01  0.95531570734E+02  0.90872948030E+02 0.  0.
         11    1    3    3    0    0 -0.61401399898E+02  0.54639669971E+01 -0.56979295967E+01  0.61906810988E+02  0.51100000000E-03 0. -1.
         22    1    1    0    0    0  0.29036919109E+02  0.34279714654E+01  0.36735083636E+01  0.29468429266E+02  0.00000000000E+00 0. -1.
</event>
<event>
 5    1  0.6622912E-004  0.9118800E+02  0.7818608E-02  0.1130116E+00
         25   -1    0    0    0    0  0.00000000000E+00  0.00000000000E+00  0.99999998245E-14  0.12500000000E+03  0.12500000000E+03 0.  0.
        -11    1    3    3    0    0 -0.16887170770E+02 -0.51011403222E+01 -0.29566270021E+02  0.34429093692E+02  0.51100000000E-03 0.  1.
         23    2    1    0    0    0  0.16150705703E+02  0.24308547234E+02  0.10375417062E+02  0.94025816515E+02  0.88777554195E+02 0.  0.
         11    1    3    3    0    0  0.33037876473E+02  0.29409687556E+02  0.39941687083E+02  0.59596722824E+02  0.51100000000E-03 0. -1.
         22    1    1    0    0    0 -0.16150705703E+02 -0.24308547234E+02 -0.10375417062E+02  0.30974183485E+02  0.00000000000E+00 0. -1.
</event>
<event>
 5    1  0.6622912E-004  0.9118800E+02  0.7818608E-02  0.1130116E+00
         25   -1    0    0    0    0  0.00000000000E+00  0.00000000000E+00  0.99999998245E-14  0.12500000000E+03  0.12500000000E+03 0.  0.
        -11    1    3    3    0    0  0.34393982108E+02  0.84049070654E+01  0.15730132432E+02  0.38743070795E+02  0.51100000000E-03 0. -1.
         23    2    1    0    0    0 -0.14673288726E+02  0.24294207279E+02 -0.79946269665E+01  0.95513936009E+02  0.90848687399E+02 0.  0.
         11    1    3    3    0    0 -0.49067270834E+02  0.15889300214E+02 -0.23724759399E+02  0.56770865214E+02  0.51100000000E-03 0.  1.
         22    1    1    0    0    0  0.14673288726E+02 -0.24294207279E+02  0.79946269665E+01  0.29486063991E+02  0.00000000000E+00 0.  1.
</event>
<event>
 5    1  0.6622912E-004  0.9118800E+02  0.7818608E-02  0.1130116E+00
         25   -1    0    0    0    0  0.00000000000E+00  0.00000000000E+00  0.99999998245E-14  0.12500000000E+03  0.12500000000E+03 0.  0.
        -11    1    3    3    0    0 -0.17625001258E+02 -0.63326138911E+01  0.54874551556E+01  0.19515502361E+02  0.51100000000E-03 0.  1.
         23    2    1    0    0    0 -0.17032464925E+02  0.44301059369E+02 -0.16542545131E+02  0.74737245180E+02  0.55311041349E+02 0.  0.
         11    1    3    3    0    0  0.59253633347E+00  0.50633673260E+02 -0.22030000287E+02  0.55221742820E+02  0.51100000000E-03 0. -1.
         22    1    1    0    0    0  0.17032464925E+02 -0.44301059369E+02  0.16542545131E+02  0.50262754820E+02  0.00000000000E+00 0. -1.
</event>
<event>
 5    1  0.6622912E-004  0.9118800E+02  0.7818608E-02  0.1130116E+00
         25   -1    0    0    0    0  0.00000000000E+00  0.00000000000E+00  0.99999998245E-14  0.12500000000E+03  0.12500000000E+03 0.  0.
        -11    1    3    3    0    0  0.13891234888E+02  0.15198537259E+02 -0.47771697687E+02  0.52020159955E+02  0.51100000000E-03 0.  1.
         23    2    1    0    0    0  0.13264012177E+02 -0.17780801144E+02 -0.19602335622E+02  0.95396917893E+02  0.90687537586E+02 0.  0.
         11    1    3    3    0    0 -0.62722271041E+00 -0.32979338403E+02  0.28169362065E+02  0.43376757939E+02  0.51100000000E-03 0. -1.
         22    1    1    0    0    0 -0.13264012177E+02  0.17780801144E+02  0.19602335622E+02  0.29603082107E+02  0.00000000000E+00 0.  1.
</event>
<event>
 5    1  0.6622912E-004  0.9118800E+02  0.7818608E-02  0.1130116E+00
         25   -1    0    0    0    0  0.00000000000E+00  0.00000000000E+00  0.99999998245E-14  0.12500000000E+03  0.12500000000E+03 0.  0.
        -11    1    3    3    0    0  0.12468643151E+02  0.51111927898E+02 -0.67954626530E+01  0.53047851497E+02  0.51100000000E-03 0.  1.
         23    2    1    0    0    0 -0.18818471196E+01  0.12549432235E+02 -0.24161689458E+02  0.97708667393E+02  0.93819863826E+02 0.  0.
         11    1    3    3    0    0 -0.14350490271E+02 -0.38562495663E+02 -0.17366226805E+02  0.44660815896E+02  0.51100000000E-03 0. -1.
         22    1    1    0    0    0  0.18818471196E+01 -0.12549432235E+02  0.24161689458E+02  0.27291332607E+02  0.00000000000E+00 0.  1.
</event>
<event>
 5    1  0.6622912E-004  0.9118800E+02  0.7818608E-02  0.1130116E+00
         25   -1    0    0    0    0  0.00000000000E+00  0.00000000000E+00  0.99999998245E-14  0.12500000000E+03  0.12500000000E+03 0.  0.
        -11    1    3    3    0    0  0.18040693100E+02 -0.29365321885E+02 -0.46639820291E+02  0.57991909557E+02  0.51100000000E-03 0. -1.
         23    2    1    0    0    0  0.17560152498E+02 -0.24922156059E+02 -0.13118001849E+02  0.91810321018E+02  0.85601286524E+02 0.  0.
         11    1    3    3    0    0 -0.48054060152E+00  0.44431658262E+01  0.33521818442E+02  0.33818411461E+02  0.51100000000E-03 0.  1.
         22    1    1    0    0    0 -0.17560152498E+02  0.24922156059E+02  0.13118001849E+02  0.33189678982E+02  0.00000000000E+00 0. -1.
</event>
<event>
 5    1  0.6622912E-004  0.9118800E+02  0.7818608E-02  0.1130116E+00
         25   -1    0    0    0    0  0.00000000000E+00  0.00000000000E+00  0.99999998245E-14  0.12500000000E+03  0.12500000000E+03 0.  0.
        -11    1    3    3    0    0 -0.21592849207E+01 -0.22376809874E+02 -0.27722406009E+02  0.35691958852E+02  0.51100000000E-03 0.  1.
         23    2    1    0    0    0 -0.56690901272E+01  0.23862616469E+02  0.12852689528E+02  0.97309664580E+02  0.93286741528E+02 0.  0.
         11    1    3    3    0    0 -0.35098052065E+01  0.46239426343E+02  0.40575095536E+02  0.61617705728E+02  0.51100000000E-03 0. -1.
         22    1    1    0    0    0  0.56690901272E+01 -0.23862616469E+02 -0.12852689528E+02  0.27690335420E+02  0.00000000000E+00 0. -1.
</event>
<event>
 5    1  0.6622912E-004  0.9118800E+02  0.7818608E-02  0.1130116E+00
         25   -1    0    0    0    0  0.00000000000E+00  0.00000000000E+00  0.99999998245E-14  0.12500000000E+03  0.12500000000E+03 0.  0.
        -11    1    3    3    0    0 -0.31868356662E+02  0.49379354775E+02  0.77637699844E+01  0.59280595130E+02  0.51100000000E-03 0.  1.
         23    2    1    0    0    0 -0.17874879814E+02  0.16208652577E+02  0.15786455059E+02  0.96165230882E+02  0.91740436671E+02 0.  0.
         11    1    3    3    0    0  0.13993476848E+02 -0.33170702198E+02  0.80226850743E+01  0.36884635753E+02  0.51100000000E-03 0. -1.
         22    1    1    0    0    0  0.17874879814E+02 -0.16208652577E+02 -0.15786455059E+02  0.28834769118E+02  0.00000000000E+00 0.  1.
</event>
<event>
 5    1  0.6622912E-004  0.9118800E+02  0.7818608E-02  0.1130116E+00
         25   -1    0    0    0    0  0.00000000000E+00  0.00000000000E+00  0.99999998245E-14  0.12500000000E+03  0.12500000000E+03 0.  0.
        -11    1    3    3    0    0  0.27471430687E+01  0.14891143471E+02  0.42507620827E+02  0.45124170658E+02  0.51100000000E-03 0. -1.
         23    2    1    0    0    0 -0.74409353141E+01  0.39633405286E+02  0.20539196378E+02  0.79744802279E+02  0.65659733245E+02 0.  0.
         11    1    3    3    0    0 -0.10188078383E+02  0.24742261814E+02 -0.21968424449E+02  0.34620631621E+02  0.51100000000E-03 0.  1.
         22    1    1    0    0    0  0.74409353141E+01 -0.39633405286E+02 -0.20539196378E+02  0.45255197721E+02  0.00000000000E+00 0. -1.
</event>
<event>
 5    1  0.6622912E-004  0.9118800E+02  0.7818608E-02  0.1130116E+00
         25   -1    0    0    0    0  0.00000000000E+00  0.00000000000E+00  0.99999998245E-14  0.12500000000E+03  0.12500000000E+03 0.  0.
        -11    1    3    3    0    0 -0.35777978342E+02 -0.18107151542E+02  0.22749780059E+02  0.46102984331E+02  0.51100000000E-03 0. -1.
         23    2    1    0    0    0 -0.21395943609E+02  0.68286096833E+01 -0.18154479638E+02  0.96120916841E+02  0.91680037142E+02 0.  0.
         11    1    3    3    0    0  0.14382034733E+02  0.24935761225E+02 -0.40904259698E+02  0.50017932510E+02  0.51100000000E-03 0.  1.
         22    1    1    0    0    0  0.21395943609E+02 -0.68286096833E+01  0.18154479638E+02  0.28879083159E+02  0.00000000000E+00 0. -1.
</event>
<event>
 5    1  0.6622912E-004  0.9118800E+02  0.7818608E-02  0.1130116E+00
         25   -1    0    0    0    0  0.00000000000E+00  0.00000000000E+00  0.99999998245E-14  0.12500000000E+03  0.12500000000E+03 0.  0.
        -11    1    3    3    0    0 -0.16419190594E+02 -0.24271693746E+02  0.24121964348E+02  0.37954895617E+02  0.51100000000E-03 0.  1.
         23    2    1    0    0    0 -0.10527000763E+02  0.23207438157E+02 -0.10937165184E+02  0.97268708773E+02  0.93231846454E+02 0.  0.
         11    1    3    3    0    0  0.58921898315E+01  0.47479131903E+02 -0.35059129532E+02  0.59313813156E+02  0.51100000000E-03 0. -1.
         22    1    1    0    0    0  0.10527000763E+02 -0.23207438157E+02  0.10937165184E+02  0.27731291227E+02  0.00000000000E+00 0. -1.
</event>
<event>
 5    1  0.6622912E-004  0.9118800E+02  0.7818608E-02  0.1130116E+00
         25   -1    0    0    0    0  0.00000000000E+00  0.00000000000E+00  0.99999998245E-14  0.12500000000E+03  0.12500000000E+03 0.  0.
        -11    1    3    3    0    0  0.29572944731E+02  0.16012504543E+02 -0.11095422889E+02  0.35412819306E+02  0.51100000000E-03 0. -1.
         23    2    1    0    0    0 -0.24123422322E+02  0.66752358614E+01 -0.22782757731E+02  0.91153990957E+02  0.84637448799E+02 0.  0.
         11    1    3    3    0    0 -0.53696367053E+02 -0.93372686816E+01 -0.11687334841E+02  0.55741171651E+02  0.51100000000E-03 0.  1.
         22    1    1    0    0    0  0.24123422322E+02 -0.66752358614E+01  0.22782757731E+02  0.33846009043E+02  0.00000000000E+00 0.  1.
</event>
<event>
 5    1  0.6622912E-004  0.9118800E+02  0.7818608E-02  0.1130116E+00
         25   -1    0    0    0    0  0.00000000000E+00  0.00000000000E+00  0.99999998245E-14  0.12500000000E+03  0.12500000000E+03 0.  0.
        -11    1    3    3    0    0 -0.29549175886E+02 -0.23923589525E+02  0.43292679003E+02  0.57617254246E+02  0.51100000000E-03 0.  1.
         23    2    1    0    0    0 -0.60795477115E+01 -0.23523901252E+02  0.91776325374E+01  0.99027634503E+02  0.95561020431E+02 0.  0.
         11    1    3    3    0    0  0.23469628175E+02  0.39968827293E+00 -0.34115046466E+02  0.41410380257E+02  0.51100000000E-03 0. -1.
         22    1    1    0    0    0  0.60795477115E+01  0.23523901252E+02 -0.91776325374E+01  0.25972365497E+02  0.00000000000E+00 0.  1.
</event>
<event>
 5    1  0.6622912E-004  0.9118800E+02  0.7818608E-02  0.1130116E+00
         25   -1    0    0    0    0  0.00000000000E+00  0.00000000000E+00  0.99999998245E-14  0.12500000000E+03  0.12500000000E+03 0.  0.
        -11    1    3    3    0    0 -0.19096754642E+02  0.55804772579E+02  0.21333926801E+01  0.59020420577E+02  0.51100000000E-03 0. -1.
         23    2    1    0    0    0 -0.57253042732E+01  0.24360297411E+02  0.15334446266E+02  0.95651261675E+02  0.91037439654E+02 0.  0.
         11    1    3    3    0    0  0.13371450369E+02 -0.31444475168E+02  0.13201053586E+02  0.36630841098E+02  0.51100000000E-03 0.  1.
         22    1    1    0    0    0  0.57253042732E+01 -0.24360297411E+02 -0.15334446266E+02  0.29348738325E+02  0.00000000000E+00 0. -1.
</event>
<event>
 5    1  0.6622912E-004  0.9118800E+02  0.7818608E-02  0.1130116E+00
         25   -1    0    0    0    0  0.00000000000E+00  0.00000000000E+00  0.99999998245E-14  0.12500000000E+03  0.12500000000E+03 0.  0.
        -11    1    3    3    0    0 -0.13338944184E+02 -0.24146684066E+02  0.25580500739E+02  0.37621161621E+02  0.51100000000E-03 0.  1.
         23    2    1    0    0    0 -0.10392908276E+02  0.27632311681E+02 -0.64091367924E-01  0.95477782960E+02  0.90798930280E+02 0.  0.
         11    1    3    3    0    0  0.29460359084E+01  0.51778995747E+02 -0.25644592107E+02  0.57856621339E+02  0.51100000000E-03 0. -1.
         22    1    1    0    0    0  0.10392908276E+02 -0.27632311681E+02  0.64091367924E-01  0.29522217040E+02  0.00000000000E+00 0. -1.
</event>
<event>
 5    1  0.6622912E-004  0.9118800E+02  0.7818608E-02  0.1130116E+00
         25   -1    0    0    0    0  0.00000000000E+00  0.00000000000E+00  0.99999998245E-14  0.12500000000E+03  0.12500000000E+03 0.  0.
        -11    1    3    3    0    0 -0.25141632693E+02 -0.17486862622E+02 -0.16237943367E+02  0.34663566808E+02  0.51100000000E-03 0.  1.
         23    2    1    0    0    0  0.17514233658E+02  0.85547073757E+01  0.20516582018E+02  0.96700502891E+02  0.92466889873E+02 0.  0.
         11    1    3    3    0    0  0.42655866350E+02  0.26041569998E+02  0.36754525385E+02  0.62036936083E+02  0.51100000000E-03 0. -1.
         22    1    1    0    0    0 -0.17514233658E+02 -0.85547073757E+01 -0.20516582018E+02  0.28299497109E+02  0.00000000000E+00 0. -1.
</event>
<event>
 5    1  0.6622912E-004  0.9118800E+02  0.7818608E-02  0.1130116E+00
         25   -1    0    0    0    0  0.00000000000E+00  0.00000000000E+00  0.99999998245E-14  0.12500000000E+03  0.12500000000E+03 0.  0.
        -11    1    3    3    0    0 -0.51206499962E+02 -0.22658849571E+02 -0.15661555011E+00  0.55996014420E+02  0.51100000000E-03 0. -1.
         23    2    1    0    0    0 -0.16795620534E+02 -0.29269429796E+02  0.26612314554E+01  0.91149231285E+02  0.84630419007E+02 0.  0.
         11    1    3    3    0    0  0.34410879428E+02 -0.66105802258E+01  0.28178470055E+01  0.35153216865E+02  0.51100000000E-03 0.  1.
         22    1    1    0    0    0  0.16795620534E+02  0.29269429796E+02 -0.26612314554E+01  0.33850768715E+02  0.00000000000E+00 0. -1.
</event>
<event>
 5    1  0.6622912E-004  0.9118800E+02  0.7818608E-02  0.1130116E+00
         25   -1    0    0    0    0  0.00000000000E+00  0.00000000000E+00  0.99999998245E-14  0.12500000000E+03  0.12500000000E+03 0.  0.
        -11    1    3    3    0    0  0.31779810987E+02 -0.11937507176E+02 -0.14914599187E+02  0.37079721319E+02  0.51100000000E-03 0.  1.
         23    2    1    0    0    0 -0.53777678987E+01  0.15484373167E+02  0.22948980665E+02  0.96798193081E+02  0.92598856744E+02 0.  0.
         11    1    3    3    0    0 -0.37157578885E+02  0.27421880343E+02  0.37863579852E+02  0.59718471762E+02  0.51100000000E-03 0. -1.
         22    1    1    0    0    0  0.53777678987E+01 -0.15484373167E+02 -0.22948980665E+02  0.28201806919E+02  0.00000000000E+00 0. -1.
</event>
<event>
 5    1  0.6622912E-004  0.9118800E+02  0.7818608E-02  0.1130116E+00
         25   -1    0    0    0    0  0.00000000000E+00  0.00000000000E+00  0.99999998245E-14  0.12500000000E+03  0.12500000000E+03 0.  0.
        -11    1    3    3    0    0  0.85005046900E+01  0.38320668208E+02  0.31576310348E+02  0.50376537866E+02  0.51100000000E-03 0.  1.
         23    2    1    0    0    0 -0.21191134352E+02  0.19786899388E+02  0.24639096455E+01  0.95902639067E+02  0.91381944424E+02 0.  0.
         11    1    3    3    0    0 -0.29691639042E+02 -0.18533768820E+02 -0.29112400702E+02  0.45526101201E+02  0.51100000000E-03 0. -1.
         22    1    1    0    0    0  0.21191134352E+02 -0.19786899388E+02 -0.24639096455E+01  0.29097360933E+02  0.00000000000E+00 0.  1.
</event>
<event>
 5    1  0.6622912E-004  0.9118800E+02  0.7818608E-02  0.1130116E+00
         25   -1    0    0    0    0  0.00000000000E+00  0.00000000000E+00  0.99999998245E-14  0.12500000000E+03  0.12500000000E+03 0.  0.
        -11    1    3    3    0    0  0.41755676581E+02  0.28354798206E+01 -0.75044826235E+01  0.42519333629E+02  0.51100000000E-03 0.  1.
         23    2    1    0    0    0  0.27684061891E+01 -0.22001844040E+02  0.18993868462E+02  0.95802187529E+02  0.91244434801E+02 0.  0.
         11    1    3    3    0    0 -0.38987270392E+02 -0.24837323860E+02  0.26498351085E+02  0.53282853899E+02  0.51100000000E-03 0. -1.
         22    1    1    0    0    0 -0.27684061891E+01  0.22001844040E+02 -0.18993868462E+02  0.29197812471E+02  0.00000000000E+00 0. -1.
</event>
<event>
 5    1  0.6622912E-004  0.9118800E+02  0.7818608E-02  0.1130116E+00
         25   -1    0    0    0    0  0.00000000000E+00  0.00000000000E+00  0.99999998245E-14  0.12500000000E+03  0.12500000000E+03 0.  0.
        -11    1    3    3    0    0  0.41219755634E+02  0.35516525971E+02  0.14984064548E+02  0.56435928824E+02  0.51100000000E-03 0. -1.
         23    2    1    0    0    0  0.18027562107E+02  0.45220883612E+01  0.22444334367E+02  0.95859127950E+02  0.91322406820E+02 0.  0.
         11    1    3    3    0    0 -0.23192193527E+02 -0.30994437609E+02  0.74602698191E+01  0.39423199126E+02  0.51100000000E-03 0.  1.
         22    1    1    0    0    0 -0.18027562107E+02 -0.45220883612E+01 -0.22444334367E+02  0.29140872050E+02  0.00000000000E+00 0. -1.
</event>
<event>
 5    1  0.6622912E-004  0.9118800E+02  0.7818608E-02  0.1130116E+00
         25   -1    0    0    0    0  0.00000000000E+00  0.00000000000E+00  0.99999998245E-14  0.12500000000E+03  0.12500000000E+03 0.  0.
        -11    1    3    3    0    0  0.92786213293E+01  0.30558921341E+02 -0.38470305290E+02  0.49999048757E+02  0.51100000000E-03 0. -1.
         23    2    1    0    0    0  0.23215074320E+02 -0.70271896267E+01 -0.13210316277E+02  0.97380558915E+02  0.93381688402E+02 0.  0.
         11    1    3    3    0    0  0.13936452990E+02 -0.37586110967E+02  0.25259989014E+02  0.47381510158E+02  0.51100000000E-03 0.  1.
         22    1    1    0    0    0 -0.23215074320E+02  0.70271896267E+01  0.13210316277E+02  0.27619441085E+02  0.00000000000E+00 0. -1.
</event>
<event>
 5    1  0.6622912E-004  0.9118800E+02  0.7818608E-02  0.1130116E+00
         25   -1    0    0    0    0  0.00000000000E+00  0.00000000000E+00  0.99999998245E-14  0.12500000000E+03  0.12500000000E+03 0.  0.
        -11    1    3    3    0    0 -0.38943554770E+02 -0.21732862830E+02  0.59523833174E+01  0.44992762221E+02  0.51100000000E-03 0.  1.
         23    2    1    0    0    0 -0.56010574718E+01  0.10441741612E+02  0.26721216473E+02  0.95769447106E+02  0.91199571143E+02 0.  0.
         11    1    3    3    0    0  0.33342497298E+02  0.32174604442E+02  0.20768833155E+02  0.50776684885E+02  0.51100000000E-03 0. -1.
         22    1    1    0    0    0  0.56010574718E+01 -0.10441741612E+02 -0.26721216473E+02  0.29230552894E+02  0.00000000000E+00 0. -1.
</event>
<event>
 5    1  0.6622912E-004  0.9118800E+02  0.7818608E-02  0.1130116E+00
         25   -1    0    0    0    0  0.00000000000E+00  0.00000000000E+00  0.99999998245E-14  0.12500000000E+03  0.12500000000E+03 0.  0.
        -11    1    3    3    0    0  0.32572022640E+02  0.24101534280E+02 -0.23860266599E+02  0.47022685333E+02  0.51100000000E-03 0. -1.
         23    2    1    0    0    0  0.18865501473E+02  0.18546856822E+01  0.19599482538E+02  0.97733047098E+02  0.93852340272E+02 0.  0.
         11    1    3    3    0    0 -0.13706521166E+02 -0.22246848598E+02  0.43459749137E+02  0.50710361765E+02  0.51100000000E-03 0.  1.
         22    1    1    0    0    0 -0.18865501473E+02 -0.18546856822E+01 -0.19599482538E+02  0.27266952902E+02  0.00000000000E+00 0.  1.
</event>
<event>
 5    1  0.6622912E-004  0.9118800E+02  0.7818608E-02  0.1130116E+00
         25   -1    0    0    0    0  0.00000000000E+00  0.00000000000E+00  0.99999998245E-14  0.12500000000E+03  0.12500000000E+03 0.  0.
        -11    1    3    3    0    0 -0.35398102247E+02 -0.77582690058E+01  0.29932647064E+02  0.47001912101E+02  0.51100000000E-03 0.  1.
         23    2    1    0    0    0  0.15880919690E+02  0.74248715804E+01  0.13256565304E+02  0.10302117265E+03  0.10064935748E+03 0.  0.
         11    1    3    3    0    0  0.51279021937E+02  0.15183140586E+02 -0.16676081760E+02  0.56019260545E+02  0.51100000000E-03 0. -1.
         22    1    1    0    0    0 -0.15880919690E+02 -0.74248715804E+01 -0.13256565304E+02  0.21978827354E+02  0.00000000000E+00 0. -1.
</event>
<event>
 5    1  0.6622912E-004  0.9118800E+02  0.7818608E-02  0.1130116E+00
         25   -1    0    0    0    0  0.00000000000E+00  0.00000000000E+00  0.99999998245E-14  0.12500000000E+03  0.12500000000E+03 0.  0.
        -11    1    3    3    0    0 -0.13134393144E+02 -0.26377719497E+02  0.20257366065E+02  0.35758317204E+02  0.51100000000E-03 0. -1.
         23    2    1    0    0    0 -0.59115146022E+01  0.13183541979E+02 -0.24890608303E+02  0.96219899832E+02  0.91814895076E+02 0.  0.
         11    1    3    3    0    0  0.72228785419E+01  0.39561261476E+02 -0.45147974368E+02  0.60461582627E+02  0.51100000000E-03 0.  1.
         22    1    1    0    0    0  0.59115146022E+01 -0.13183541979E+02  0.24890608303E+02  0.28780100168E+02  0.00000000000E+00 0.  1.
</event>
<event>
 5    1  0.6622912E-004  0.9118800E+02  0.7818608E-02  0.1130116E+00
         25   -1    0    0    0    0  0.00000000000E+00  0.00000000000E+00  0.99999998245E-14  0.12500000000E+03  0.12500000000E+03 0.  0.
        -11    1    3    3    0    0 -0.41574559161E+02 -0.41439109187E+02  0.11110825131E+02  0.59741896312E+02  0.51100000000E-03 0. -1.
         23    2    1    0    0    0 -0.16680806959E+02 -0.86512936551E+00  0.29357536196E+01  0.10804074238E+03  0.10670138516E+03 0.  0.
         11    1    3    3    0    0  0.24893752203E+02  0.40573979821E+02 -0.81750715112E+01  0.48298846071E+02  0.51100000000E-03 0.  1.
         22    1    1    0    0    0  0.16680806959E+02  0.86512936551E+00 -0.29357536196E+01  0.16959257617E+02  0.00000000000E+00 0. -1.
</event>
<event>
 5    1  0.6622912E-004  0.9118800E+02  0.7818608E-02  0.1130116E+00
         25   -1    0    0    0    0  0.00000000000E+00  0.00000000000E+00  0.99999998245E-14  0.12500000000E+03  0.12500000000E+03 0.  0.
        -11    1    3    3    0    0  0.15967732549E+02  0.50100805534E+02 -0.20091422100E+02  0.56291424216E+02  0.51100000000E-03 0.  1.
         23    2    1    0    0    0 -0.11354732007E+02  0.25052545103E+02 -0.23239282646E+01  0.97396366224E+02  0.93402845545E+02 0.  0.
         11    1    3    3    0    0 -0.27322464556E+02 -0.25048260431E+02  0.17767493835E+02  0.41104942008E+02  0.51100000000E-03 0. -1.
         22    1    1    0    0    0  0.11354732007E+02 -0.25052545103E+02  0.23239282646E+01  0.27603633776E+02  0.00000000000E+00 0.  1.
</event>
<event>
 5    1  0.6622912E-004  0.9118800E+02  0.7818608E-02  0.1130116E+00
         25   -1    0    0    0    0  0.00000000000E+00  0.00000000000E+00  0.99999998245E-14  0.12500000000E+03  0.12500000000E+03 0.  0.
        -11    1    3    3    0    0 -0.78179790914E+01  0.10568116124E+02  0.38817731001E+02  0.40983193089E+02  0.51100000000E-03 0.  1.
         23    2    1    0    0    0 -0.99271347801E+00  0.16499757269E+02 -0.19179100079E+02  0.99680731649E+02  0.96411528939E+02 0.  0.
         11    1    3    3    0    0  0.68252656133E+01  0.59316411453E+01 -0.57996831080E+02  0.58697538560E+02  0.51100000000E-03 0. -1.
         22    1    1    0    0    0  0.99271347801E+00 -0.16499757269E+02  0.19179100079E+02  0.25319268351E+02  0.00000000000E+00 0. -1.
</event>
<event>
 5    1  0.6622912E-004  0.9118800E+02  0.7818608E-02  0.1130116E+00
         25   -1    0    0    0    0  0.00000000000E+00  0.00000000000E+00  0.99999998245E-14  0.12500000000E+03  0.12500000000E+03 0.  0.
        -11    1    3    3    0    0 -0.42430253682E+02  0.41906806698E+02  0.22695987664E+01  0.59679627630E+02  0.51100000000E-03 0. -1.
         23    2    1    0    0    0 -0.28031260880E+02  0.91407952679E+01  0.14903251006E+01  0.95478367363E+02  0.90799734806E+02 0.  0.
         11    1    3    3    0    0  0.14398992803E+02 -0.32766011430E+02 -0.77927366584E+00  0.35798739733E+02  0.51100000000E-03 0.  1.
         22    1    1    0    0    0  0.28031260880E+02 -0.91407952679E+01 -0.14903251006E+01  0.29521632637E+02  0.00000000000E+00 0. -1.
</event>
<event>
 5    1  0.6622912E-004  0.9118800E+02  0.7818608E-02  0.1130116E+00
         25   -1    0    0    0    0  0.00000000000E+00  0.00000000000E+00  0.99999998245E-14  0.12500000000E+03  0.12500000000E+03 0.  0.
        -11    1    3    3    0    0 -0.55774839362E+01  0.21671236680E+02  0.34391654596E+02  0.41030924099E+02  0.51100000000E-03 0. -1.
         23    2    1    0    0    0  0.69324803726E+01 -0.26205814919E+02  0.12862317948E+02  0.94995946230E+02  0.90133160143E+02 0.  0.
         11    1    3    3    0    0  0.12509964309E+02 -0.47877051599E+02 -0.21529336648E+02  0.53965022131E+02  0.51100000000E-03 0.  1.
         22    1    1    0    0    0 -0.69324803726E+01  0.26205814919E+02 -0.12862317948E+02  0.30004053770E+02  0.00000000000E+00 0. -1.
</event>
<event>
 5    1  0.6622912E-004  0.9118800E+02  0.7818608E-02  0.1130116E+00
         25   -1    0    0    0    0  0.00000000000E+00  0.00000000000E+00  0.99999998245E-14  0.12500000000E+03  0.12500000000E+03 0.  0.
        -11    1    3    3    0    0 -0.55943804031E+01  0.28942661129E+02 -0.46495525394E+02  0.55052780195E+02  0.51100000000E-03 0. -1.
         23    2    1    0    0    0  0.18937909456E+02  0.11929807348E+02 -0.18956276927E+02  0.95669041051E+02  0.91061848558E+02 0.  0.
         11    1    3    3    0    0  0.24532289859E+02 -0.17012853780E+02  0.27539248467E+02  0.40616260856E+02  0.51100000000E-03 0.  1.
         22    1    1    0    0    0 -0.18937909456E+02 -0.11929807348E+02  0.18956276927E+02  0.29330958949E+02  0.00000000000E+00 0. -1.
</event>
<event>
 5    1  0.6622912E-004  0.9118800E+02  0.7818608E-02  0.1130116E+00
         25   -1    0    0    0    0  0.00000000000E+00  0.00000000000E+00  0.99999998245E-14  0.12500000000E+03  0.12500000000E+03 0.  0.
        -11    1    3    3    0    0 -0.43456235092E+01 -0.10388759872E+01 -0.51186352789E+02  0.51380992780E+02  0.51100000000E-03 0. -1.
         23    2    1    0    0    0 -0.14700839999E+02  0.20030018645E+02 -0.11206743761E+02  0.97743671390E+02  0.93866489481E+02 0.  0.
         11    1    3    3    0    0 -0.10355216490E+02  0.21068894632E+02  0.39979609028E+02  0.46362678609E+02  0.51100000000E-03 0.  1.
         22    1    1    0    0    0  0.14700839999E+02 -0.20030018645E+02  0.11206743761E+02  0.27256328610E+02  0.00000000000E+00 0. -1.
</event>
<event>
 5    1  0.6622912E-004  0.9118800E+02  0.7818608E-02  0.1130116E+00
         25   -1    0    0    0    0  0.00000000000E+00  0.00000000000E+00  0.99999998245E-14  0.12500000000E+03  0.12500000000E+03 0.  0.
        -11    1    3    3    0    0  0.43578836972E+02 -0.13985910463E+02  0.25683269293E+01  0.45840124637E+02  0.51100000000E-03 0.  1.
         23    2    1    0    0    0 -0.78009626121E+00 -0.15757581502E+02 -0.23028741009E+02  0.97085257705E+02  0.92985560310E+02 0.  0.
         11    1    3    3    0    0 -0.44358933233E+02 -0.17716710390E+01 -0.25597067938E+02  0.51245133068E+02  0.51100000000E-03 0. -1.
         22    1    1    0    0    0  0.78009626121E+00  0.15757581502E+02  0.23028741009E+02  0.27914742295E+02  0.00000000000E+00 0.  1.
</event>
<event>
 5    1  0.6622912E-004  0.9118800E+02  0.7818608E-02  0.1130116E+00
         25   -1    0    0    0    0  0.00000000000E+00  0.00000000000E+00  0.99999998245E-14  0.12500000000E+03  0.12500000000E+03 0.  0.
        -11    1    3    3    0    0  0.23001191398E+02  0.61268047336E+01  0.48853764509E+02  0.54344115127E+02  0.51100000000E-03 0. -1.
         23    2    1    0    0    0  0.24355050391E+02 -0.11385163908E+02  0.11233337497E+02  0.95862767666E+02  0.91327388644E+02 0.  0.
         11    1    3    3    0    0  0.13538589927E+01 -0.17511968641E+02 -0.37620427012E+02  0.41518652539E+02  0.51100000000E-03 0.  1.
         22    1    1    0    0    0 -0.24355050391E+02  0.11385163908E+02 -0.11233337497E+02  0.29137232334E+02  0.00000000000E+00 0. -1.
</event>
<event>
 5    1  0.6622912E-004  0.9118800E+02  0.7818608E-02  0.1130116E+00
         25   -1    0    0    0    0  0.00000000000E+00  0.00000000000E+00  0.99999998245E-14  0.12500000000E+03  0.12500000000E+03 0.  0.
        -11    1    3    3    0    0 -0.42730314012E+02  0.11627392745E+02 -0.78986626510E+01  0.44982939761E+02  0.51100000000E-03 0.  1.
         23    2    1    0    0    0 -0.43987697785E+01  0.19038479818E+02  0.23034876620E+02  0.94793735248E+02  0.89852288853E+02 0.  0.
         11    1    3    3    0    0  0.38331544234E+02  0.74110870732E+01  0.30933539271E+02  0.49810795487E+02  0.51100000000E-03 0. -1.
         22    1    1    0    0    0  0.43987697785E+01 -0.19038479818E+02 -0.23034876620E+02  0.30206264752E+02  0.00000000000E+00 0.  1.
</event>
<event>
 5    1  0.6622912E-004  0.9118800E+02  0.7818608E-02  0.1130116E+00
         25   -1    0    0    0    0  0.00000000000E+00  0.00000000000E+00  0.99999998245E-14  0.12500000000E+03  0.12500000000E+03 0.  0.
        -11    1    3    3    0    0 -0.21511441800E+02  0.16607754076E+02 -0.54024456781E+02  0.60474800988E+02  0.51100000000E-03 0. -1.
         23    2    1    0    0    0  0.90211011182E-01  0.89422942022E+01 -0.30067063266E+02  0.93631208869E+02  0.88220191664E+02 0.  0.
         11    1    3    3    0    0  0.21601652811E+02 -0.76654598734E+01  0.23957393516E+02  0.33156407881E+02  0.51100000000E-03 0.  1.
         22    1    1    0    0    0 -0.90211011182E-01 -0.89422942022E+01  0.30067063266E+02  0.31368791131E+02  0.00000000000E+00 0. -1.
</event>
<event>
 5    1  0.6622912E-004  0.9118800E+02  0.7818608E-02  0.1130116E+00
         25   -1    0    0    0    0  0.00000000000E+00  0.00000000000E+00  0.99999998245E-14  0.12500000000E+03  0.12500000000E+03 0.  0.
        -11    1    3    3    0    0  0.37905396255E+02  0.65761479190E+01 -0.87225463738E+01  0.39448036735E+02  0.51100000000E-03 0.  1.
         23    2    1    0    0    0  0.64074877530E+01 -0.13423841501E+02  0.28938828458E+02  0.92462157225E+02  0.86547901801E+02 0.  0.
         11    1    3    3    0    0 -0.31497908502E+02 -0.19999989421E+02  0.37661374832E+02  0.53014120490E+02  0.51100000000E-03 0. -1.
         22    1    1    0    0    0 -0.64074877530E+01  0.13423841501E+02 -0.28938828458E+02  0.32537842775E+02  0.00000000000E+00 0. -1.
</event>
<event>
 5    1  0.6622912E-004  0.9118800E+02  0.7818608E-02  0.1130116E+00
         25   -1    0    0    0    0  0.00000000000E+00  0.00000000000E+00  0.99999998245E-14  0.12500000000E+03  0.12500000000E+03 0.  0.
        -11    1    3    3    0    0  0.23852636673E+02  0.21450553907E+02  0.38814474861E+02  0.50355118887E+02  0.51100000000E-03 0.  1.
         23    2    1    0    0    0  0.22129133502E+02 -0.14959484026E+02  0.11431800911E+02  0.95945382743E+02  0.91440394168E+02 0.  0.
         11    1    3    3    0    0 -0.17235031710E+01 -0.36410037934E+02 -0.27382673950E+02  0.45590263855E+02  0.51100000000E-03 0. -1.
         22    1    1    0    0    0 -0.22129133502E+02  0.14959484026E+02 -0.11431800911E+02  0.29054617257E+02  0.00000000000E+00 0.  1.
</event>
<event>
 5    1  0.6622912E-004  0.9118800E+02  0.7818608E-02  0.1130116E+00
         25   -1    0    0    0    0  0.00000000000E+00  0.00000000000E+00  0.99999998245E-14  0.12500000000E+03  0.12500000000E+03 0.  0.
        -11    1    3    3    0    0  0.32165154769E+02  0.15216187330E+02  0.94849095835E+01  0.36825168680E+02  0.51100000000E-03 0.  1.
         23    2    1    0    0    0 -0.24227751079E+02  0.11689140140E+02 -0.95599727534E+01  0.96451567493E+02  0.92129755634E+02 0.  0.
         11    1    3    3    0    0 -0.56392905849E+02 -0.35270471901E+01 -0.19044882337E+02  0.59626398813E+02  0.51100000000E-03 0. -1.
         22    1    1    0    0    0  0.24227751079E+02 -0.11689140140E+02  0.95599727534E+01  0.28548432507E+02  0.00000000000E+00 0. -1.
</event>
<event>
 5    1  0.6622912E-004  0.9118800E+02  0.7818608E-02  0.1130116E+00
         25   -1    0    0    0    0  0.00000000000E+00  0.00000000000E+00  0.99999998245E-14  0.12500000000E+03  0.12500000000E+03 0.  0.
        -11    1    3    3    0    0  0.55838014638E+01  0.33806272023E+02  0.21416324426E+02  0.40406705125E+02  0.51100000000E-03 0. -1.
         23    2    1    0    0    0 -0.27954647030E+02 -0.16160754670E+01 -0.59985850785E+01  0.96363362393E+02  0.92010002707E+02 0.  0.
         11    1    3    3    0    0 -0.33538448494E+02 -0.35422347490E+02 -0.27414909505E+02  0.55956657267E+02  0.51100000000E-03 0.  1.
         22    1    1    0    0    0  0.27954647030E+02  0.16160754670E+01  0.59985850785E+01  0.28636637607E+02  0.00000000000E+00 0.  1.
</event>
<event>
 5    1  0.6622912E-004  0.9118800E+02  0.7818608E-02  0.1130116E+00
         25   -1    0    0    0    0  0.00000000000E+00  0.00000000000E+00  0.99999998245E-14  0.12500000000E+03  0.12500000000E+03 0.  0.
        -11    1    3    3    0    0 -0.13970078911E+02  0.23513203469E+02  0.25725876522E+02  0.37548030111E+02  0.51100000000E-03 0.  1.
         23    2    1    0    0    0 -0.17954515841E+02 -0.10163593594E+02 -0.21182329700E+02  0.95430516316E+02  0.90733836461E+02 0.  0.
         11    1    3    3    0    0 -0.39844369303E+01 -0.33676797063E+02 -0.46908206221E+02  0.57882486205E+02  0.51100000000E-03 0. -1.
         22    1    1    0    0    0  0.17954515841E+02  0.10163593594E+02  0.21182329700E+02  0.29569483684E+02  0.00000000000E+00 0. -1.
</event>
<event>
 5    1  0.6622912E-004  0.9118800E+02  0.7818608E-02  0.1130116E+00
         25   -1    0    0    0    0  0.00000000000E+00  0.00000000000E+00  0.99999998245E-14  0.12500000000E+03  0.12500000000E+03 0.  0.
        -11    1    3    3    0    0 -0.28057684317E+02 -0.30171250217E+02 -0.12439100241E+02  0.43037997211E+02  0.51100000000E-03 0.  1.
         23    2    1    0    0    0  0.16504496370E+02 -0.18493666685E+02  0.14380485782E+02  0.96343194888E+02  0.91982600105E+02 0.  0.
         11    1    3    3    0    0  0.44562180687E+02  0.11677583532E+02  0.26819586022E+02  0.53305197677E+02  0.51100000000E-03 0. -1.
         22    1    1    0    0    0 -0.16504496370E+02  0.18493666685E+02 -0.14380485782E+02  0.28656805112E+02  0.00000000000E+00 0.  1.
</event>
<event>
 5    1  0.6622912E-004  0.9118800E+02  0.7818608E-02  0.1130116E+00
         25   -1    0    0    0    0  0.00000000000E+00  0.00000000000E+00  0.99999998245E-14  0.12500000000E+03  0.12500000000E+03 0.  0.
        -11    1    3    3    0    0 -0.31525626168E+02  0.50370940662E+01 -0.37790481930E+01  0.32148384523E+02  0.51100000000E-03 0. -1.
         23    2    1    0    0    0  0.27402497991E+02 -0.34195093857E+01  0.13672741367E+02  0.94185493724E+02  0.89002097902E+02 0.  0.
         11    1    3    3    0    0  0.58928124159E+02 -0.84566034519E+01  0.17451789560E+02  0.62037109200E+02  0.51100000000E-03 0.  1.
         22    1    1    0    0    0 -0.27402497991E+02  0.34195093857E+01 -0.13672741367E+02  0.30814506276E+02  0.00000000000E+00 0.  1.
</event>
<event>
 5    1  0.6622912E-004  0.9118800E+02  0.7818608E-02  0.1130116E+00
         25   -1    0    0    0    0  0.00000000000E+00  0.00000000000E+00  0.99999998245E-14  0.12500000000E+03  0.12500000000E+03 0.  0.
        -11    1    3    3    0    0 -0.36376180185E+02  0.12027270183E+02  0.30263281466E+02  0.48823640977E+02  0.51100000000E-03 0.  1.
         23    2    1    0    0    0 -0.22291975934E+02 -0.17682225339E+02 -0.39493619796E+01  0.96273866532E+02  0.91888337851E+02 0.  0.
         11    1    3    3    0    0  0.14084204251E+02 -0.29709495522E+02 -0.34212643445E+02  0.47450225556E+02  0.51100000000E-03 0. -1.
         22    1    1    0    0    0  0.22291975934E+02  0.17682225339E+02  0.39493619796E+01  0.28726133468E+02  0.00000000000E+00 0. -1.
</event>
<event>
 5    1  0.6622912E-004  0.9118800E+02  0.7818608E-02  0.1130116E+00
         25   -1    0    0    0    0  0.00000000000E+00  0.00000000000E+00  0.99999998245E-14  0.12500000000E+03  0.12500000000E+03 0.  0.
        -11    1    3    3    0    0  0.11874096063E+02 -0.23708982186E+02  0.24659197149E+02  0.36210302372E+02  0.51100000000E-03 0.  1.
         23    2    1    0    0    0 -0.79653315922E+01  0.27437898552E+02 -0.17340719295E+00  0.96428775764E+02  0.92098827033E+02 0.  0.
         11    1    3    3    0    0 -0.19839427655E+02  0.51146880738E+02 -0.24832604342E+02  0.60218473391E+02  0.51100000000E-03 0. -1.
         22    1    1    0    0    0  0.79653315922E+01 -0.27437898552E+02  0.17340719295E+00  0.28571224236E+02  0.00000000000E+00 0. -1.
</event>
<event>
 5    1  0.6622912E-004  0.9118800E+02  0.7818608E-02  0.1130116E+00
         25   -1    0    0    0    0  0.00000000000E+00  0.00000000000E+00  0.99999998245E-14  0.12500000000E+03  0.12500000000E+03 0.  0.
        -11    1    3    3    0    0  0.52835172564E+02  0.10216656629E+02  0.37080492296E+00  0.53815174710E+02  0.51100000000E-03 0.  1.
         23    2    1    0    0    0  0.16177172573E+02  0.77593137805E+01 -0.21830694492E+02  0.96742486224E+02  0.92523627015E+02 0.  0.
         11    1    3    3    0    0 -0.36657999991E+02 -0.24573428484E+01 -0.22201499415E+02  0.42927311513E+02  0.51100000000E-03 0. -1.
         22    1    1    0    0    0 -0.16177172573E+02 -0.77593137805E+01  0.21830694492E+02  0.28257513776E+02  0.00000000000E+00 0.  1.
</event>
<event>
 5    1  0.6622912E-004  0.9118800E+02  0.7818608E-02  0.1130116E+00
         25   -1    0    0    0    0  0.00000000000E+00  0.00000000000E+00  0.99999998245E-14  0.12500000000E+03  0.12500000000E+03 0.  0.
        -11    1    3    3    0    0  0.14304031820E+01  0.36623225397E+02 -0.27410639861E+02  0.45767345014E+02  0.51100000000E-03 0. -1.
         23    2    1    0    0    0  0.29552426585E+02  0.54168757567E+01 -0.19431748835E+01  0.94892452961E+02  0.89989517392E+02 0.  0.
         11    1    3    3    0    0  0.28122023403E+02 -0.31206349641E+02  0.25467464978E+02  0.49125107947E+02  0.51100000000E-03 0.  1.
         22    1    1    0    0    0 -0.29552426585E+02 -0.54168757567E+01  0.19431748835E+01  0.30107547039E+02  0.00000000000E+00 0. -1.
</event>
<event>
 5    1  0.6622912E-004  0.9118800E+02  0.7818608E-02  0.1130116E+00
         25   -1    0    0    0    0  0.00000000000E+00  0.00000000000E+00  0.99999998245E-14  0.12500000000E+03  0.12500000000E+03 0.  0.
        -11    1    3    3    0    0 -0.48642528720E+02 -0.14513849464E+01  0.20563631209E+02  0.52830531393E+02  0.51100000000E-03 0.  1.
         23    2    1    0    0    0 -0.64334004219E+01 -0.91200665400E+01  0.26600186211E+02  0.96153264290E+02  0.91724130262E+02 0.  0.
         11    1    3    3    0    0  0.42209128298E+02 -0.76686815936E+01  0.60365550021E+01  0.43322732896E+02  0.51100000000E-03 0. -1.
         22    1    1    0    0    0  0.64334004219E+01  0.91200665400E+01 -0.26600186211E+02  0.28846735710E+02  0.00000000000E+00 0.  1.
</event>
<event>
 5    1  0.6622912E-004  0.9118800E+02  0.7818608E-02  0.1130116E+00
         25   -1    0    0    0    0  0.00000000000E+00  0.00000000000E+00  0.99999998245E-14  0.12500000000E+03  0.12500000000E+03 0.  0.
        -11    1    3    3    0    0 -0.26865513881E+02  0.15132223853E+02 -0.37190724627E+02  0.48310351203E+02  0.51100000000E-03 0.  1.
         23    2    1    0    0    0  0.11301269364E+02 -0.12315074744E+02 -0.21278702455E+02  0.97941490556E+02  0.94129552421E+02 0.  0.
         11    1    3    3    0    0  0.38166783245E+02 -0.27447298597E+02  0.15912022173E+02  0.49631139353E+02  0.51100000000E-03 0. -1.
         22    1    1    0    0    0 -0.11301269364E+02  0.12315074744E+02  0.21278702455E+02  0.27058509444E+02  0.00000000000E+00 0. -1.
</event>
<event>
 5    1  0.6622912E-004  0.9118800E+02  0.7818608E-02  0.1130116E+00
         25   -1    0    0    0    0  0.00000000000E+00  0.00000000000E+00  0.99999998245E-14  0.12500000000E+03  0.12500000000E+03 0.  0.
        -11    1    3    3    0    0 -0.14907997270E+02  0.29173305749E+02 -0.36296192767E+02  0.48895232493E+02  0.51100000000E-03 0. -1.
         23    2    1    0    0    0 -0.41955777908E+01  0.25642964020E+02  0.10457824441E+02  0.96990527161E+02  0.92858127216E+02 0.  0.
         11    1    3    3    0    0  0.10712419479E+02 -0.35303417292E+01  0.46754017208E+02  0.48095294667E+02  0.51100000000E-03 0.  1.
         22    1    1    0    0    0  0.41955777908E+01 -0.25642964020E+02 -0.10457824441E+02  0.28009472839E+02  0.00000000000E+00 0.  1.
</event>
<event>
 5    1  0.6622912E-004  0.9118800E+02  0.7818608E-02  0.1130116E+00
         25   -1    0    0    0    0  0.00000000000E+00  0.00000000000E+00  0.99999998245E-14  0.12500000000E+03  0.12500000000E+03 0.  0.
        -11    1    3    3    0    0 -0.90153581416E+01 -0.25587994949E+02 -0.19310522968E+02  0.33300427407E+02  0.51100000000E-03 0. -1.
         23    2    1    0    0    0 -0.10296963621E-01  0.30500027580E+02  0.30471411531E+01  0.94348134517E+02  0.89230228225E+02 0.  0.
         11    1    3    3    0    0  0.90050611779E+01  0.56088022529E+02  0.22357664121E+02  0.61047707109E+02  0.51100000000E-03 0.  1.
         22    1    1    0    0    0  0.10296963621E-01 -0.30500027580E+02 -0.30471411531E+01  0.30651865483E+02  0.00000000000E+00 0.  1.
</event>
<event>
 5    1  0.6622912E-004  0.9118800E+02  0.7818608E-02  0.1130116E+00
         25   -1    0    0    0    0  0.00000000000E+00  0.00000000000E+00  0.99999998245E-14  0.12500000000E+03  0.12500000000E+03 0.  0.
        -11    1    3    3    0    0 -0.57981484986E+01  0.26430280011E+02  0.30944387784E+02  0.41106366454E+02  0.51100000000E-03 0. -1.
         23    2    1    0    0    0  0.29736272366E+02  0.11341782004E+02 -0.36777258666E+01  0.92962403635E+02  0.87267410348E+02 0.  0.
         11    1    3    3    0    0  0.35534420865E+02 -0.15088498006E+02 -0.34622113650E+02  0.51856037182E+02  0.51100000000E-03 0.  1.
         22    1    1    0    0    0 -0.29736272366E+02 -0.11341782004E+02  0.36777258666E+01  0.32037596365E+02  0.00000000000E+00 0. -1.
</event>
<event>
 5    1  0.6622912E-004  0.9118800E+02  0.7818608E-02  0.1130116E+00
         25   -1    0    0    0    0  0.00000000000E+00  0.00000000000E+00  0.99999998245E-14  0.12500000000E+03  0.12500000000E+03 0.  0.
        -11    1    3    3    0    0 -0.18682948032E+02 -0.13992348894E+02 -0.57605961705E+02  0.62155331219E+02  0.51100000000E-03 0.  1.
         23    2    1    0    0    0 -0.48554846340E+01 -0.91607468442E+01 -0.26738709126E+02  0.96321548517E+02  0.91953179005E+02 0.  0.
         11    1    3    3    0    0  0.13827463399E+02  0.48316020500E+01  0.30867252579E+02  0.34166217298E+02  0.51100000000E-03 0. -1.
         22    1    1    0    0    0  0.48554846340E+01  0.91607468442E+01  0.26738709126E+02  0.28678451483E+02  0.00000000000E+00 0.  1.
</event>
<event>
 5    1  0.6622912E-004  0.9118800E+02  0.7818608E-02  0.1130116E+00
         25   -1    0    0    0    0  0.00000000000E+00  0.00000000000E+00  0.99999998245E-14  0.12500000000E+03  0.12500000000E+03 0.  0.
        -11    1    3    3    0    0  0.41354366214E+02  0.30282939953E+02  0.30013370460E+02  0.59397327076E+02  0.51100000000E-03 0.  1.
         23    2    1    0    0    0  0.70082267808E+01  0.18594368922E+02  0.19473001984E+02  0.97178001429E+02  0.93110151741E+02 0.  0.
         11    1    3    3    0    0 -0.34346139433E+02 -0.11688571031E+02 -0.10540368476E+02  0.37780674353E+02  0.51100000000E-03 0. -1.
         22    1    1    0    0    0 -0.70082267808E+01 -0.18594368922E+02 -0.19473001984E+02  0.27821998571E+02  0.00000000000E+00 0.  1.
</event>
<event>
 5    1  0.6622912E-004  0.9118800E+02  0.7818608E-02  0.1130116E+00
         25   -1    0    0    0    0  0.00000000000E+00  0.00000000000E+00  0.99999998245E-14  0.12500000000E+03  0.12500000000E+03 0.  0.
        -11    1    3    3    0    0  0.45875618860E+02 -0.14847019265E+02  0.36889547937E+02  0.60711161529E+02  0.51100000000E-03 0.  1.
         23    2    1    0    0    0  0.14759221593E+02 -0.35123497269E+01  0.24725462182E+02  0.95991040992E+02  0.91502788197E+02 0.  0.
         11    1    3    3    0    0 -0.31116397267E+02  0.11334669538E+02 -0.12164085756E+02  0.35279879463E+02  0.51100000000E-03 0. -1.
         22    1    1    0    0    0 -0.14759221593E+02  0.35123497269E+01 -0.24725462182E+02  0.29008959008E+02  0.00000000000E+00 0.  1.
</event>
<event>
 5    1  0.6622912E-004  0.9118800E+02  0.7818608E-02  0.1130116E+00
         25   -1    0    0    0    0  0.00000000000E+00  0.00000000000E+00  0.99999998245E-14  0.12500000000E+03  0.12500000000E+03 0.  0.
        -11    1    3    3    0    0  0.20348854952E+02  0.35162410368E+02 -0.10225603924E+02  0.41893125648E+02  0.51100000000E-03 0.  1.
         23    2    1    0    0    0 -0.19432186507E+01  0.22696031114E+01  0.27888020558E+02  0.96952381783E+02  0.92806764009E+02 0.  0.
         11    1    3    3    0    0 -0.22292073602E+02 -0.32892807256E+02  0.38113624482E+02  0.55059256135E+02  0.51100000000E-03 0. -1.
         22    1    1    0    0    0  0.19432186507E+01 -0.22696031114E+01 -0.27888020558E+02  0.28047618217E+02  0.00000000000E+00 0. -1.
</event>
<event>
 4    1  0.6622912E-004  0.9118800E+02  0.7818608E-02  0.1130116E+00
         25   -1    0    0    0    0  0.00000000000E+00  0.00000000000E+00  0.99999998245E-14  0.12500000000E+03  0.12500000000E+03 0.  0.
        -11    1    1    0    0    0  0.10296491343E+02 -0.21453898349E+02 -0.29708436560E+02  0.38064139179E+02  0.51100000000E-03 0.  1.
         11    1    1    0    0    0  0.91505524607E+01  0.17674880232E+02 -0.23124812549E+02  0.30510505686E+02  0.51100000000E-03 0. -1.
         22    1    1    0    0    0 -0.19447043804E+02  0.37790181166E+01  0.52833249109E+02  0.56425355134E+02  0.00000000000E+00 0.  1.
</event>
<event>
 5    1  0.6622912E-004  0.9118800E+02  0.7818608E-02  0.1130116E+00
         25   -1    0    0    0    0  0.00000000000E+00  0.00000000000E+00  0.99999998245E-14  0.12500000000E+03  0.12500000000E+03 0.  0.
        -11    1    3    3    0    0  0.44159206696E+02 -0.11043980426E+02  0.36884824667E+02  0.58587501489E+02  0.51100000000E-03 0. -1.
         23    2    1    0    0    0  0.28254302066E+02  0.69210397095E+00  0.47120680168E+01  0.96347108730E+02  0.91987918677E+02 0.  0.
         11    1    3    3    0    0 -0.15904904630E+02  0.11736084397E+02 -0.32172756651E+02  0.37759607242E+02  0.51100000000E-03 0.  1.
         22    1    1    0    0    0 -0.28254302066E+02 -0.69210397095E+00 -0.47120680168E+01  0.28652891270E+02  0.00000000000E+00 0. -1.
</event>
<event>
 5    1  0.6622912E-004  0.9118800E+02  0.7818608E-02  0.1130116E+00
         25   -1    0    0    0    0  0.00000000000E+00  0.00000000000E+00  0.99999998245E-14  0.12500000000E+03  0.12500000000E+03 0.  0.
        -11    1    3    3    0    0 -0.51692322319E+01 -0.70838958197E+01  0.61816045183E+02  0.62434974046E+02  0.51100000000E-03 0.  1.
         23    2    1    0    0    0 -0.18016862257E+01 -0.53029915147E+01  0.29663878587E+02  0.94812030789E+02  0.89877737495E+02 0.  0.
         11    1    3    3    0    0  0.33675460062E+01  0.17809043050E+01 -0.32152166596E+02  0.32377056742E+02  0.51100000000E-03 0. -1.
         22    1    1    0    0    0  0.18016862257E+01  0.53029915147E+01 -0.29663878587E+02  0.30187969211E+02  0.00000000000E+00 0.  1.
</event>
<event>
 5    1  0.6622912E-004  0.9118800E+02  0.7818608E-02  0.1130116E+00
         25   -1    0    0    0    0  0.00000000000E+00  0.00000000000E+00  0.99999998245E-14  0.12500000000E+03  0.12500000000E+03 0.  0.
        -11    1    3    3    0    0 -0.48448194658E+02  0.27044870507E+01 -0.44717649565E+01  0.48729236582E+02  0.51100000000E-03 0.  1.
         23    2    1    0    0    0 -0.82382076137E+01  0.15603679032E+02 -0.23965197971E+02  0.95239731557E+02  0.90470618928E+02 0.  0.
         11    1    3    3    0    0  0.40209987044E+02  0.12899191981E+02 -0.19493433014E+02  0.46510494975E+02  0.51100000000E-03 0. -1.
         22    1    1    0    0    0  0.82382076137E+01 -0.15603679032E+02  0.23965197971E+02  0.29760268443E+02  0.00000000000E+00 0. -1.
</event>
<event>
 5    1  0.6622912E-004  0.9118800E+02  0.7818608E-02  0.1130116E+00
         25   -1    0    0    0    0  0.00000000000E+00  0.00000000000E+00  0.99999998245E-14  0.12500000000E+03  0.12500000000E+03 0.  0.
        -11    1    3    3    0    0  0.71986604726E+01  0.35091486503E+02  0.10284124647E+02  0.37269241442E+02  0.51100000000E-03 0.  1.
         23    2    1    0    0    0 -0.37892778966E+01 -0.63527374031E+01 -0.28787447834E+02  0.95277398292E+02  0.90522646741E+02 0.  0.
         11    1    3    3    0    0 -0.10987938369E+02 -0.41444223907E+02 -0.39071572481E+02  0.58008156850E+02  0.51100000000E-03 0. -1.
         22    1    1    0    0    0  0.37892778966E+01  0.63527374031E+01  0.28787447834E+02  0.29722601708E+02  0.00000000000E+00 0. -1.
</event>
<event>
 5    1  0.6622912E-004  0.9118800E+02  0.7818608E-02  0.1130116E+00
         25   -1    0    0    0    0  0.00000000000E+00  0.00000000000E+00  0.99999998245E-14  0.12500000000E+03  0.12500000000E+03 0.  0.
        -11    1    3    3    0    0 -0.53881538943E+02 -0.32408316400E+01 -0.14436792945E+02  0.55876150721E+02  0.51100000000E-03 0. -1.
         23    2    1    0    0    0 -0.17390476169E+02  0.12469261585E+02 -0.19652324965E+02  0.95946170263E+02  0.91441470711E+02 0.  0.
         11    1    3    3    0    0  0.36491062774E+02  0.15710093225E+02 -0.52155320195E+01  0.40070019541E+02  0.51100000000E-03 0.  1.
         22    1    1    0    0    0  0.17390476169E+02 -0.12469261585E+02  0.19652324965E+02  0.29053829737E+02  0.00000000000E+00 0. -1.
</event>
<event>
 5    1  0.6622912E-004  0.9118800E+02  0.7818608E-02  0.1130116E+00
         25   -1    0    0    0    0  0.00000000000E+00  0.00000000000E+00  0.99999998245E-14  0.12500000000E+03  0.12500000000E+03 0.  0.
        -11    1    3    3    0    0  0.21970542396E+02  0.29656193229E+02 -0.21853479325E+02  0.42892529523E+02  0.51100000000E-03 0. -1.
         23    2    1    0    0    0 -0.84812043042E+01  0.20488304650E+02  0.19782095221E+02  0.95284133107E+02  0.90531946167E+02 0.  0.
         11    1    3    3    0    0 -0.30451746700E+02 -0.91678885795E+01  0.41635574546E+02  0.52391603584E+02  0.51100000000E-03 0.  1.
         22    1    1    0    0    0  0.84812043042E+01 -0.20488304650E+02 -0.19782095221E+02  0.29715866893E+02  0.00000000000E+00 0. -1.
</event>
<event>
 5    1  0.6622912E-004  0.9118800E+02  0.7818608E-02  0.1130116E+00
         25   -1    0    0    0    0  0.00000000000E+00  0.00000000000E+00  0.99999998245E-14  0.12500000000E+03  0.12500000000E+03 0.  0.
        -11    1    3    3    0    0 -0.23829738464E+02 -0.17221142388E+02 -0.16080656858E+02  0.33511366812E+02  0.51100000000E-03 0. -1.
         23    2    1    0    0    0  0.94545475478E+01  0.83867967619E+01  0.27930093776E+02  0.94343565641E+02  0.89223827593E+02 0.  0.
         11    1    3    3    0    0  0.33284286012E+02  0.25607939149E+02  0.44010750634E+02  0.60832198829E+02  0.51100000000E-03 0.  1.
         22    1    1    0    0    0 -0.94545475478E+01 -0.83867967619E+01 -0.27930093776E+02  0.30656434359E+02  0.00000000000E+00 0.  1.
</event>
<event>
 5    1  0.6622912E-004  0.9118800E+02  0.7818608E-02  0.1130116E+00
         25   -1    0    0    0    0  0.00000000000E+00  0.00000000000E+00  0.99999998245E-14  0.12500000000E+03  0.12500000000E+03 0.  0.
        -11    1    3    3    0    0  0.16991858588E+02 -0.37783674038E+02  0.12836153581E+02  0.43371605009E+02  0.51100000000E-03 0.  1.
         23    2    1    0    0    0 -0.22067725659E+02 -0.14036634511E+02 -0.12908182228E+02  0.95834390241E+02  0.91288540137E+02 0.  0.
         11    1    3    3    0    0 -0.39059584247E+02  0.23747039526E+02 -0.25744335809E+02  0.52462785232E+02  0.51100000000E-03 0. -1.
         22    1    1    0    0    0  0.22067725659E+02  0.14036634511E+02  0.12908182228E+02  0.29165609759E+02  0.00000000000E+00 0. -1.
</event>
<event>
 5    1  0.6622912E-004  0.9118800E+02  0.7818608E-02  0.1130116E+00
         25   -1    0    0    0    0  0.00000000000E+00  0.00000000000E+00  0.99999998245E-14  0.12500000000E+03  0.12500000000E+03 0.  0.
        -11    1    3    3    0    0 -0.26782013022E+02 -0.49425535383E+01 -0.27222026125E+02  0.38506411981E+02  0.51100000000E-03 0. -1.
         23    2    1    0    0    0  0.26878935438E+02  0.45702249467E+01 -0.54282832064E+01  0.97200172934E+02  0.93139912140E+02 0.  0.
         11    1    3    3    0    0  0.53660948460E+02  0.95127784850E+01  0.21793742919E+02  0.58693760953E+02  0.51100000000E-03 0.  1.
         22    1    1    0    0    0 -0.26878935438E+02 -0.45702249467E+01  0.54282832064E+01  0.27799827066E+02  0.00000000000E+00 0.  1.
</event>
<event>
 5    1  0.6622912E-004  0.9118800E+02  0.7818608E-02  0.1130116E+00
         25   -1    0    0    0    0  0.00000000000E+00  0.00000000000E+00  0.99999998245E-14  0.12500000000E+03  0.12500000000E+03 0.  0.
        -11    1    3    3    0    0  0.30066425545E+02 -0.31782625347E+02 -0.40181293801E+02  0.59402538589E+02  0.51100000000E-03 0. -1.
         23    2    1    0    0    0  0.28991553851E+02 -0.12422913696E+02 -0.18735469005E+02  0.88314079292E+02  0.80333802492E+02 0.  0.
         11    1    3    3    0    0 -0.10748716937E+01  0.19359711651E+02  0.21445824796E+02  0.28911540703E+02  0.51100000000E-03 0.  1.
         22    1    1    0    0    0 -0.28991553851E+02  0.12422913696E+02  0.18735469005E+02  0.36685920708E+02  0.00000000000E+00 0. -1.
</event>
<event>
 5    1  0.6622912E-004  0.9118800E+02  0.7818608E-02  0.1130116E+00
         25   -1    0    0    0    0  0.00000000000E+00  0.00000000000E+00  0.99999998245E-14  0.12500000000E+03  0.12500000000E+03 0.  0.
        -11    1    3    3    0    0 -0.78015931305E+01 -0.27008717215E+02 -0.18914435887E+02  0.33883499615E+02  0.51100000000E-03 0. -1.
         23    2    1    0    0    0  0.20989680162E+02  0.17119153366E+02  0.12437321842E+02  0.95195318156E+02  0.90409233704E+02 0.  0.
         11    1    3    3    0    0  0.28791273292E+02  0.44127870581E+02  0.31351757729E+02  0.61311818540E+02  0.51100000000E-03 0.  1.
         22    1    1    0    0    0 -0.20989680162E+02 -0.17119153366E+02 -0.12437321842E+02  0.29804681844E+02  0.00000000000E+00 0.  1.
</event>
<event>
 5    1  0.6622912E-004  0.9118800E+02  0.7818608E-02  0.1130116E+00
         25   -1    0    0    0    0  0.00000000000E+00  0.00000000000E+00  0.99999998245E-14  0.12500000000E+03  0.12500000000E+03 0.  0.
        -11    1    3    3    0    0  0.23468313643E+02  0.47263864465E+02  0.25651426493E+02  0.58673932123E+02  0.51100000000E-03 0.  1.
         23    2    1    0    0    0  0.12916659469E+02  0.10512581615E+02  0.22454836968E+02  0.97043352002E+02  0.92929209619E+02 0.  0.
         11    1    3    3    0    0 -0.10551654173E+02 -0.36751282850E+02 -0.31965895252E+01  0.38369419878E+02  0.51100000000E-03 0. -1.
         22    1    1    0    0    0 -0.12916659469E+02 -0.10512581615E+02 -0.22454836968E+02  0.27956647998E+02  0.00000000000E+00 0.  1.
</event>
<event>
 5    1  0.6622912E-004  0.9118800E+02  0.7818608E-02  0.1130116E+00
         25   -1    0    0    0    0  0.00000000000E+00  0.00000000000E+00  0.99999998245E-14  0.12500000000E+03  0.12500000000E+03 0.  0.
        -11    1    3    3    0    0 -0.40497623529E+02 -0.19920337450E+02  0.19684257376E+02  0.49237661848E+02  0.51100000000E-03 0.  1.
         23    2    1    0    0    0 -0.14618631583E+02  0.16563701394E+02  0.21726304083E+02  0.94014634384E+02  0.88761808206E+02 0.  0.
         11    1    3    3    0    0  0.25878991945E+02  0.36484038844E+02  0.20420467071E+01  0.44776972536E+02  0.51100000000E-03 0. -1.
         22    1    1    0    0    0  0.14618631583E+02 -0.16563701394E+02 -0.21726304083E+02  0.30985365616E+02  0.00000000000E+00 0.  1.
</event>
<event>
 5    1  0.6622912E-004  0.9118800E+02  0.7818608E-02  0.1130116E+00
         25   -1    0    0    0    0  0.00000000000E+00  0.00000000000E+00  0.99999998245E-14  0.12500000000E+03  0.12500000000E+03 0.  0.
        -11    1    3    3    0    0  0.65601704554E+01 -0.22912007084E+02 -0.27275317791E+02  0.36220696651E+02  0.51100000000E-03 0.  1.
         23    2    1    0    0    0  0.11833421316E+02  0.52345432326E+00  0.26968220953E+02  0.95545139521E+02  0.90891610615E+02 0.  0.
         11    1    3    3    0    0  0.52732508608E+01  0.23435461407E+02  0.54243538745E+02  0.59324442870E+02  0.51100000000E-03 0. -1.
         22    1    1    0    0    0 -0.11833421316E+02 -0.52345432326E+00 -0.26968220953E+02  0.29454860479E+02  0.00000000000E+00 0. -1.
</event>
<event>
 5    1  0.6622912E-004  0.9118800E+02  0.7818608E-02  0.1130116E+00
         25   -1    0    0    0    0  0.00000000000E+00  0.00000000000E+00  0.99999998245E-14  0.12500000000E+03  0.12500000000E+03 0.  0.
        -11    1    3    3    0    0  0.22580409361E+02  0.27853566910E+02  0.44047362409E+02  0.56796709518E+02  0.51100000000E-03 0. -1.
         23    2    1    0    0    0  0.27095340223E+02  0.86257937485E+01  0.38168509153E+02  0.77403814538E+02  0.61040590057E+02 0.  0.
         11    1    3    3    0    0  0.45149308616E+01 -0.19227773162E+02 -0.58788532563E+01  0.20607105020E+02  0.51100000000E-03 0.  1.
         22    1    1    0    0    0 -0.27095340223E+02 -0.86257937485E+01 -0.38168509153E+02  0.47596185462E+02  0.00000000000E+00 0. -1.
</event>
<event>
 5    1  0.6622912E-004  0.9118800E+02  0.7818608E-02  0.1130116E+00
         25   -1    0    0    0    0  0.00000000000E+00  0.00000000000E+00  0.99999998245E-14  0.12500000000E+03  0.12500000000E+03 0.  0.
        -11    1    3    3    0    0  0.51214735040E+00 -0.32286288251E+02 -0.43748524226E+02  0.54374627135E+02  0.51100000000E-03 0.  1.
         23    2    1    0    0    0 -0.20973574034E+02 -0.72549670608E+01 -0.21004647635E+02  0.94443158260E+02  0.89363245046E+02 0.  0.
         11    1    3    3    0    0 -0.21485721384E+02  0.25031321190E+02  0.22743876590E+02  0.40068531125E+02  0.51100000000E-03 0. -1.
         22    1    1    0    0    0  0.20973574034E+02  0.72549670608E+01  0.21004647635E+02  0.30556841740E+02  0.00000000000E+00 0.  1.
</event>
<event>
 5    1  0.6622912E-004  0.9118800E+02  0.7818608E-02  0.1130116E+00
         25   -1    0    0    0    0  0.00000000000E+00  0.00000000000E+00  0.99999998245E-14  0.12500000000E+03  0.12500000000E+03 0.  0.
        -11    1    3    3    0    0 -0.34528580120E+01 -0.34527756201E+02 -0.14779555519E+02  0.37716355051E+02  0.51100000000E-03 0. -1.
         23    2    1    0    0    0 -0.73616621044E+01  0.12129311902E+02  0.23065827627E+02  0.97919625552E+02  0.94100512156E+02 0.  0.
         11    1    3    3    0    0 -0.39088040924E+01  0.46657068102E+02  0.37845383145E+02  0.60203270501E+02  0.51100000000E-03 0.  1.
         22    1    1    0    0    0  0.73616621044E+01 -0.12129311902E+02 -0.23065827627E+02  0.27080374448E+02  0.00000000000E+00 0.  1.
</event>
<event>
 5    1  0.6622912E-004  0.9118800E+02  0.7818608E-02  0.1130116E+00
         25   -1    0    0    0    0  0.00000000000E+00  0.00000000000E+00  0.99999998245E-14  0.12500000000E+03  0.12500000000E+03 0.  0.
        -11    1    3    3    0    0 -0.12116012058E+02  0.97603915667E+01 -0.55175432250E+02  0.57327055707E+02  0.51100000000E-03 0. -1.
         23    2    1    0    0    0 -0.23393804948E+02 -0.11265337279E+01 -0.35234709914E+02  0.82691325111E+02  0.71048091302E+02 0.  0.
         11    1    3    3    0    0 -0.11277792890E+02 -0.10886925295E+02  0.19940722336E+02  0.25364269404E+02  0.51100000000E-03 0.  1.
         22    1    1    0    0    0  0.23393804948E+02  0.11265337279E+01  0.35234709914E+02  0.42308674889E+02  0.00000000000E+00 0. -1.
</event>
<event>
 5    1  0.6622912E-004  0.9118800E+02  0.7818608E-02  0.1130116E+00
         25   -1    0    0    0    0  0.00000000000E+00  0.00000000000E+00  0.99999998245E-14  0.12500000000E+03  0.12500000000E+03 0.  0.
        -11    1    3    3    0    0  0.15615369918E+02  0.22944473651E+02 -0.29089047623E+02  0.40205240214E+02  0.51100000000E-03 0. -1.
         23    2    1    0    0    0 -0.17727443001E+02 -0.19033493119E+02 -0.10599811631E+02  0.96912776886E+02  0.92753405444E+02 0.  0.
         11    1    3    3    0    0 -0.33342812919E+02 -0.41977966770E+02  0.18489235992E+02  0.56707536671E+02  0.51100000000E-03 0.  1.
         22    1    1    0    0    0  0.17727443001E+02  0.19033493119E+02  0.10599811631E+02  0.28087223114E+02  0.00000000000E+00 0.  1.
</event>
<event>
 5    1  0.6622912E-004  0.9118800E+02  0.7818608E-02  0.1130116E+00
         25   -1    0    0    0    0  0.00000000000E+00  0.00000000000E+00  0.99999998245E-14  0.12500000000E+03  0.12500000000E+03 0.  0.
        -11    1    3    3    0    0 -0.13462101895E+02  0.45302764929E+01  0.38843521103E+02  0.41359046465E+02  0.51100000000E-03 0.  1.
         23    2    1    0    0    0 -0.23814261927E+02  0.10838989483E+02 -0.13826690703E+02  0.95406417251E+02  0.90700630167E+02 0.  0.
         11    1    3    3    0    0 -0.10352160032E+02  0.63087129901E+01 -0.52670211806E+02  0.54047370786E+02  0.51100000000E-03 0. -1.
         22    1    1    0    0    0  0.23814261927E+02 -0.10838989483E+02  0.13826690703E+02  0.29593582749E+02  0.00000000000E+00 0. -1.
</event>
<event>
 5    1  0.6622912E-004  0.9118800E+02  0.7818608E-02  0.1130116E+00
         25   -1    0    0    0    0  0.00000000000E+00  0.00000000000E+00  0.99999998245E-14  0.12500000000E+03  0.12500000000E+03 0.  0.
        -11    1    3    3    0    0  0.29840712371E+02  0.35696828864E+02  0.39108623407E+02  0.60780063597E+02  0.51100000000E-03 0.  1.
         23    2    1    0    0    0  0.87858760733E+01  0.24509396683E+02  0.13870733719E+02  0.95499162756E+02  0.90828358397E+02 0.  0.
         11    1    3    3    0    0 -0.21054836297E+02 -0.11187432180E+02 -0.25237889688E+02  0.34719099160E+02  0.51100000000E-03 0. -1.
         22    1    1    0    0    0 -0.87858760733E+01 -0.24509396683E+02 -0.13870733719E+02  0.29500837244E+02  0.00000000000E+00 0.  1.
</event>
<event>
 5    1  0.6622912E-004  0.9118800E+02  0.7818608E-02  0.1130116E+00
         25   -1    0    0    0    0  0.00000000000E+00  0.00000000000E+00  0.99999998245E-14  0.12500000000E+03  0.12500000000E+03 0.  0.
        -11    1    3    3    0    0  0.17388603988E+02 -0.16878188407E+02  0.30203186570E+02  0.38722981184E+02  0.51100000000E-03 0. -1.
         23    2    1    0    0    0  0.16676477652E+02  0.29809796230E+01 -0.23525984825E+02  0.96009258230E+02  0.91527670994E+02 0.  0.
         11    1    3    3    0    0 -0.71212633608E+00  0.19859168030E+02 -0.53729171394E+02  0.57286277046E+02  0.51100000000E-03 0.  1.
         22    1    1    0    0    0 -0.16676477652E+02 -0.29809796230E+01  0.23525984825E+02  0.28990741770E+02  0.00000000000E+00 0.  1.
</event>
<event>
 5    1  0.6622912E-004  0.9118800E+02  0.7818608E-02  0.1130116E+00
         25   -1    0    0    0    0  0.00000000000E+00  0.00000000000E+00  0.99999998245E-14  0.12500000000E+03  0.12500000000E+03 0.  0.
        -11    1    3    3    0    0  0.24617225959E+02 -0.27153484244E+02  0.70665234504E+01  0.37326334865E+02  0.51100000000E-03 0.  1.
         23    2    1    0    0    0 -0.14831193825E+02  0.18667673019E+01 -0.25005846762E+02  0.95866831571E+02  0.91332950750E+02 0.  0.
         11    1    3    3    0    0 -0.39448419784E+02  0.29020251546E+02 -0.32072370212E+02  0.58540496706E+02  0.51100000000E-03 0. -1.
         22    1    1    0    0    0  0.14831193825E+02 -0.18667673019E+01  0.25005846762E+02  0.29133168429E+02  0.00000000000E+00 0. -1.
</event>
<event>
 5    1  0.6622912E-004  0.9118800E+02  0.7818608E-02  0.1130116E+00
         25   -1    0    0    0    0  0.00000000000E+00  0.00000000000E+00  0.99999998245E-14  0.12500000000E+03  0.12500000000E+03 0.  0.
        -11    1    3    3    0    0 -0.46218964882E+02  0.25698152843E+02 -0.80577929639E+00  0.52888912400E+02  0.51100000000E-03 0.  1.
         23    2    1    0    0    0 -0.20496395164E+02 -0.11159702415E+01 -0.21379591160E+02  0.95361603915E+02  0.90638849170E+02 0.  0.
         11    1    3    3    0    0  0.25722569718E+02 -0.26814123085E+02 -0.20573811864E+02  0.42472691515E+02  0.51100000000E-03 0. -1.
         22    1    1    0    0    0  0.20496395164E+02  0.11159702415E+01  0.21379591160E+02  0.29638396085E+02  0.00000000000E+00 0.  1.
</event>
<event>
 5    1  0.6622912E-004  0.9118800E+02  0.7818608E-02  0.1130116E+00
         25   -1    0    0    0    0  0.00000000000E+00  0.00000000000E+00  0.99999998245E-14  0.12500000000E+03  0.12500000000E+03 0.  0.
        -11    1    3    3    0    0 -0.47498162107E+01  0.83408178135E+01  0.37836251858E+02  0.39034753115E+02  0.51100000000E-03 0. -1.
         23    2    1    0    0    0  0.73506352726E+01 -0.30076814862E+02  0.38282346000E+00  0.94035614249E+02  0.88791348465E+02 0.  0.
         11    1    3    3    0    0  0.12100451483E+02 -0.38417632675E+02 -0.37453428398E+02  0.55000861134E+02  0.51100000000E-03 0.  1.
         22    1    1    0    0    0 -0.73506352726E+01  0.30076814862E+02 -0.38282346000E+00  0.30964385751E+02  0.00000000000E+00 0.  1.
</event>
<event>
 5    1  0.6622912E-004  0.9118800E+02  0.7818608E-02  0.1130116E+00
         25   -1    0    0    0    0  0.00000000000E+00  0.00000000000E+00  0.99999998245E-14  0.12500000000E+03  0.12500000000E+03 0.  0.
        -11    1    3    3    0    0 -0.32950936451E+02 -0.91452345689E+01  0.79508418716E+01  0.35108623087E+02  0.51100000000E-03 0. -1.
         23    2    1    0    0    0  0.18048630805E+02  0.14692941242E+02 -0.16486002688E+02  0.96479413033E+02  0.92167528221E+02 0.  0.
         11    1    3    3    0    0  0.50999567256E+02  0.23838175811E+02 -0.24436844560E+02  0.61370789946E+02  0.51100000000E-03 0.  1.
         22    1    1    0    0    0 -0.18048630805E+02 -0.14692941242E+02  0.16486002688E+02  0.28520586967E+02  0.00000000000E+00 0.  1.
</event>
<event>
 5    1  0.6622912E-004  0.9118800E+02  0.7818608E-02  0.1130116E+00
         25   -1    0    0    0    0  0.00000000000E+00  0.00000000000E+00  0.99999998245E-14  0.12500000000E+03  0.12500000000E+03 0.  0.
        -11    1    3    3    0    0  0.56025693533E+02 -0.23971142585E+02 -0.20463809288E+01  0.60972794654E+02  0.51100000000E-03 0. -1.
         23    2    1    0    0    0  0.22519160735E+02 -0.20228533244E+02 -0.43083711666E+00  0.94726384788E+02  0.89758543866E+02 0.  0.
         11    1    3    3    0    0 -0.33506532798E+02  0.37426093416E+01  0.16155438121E+01  0.33753590134E+02  0.51100000000E-03 0.  1.
         22    1    1    0    0    0 -0.22519160735E+02  0.20228533244E+02  0.43083711666E+00  0.30273615212E+02  0.00000000000E+00 0. -1.
</event>
<event>
 5    1  0.6622912E-004  0.9118800E+02  0.7818608E-02  0.1130116E+00
         25   -1    0    0    0    0  0.00000000000E+00  0.00000000000E+00  0.99999998245E-14  0.12500000000E+03  0.12500000000E+03 0.  0.
        -11    1    3    3    0    0  0.40517044538E+02  0.34579820202E+02 -0.61586242008E+01  0.53622043187E+02  0.51100000000E-03 0. -1.
         23    2    1    0    0    0  0.29739363505E+02 -0.44192138234E+01  0.18863120177E+01  0.94874971112E+02  0.89965230939E+02 0.  0.
         11    1    3    3    0    0 -0.10777681033E+02 -0.38999034025E+02  0.80449362185E+01  0.41252927925E+02  0.51100000000E-03 0.  1.
         22    1    1    0    0    0 -0.29739363505E+02  0.44192138234E+01 -0.18863120177E+01  0.30125028888E+02  0.00000000000E+00 0. -1.
</event>
<event>
 5    1  0.6622912E-004  0.9118800E+02  0.7818608E-02  0.1130116E+00
         25   -1    0    0    0    0  0.00000000000E+00  0.00000000000E+00  0.99999998245E-14  0.12500000000E+03  0.12500000000E+03 0.  0.
        -11    1    3    3    0    0  0.70671968312E+01  0.26367271752E+02 -0.37744636993E+02  0.46581497536E+02  0.51100000000E-03 0.  1.
         23    2    1    0    0    0  0.15286982437E+02 -0.17845904851E+02 -0.16286906717E+02  0.96409241311E+02  0.92072310320E+02 0.  0.
         11    1    3    3    0    0  0.82197856062E+01 -0.44213176604E+02  0.21457730276E+02  0.49827743774E+02  0.51100000000E-03 0. -1.
         22    1    1    0    0    0 -0.15286982437E+02  0.17845904851E+02  0.16286906717E+02  0.28590758689E+02  0.00000000000E+00 0.  1.
</event>
<event>
 5    1  0.6622912E-004  0.9118800E+02  0.7818608E-02  0.1130116E+00
         25   -1    0    0    0    0  0.00000000000E+00  0.00000000000E+00  0.99999998245E-14  0.12500000000E+03  0.12500000000E+03 0.  0.
        -11    1    3    3    0    0  0.18888859026E+02  0.44262308304E+02  0.79668543433E+01  0.48779213811E+02  0.51100000000E-03 0.  1.
         23    2    1    0    0    0 -0.15997105833E+02  0.18254019071E+02  0.19578889827E+02  0.93815876890E+02  0.88481462593E+02 0.  0.
         11    1    3    3    0    0 -0.34885964859E+02 -0.26008289233E+02  0.11612035483E+02  0.45036663079E+02  0.51100000000E-03 0. -1.
         22    1    1    0    0    0  0.15997105833E+02 -0.18254019071E+02 -0.19578889827E+02  0.31184123110E+02  0.00000000000E+00 0.  1.
</event>
<event>
 5    1  0.6622912E-004  0.9118800E+02  0.7818608E-02  0.1130116E+00
         25   -1    0    0    0    0  0.00000000000E+00  0.00000000000E+00  0.99999998245E-14  0.12500000000E+03  0.12500000000E+03 0.  0.
        -11    1    3    3    0    0  0.51550167076E+02 -0.27187221871E+02  0.83895036124E+01  0.58880799330E+02  0.51100000000E-03 0. -1.
         23    2    1    0    0    0  0.15657716341E+02 -0.24625330070E+02  0.50121587124E-01  0.95818268142E+02  0.91266461723E+02 0.  0.
         11    1    3    3    0    0 -0.35892450735E+02  0.25618918009E+01 -0.83393820253E+01  0.36937468812E+02  0.51100000000E-03 0.  1.
         22    1    1    0    0    0 -0.15657716341E+02  0.24625330070E+02 -0.50121587124E-01  0.29181731858E+02  0.00000000000E+00 0. -1.
</event>
<event>
 5    1  0.6622912E-004  0.9118800E+02  0.7818608E-02  0.1130116E+00
         25   -1    0    0    0    0  0.00000000000E+00  0.00000000000E+00  0.99999998245E-14  0.12500000000E+03  0.12500000000E+03 0.  0.
        -11    1    3    3    0    0  0.58851515220E+01 -0.77586013825E+01 -0.45802420243E+02  0.46826195706E+02  0.51100000000E-03 0. -1.
         23    2    1    0    0    0  0.28051583457E+02  0.11408314565E+02 -0.99635275926E+01  0.93120337866E+02  0.87493339555E+02 0.  0.
         11    1    3    3    0    0  0.22166431935E+02  0.19166915947E+02  0.35838892651E+02  0.46294142161E+02  0.51100000000E-03 0.  1.
         22    1    1    0    0    0 -0.28051583457E+02 -0.11408314565E+02  0.99635275926E+01  0.31879662134E+02  0.00000000000E+00 0. -1.
</event>
<event>
 5    1  0.6622912E-004  0.9118800E+02  0.7818608E-02  0.1130116E+00
         25   -1    0    0    0    0  0.00000000000E+00  0.00000000000E+00  0.99999998245E-14  0.12500000000E+03  0.12500000000E+03 0.  0.
        -11    1    3    3    0    0  0.21574210241E+02 -0.19920339089E+02 -0.46238671120E+02  0.54774822356E+02  0.51100000000E-03 0.  1.
         23    2    1    0    0    0  0.24412971791E+02  0.64991466519E+01 -0.15697548742E+02  0.95257015359E+02  0.90494496185E+02 0.  0.
         11    1    3    3    0    0  0.28387615497E+01  0.26419485741E+02  0.30541122378E+02  0.40482193003E+02  0.51100000000E-03 0. -1.
         22    1    1    0    0    0 -0.24412971791E+02 -0.64991466519E+01  0.15697548742E+02  0.29742984641E+02  0.00000000000E+00 0.  1.
</event>
<event>
 5    1  0.6622912E-004  0.9118800E+02  0.7818608E-02  0.1130116E+00
         25   -1    0    0    0    0  0.00000000000E+00  0.00000000000E+00  0.99999998245E-14  0.12500000000E+03  0.12500000000E+03 0.  0.
        -11    1    3    3    0    0  0.15093961203E+02  0.48041631969E+01  0.45982246196E+02  0.48634089015E+02  0.51100000000E-03 0. -1.
         23    2    1    0    0    0  0.27375969743E+01 -0.25782479632E+02  0.10655365723E+02  0.96968455057E+02  0.92828410330E+02 0.  0.
         11    1    3    3    0    0 -0.12356364228E+02 -0.30586642829E+02 -0.35326880473E+02  0.48334366042E+02  0.51100000000E-03 0.  1.
         22    1    1    0    0    0 -0.27375969743E+01  0.25782479632E+02 -0.10655365723E+02  0.28031544943E+02  0.00000000000E+00 0.  1.
</event>
<event>
 5    1  0.6622912E-004  0.9118800E+02  0.7818608E-02  0.1130116E+00
         25   -1    0    0    0    0  0.00000000000E+00  0.00000000000E+00  0.99999998245E-14  0.12500000000E+03  0.12500000000E+03 0.  0.
        -11    1    3    3    0    0  0.20968046332E+02  0.12135639609E+02 -0.43890831381E+02  0.50133200529E+02  0.51100000000E-03 0.  1.
         23    2    1    0    0    0  0.30779340140E+02 -0.50141598173E+01 -0.54669646793E+01  0.93339341748E+02  0.87805668593E+02 0.  0.
         11    1    3    3    0    0  0.98112938079E+01 -0.17149799426E+02  0.38423866701E+02  0.43206141220E+02  0.51100000000E-03 0. -1.
         22    1    1    0    0    0 -0.30779340140E+02  0.50141598173E+01  0.54669646793E+01  0.31660658252E+02  0.00000000000E+00 0. -1.
</event>
<event>
 4    1  0.6622912E-004  0.9118800E+02  0.7818608E-02  0.1130116E+00
         25   -1    0    0    0    0  0.00000000000E+00  0.00000000000E+00  0.99999998245E-14  0.12500000000E+03  0.12500000000E+03 0.  0.
        -11    1    1    0    0    0 -0.19723439713E+02 -0.21970207469E+02 -0.17673046388E+02  0.34409891881E+02  0.51100000000E-03 0.  1.
         11    1    1    0    0    0  0.23979786130E+02 -0.61073207892E+01 -0.27649482602E+02  0.37105570990E+02  0.51100000000E-03 0. -1.
         22    1    1    0    0    0 -0.42563464167E+01  0.28077528259E+02  0.45322528989E+02  0.53484537129E+02  0.00000000000E+00 0. -1.
</event>
<event>
 5    1  0.6622912E-004  0.9118800E+02  0.7818608E-02  0.1130116E+00
         25   -1    0    0    0    0  0.00000000000E+00  0.00000000000E+00  0.99999998245E-14  0.12500000000E+03  0.12500000000E+03 0.  0.
        -11    1    3    3    0    0 -0.23114955061E+02 -0.11042675566E+02  0.38351807273E+02  0.46120526369E+02  0.51100000000E-03 0. -1.
         23    2    1    0    0    0 -0.35445045579E+02  0.29096685771E+01 -0.74839285620E+00  0.89427854729E+02  0.82048544669E+02 0.  0.
         11    1    3    3    0    0 -0.12330090517E+02  0.13952344144E+02 -0.39100200130E+02  0.43307328360E+02  0.51100000000E-03 0.  1.
         22    1    1    0    0    0  0.35445045579E+02 -0.29096685771E+01  0.74839285620E+00  0.35572145271E+02  0.00000000000E+00 0.  1.
</event>
<event>
 5    1  0.6622912E-004  0.9118800E+02  0.7818608E-02  0.1130116E+00
         25   -1    0    0    0    0  0.00000000000E+00  0.00000000000E+00  0.99999998245E-14  0.12500000000E+03  0.12500000000E+03 0.  0.
        -11    1    3    3    0    0 -0.56587189947E+01  0.32873545356E+02  0.14733805489E+02  0.36466095341E+02  0.51100000000E-03 0.  1.
         23    2    1    0    0    0 -0.37019732551E+01 -0.26755599402E+02  0.95451880640E+01  0.96352533785E+02  0.91995290349E+02 0.  0.
         11    1    3    3    0    0  0.19567457396E+01 -0.59629144758E+02 -0.51886174253E+01  0.59886438444E+02  0.51100000000E-03 0. -1.
         22    1    1    0    0    0  0.37019732551E+01  0.26755599402E+02 -0.95451880640E+01  0.28647466215E+02  0.00000000000E+00 0. -1.
</event>
<event>
 5    1  0.6622912E-004  0.9118800E+02  0.7818608E-02  0.1130116E+00
         25   -1    0    0    0    0  0.00000000000E+00  0.00000000000E+00  0.99999998245E-14  0.12500000000E+03  0.12500000000E+03 0.  0.
        -11    1    3    3    0    0  0.39491645907E+02  0.23713530713E+02  0.42028053967E+02  0.62356065911E+02  0.51100000000E-03 0.  1.
         23    2    1    0    0    0  0.17022019146E+02  0.11908093821E+02  0.22463277225E+02  0.94403420813E+02  0.89307643588E+02 0.  0.
         11    1    3    3    0    0 -0.22469626760E+02 -0.11805436892E+02 -0.19564776743E+02  0.32047354902E+02  0.51100000000E-03 0. -1.
         22    1    1    0    0    0 -0.17022019146E+02 -0.11908093821E+02 -0.22463277225E+02  0.30596579187E+02  0.00000000000E+00 0.  1.
</event>
<event>
 5    1  0.6622912E-004  0.9118800E+02  0.7818608E-02  0.1130116E+00
         25   -1    0    0    0    0  0.00000000000E+00  0.00000000000E+00  0.99999998245E-14  0.12500000000E+03  0.12500000000E+03 0.  0.
        -11    1    3    3    0    0  0.13867129358E+02 -0.16382056912E+01 -0.38902422214E+02  0.41332547089E+02  0.51100000000E-03 0.  1.
         23    2    1    0    0    0 -0.27296081428E+02 -0.37627840940E+01 -0.84567325654E+00  0.97432813551E+02  0.93451609872E+02 0.  0.
         11    1    3    3    0    0 -0.41163210786E+02 -0.21245784029E+01  0.38056748958E+02  0.56100266462E+02  0.51100000000E-03 0. -1.
         22    1    1    0    0    0  0.27296081428E+02  0.37627840940E+01  0.84567325654E+00  0.27567186449E+02  0.00000000000E+00 0. -1.
</event>
<event>
 5    1  0.6622912E-004  0.9118800E+02  0.7818608E-02  0.1130116E+00
         25   -1    0    0    0    0  0.00000000000E+00  0.00000000000E+00  0.99999998245E-14  0.12500000000E+03  0.12500000000E+03 0.  0.
        -11    1    3    3    0    0 -0.31953392973E+02  0.75949008964E+01 -0.68972539204E+01  0.33560005275E+02  0.51100000000E-03 0. -1.
         23    2    1    0    0    0  0.27725679351E+02 -0.75229267041E+01 -0.81543694573E+01  0.95136954895E+02  0.90328504493E+02 0.  0.
         11    1    3    3    0    0  0.59679072324E+02 -0.15117827600E+02 -0.12571155369E+01  0.61576949621E+02  0.51100000000E-03 0.  1.
         22    1    1    0    0    0 -0.27725679351E+02  0.75229267041E+01  0.81543694573E+01  0.29863045105E+02  0.00000000000E+00 0.  1.
</event>
<event>
 5    1  0.6622912E-004  0.9118800E+02  0.7818608E-02  0.1130116E+00
         25   -1    0    0    0    0  0.00000000000E+00  0.00000000000E+00  0.99999998245E-14  0.12500000000E+03  0.12500000000E+03 0.  0.
        -11    1    3    3    0    0 -0.37170201090E+02 -0.11129594813E+02 -0.87499052368E+01  0.39775024471E+02  0.51100000000E-03 0.  1.
         23    2    1    0    0    0  0.10479933475E+02 -0.16149089827E+02 -0.27672163855E+02  0.91289901212E+02  0.84837935518E+02 0.  0.
         11    1    3    3    0    0  0.47650134564E+02 -0.50194950144E+01 -0.18922258618E+02  0.51514876741E+02  0.51100000000E-03 0. -1.
         22    1    1    0    0    0 -0.10479933475E+02  0.16149089827E+02  0.27672163855E+02  0.33710098788E+02  0.00000000000E+00 0. -1.
</event>
<event>
 5    1  0.6622912E-004  0.9118800E+02  0.7818608E-02  0.1130116E+00
         25   -1    0    0    0    0  0.00000000000E+00  0.00000000000E+00  0.99999998245E-14  0.12500000000E+03  0.12500000000E+03 0.  0.
        -11    1    3    3    0    0 -0.46236083963E+01  0.48789817324E+01  0.60342121866E+02  0.60715351345E+02  0.51100000000E-03 0. -1.
         23    2    1    0    0    0 -0.11453599300E+02  0.65534204278E+01  0.25201350241E+02  0.96552850579E+02  0.92267072375E+02 0.  0.
         11    1    3    3    0    0 -0.68299909038E+01  0.16744386954E+01 -0.35140771625E+02  0.35837499234E+02  0.51100000000E-03 0.  1.
         22    1    1    0    0    0  0.11453599300E+02 -0.65534204278E+01 -0.25201350241E+02  0.28447149421E+02  0.00000000000E+00 0. -1.
</event>
<event>
 5    1  0.6622912E-004  0.9118800E+02  0.7818608E-02  0.1130116E+00
         25   -1    0    0    0    0  0.00000000000E+00  0.00000000000E+00  0.99999998245E-14  0.12500000000E+03  0.12500000000E+03 0.  0.
        -11    1    3    3    0    0 -0.58268010881E+00  0.31896742672E+02 -0.28717980875E+00  0.31903356903E+02  0.51100000000E-03 0.  1.
         23    2    1    0    0    0  0.18256910396E+02 -0.25496558478E+02 -0.75505362671E+01  0.92744769892E+02  0.86955117578E+02 0.  0.
         11    1    3    3    0    0  0.18839590505E+02 -0.57393301149E+02 -0.72633564583E+01  0.60841412989E+02  0.51100000000E-03 0. -1.
         22    1    1    0    0    0 -0.18256910396E+02  0.25496558478E+02  0.75505362671E+01  0.32255230108E+02  0.00000000000E+00 0. -1.
</event>
<event>
 5    1  0.6622912E-004  0.9118800E+02  0.7818608E-02  0.1130116E+00
         25   -1    0    0    0    0  0.00000000000E+00  0.00000000000E+00  0.99999998245E-14  0.12500000000E+03  0.12500000000E+03 0.  0.
        -11    1    3    3    0    0 -0.50715932405E+02  0.28998238279E+02  0.15425312960E+02  0.60423041162E+02  0.51100000000E-03 0.  1.
         23    2    1    0    0    0 -0.17290221653E+02  0.19425987556E+02  0.14543295088E+02  0.95203554082E+02  0.90420619996E+02 0.  0.
         11    1    3    3    0    0  0.33425710753E+02 -0.95722507228E+01 -0.88201787244E+00  0.34780512920E+02  0.51100000000E-03 0. -1.
         22    1    1    0    0    0  0.17290221653E+02 -0.19425987556E+02 -0.14543295088E+02  0.29796445918E+02  0.00000000000E+00 0.  1.
</event>
<event>
 5    1  0.6622912E-004  0.9118800E+02  0.7818608E-02  0.1130116E+00
         25   -1    0    0    0    0  0.00000000000E+00  0.00000000000E+00  0.99999998245E-14  0.12500000000E+03  0.12500000000E+03 0.  0.
        -11    1    3    3    0    0 -0.29670762939E+02 -0.46289253034E+01  0.51465601530E+01  0.30467494228E+02  0.51100000000E-03 0. -1.
         23    2    1    0    0    0  0.21097512676E+02 -0.10600166786E+02 -0.25643391623E+02  0.90142402393E+02  0.83130022243E+02 0.  0.
         11    1    3    3    0    0  0.50768275616E+02 -0.59712414829E+01 -0.30789951776E+02  0.59674908165E+02  0.51100000000E-03 0.  1.
         22    1    1    0    0    0 -0.21097512676E+02  0.10600166786E+02  0.25643391623E+02  0.34857597607E+02  0.00000000000E+00 0.  1.
</event>
<event>
 5    1  0.6622912E-004  0.9118800E+02  0.7818608E-02  0.1130116E+00
         25   -1    0    0    0    0  0.00000000000E+00  0.00000000000E+00  0.99999998245E-14  0.12500000000E+03  0.12500000000E+03 0.  0.
        -11    1    3    3    0    0 -0.46068150600E+02  0.21366189065E+02  0.31301328965E+02  0.59653681614E+02  0.51100000000E-03 0.  1.
         23    2    1    0    0    0 -0.13325625445E+02  0.20583677310E+02  0.15211406372E+02  0.96144377516E+02  0.91712018728E+02 0.  0.
         11    1    3    3    0    0  0.32742525155E+02 -0.78251175449E+00 -0.16089922593E+02  0.36490695903E+02  0.51100000000E-03 0. -1.
         22    1    1    0    0    0  0.13325625445E+02 -0.20583677310E+02 -0.15211406372E+02  0.28855622484E+02  0.00000000000E+00 0.  1.
</event>
<event>
 5    1  0.6622912E-004  0.9118800E+02  0.7818608E-02  0.1130116E+00
         25   -1    0    0    0    0  0.00000000000E+00  0.00000000000E+00  0.99999998245E-14  0.12500000000E+03  0.12500000000E+03 0.  0.
        -11    1    3    3    0    0 -0.48679056249E+02  0.15272923697E+01  0.31844332818E+02  0.58189729954E+02  0.51100000000E-03 0.  1.
         23    2    1    0    0    0 -0.25180096683E+02 -0.12816053587E+02  0.56583340975E+01  0.96184982331E+02  0.91767344861E+02 0.  0.
         11    1    3    3    0    0  0.23498959566E+02 -0.14343345957E+02 -0.26185998721E+02  0.37995252377E+02  0.51100000000E-03 0. -1.
         22    1    1    0    0    0  0.25180096683E+02  0.12816053587E+02 -0.56583340975E+01  0.28815017669E+02  0.00000000000E+00 0. -1.
</event>
<event>
 5    1  0.6622912E-004  0.9118800E+02  0.7818608E-02  0.1130116E+00
         25   -1    0    0    0    0  0.00000000000E+00  0.00000000000E+00  0.99999998245E-14  0.12500000000E+03  0.12500000000E+03 0.  0.
        -11    1    3    3    0    0 -0.48224606284E+02 -0.30247742952E+02  0.12590161154E+02  0.58301378741E+02  0.51100000000E-03 0. -1.
         23    2    1    0    0    0 -0.28565870159E+02 -0.13219084806E+02 -0.91732426844E+01  0.92214309182E+02  0.86189194773E+02 0.  0.
         11    1    3    3    0    0  0.19658736125E+02  0.17028658146E+02 -0.21763403838E+02  0.33912930442E+02  0.51100000000E-03 0.  1.
         22    1    1    0    0    0  0.28565870159E+02  0.13219084806E+02  0.91732426844E+01  0.32785690818E+02  0.00000000000E+00 0. -1.
</event>
<event>
 5    1  0.6622912E-004  0.9118800E+02  0.7818608E-02  0.1130116E+00
         25   -1    0    0    0    0  0.00000000000E+00  0.00000000000E+00  0.99999998245E-14  0.12500000000E+03  0.12500000000E+03 0.  0.
        -11    1    3    3    0    0 -0.21620097845E+02  0.54391585450E+02  0.11983344611E+02  0.59745072993E+02  0.51100000000E-03 0. -1.
         23    2    1    0    0    0 -0.66999492391E+01  0.23479765606E+02 -0.78062627036E+01  0.99365522238E+02  0.96001982060E+02 0.  0.
         11    1    3    3    0    0  0.14920148606E+02 -0.30911819843E+02 -0.19789607315E+02  0.39620449245E+02  0.51100000000E-03 0.  1.
         22    1    1    0    0    0  0.66999492391E+01 -0.23479765606E+02  0.78062627036E+01  0.25634477762E+02  0.00000000000E+00 0. -1.
</event>
<event>
 5    1  0.6622912E-004  0.9118800E+02  0.7818608E-02  0.1130116E+00
         25   -1    0    0    0    0  0.00000000000E+00  0.00000000000E+00  0.99999998245E-14  0.12500000000E+03  0.12500000000E+03 0.  0.
        -11    1    3    3    0    0  0.11972672619E+02 -0.12575362410E+02  0.45374742954E+02  0.48583453230E+02  0.51100000000E-03 0.  1.
         23    2    1    0    0    0 -0.23558955017E+02 -0.91607629969E+01  0.14016248261E+02  0.96096727599E+02  0.91647050687E+02 0.  0.
         11    1    3    3    0    0 -0.35531627636E+02  0.34145994127E+01 -0.31358494692E+02  0.47513274369E+02  0.51100000000E-03 0. -1.
         22    1    1    0    0    0  0.23558955017E+02  0.91607629969E+01 -0.14016248261E+02  0.28903272401E+02  0.00000000000E+00 0.  1.
</event>
<event>
 5    1  0.6622912E-004  0.9118800E+02  0.7818608E-02  0.1130116E+00
         25   -1    0    0    0    0  0.00000000000E+00  0.00000000000E+00  0.99999998245E-14  0.12500000000E+03  0.12500000000E+03 0.  0.
        -11    1    3    3    0    0 -0.27212396133E+02 -0.50484123063E+02 -0.19011749601E+01  0.57382712129E+02  0.51100000000E-03 0. -1.
         23    2    1    0    0    0 -0.26040928900E+02 -0.13379201816E+02  0.54320929987E+01  0.95223488224E+02  0.90448173314E+02 0.  0.
         11    1    3    3    0    0  0.11714672322E+01  0.37104921247E+02  0.73332679588E+01  0.37840776095E+02  0.51100000000E-03 0.  1.
         22    1    1    0    0    0  0.26040928900E+02  0.13379201816E+02 -0.54320929987E+01  0.29776511776E+02  0.00000000000E+00 0. -1.
</event>
<event>
 5    1  0.6622912E-004  0.9118800E+02  0.7818608E-02  0.1130116E+00
         25   -1    0    0    0    0  0.00000000000E+00  0.00000000000E+00  0.99999998245E-14  0.12500000000E+03  0.12500000000E+03 0.  0.
        -11    1    3    3    0    0  0.21410213361E+02 -0.23433371831E+02 -0.17110969464E+02  0.36059748027E+02  0.51100000000E-03 0. -1.
         23    2    1    0    0    0 -0.26555233919E+01  0.21857124880E+02  0.16592594108E+02  0.97430090828E+02  0.93447967913E+02 0.  0.
         11    1    3    3    0    0 -0.24065736753E+02  0.45290496711E+02  0.33703563572E+02  0.61370342801E+02  0.51100000000E-03 0.  1.
         22    1    1    0    0    0  0.26555233919E+01 -0.21857124880E+02 -0.16592594108E+02  0.27569909172E+02  0.00000000000E+00 0.  1.
</event>
<event>
 5    1  0.6622912E-004  0.9118800E+02  0.7818608E-02  0.1130116E+00
         25   -1    0    0    0    0  0.00000000000E+00  0.00000000000E+00  0.99999998245E-14  0.12500000000E+03  0.12500000000E+03 0.  0.
        -11    1    3    3    0    0  0.22191537745E+02 -0.26584710465E+02  0.22562196571E+02  0.41331149178E+02  0.51100000000E-03 0. -1.
         23    2    1    0    0    0  0.48324272596E+01 -0.11907967877E+02 -0.26579985364E+02  0.95476320112E+02  0.90796916401E+02 0.  0.
         11    1    3    3    0    0 -0.17359110486E+02  0.14676742588E+02 -0.49142181935E+02  0.54145170934E+02  0.51100000000E-03 0.  1.
         22    1    1    0    0    0 -0.48324272596E+01  0.11907967877E+02  0.26579985364E+02  0.29523679888E+02  0.00000000000E+00 0. -1.
</event>
<event>
 5    1  0.6622912E-004  0.9118800E+02  0.7818608E-02  0.1130116E+00
         25   -1    0    0    0    0  0.00000000000E+00  0.00000000000E+00  0.99999998245E-14  0.12500000000E+03  0.12500000000E+03 0.  0.
        -11    1    3    3    0    0  0.38889331517E+02  0.46054302384E+02 -0.11931818026E+02  0.61447108602E+02  0.51100000000E-03 0. -1.
         23    2    1    0    0    0  0.13821128586E+02  0.27573542500E+02 -0.21919057324E+01  0.94078675770E+02  0.88851949570E+02 0.  0.
         11    1    3    3    0    0 -0.25068202931E+02 -0.18480759883E+02  0.97399122934E+01  0.32631567168E+02  0.51100000000E-03 0.  1.
         22    1    1    0    0    0 -0.13821128586E+02 -0.27573542500E+02  0.21919057324E+01  0.30921324230E+02  0.00000000000E+00 0. -1.
</event>
<event>
 5    1  0.6622912E-004  0.9118800E+02  0.7818608E-02  0.1130116E+00
         25   -1    0    0    0    0  0.00000000000E+00  0.00000000000E+00  0.99999998245E-14  0.12500000000E+03  0.12500000000E+03 0.  0.
        -11    1    3    3    0    0  0.18153409863E+02 -0.42934083564E+02  0.34180944493E+02  0.57803276618E+02  0.51100000000E-03 0. -1.
         23    2    1    0    0    0  0.22536148045E+02 -0.17610787941E+02  0.63165171733E+01  0.95709793278E+02  0.91117771700E+02 0.  0.
         11    1    3    3    0    0  0.43827381824E+01  0.25323295623E+02 -0.27864427320E+02  0.37906516660E+02  0.51100000000E-03 0.  1.
         22    1    1    0    0    0 -0.22536148045E+02  0.17610787941E+02 -0.63165171733E+01  0.29290206722E+02  0.00000000000E+00 0. -1.
</event>
<event>
 5    1  0.6622912E-004  0.9118800E+02  0.7818608E-02  0.1130116E+00
         25   -1    0    0    0    0  0.00000000000E+00  0.00000000000E+00  0.99999998245E-14  0.12500000000E+03  0.12500000000E+03 0.  0.
        -11    1    3    3    0    0  0.38497906724E+02 -0.94711712168E+01  0.45170800484E+02  0.60101523466E+02  0.51100000000E-03 0.  1.
         23    2    1    0    0    0  0.26078115348E+02  0.39424828139E+01  0.17212232361E+02  0.93505997179E+02  0.88042599319E+02 0.  0.
         11    1    3    3    0    0 -0.12419791376E+02  0.13413654031E+02 -0.27958568123E+02  0.33404473713E+02  0.51100000000E-03 0. -1.
         22    1    1    0    0    0 -0.26078115348E+02 -0.39424828139E+01 -0.17212232361E+02  0.31494002821E+02  0.00000000000E+00 0.  1.
</event>
<event>
 5    1  0.6622912E-004  0.9118800E+02  0.7818608E-02  0.1130116E+00
         25   -1    0    0    0    0  0.00000000000E+00  0.00000000000E+00  0.99999998245E-14  0.12500000000E+03  0.12500000000E+03 0.  0.
        -11    1    3    3    0    0 -0.31625722272E+02  0.73687667960E+01  0.33551551983E+02  0.46692522678E+02  0.51100000000E-03 0. -1.
         23    2    1    0    0    0 -0.15603999473E+02  0.23580568591E+02 -0.93042748765E+01  0.95232609359E+02  0.90460777908E+02 0.  0.
         11    1    3    3    0    0  0.16021722798E+02  0.16211801795E+02 -0.42855826860E+02  0.48540086680E+02  0.51100000000E-03 0.  1.
         22    1    1    0    0    0  0.15603999473E+02 -0.23580568591E+02  0.93042748765E+01  0.29767390641E+02  0.00000000000E+00 0.  1.
</event>
<event>
 5    1  0.6622912E-004  0.9118800E+02  0.7818608E-02  0.1130116E+00
         25   -1    0    0    0    0  0.00000000000E+00  0.00000000000E+00  0.99999998245E-14  0.12500000000E+03  0.12500000000E+03 0.  0.
        -11    1    3    3    0    0  0.29012797222E+02 -0.48913041132E+01  0.14981246198E+02  0.33016738126E+02  0.51100000000E-03 0.  1.
         23    2    1    0    0    0 -0.26199508810E+02  0.53613827563E+01 -0.12434721586E+02  0.95507950430E+02  0.90840451383E+02 0.  0.
         11    1    3    3    0    0 -0.55212306032E+02  0.10252686870E+02 -0.27415967784E+02  0.62491212304E+02  0.51100000000E-03 0. -1.
         22    1    1    0    0    0  0.26199508810E+02 -0.53613827563E+01  0.12434721586E+02  0.29492049570E+02  0.00000000000E+00 0. -1.
</event>
<event>
 5    1  0.6622912E-004  0.9118800E+02  0.7818608E-02  0.1130116E+00
         25   -1    0    0    0    0  0.00000000000E+00  0.00000000000E+00  0.99999998245E-14  0.12500000000E+03  0.12500000000E+03 0.  0.
        -11    1    3    3    0    0  0.31902482417E+02  0.62138776535E+01 -0.14104591885E+02  0.35430497772E+02  0.51100000000E-03 0.  1.
         23    2    1    0    0    0 -0.26135421784E+02 -0.10322144220E+02 -0.48976546700E+01  0.96476431598E+02  0.92163484631E+02 0.  0.
         11    1    3    3    0    0 -0.58037904202E+02 -0.16536021873E+02  0.92069372151E+01  0.61045933826E+02  0.51100000000E-03 0. -1.
         22    1    1    0    0    0  0.26135421784E+02  0.10322144220E+02  0.48976546700E+01  0.28523568402E+02  0.00000000000E+00 0. -1.
</event>
<event>
 5    1  0.6622912E-004  0.9118800E+02  0.7818608E-02  0.1130116E+00
         25   -1    0    0    0    0  0.00000000000E+00  0.00000000000E+00  0.99999998245E-14  0.12500000000E+03  0.12500000000E+03 0.  0.
        -11    1    3    3    0    0  0.93307896335E+01  0.19884797758E+02  0.40878070622E+02  0.46405662101E+02  0.51100000000E-03 0.  1.
         23    2    1    0    0    0  0.11470866400E+02 -0.20015115602E+02  0.28700532538E+02  0.88177368420E+02  0.80120796956E+02 0.  0.
         11    1    3    3    0    0  0.21400767665E+01 -0.39899913360E+02 -0.12177538083E+02  0.41771706318E+02  0.51100000000E-03 0. -1.
         22    1    1    0    0    0 -0.11470866400E+02  0.20015115602E+02 -0.28700532538E+02  0.36822631580E+02  0.00000000000E+00 0. -1.
</event>
<event>
 5    1  0.6622912E-004  0.9118800E+02  0.7818608E-02  0.1130116E+00
         25   -1    0    0    0    0  0.00000000000E+00  0.00000000000E+00  0.99999998245E-14  0.12500000000E+03  0.12500000000E+03 0.  0.
        -11    1    3    3    0    0 -0.34187172232E+02 -0.24346594646E+02  0.25854402489E+02  0.49294721263E+02  0.51100000000E-03 0.  1.
         23    2    1    0    0    0 -0.18326578621E+01  0.81451690383E+01  0.28576597002E+02  0.95228800667E+02  0.90455514850E+02 0.  0.
         11    1    3    3    0    0  0.32354514370E+02  0.32491763684E+02  0.27221945138E+01  0.45934079404E+02  0.51100000000E-03 0. -1.
         22    1    1    0    0    0  0.18326578621E+01 -0.81451690383E+01 -0.28576597002E+02  0.29771199333E+02  0.00000000000E+00 0.  1.
</event>
<event>
 5    1  0.6622912E-004  0.9118800E+02  0.7818608E-02  0.1130116E+00
         25   -1    0    0    0    0  0.00000000000E+00  0.00000000000E+00  0.99999998245E-14  0.12500000000E+03  0.12500000000E+03 0.  0.
        -11    1    3    3    0    0  0.20915550480E+02 -0.50897989207E+02 -0.12808656539E+02  0.56498913616E+02  0.51100000000E-03 0.  1.
         23    2    1    0    0    0 -0.95676091624E+01 -0.26705222579E+02 -0.48534335265E+01  0.96220426079E+02  0.91815611526E+02 0.  0.
         11    1    3    3    0    0 -0.30483159642E+02  0.24192766629E+02  0.79552230125E+01  0.39721512463E+02  0.51100000000E-03 0. -1.
         22    1    1    0    0    0  0.95676091624E+01  0.26705222579E+02  0.48534335265E+01  0.28779573921E+02  0.00000000000E+00 0.  1.
</event>
<event>
 5    1  0.6622912E-004  0.9118800E+02  0.7818608E-02  0.1130116E+00
         25   -1    0    0    0    0  0.00000000000E+00  0.00000000000E+00  0.99999998245E-14  0.12500000000E+03  0.12500000000E+03 0.  0.
        -11    1    3    3    0    0 -0.14595384996E+02 -0.29696584673E+02 -0.87185730056E+01  0.34218794835E+02  0.51100000000E-03 0.  1.
         23    2    1    0    0    0 -0.73468396740E+01  0.28332419253E+02  0.72623406797E+01  0.94843016960E+02  0.89920822061E+02 0.  0.
         11    1    3    3    0    0  0.72485453221E+01  0.58029003926E+02  0.15980913685E+02  0.60624222126E+02  0.51100000000E-03 0. -1.
         22    1    1    0    0    0  0.73468396740E+01 -0.28332419253E+02 -0.72623406797E+01  0.30156983040E+02  0.00000000000E+00 0. -1.
</event>
<event>
 5    1  0.6622912E-004  0.9118800E+02  0.7818608E-02  0.1130116E+00
         25   -1    0    0    0    0  0.00000000000E+00  0.00000000000E+00  0.99999998245E-14  0.12500000000E+03  0.12500000000E+03 0.  0.
        -11    1    3    3    0    0 -0.45906653886E+02  0.23669685820E+02 -0.34505690109E+01  0.51764672554E+02  0.51100000000E-03 0.  1.
         23    2    1    0    0    0 -0.14941841594E+02 -0.15652931069E+01  0.21432571160E+02  0.98826275021E+02  0.95297265203E+02 0.  0.
         11    1    3    3    0    0  0.30964812292E+02 -0.25234978927E+02  0.24883140171E+02  0.47061602467E+02  0.51100000000E-03 0. -1.
         22    1    1    0    0    0  0.14941841594E+02  0.15652931069E+01 -0.21432571160E+02  0.26173724979E+02  0.00000000000E+00 0. -1.
</event>
<event>
 5    1  0.6622912E-004  0.9118800E+02  0.7818608E-02  0.1130116E+00
         25   -1    0    0    0    0  0.00000000000E+00  0.00000000000E+00  0.99999998245E-14  0.12500000000E+03  0.12500000000E+03 0.  0.
        -11    1    3    3    0    0  0.21141117762E+02  0.27795223589E+02 -0.52221289058E+01  0.35309941166E+02  0.51100000000E-03 0. -1.
         23    2    1    0    0    0 -0.16429867519E+02 -0.11703049707E+02  0.21068544858E+02  0.95831772396E+02  0.91284955491E+02 0.  0.
         11    1    3    3    0    0 -0.37570985281E+02 -0.39498273295E+02  0.26290673764E+02  0.60521831230E+02  0.51100000000E-03 0.  1.
         22    1    1    0    0    0  0.16429867519E+02  0.11703049707E+02 -0.21068544858E+02  0.29168227604E+02  0.00000000000E+00 0.  1.
</event>
<event>
 5    1  0.6622912E-004  0.9118800E+02  0.7818608E-02  0.1130116E+00
         25   -1    0    0    0    0  0.00000000000E+00  0.00000000000E+00  0.99999998245E-14  0.12500000000E+03  0.12500000000E+03 0.  0.
        -11    1    3    3    0    0 -0.23950438669E+02 -0.28932540930E+02  0.20770514370E+02  0.42920038497E+02  0.51100000000E-03 0.  1.
         23    2    1    0    0    0  0.17343410242E+02  0.34209228242E+01  0.23668202684E+02  0.95458835329E+02  0.90772841931E+02 0.  0.
         11    1    3    3    0    0  0.41293848911E+02  0.32353463754E+02  0.28976883141E+01  0.52538796833E+02  0.51100000000E-03 0. -1.
         22    1    1    0    0    0 -0.17343410242E+02 -0.34209228242E+01 -0.23668202684E+02  0.29541164671E+02  0.00000000000E+00 0.  1.
</event>
<event>
 5    1  0.6622912E-004  0.9118800E+02  0.7818608E-02  0.1130116E+00
         25   -1    0    0    0    0  0.00000000000E+00  0.00000000000E+00  0.99999998245E-14  0.12500000000E+03  0.12500000000E+03 0.  0.
        -11    1    3    3    0    0 -0.35700828215E+02  0.46604400369E+02  0.10976045805E+02  0.59724307035E+02  0.51100000000E-03 0.  1.
         23    2    1    0    0    0 -0.22620047247E+02  0.23558598137E+02 -0.68079130351E+01  0.91638019191E+02  0.85349310470E+02 0.  0.
         11    1    3    3    0    0  0.13080780968E+02 -0.23045802233E+02 -0.17783958840E+02  0.31913712156E+02  0.51100000000E-03 0. -1.
         22    1    1    0    0    0  0.22620047247E+02 -0.23558598137E+02  0.68079130351E+01  0.33361980809E+02  0.00000000000E+00 0.  1.
</event>
<event>
 5    1  0.6622912E-004  0.9118800E+02  0.7818608E-02  0.1130116E+00
         25   -1    0    0    0    0  0.00000000000E+00  0.00000000000E+00  0.99999998245E-14  0.12500000000E+03  0.12500000000E+03 0.  0.
        -11    1    3    3    0    0 -0.26582533064E+02  0.27831410644E+02  0.64009876365E+01  0.39015267852E+02  0.51100000000E-03 0.  1.
         23    2    1    0    0    0 -0.26158601587E+01 -0.97887793780E+01 -0.27920989058E+02  0.95297398160E+02  0.90550259745E+02 0.  0.
         11    1    3    3    0    0  0.23966672906E+02 -0.37620190022E+02 -0.34321976695E+02  0.56282130308E+02  0.51100000000E-03 0. -1.
         22    1    1    0    0    0  0.26158601587E+01  0.97887793780E+01  0.27920989058E+02  0.29702601840E+02  0.00000000000E+00 0. -1.
</event>
<event>
 5    1  0.6622912E-004  0.9118800E+02  0.7818608E-02  0.1130116E+00
         25   -1    0    0    0    0  0.00000000000E+00  0.00000000000E+00  0.99999998245E-14  0.12500000000E+03  0.12500000000E+03 0.  0.
        -11    1    3    3    0    0 -0.34574603121E+00  0.51534554630E+02  0.25208338860E+02  0.57370638916E+02  0.51100000000E-03 0. -1.
         23    2    1    0    0    0  0.15055599486E+02  0.20320281281E+02  0.20399004877E+02  0.92508396359E+02  0.86614658631E+02 0.  0.
         11    1    3    3    0    0  0.15401345517E+02 -0.31214273350E+02 -0.48093339827E+01  0.35137757443E+02  0.51100000000E-03 0.  1.
         22    1    1    0    0    0 -0.15055599486E+02 -0.20320281281E+02 -0.20399004877E+02  0.32491603641E+02  0.00000000000E+00 0. -1.
</event>
<event>
 5    1  0.6622912E-004  0.9118800E+02  0.7818608E-02  0.1130116E+00
         25   -1    0    0    0    0  0.00000000000E+00  0.00000000000E+00  0.99999998245E-14  0.12500000000E+03  0.12500000000E+03 0.  0.
        -11    1    3    3    0    0 -0.38628264216E+02  0.14978698107E+02  0.32194405969E+02  0.52468885725E+02  0.51100000000E-03 0.  1.
         23    2    1    0    0    0  0.47683872510E+01  0.13746185415E+02  0.24420672339E+02  0.96573526987E+02  0.92295079754E+02 0.  0.
         11    1    3    3    0    0  0.43396651467E+02 -0.12325126917E+01 -0.77737336292E+01  0.44104641262E+02  0.51100000000E-03 0. -1.
         22    1    1    0    0    0 -0.47683872510E+01 -0.13746185415E+02 -0.24420672339E+02  0.28426473013E+02  0.00000000000E+00 0.  1.
</event>
<event>
 5    1  0.6622912E-004  0.9118800E+02  0.7818608E-02  0.1130116E+00
         25   -1    0    0    0    0  0.00000000000E+00  0.00000000000E+00  0.99999998245E-14  0.12500000000E+03  0.12500000000E+03 0.  0.
        -11    1    3    3    0    0  0.20420383189E+02  0.31325647746E+02 -0.25737419304E+01  0.37482161145E+02  0.51100000000E-03 0.  1.
         23    2    1    0    0    0  0.43602896541E+02 -0.54851910811E+01 -0.12975032108E+00  0.81053251052E+02  0.68105159592E+02 0.  0.
         11    1    3    3    0    0  0.23182513352E+02 -0.36810838827E+02  0.24439916093E+01  0.43571089908E+02  0.51100000000E-03 0. -1.
         22    1    1    0    0    0 -0.43602896541E+02  0.54851910811E+01  0.12975032108E+00  0.43946748948E+02  0.00000000000E+00 0.  1.
</event>
<event>
 5    1  0.6622912E-004  0.9118800E+02  0.7818608E-02  0.1130116E+00
         25   -1    0    0    0    0  0.00000000000E+00  0.00000000000E+00  0.99999998245E-14  0.12500000000E+03  0.12500000000E+03 0.  0.
        -11    1    3    3    0    0 -0.18980580966E+02  0.33632067166E+02 -0.18607995795E+02  0.42867655679E+02  0.51100000000E-03 0.  1.
         23    2    1    0    0    0 -0.16710896177E+02  0.48641891245E+01  0.24624083165E+02  0.94846063961E+02  0.89925057633E+02 0.  0.
         11    1    3    3    0    0  0.22696847887E+01 -0.28767878041E+02  0.43232078961E+02  0.51978408282E+02  0.51100000000E-03 0. -1.
         22    1    1    0    0    0  0.16710896177E+02 -0.48641891245E+01 -0.24624083165E+02  0.30153936039E+02  0.00000000000E+00 0.  1.
</event>
<event>
 5    1  0.6622912E-004  0.9118800E+02  0.7818608E-02  0.1130116E+00
         25   -1    0    0    0    0  0.00000000000E+00  0.00000000000E+00  0.99999998245E-14  0.12500000000E+03  0.12500000000E+03 0.  0.
        -11    1    3    3    0    0 -0.18842788148E+02  0.10566477506E+02  0.82181410741E+01  0.23113609736E+02  0.51100000000E-03 0. -1.
         23    2    1    0    0    0  0.32946505843E+02  0.16058646912E+02  0.28055085636E+02  0.78843307983E+02  0.63920473995E+02 0.  0.
         11    1    3    3    0    0  0.51789293991E+02  0.54921694068E+01  0.19836944562E+02  0.55729698247E+02  0.51100000000E-03 0.  1.
         22    1    1    0    0    0 -0.32946505843E+02 -0.16058646912E+02 -0.28055085636E+02  0.46156692017E+02  0.00000000000E+00 0.  1.
</event>
<event>
 5    1  0.6622912E-004  0.9118800E+02  0.7818608E-02  0.1130116E+00
         25   -1    0    0    0    0  0.00000000000E+00  0.00000000000E+00  0.99999998245E-14  0.12500000000E+03  0.12500000000E+03 0.  0.
        -11    1    3    3    0    0  0.31990985345E+02 -0.43171165741E+01 -0.18776547859E+02  0.37344603206E+02  0.51100000000E-03 0. -1.
         23    2    1    0    0    0 -0.13295739752E+02  0.25457940527E+02  0.37454691086E+01  0.96036022886E+02  0.91564216381E+02 0.  0.
         11    1    3    3    0    0 -0.45286725098E+02  0.29775057101E+02  0.22522016968E+02  0.58691419679E+02  0.51100000000E-03 0.  1.
         22    1    1    0    0    0  0.13295739752E+02 -0.25457940527E+02 -0.37454691086E+01  0.28963977114E+02  0.00000000000E+00 0.  1.
</event>
<event>
 5    1  0.6622912E-004  0.9118800E+02  0.7818608E-02  0.1130116E+00
         25   -1    0    0    0    0  0.00000000000E+00  0.00000000000E+00  0.99999998245E-14  0.12500000000E+03  0.12500000000E+03 0.  0.
        -11    1    3    3    0    0  0.42050460915E+02  0.43824368155E+02  0.11923919743E+02  0.61895043174E+02  0.51100000000E-03 0.  1.
         23    2    1    0    0    0  0.23730227002E+02  0.15894603289E+02  0.58752478532E+01  0.95840428250E+02  0.91296807516E+02 0.  0.
         11    1    3    3    0    0 -0.18320233912E+02 -0.27929764866E+02 -0.60486718894E+01  0.33945385076E+02  0.51100000000E-03 0. -1.
         22    1    1    0    0    0 -0.23730227002E+02 -0.15894603289E+02 -0.58752478532E+01  0.29159571750E+02  0.00000000000E+00 0.  1.
</event>
<event>
 5    1  0.6622912E-004  0.9118800E+02  0.7818608E-02  0.1130116E+00
         25   -1    0    0    0    0  0.00000000000E+00  0.00000000000E+00  0.99999998245E-14  0.12500000000E+03  0.12500000000E+03 0.  0.
        -11    1    3    3    0    0  0.13201535484E+02 -0.45646792965E+02 -0.23684842172E+02  0.53093144530E+02  0.51100000000E-03 0. -1.
         23    2    1    0    0    0 -0.14318825195E+02 -0.25550371920E+02  0.18151915212E+01  0.95654724733E+02  0.91042194522E+02 0.  0.
         11    1    3    3    0    0 -0.27520360680E+02  0.20096421045E+02  0.25500033693E+02  0.42561580203E+02  0.51100000000E-03 0.  1.
         22    1    1    0    0    0  0.14318825195E+02  0.25550371920E+02 -0.18151915212E+01  0.29345275267E+02  0.00000000000E+00 0. -1.
</event>
<event>
 5    1  0.6622912E-004  0.9118800E+02  0.7818608E-02  0.1130116E+00
         25   -1    0    0    0    0  0.00000000000E+00  0.00000000000E+00  0.99999998245E-14  0.12500000000E+03  0.12500000000E+03 0.  0.
        -11    1    3    3    0    0  0.10530456557E+01  0.29932714118E+02 -0.34497406160E+02  0.45685307393E+02  0.51100000000E-03 0. -1.
         23    2    1    0    0    0 -0.17446034845E+02 -0.14166862933E+02 -0.17773081008E+02  0.96347835236E+02  0.91988905902E+02 0.  0.
         11    1    3    3    0    0 -0.18499080500E+02 -0.44099577050E+02  0.16724325152E+02  0.50662527843E+02  0.51100000000E-03 0.  1.
         22    1    1    0    0    0  0.17446034845E+02  0.14166862933E+02  0.17773081008E+02  0.28652164764E+02  0.00000000000E+00 0.  1.
</event>
<event>
 5    1  0.6622912E-004  0.9118800E+02  0.7818608E-02  0.1130116E+00
         25   -1    0    0    0    0  0.00000000000E+00  0.00000000000E+00  0.99999998245E-14  0.12500000000E+03  0.12500000000E+03 0.  0.
        -11    1    3    3    0    0 -0.45152934264E+01 -0.22651267684E+02  0.18651793952E+02  0.29687661078E+02  0.51100000000E-03 0. -1.
         23    2    1    0    0    0 -0.28202263406E+02  0.27597804159E+01 -0.26191599498E+02  0.86412645421E+02  0.77318570572E+02 0.  0.
         11    1    3    3    0    0 -0.23686969979E+02  0.25411048100E+02 -0.44843393450E+02  0.56724984343E+02  0.51100000000E-03 0.  1.
         22    1    1    0    0    0  0.28202263406E+02 -0.27597804159E+01  0.26191599498E+02  0.38587354579E+02  0.00000000000E+00 0.  1.
</event>
<event>
 5    1  0.6622912E-004  0.9118800E+02  0.7818608E-02  0.1130116E+00
         25   -1    0    0    0    0  0.00000000000E+00  0.00000000000E+00  0.99999998245E-14  0.12500000000E+03  0.12500000000E+03 0.  0.
        -11    1    3    3    0    0  0.39309064568E+02  0.22870734739E+02 -0.10396295174E+01  0.45490151621E+02  0.51100000000E-03 0. -1.
         23    2    1    0    0    0 -0.11177864440E+02  0.25225829408E+02  0.66627243526E+01  0.96615514475E+02  0.92351928072E+02 0.  0.
         11    1    3    3    0    0 -0.50486929008E+02  0.23550946684E+01  0.77023538700E+01  0.51125362854E+02  0.51100000000E-03 0.  1.
         22    1    1    0    0    0  0.11177864440E+02 -0.25225829408E+02 -0.66627243526E+01  0.28384485525E+02  0.00000000000E+00 0.  1.
</event>
<event>
 5    1  0.6622912E-004  0.9118800E+02  0.7818608E-02  0.1130116E+00
         25   -1    0    0    0    0  0.00000000000E+00  0.00000000000E+00  0.99999998245E-14  0.12500000000E+03  0.12500000000E+03 0.  0.
        -11    1    3    3    0    0 -0.43793608665E+02  0.21750990018E+02 -0.22181033201E+02  0.53693425676E+02  0.51100000000E-03 0. -1.
         23    2    1    0    0    0 -0.10859010479E+02  0.26715529704E+02  0.37699467058E+01  0.95916497217E+02  0.91400898816E+02 0.  0.
         11    1    3    3    0    0  0.32934598186E+02  0.49645396857E+01  0.25950979907E+02  0.42223071541E+02  0.51100000000E-03 0.  1.
         22    1    1    0    0    0  0.10859010479E+02 -0.26715529704E+02 -0.37699467058E+01  0.29083502783E+02  0.00000000000E+00 0. -1.
</event>
